<event>
 6    1  0.1719556E-004  0.2321388E+04  0.7818608E-02  0.8469535E-01
         -1   -1    0    0    0  501 -0.00000000000E+00  0.00000000000E+00  0.57408368183E+03  0.57408368183E+03  0.00000000000E+00 0. -1.
          1   -1    0    0  501    0  0.00000000000E+00 -0.00000000000E+00 -0.23467149961E+04  0.23467149961E+04  0.00000000000E+00 0.  1.
         23    2    1    2    0    0 -0.11110478718E+04 -0.31153981849E+03 -0.75198558929E+03  0.13802785944E+04  0.90566216531E+02 0.  0.
         13    1    3    3    0    0 -0.66747935756E+03 -0.19168448308E+03 -0.50471469857E+03  0.85849202721E+03  0.00000000000E+00 0. -1.
        -13    1    3    3    0    0 -0.44356851426E+03 -0.11985533541E+03 -0.24727089072E+03  0.52178656716E+03  0.00000000000E+00 0.  1.
         22    1    1    2    0    0  0.11110478718E+04  0.31153981849E+03 -0.10206457250E+04  0.15405200836E+04  0.00000000000E+00 0.  1.
<mgrwt>
<rscale>  0 0.23213882E+04</rscale>
<asrwt>0</asrwt>
<pdfrwt beam="1">  1        1 0.36103307E+00 0.23213882E+04</pdfrwt>
<pdfrwt beam="2">  1       -1 0.88320567E-01 0.23213882E+04</pdfrwt>
<totfact> 0.19634560E+00</totfact>
</mgrwt>
</event>
<event>
 6    1  0.1719556E-004  0.2873019E+04  0.7818608E-02  0.8280951E-01
          2   -1    0    0  501    0  0.00000000000E+00  0.00000000000E+00  0.45599833840E+04  0.45599833840E+04  0.00000000000E+00 0.  1.
         -2   -1    0    0    0  501 -0.00000000000E+00 -0.00000000000E+00 -0.45253651273E+03  0.45253651273E+03  0.00000000000E+00 0. -1.
         23    2    1    2    0    0  0.74378337703E+03  0.11904247689E+04  0.15355149165E+04  0.20824757294E+04  0.92597313907E+02 0.  0.
         13    1    3    3    0    0  0.63294850703E+03  0.99625674520E+03  0.13373534711E+04  0.17837224060E+04  0.00000000000E+00 0. -1.
        -13    1    3    3    0    0  0.11083487000E+03  0.19416802369E+03  0.19816144535E+03  0.29875332343E+03  0.00000000000E+00 0.  1.
         22    1    1    2    0    0 -0.74378337703E+03 -0.11904247689E+04  0.25719319547E+04  0.29300441673E+04  0.00000000000E+00 0. -1.
<mgrwt>
<rscale>  0 0.28730186E+04</rscale>
<asrwt>0</asrwt>
<pdfrwt beam="1">  1        2 0.70153587E+00 0.28730186E+04</pdfrwt>
<pdfrwt beam="2">  1       -2 0.69621005E-01 0.28730186E+04</pdfrwt>
<totfact> 0.17472433E-01</totfact>
</mgrwt>
</event>
<event>
 6    1  0.1719556E-004  0.2349784E+04  0.7818608E-02  0.8458547E-01
          1   -1    0    0  501    0  0.00000000000E+00  0.00000000000E+00  0.10258988166E+04  0.10258988166E+04  0.00000000000E+00 0.  1.
         -1   -1    0    0    0  501 -0.00000000000E+00 -0.00000000000E+00 -0.13455231753E+04  0.13455231753E+04  0.00000000000E+00 0. -1.
         23    2    1    2    0    0 -0.30825672574E+02 -0.93694329011E+03 -0.87186471549E+03  0.12834043621E+04  0.90364393610E+02 0.  0.
         13    1    3    3    0    0 -0.48236846688E+02 -0.49825826606E+03 -0.50787568399E+03  0.71310995187E+03  0.00000000000E+00 0.  1.
        -13    1    3    3    0    0  0.17411174113E+02 -0.43868502405E+03 -0.36398903151E+03  0.57029441026E+03  0.00000000000E+00 0. -1.
         22    1    1    2    0    0  0.30825672574E+02  0.93694329011E+03  0.55224035687E+03  0.10880176298E+04  0.00000000000E+00 0.  1.
<mgrwt>
<rscale>  0 0.23497835E+04</rscale>
<asrwt>0</asrwt>
<pdfrwt beam="1">  1        1 0.15783059E+00 0.23497835E+04</pdfrwt>
<pdfrwt beam="2">  1       -1 0.20700357E+00 0.23497835E+04</pdfrwt>
<totfact> 0.17515733E+00</totfact>
</mgrwt>
</event>
<event>
 6    1  0.1719556E-004  0.1122602E+04  0.7818608E-02  0.9183438E-01
         -1   -1    0    0    0  501 -0.00000000000E+00  0.00000000000E+00  0.38358269954E+03  0.38358269954E+03  0.00000000000E+00 0.  1.
          1   -1    0    0  501    0  0.00000000000E+00 -0.00000000000E+00 -0.82135867074E+03  0.82135867074E+03  0.00000000000E+00 0. -1.
         23    2    1    2    0    0  0.13481506510E+03  0.45202030850E+03 -0.53944442758E+03  0.72241268089E+03  0.91555065321E+02 0.  0.
         11    1    3    3    0    0  0.20385726124E+02  0.78134631783E+02 -0.15111587992E+03  0.17133770069E+03  0.00000000000E+00 0. -1.
        -11    1    3    3    0    0  0.11442933898E+03  0.37388567671E+03 -0.38832854766E+03  0.55107498019E+03  0.00000000000E+00 0.  1.
         22    1    1    2    0    0 -0.13481506510E+03 -0.45202030850E+03  0.10166845638E+03  0.48252868940E+03  0.00000000000E+00 0. -1.
<mgrwt>
<rscale>  0 0.11226023E+04</rscale>
<asrwt>0</asrwt>
<pdfrwt beam="1">  1        1 0.12636287E+00 0.11226023E+04</pdfrwt>
<pdfrwt beam="2">  1       -1 0.59012723E-01 0.11226023E+04</pdfrwt>
<totfact> 0.61358246E+01</totfact>
</mgrwt>
</event>
<event>
 6    1  0.1719556E-004  0.1916032E+04  0.7818608E-02  0.8646917E-01
          2   -1    0    0  501    0  0.00000000000E+00  0.00000000000E+00  0.13020720683E+04  0.13020720683E+04  0.00000000000E+00 0. -1.
         -2   -1    0    0    0  501 -0.00000000000E+00 -0.00000000000E+00 -0.70487221271E+03  0.70487221271E+03  0.00000000000E+00 0.  1.
         23    2    1    2    0    0  0.75227374053E+03 -0.59344736866E+02 -0.31536816384E+03  0.82279143254E+03  0.89950454238E+02 0.  0.
         13    1    3    3    0    0  0.62108875725E+03 -0.15509350379E+02 -0.24813204328E+03  0.66900022065E+03  0.00000000000E+00 0. -1.
        -13    1    3    3    0    0  0.13118498328E+03 -0.43835386487E+02 -0.67236120557E+02  0.15379121189E+03  0.00000000000E+00 0.  1.
         22    1    1    2    0    0 -0.75227374053E+03  0.59344736866E+02  0.91256801942E+03  0.11841528485E+04  0.00000000000E+00 0. -1.
<mgrwt>
<rscale>  0 0.19160318E+04</rscale>
<asrwt>0</asrwt>
<pdfrwt beam="1">  1        2 0.20031878E+00 0.19160318E+04</pdfrwt>
<pdfrwt beam="2">  1       -2 0.10844188E+00 0.19160318E+04</pdfrwt>
<totfact> 0.10488943E+01</totfact>
</mgrwt>
</event>
<event>
 6    1  0.1719556E-004  0.1429497E+04  0.7818608E-02  0.8932740E-01
         -3   -1    0    0    0  501 -0.00000000000E+00  0.00000000000E+00  0.77160848604E+03  0.77160848604E+03  0.00000000000E+00 0. -1.
          3   -1    0    0  501    0  0.00000000000E+00 -0.00000000000E+00 -0.66207833178E+03  0.66207833178E+03  0.00000000000E+00 0.  1.
         23    2    1    2    0    0  0.25377900895E+03 -0.21491101224E+03  0.68620046934E+03  0.76799981866E+03  0.91444566701E+02 0.  0.
         11    1    3    3    0    0  0.65775793816E+02 -0.36635984321E+02  0.86209447825E+02  0.11445837363E+03  0.00000000000E+00 0.  1.
        -11    1    3    3    0    0  0.18800321513E+03 -0.17827502791E+03  0.59999102151E+03  0.65354144503E+03  0.00000000000E+00 0. -1.
         22    1    1    2    0    0 -0.25377900895E+03  0.21491101224E+03 -0.57667031507E+03  0.66568699916E+03  0.00000000000E+00 0.  1.
<mgrwt>
<rscale>  0 0.14294968E+04</rscale>
<asrwt>0</asrwt>
<pdfrwt beam="1">  1        3 0.10185820E+00 0.14294968E+04</pdfrwt>
<pdfrwt beam="2">  1       -3 0.11870900E+00 0.14294968E+04</pdfrwt>
<totfact> 0.12378310E+00</totfact>
</mgrwt>
</event>
<event>
 6    1  0.1719556E-004  0.2218912E+04  0.7818608E-02  0.8510598E-01
          2   -1    0    0  501    0  0.00000000000E+00  0.00000000000E+00  0.10339592825E+04  0.10339592825E+04  0.00000000000E+00 0.  1.
         -2   -1    0    0    0  501 -0.00000000000E+00 -0.00000000000E+00 -0.11904649596E+04  0.11904649596E+04  0.00000000000E+00 0. -1.
         23    2    1    2    0    0  0.97339257563E+03  0.18761030158E+03  0.41670931583E+03  0.10793189370E+04  0.92692946638E+02 0.  0.
         11    1    3    3    0    0  0.14078949207E+03 -0.52644630497E+01  0.53863547422E+02  0.15083327680E+03  0.00000000000E+00 0. -1.
        -11    1    3    3    0    0  0.83260308356E+03  0.19287476463E+03  0.36284576841E+03  0.92848566022E+03  0.00000000000E+00 0.  1.
         22    1    1    2    0    0 -0.97339257563E+03 -0.18761030158E+03 -0.57321499295E+03  0.11451053051E+04  0.00000000000E+00 0. -1.
<mgrwt>
<rscale>  0 0.22189117E+04</rscale>
<asrwt>0</asrwt>
<pdfrwt beam="1">  1        2 0.15907066E+00 0.22189117E+04</pdfrwt>
<pdfrwt beam="2">  1       -2 0.18314846E+00 0.22189117E+04</pdfrwt>
<totfact> 0.37715762E+00</totfact>
</mgrwt>
</event>
<event>
 6    1  0.1719556E-004  0.2872788E+04  0.7818608E-02  0.8281020E-01
          2   -1    0    0  501    0  0.00000000000E+00  0.00000000000E+00  0.19499830726E+04  0.19499830726E+04  0.00000000000E+00 0.  1.
         -2   -1    0    0    0  501 -0.00000000000E+00 -0.00000000000E+00 -0.10580746661E+04  0.10580746661E+04  0.00000000000E+00 0. -1.
         23    2    1    2    0    0 -0.24751646012E+03  0.12662612467E+04  0.11040102759E+04  0.17005145670E+04  0.90714720896E+02 0.  0.
         13    1    3    3    0    0 -0.83911179197E+02  0.39838228033E+03  0.40422625164E+03  0.57371455428E+03  0.00000000000E+00 0.  1.
        -13    1    3    3    0    0 -0.16360528093E+03  0.86787896632E+03  0.69978402425E+03  0.11268000127E+04  0.00000000000E+00 0. -1.
         22    1    1    2    0    0  0.24751646012E+03 -0.12662612467E+04 -0.21210186941E+03  0.13075431717E+04  0.00000000000E+00 0. -1.
<mgrwt>
<rscale>  0 0.28727880E+04</rscale>
<asrwt>0</asrwt>
<pdfrwt beam="1">  1        2 0.29999740E+00 0.28727880E+04</pdfrwt>
<pdfrwt beam="2">  1       -2 0.16278072E+00 0.28727880E+04</pdfrwt>
<totfact> 0.14807485E+00</totfact>
</mgrwt>
</event>
<event>
 6    1  0.1719556E-004  0.2250538E+04  0.7818608E-02  0.8497683E-01
         -1   -1    0    0    0  501 -0.00000000000E+00  0.00000000000E+00  0.48413687745E+03  0.48413687745E+03  0.00000000000E+00 0. -1.
          1   -1    0    0  501    0  0.00000000000E+00 -0.00000000000E+00 -0.26154377542E+04  0.26154377542E+04  0.00000000000E+00 0.  1.
         23    2    1    2    0    0  0.56541756505E+03  0.24601119588E+03 -0.23607684230E+04  0.24416431108E+04  0.90415720075E+02 0.  0.
         13    1    3    3    0    0  0.39280840493E+03  0.19975798359E+03 -0.15509200867E+04  0.16123134963E+04  0.00000000000E+00 0. -1.
        -13    1    3    3    0    0  0.17260916013E+03  0.46253212298E+02 -0.80984833626E+03  0.82932961454E+03  0.00000000000E+00 0.  1.
         22    1    1    2    0    0 -0.56541756505E+03 -0.24601119588E+03  0.22946754619E+03  0.65793152085E+03  0.00000000000E+00 0. -1.
<mgrwt>
<rscale>  0 0.22505376E+04</rscale>
<asrwt>0</asrwt>
<pdfrwt beam="1">  1        1 0.40237504E+00 0.22505376E+04</pdfrwt>
<pdfrwt beam="2">  1       -1 0.74482597E-01 0.22505376E+04</pdfrwt>
<totfact> 0.18533701E+00</totfact>
</mgrwt>
</event>
<event>
 6    1  0.1719556E-004  0.3438474E+04  0.7818608E-02  0.8128528E-01
         -2   -1    0    0    0  501 -0.00000000000E+00  0.00000000000E+00  0.73186640115E+03  0.73186640115E+03  0.00000000000E+00 0. -1.
          2   -1    0    0  501    0  0.00000000000E+00 -0.00000000000E+00 -0.40386828819E+04  0.40386828819E+04  0.00000000000E+00 0.  1.
         23    2    1    2    0    0  0.12735255905E+04  0.72596175544E+03 -0.41179147451E+03  0.15255442466E+04  0.93942160689E+02 0.  0.
         13    1    3    3    0    0  0.13818928821E+03  0.52958917660E+02 -0.59621453608E+02  0.15954824996E+03  0.00000000000E+00 0.  1.
        -13    1    3    3    0    0  0.11353363023E+04  0.67300283778E+03 -0.35217002090E+03  0.13659959966E+04  0.00000000000E+00 0. -1.
         22    1    1    2    0    0 -0.12735255905E+04 -0.72596175544E+03 -0.28950250062E+04  0.32450050365E+04  0.00000000000E+00 0.  1.
<mgrwt>
<rscale>  0 0.34384743E+04</rscale>
<asrwt>0</asrwt>
<pdfrwt beam="1">  1        2 0.62133583E+00 0.34384743E+04</pdfrwt>
<pdfrwt beam="2">  1       -2 0.11259483E+00 0.34384743E+04</pdfrwt>
<totfact> 0.16269624E-01</totfact>
</mgrwt>
</event>
<event>
 6    1  0.1719556E-004  0.2179189E+04  0.7818608E-02  0.8527140E-01
         -2   -1    0    0    0  501 -0.00000000000E+00  0.00000000000E+00  0.30436093516E+03  0.30436093516E+03  0.00000000000E+00 0. -1.
          2   -1    0    0  501    0  0.00000000000E+00 -0.00000000000E+00 -0.39006863647E+04  0.39006863647E+04  0.00000000000E+00 0.  1.
         23    2    1    2    0    0  0.10237729836E+04  0.39961098143E+02 -0.10969076259E+04  0.15037888212E+04  0.92013411395E+02 0.  0.
         11    1    3    3    0    0  0.44723125618E+03 -0.21035807830E+02 -0.44226818865E+03  0.62933254517E+03  0.00000000000E+00 0. -1.
        -11    1    3    3    0    0  0.57654172737E+03  0.60996905973E+02 -0.65463943721E+03  0.87445627603E+03  0.00000000000E+00 0.  1.
         22    1    1    2    0    0 -0.10237729836E+04 -0.39961098143E+02 -0.24994178037E+04  0.27012584786E+04  0.00000000000E+00 0.  1.
<mgrwt>
<rscale>  0 0.21791893E+04</rscale>
<asrwt>0</asrwt>
<pdfrwt beam="1">  1        2 0.60010559E+00 0.21791893E+04</pdfrwt>
<pdfrwt beam="2">  1       -2 0.46824759E-01 0.21791893E+04</pdfrwt>
<totfact> 0.16360880E+00</totfact>
</mgrwt>
</event>
<event>
 6    1  0.1719556E-004  0.2111223E+04  0.7818608E-02  0.8556316E-01
         -2   -1    0    0    0  501 -0.00000000000E+00  0.00000000000E+00  0.73129958875E+03  0.73129958875E+03  0.00000000000E+00 0. -1.
          2   -1    0    0  501    0  0.00000000000E+00 -0.00000000000E+00 -0.15237474317E+04  0.15237474317E+04  0.00000000000E+00 0.  1.
         23    2    1    2    0    0  0.16286327766E+03  0.23241972448E+03 -0.14808379680E+04  0.15104502573E+04  0.89641044601E+02 0.  0.
         13    1    3    3    0    0  0.75231873336E+02  0.77927529322E+02 -0.77861750492E+03  0.78611561081E+03  0.00000000000E+00 0.  1.
        -13    1    3    3    0    0  0.87631404325E+02  0.15449219515E+03 -0.70222046307E+03  0.72433464651E+03  0.00000000000E+00 0. -1.
         22    1    1    2    0    0 -0.16286327766E+03 -0.23241972448E+03  0.68839012499E+03  0.74459676317E+03  0.00000000000E+00 0. -1.
<mgrwt>
<rscale>  0 0.21112232E+04</rscale>
<asrwt>0</asrwt>
<pdfrwt beam="1">  1        2 0.23442268E+00 0.21112232E+04</pdfrwt>
<pdfrwt beam="2">  1       -2 0.11250763E+00 0.21112232E+04</pdfrwt>
<totfact> 0.70497067E+00</totfact>
</mgrwt>
</event>
<event>
 6    1  0.1719556E-004  0.2797363E+04  0.7818608E-02  0.8304087E-01
          2   -1    0    0  501    0  0.00000000000E+00  0.00000000000E+00  0.74724343161E+03  0.74724343161E+03  0.00000000000E+00 0.  1.
         -2   -1    0    0    0  501 -0.00000000000E+00 -0.00000000000E+00 -0.26180361993E+04  0.26180361993E+04  0.00000000000E+00 0. -1.
         23    2    1    2    0    0  0.52686279981E+03  0.76844317186E+03  0.31625789868E+03  0.98803754490E+03  0.90054502656E+02 0.  0.
         13    1    3    3    0    0  0.23827025753E+03  0.40746551113E+03  0.19107297469E+03  0.50922464595E+03  0.00000000000E+00 0. -1.
        -13    1    3    3    0    0  0.28859254228E+03  0.36097766073E+03  0.12518492399E+03  0.47881289895E+03  0.00000000000E+00 0.  1.
         22    1    1    2    0    0 -0.52686279981E+03 -0.76844317186E+03 -0.21870506664E+04  0.23772420860E+04  0.00000000000E+00 0. -1.
<mgrwt>
<rscale>  0 0.27973633E+04</rscale>
<asrwt>0</asrwt>
<pdfrwt beam="1">  1        2 0.11496053E+00 0.27973633E+04</pdfrwt>
<pdfrwt beam="2">  1       -2 0.40277480E+00 0.27973633E+04</pdfrwt>
<totfact> 0.23333106E-01</totfact>
</mgrwt>
</event>
<event>
 6    1  0.1719556E-004  0.4009177E+04  0.7818608E-02  0.8002698E-01
          2   -1    0    0  501    0  0.00000000000E+00  0.00000000000E+00  0.87823937624E+03  0.87823937624E+03  0.00000000000E+00 0.  1.
         -2   -1    0    0    0  501 -0.00000000000E+00 -0.00000000000E+00 -0.45754899318E+04  0.45754899318E+04  0.00000000000E+00 0. -1.
         23    2    1    2    0    0  0.11393531157E+04  0.16301669659E+04 -0.21794140450E+04  0.29518505077E+04  0.89476147263E+02 0.  0.
         11    1    3    3    0    0  0.50205202238E+03  0.78179417886E+03 -0.10559029154E+04  0.14064811901E+04  0.00000000000E+00 0. -1.
        -11    1    3    3    0    0  0.63730109332E+03  0.84837278706E+03 -0.11235111296E+04  0.15453693176E+04  0.00000000000E+00 0.  1.
         22    1    1    2    0    0 -0.11393531157E+04 -0.16301669659E+04 -0.15178365105E+04  0.25018788004E+04  0.00000000000E+00 0.  1.
<mgrwt>
<rscale>  0 0.40091772E+04</rscale>
<asrwt>0</asrwt>
<pdfrwt beam="1">  1        2 0.13511375E+00 0.40091772E+04</pdfrwt>
<pdfrwt beam="2">  1       -2 0.70392154E+00 0.40091772E+04</pdfrwt>
<totfact> 0.52668701E-03</totfact>
</mgrwt>
</event>
<event>
 6    1  0.1719556E-004  0.1599188E+04  0.7818608E-02  0.8821047E-01
          2   -1    0    0  501    0  0.00000000000E+00  0.00000000000E+00  0.95841670410E+03  0.95841670410E+03  0.00000000000E+00 0. -1.
         -2   -1    0    0    0  501 -0.00000000000E+00 -0.00000000000E+00 -0.66709074774E+03  0.66709074774E+03  0.00000000000E+00 0.  1.
         23    2    1    2    0    0  0.49756078706E+03  0.75221468161E+02  0.77441265140E+03  0.92794185563E+03  0.90200480576E+02 0.  0.
         11    1    3    3    0    0  0.88444975033E+02 -0.57638701472E+01  0.19340215689E+03  0.21274428335E+03  0.00000000000E+00 0. -1.
        -11    1    3    3    0    0  0.40911581203E+03  0.80985338308E+02  0.58101049450E+03  0.71519757228E+03  0.00000000000E+00 0.  1.
         22    1    1    2    0    0 -0.49756078706E+03 -0.75221468161E+02 -0.48308669503E+03  0.69756559621E+03  0.00000000000E+00 0. -1.
<mgrwt>
<rscale>  0 0.15991884E+04</rscale>
<asrwt>0</asrwt>
<pdfrwt beam="1">  1        2 0.14744872E+00 0.15991884E+04</pdfrwt>
<pdfrwt beam="2">  1       -2 0.10262935E+00 0.15991884E+04</pdfrwt>
<totfact> 0.19963352E+01</totfact>
</mgrwt>
</event>
<event>
 6    1  0.1719556E-004  0.3381724E+04  0.7818608E-02  0.8142406E-01
          2   -1    0    0  501    0  0.00000000000E+00  0.00000000000E+00  0.29279959565E+04  0.29279959565E+04  0.00000000000E+00 0.  1.
         -2   -1    0    0    0  501 -0.00000000000E+00 -0.00000000000E+00 -0.97644085022E+03  0.97644085022E+03  0.00000000000E+00 0. -1.
         23    2    1    2    0    0  0.36685416558E+03 -0.62712640845E+03 -0.78491768423E+03  0.10731556755E+04  0.87737231606E+02 0.  0.
         11    1    3    3    0    0  0.27660821367E+02 -0.93352596445E+02 -0.13356836967E+03  0.16528864958E+03  0.00000000000E+00 0.  1.
        -11    1    3    3    0    0  0.33919334421E+03 -0.53377381200E+03 -0.65134931455E+03  0.90786702589E+03  0.00000000000E+00 0. -1.
         22    1    1    2    0    0 -0.36685416558E+03  0.62712640845E+03  0.27364727905E+04  0.28312811313E+04  0.00000000000E+00 0.  1.
<mgrwt>
<rscale>  0 0.33817243E+04</rscale>
<asrwt>0</asrwt>
<pdfrwt beam="1">  1        2 0.45046091E+00 0.33817243E+04</pdfrwt>
<pdfrwt beam="2">  1       -2 0.15022167E+00 0.33817243E+04</pdfrwt>
<totfact> 0.47775547E-01</totfact>
</mgrwt>
</event>
<event>
 6    1  0.1719556E-004  0.9435967E+03  0.7818608E-02  0.9372667E-01
         -1   -1    0    0    0  501 -0.00000000000E+00  0.00000000000E+00  0.16762458237E+03  0.16762458237E+03  0.00000000000E+00 0. -1.
          1   -1    0    0  501    0  0.00000000000E+00 -0.00000000000E+00 -0.13279297758E+04  0.13279297758E+04  0.00000000000E+00 0.  1.
         23    2    1    2    0    0 -0.43480316209E+03  0.97667813429E+02 -0.80852555066E+03  0.92780290848E+03  0.92259847032E+02 0.  0.
         11    1    3    3    0    0 -0.39492416120E+03  0.59007646971E+02 -0.71928935979E+03  0.82269324697E+03  0.00000000000E+00 0. -1.
        -11    1    3    3    0    0 -0.39879000894E+02  0.38660166459E+02 -0.89236190870E+02  0.10510966152E+03  0.00000000000E+00 0.  1.
         22    1    1    2    0    0  0.43480316209E+03 -0.97667813429E+02 -0.35177964275E+03  0.56775144966E+03  0.00000000000E+00 0. -1.
<mgrwt>
<rscale>  0 0.94359668E+03</rscale>
<asrwt>0</asrwt>
<pdfrwt beam="1">  1        1 0.20429688E+00 0.94359668E+03</pdfrwt>
<pdfrwt beam="2">  1       -1 0.25788398E-01 0.94359668E+03</pdfrwt>
<totfact> 0.11529178E+02</totfact>
</mgrwt>
</event>
<event>
 6    1  0.1719556E-004  0.3679958E+04  0.7818608E-02  0.8072418E-01
         -2   -1    0    0    0  501 -0.00000000000E+00  0.00000000000E+00  0.12572793117E+04  0.12572793117E+04  0.00000000000E+00 0. -1.
          2   -1    0    0  501    0  0.00000000000E+00 -0.00000000000E+00 -0.26927374967E+04  0.26927374967E+04  0.00000000000E+00 0.  1.
         23    2    1    2    0    0  0.90848489272E+03  0.65059641587E+03  0.84941352158E+03  0.14065429610E+04  0.90770446274E+02 0.  0.
         11    1    3    3    0    0  0.33035163279E+03  0.18384441008E+03  0.28463418263E+03  0.47323100736E+03  0.00000000000E+00 0. -1.
        -11    1    3    3    0    0  0.57813325993E+03  0.46675200579E+03  0.56477933895E+03  0.93331195366E+03  0.00000000000E+00 0.  1.
         22    1    1    2    0    0 -0.90848489272E+03 -0.65059641587E+03 -0.22848717065E+04  0.25434738473E+04  0.00000000000E+00 0.  1.
<mgrwt>
<rscale>  0 0.36799582E+04</rscale>
<asrwt>0</asrwt>
<pdfrwt beam="1">  1        2 0.41426731E+00 0.36799582E+04</pdfrwt>
<pdfrwt beam="2">  1       -2 0.19342759E+00 0.36799582E+04</pdfrwt>
<totfact> 0.31922287E-01</totfact>
</mgrwt>
</event>
<event>
 6    1  0.1719556E-004  0.1395447E+04  0.7818608E-02  0.8957121E-01
          2   -1    0    0  501    0  0.00000000000E+00  0.00000000000E+00  0.25690544485E+04  0.25690544485E+04  0.00000000000E+00 0.  1.
         -2   -1    0    0    0  501 -0.00000000000E+00 -0.00000000000E+00 -0.18949311732E+03  0.18949311732E+03  0.00000000000E+00 0. -1.
         23    2    1    2    0    0  0.26079825353E+03  0.16821310036E+03  0.24235959902E+04  0.24450983237E+04  0.91525476901E+02 0.  0.
         13    1    3    3    0    0  0.12566887142E+03  0.61297889502E+02  0.77405177949E+03  0.78657882875E+03  0.00000000000E+00 0.  1.
        -13    1    3    3    0    0  0.13512938210E+03  0.10691521086E+03  0.16495442107E+04  0.16585194950E+04  0.00000000000E+00 0. -1.
         22    1    1    2    0    0 -0.26079825353E+03 -0.16821310036E+03 -0.44034658993E+02  0.31344924209E+03  0.00000000000E+00 0. -1.
<mgrwt>
<rscale>  0 0.13954471E+04</rscale>
<asrwt>0</asrwt>
<pdfrwt beam="1">  1        2 0.39523912E+00 0.13954471E+04</pdfrwt>
<pdfrwt beam="2">  1       -2 0.29152789E-01 0.13954471E+04</pdfrwt>
<totfact> 0.33563191E+01</totfact>
</mgrwt>
</event>
<event>
 6    1  0.1719556E-004  0.4194498E+04  0.7818608E-02  0.7966420E-01
         -2   -1    0    0    0  501 -0.00000000000E+00  0.00000000000E+00  0.14694962280E+04  0.14694962280E+04  0.00000000000E+00 0. -1.
          2   -1    0    0  501    0  0.00000000000E+00 -0.00000000000E+00 -0.29931711515E+04  0.29931711515E+04  0.00000000000E+00 0.  1.
         23    2    1    2    0    0 -0.15952247819E+04 -0.13597692153E+04 -0.78718409538E+03  0.22409263587E+04  0.91529892667E+02 0.  0.
         13    1    3    3    0    0 -0.79099669312E+03 -0.73321040005E+03 -0.39517569200E+03  0.11486675267E+04  0.00000000000E+00 0.  1.
        -13    1    3    3    0    0 -0.80422808878E+03 -0.62655881527E+03 -0.39200840338E+03  0.10922588320E+04  0.00000000000E+00 0. -1.
         22    1    1    2    0    0  0.15952247819E+04  0.13597692153E+04 -0.73649082814E+03  0.22217410208E+04  0.00000000000E+00 0.  1.
<mgrwt>
<rscale>  0 0.41944982E+04</rscale>
<asrwt>0</asrwt>
<pdfrwt beam="1">  1        2 0.46048787E+00 0.41944982E+04</pdfrwt>
<pdfrwt beam="2">  1       -2 0.22607634E+00 0.41944982E+04</pdfrwt>
<totfact> 0.12349408E-01</totfact>
</mgrwt>
</event>
<event>
 6    1  0.1719556E-004  0.1710473E+04  0.7818608E-02  0.8755414E-01
         -1   -1    0    0    0  501 -0.00000000000E+00  0.00000000000E+00  0.85343689467E+03  0.85343689467E+03  0.00000000000E+00 0.  1.
          1   -1    0    0  501    0  0.00000000000E+00 -0.00000000000E+00 -0.85703989042E+03  0.85703989042E+03  0.00000000000E+00 0. -1.
         23    2    1    2    0    0  0.11160306715E+03  0.32327542478E+03 -0.78299429960E+03  0.85935220585E+03  0.91890672077E+02 0.  0.
         13    1    3    3    0    0  0.12377637796E+03  0.24206869186E+03 -0.61121722732E+03  0.66895765358E+03  0.00000000000E+00 0.  1.
        -13    1    3    3    0    0 -0.12173310805E+02  0.81206732923E+02 -0.17177707229E+03  0.19039455226E+03  0.00000000000E+00 0. -1.
         22    1    1    2    0    0 -0.11160306715E+03 -0.32327542478E+03  0.77939130386E+03  0.85112457925E+03  0.00000000000E+00 0.  1.
<mgrwt>
<rscale>  0 0.17104730E+04</rscale>
<asrwt>0</asrwt>
<pdfrwt beam="1">  1        1 0.13185229E+00 0.17104730E+04</pdfrwt>
<pdfrwt beam="2">  1       -1 0.13129798E+00 0.17104730E+04</pdfrwt>
<totfact> 0.92907268E+00</totfact>
</mgrwt>
</event>
<event>
 6    1  0.1719556E-004  0.1629672E+04  0.7818608E-02  0.8802524E-01
         -2   -1    0    0    0  501 -0.00000000000E+00  0.00000000000E+00  0.23856223649E+03  0.23856223649E+03  0.00000000000E+00 0. -1.
          2   -1    0    0  501    0  0.00000000000E+00 -0.00000000000E+00 -0.27831637523E+04  0.27831637523E+04  0.00000000000E+00 0.  1.
         23    2    1    2    0    0 -0.52841665016E+03 -0.45683148139E+03 -0.50670172601E+03  0.86743847041E+03  0.88225292590E+02 0.  0.
         11    1    3    3    0    0 -0.38517861291E+03 -0.36245126293E+03 -0.41916426182E+03  0.67485714061E+03  0.00000000000E+00 0.  1.
        -11    1    3    3    0    0 -0.14323803725E+03 -0.94380218459E+02 -0.87537464186E+02  0.19258132980E+03  0.00000000000E+00 0. -1.
         22    1    1    2    0    0  0.52841665016E+03  0.45683148139E+03 -0.20378997898E+04  0.21542875184E+04  0.00000000000E+00 0.  1.
<mgrwt>
<rscale>  0 0.16296721E+04</rscale>
<asrwt>0</asrwt>
<pdfrwt beam="1">  1        2 0.42817902E+00 0.16296721E+04</pdfrwt>
<pdfrwt beam="2">  1       -2 0.36701884E-01 0.16296721E+04</pdfrwt>
<totfact> 0.15897110E+01</totfact>
</mgrwt>
</event>
<event>
 6    1  0.1719556E-004  0.1104999E+04  0.7818608E-02  0.9200333E-01
         -2   -1    0    0    0  501 -0.00000000000E+00  0.00000000000E+00  0.10348720152E+04  0.10348720152E+04  0.00000000000E+00 0. -1.
          2   -1    0    0  501    0  0.00000000000E+00 -0.00000000000E+00 -0.29496965111E+03  0.29496965111E+03  0.00000000000E+00 0.  1.
         23    2    1    2    0    0  0.48663560053E+03  0.14636834356E+03  0.62175864520E+03  0.80811775655E+03  0.90733653460E+02 0.  0.
         13    1    3    3    0    0  0.46684992056E+03  0.13014401759E+03  0.55612506155E+03  0.73767296123E+03  0.00000000000E+00 0.  1.
        -13    1    3    3    0    0  0.19785679965E+02  0.16224325970E+02  0.65633583651E+02  0.70444795321E+02  0.00000000000E+00 0. -1.
         22    1    1    2    0    0 -0.48663560053E+03 -0.14636834356E+03  0.11814371887E+03  0.52172390975E+03  0.00000000000E+00 0.  1.
<mgrwt>
<rscale>  0 0.11049993E+04</rscale>
<asrwt>0</asrwt>
<pdfrwt beam="1">  1        2 0.45379947E-01 0.11049993E+04</pdfrwt>
<pdfrwt beam="2">  1       -2 0.15921108E+00 0.11049993E+04</pdfrwt>
<totfact> 0.28320127E+01</totfact>
</mgrwt>
</event>
<event>
 6    1  0.1719556E-004  0.1596098E+04  0.7818608E-02  0.8822949E-01
          2   -1    0    0  501    0  0.00000000000E+00  0.00000000000E+00  0.83193705417E+03  0.83193705417E+03  0.00000000000E+00 0.  1.
         -2   -1    0    0    0  501 -0.00000000000E+00 -0.00000000000E+00 -0.76554143546E+03  0.76554143546E+03  0.00000000000E+00 0. -1.
         23    2    1    2    0    0 -0.38397518481E+03 -0.58879473448E+03 -0.34051860258E+03  0.78526216044E+03  0.81040483850E+02 0.  0.
         11    1    3    3    0    0 -0.18747741562E+03 -0.25819592064E+03 -0.19568955537E+03  0.37430911943E+03  0.00000000000E+00 0. -1.
        -11    1    3    3    0    0 -0.19649776919E+03 -0.33059881384E+03 -0.14482904721E+03  0.41095304102E+03  0.00000000000E+00 0.  1.
         22    1    1    2    0    0  0.38397518481E+03  0.58879473448E+03  0.40691422129E+03  0.81221632918E+03  0.00000000000E+00 0.  1.
<mgrwt>
<rscale>  0 0.15960981E+04</rscale>
<asrwt>0</asrwt>
<pdfrwt beam="1">  1        2 0.12799032E+00 0.15960981E+04</pdfrwt>
<pdfrwt beam="2">  1       -2 0.11777561E+00 0.15960981E+04</pdfrwt>
<totfact> 0.17435057E+01</totfact>
</mgrwt>
</event>
<event>
 6    1  0.1719556E-004  0.2192094E+04  0.7818608E-02  0.8521726E-01
          1   -1    0    0  501    0  0.00000000000E+00  0.00000000000E+00  0.23718543866E+04  0.23718543866E+04  0.00000000000E+00 0.  1.
         -1   -1    0    0    0  501 -0.00000000000E+00 -0.00000000000E+00 -0.50648934711E+03  0.50648934711E+03  0.00000000000E+00 0. -1.
         23    2    1    2    0    0 -0.10304434335E+04 -0.30512015324E+03  0.12041732491E+04  0.16165646084E+04  0.91301377989E+02 0.  0.
         13    1    3    3    0    0 -0.79614780954E+03 -0.27390030067E+03  0.95381042083E+03  0.12722527376E+04  0.00000000000E+00 0. -1.
        -13    1    3    3    0    0 -0.23429562395E+03 -0.31219852568E+02  0.25036282832E+03  0.34431187083E+03  0.00000000000E+00 0.  1.
         22    1    1    2    0    0  0.10304434335E+04  0.30512015324E+03  0.66119179039E+03  0.12617791254E+04  0.00000000000E+00 0. -1.
<mgrwt>
<rscale>  0 0.21920940E+04</rscale>
<asrwt>0</asrwt>
<pdfrwt beam="1">  1        1 0.36490067E+00 0.21920940E+04</pdfrwt>
<pdfrwt beam="2">  1       -1 0.77921439E-01 0.21920940E+04</pdfrwt>
<totfact> 0.25000977E+00</totfact>
</mgrwt>
</event>
<event>
 6    1  0.1719556E-004  0.1582449E+04  0.7818608E-02  0.8831404E-01
          1   -1    0    0  501    0  0.00000000000E+00  0.00000000000E+00  0.14741898773E+04  0.14741898773E+04  0.00000000000E+00 0.  1.
         -1   -1    0    0    0  501 -0.00000000000E+00 -0.00000000000E+00 -0.42466441034E+03  0.42466441034E+03  0.00000000000E+00 0. -1.
         23    2    1    2    0    0  0.77558147200E+03 -0.14083184997E+03  0.55529173703E+03  0.96846339694E+03  0.90621235512E+02 0.  0.
         13    1    3    3    0    0  0.47335844271E+03 -0.57746888568E+02  0.37680513894E+03  0.60777054153E+03  0.00000000000E+00 0.  1.
        -13    1    3    3    0    0  0.30222302929E+03 -0.83084961399E+02  0.17848659809E+03  0.36069285541E+03  0.00000000000E+00 0. -1.
         22    1    1    2    0    0 -0.77558147200E+03  0.14083184997E+03  0.49423372990E+03  0.93039089067E+03  0.00000000000E+00 0. -1.
<mgrwt>
<rscale>  0 0.15824487E+04</rscale>
<asrwt>0</asrwt>
<pdfrwt beam="1">  1        1 0.22679844E+00 0.15824487E+04</pdfrwt>
<pdfrwt beam="2">  1       -1 0.65332987E-01 0.15824487E+04</pdfrwt>
<totfact> 0.15558141E+01</totfact>
</mgrwt>
</event>
<event>
 6    1  0.1719556E-004  0.1048724E+04  0.7818608E-02  0.9256662E-01
         -1   -1    0    0    0  501 -0.00000000000E+00  0.00000000000E+00  0.14920701706E+03  0.14920701706E+03  0.00000000000E+00 0. -1.
          1   -1    0    0  501    0  0.00000000000E+00 -0.00000000000E+00 -0.18427783854E+04  0.18427783854E+04  0.00000000000E+00 0.  1.
         23    2    1    2    0    0  0.10745449521E+03 -0.49414014632E+02 -0.18157280424E+04  0.18219546217E+04  0.93070438334E+02 0.  0.
         11    1    3    3    0    0  0.74314539820E+02 -0.36398680543E+02 -0.59711454840E+03  0.60282111666E+03  0.00000000000E+00 0. -1.
        -11    1    3    3    0    0  0.33139955386E+02 -0.13015334089E+02 -0.12186134940E+04  0.12191335051E+04  0.00000000000E+00 0.  1.
         22    1    1    2    0    0 -0.10745449521E+03  0.49414014632E+02  0.12215667402E+03  0.17003078072E+03  0.00000000000E+00 0. -1.
<mgrwt>
<rscale>  0 0.10487239E+04</rscale>
<asrwt>0</asrwt>
<pdfrwt beam="1">  1        1 0.28350439E+00 0.10487239E+04</pdfrwt>
<pdfrwt beam="2">  1       -1 0.22954924E-01 0.10487239E+04</pdfrwt>
<totfact> 0.61869032E+01</totfact>
</mgrwt>
</event>
<event>
 6    1  0.1719556E-004  0.2081501E+04  0.7818608E-02  0.8569436E-01
          1   -1    0    0  501    0  0.00000000000E+00  0.00000000000E+00  0.20473519087E+04  0.20473519087E+04  0.00000000000E+00 0.  1.
         -1   -1    0    0    0  501 -0.00000000000E+00 -0.00000000000E+00 -0.52905516992E+03  0.52905516992E+03  0.00000000000E+00 0. -1.
         23    2    1    2    0    0 -0.61180038984E+03  0.65795780979E+03  0.14059795795E+04  0.16709661138E+04  0.90227374325E+02 0.  0.
         11    1    3    3    0    0 -0.41137704765E+03  0.38976830888E+03  0.92912609808E+03  0.10883132435E+04  0.00000000000E+00 0. -1.
        -11    1    3    3    0    0 -0.20042334219E+03  0.26818950092E+03  0.47685348143E+03  0.58265287028E+03  0.00000000000E+00 0.  1.
         22    1    1    2    0    0  0.61180038984E+03 -0.65795780979E+03  0.11231715927E+03  0.90544096480E+03  0.00000000000E+00 0. -1.
<mgrwt>
<rscale>  0 0.20815015E+04</rscale>
<asrwt>0</asrwt>
<pdfrwt beam="1">  1        1 0.31497721E+00 0.20815015E+04</pdfrwt>
<pdfrwt beam="2">  1       -1 0.81393104E-01 0.20815015E+04</pdfrwt>
<totfact> 0.38318584E+00</totfact>
</mgrwt>
</event>
<event>
 6    1  0.1719556E-004  0.2677757E+04  0.7818608E-02  0.8342258E-01
         -2   -1    0    0    0  501 -0.00000000000E+00  0.00000000000E+00  0.60387365842E+03  0.60387365842E+03  0.00000000000E+00 0. -1.
          2   -1    0    0  501    0  0.00000000000E+00 -0.00000000000E+00 -0.29684955398E+04  0.29684955398E+04  0.00000000000E+00 0.  1.
         23    2    1    2    0    0 -0.29914876177E+03  0.78015857826E+03 -0.25767250305E+04  0.27103221376E+04  0.90536279368E+02 0.  0.
         13    1    3    3    0    0 -0.84643182857E+02  0.24791982664E+03 -0.94478519193E+03  0.98043243915E+03  0.00000000000E+00 0. -1.
        -13    1    3    3    0    0 -0.21450557891E+03  0.53223875162E+03 -0.16319398386E+04  0.17298896985E+04  0.00000000000E+00 0.  1.
         22    1    1    2    0    0  0.29914876177E+03 -0.78015857826E+03  0.21210314910E+03  0.86204706064E+03  0.00000000000E+00 0. -1.
<mgrwt>
<rscale>  0 0.26777575E+04</rscale>
<asrwt>0</asrwt>
<pdfrwt beam="1">  1        2 0.45669162E+00 0.26777575E+04</pdfrwt>
<pdfrwt beam="2">  1       -2 0.92903641E-01 0.26777575E+04</pdfrwt>
<totfact> 0.15717868E+00</totfact>
</mgrwt>
</event>
<event>
 6    1  0.1719556E-004  0.1597650E+04  0.7818608E-02  0.8821993E-01
          2   -1    0    0  501    0  0.00000000000E+00  0.00000000000E+00  0.17372899975E+04  0.17372899975E+04  0.00000000000E+00 0.  1.
         -2   -1    0    0    0  501 -0.00000000000E+00 -0.00000000000E+00 -0.36730856325E+03  0.36730856325E+03  0.00000000000E+00 0. -1.
         23    2    1    2    0    0  0.63445925428E+02 -0.37453916733E+03  0.16089608111E+04  0.16558044923E+04  0.92890536929E+02 0.  0.
         11    1    3    3    0    0  0.10119912190E+02 -0.42562718967E+02  0.89933471317E+02  0.10001013414E+03  0.00000000000E+00 0.  1.
        -11    1    3    3    0    0  0.53326013238E+02 -0.33197644836E+03  0.15190273398E+04  0.15557943582E+04  0.00000000000E+00 0. -1.
         22    1    1    2    0    0 -0.63445925428E+02  0.37453916733E+03 -0.23897937684E+03  0.44879406844E+03  0.00000000000E+00 0. -1.
<mgrwt>
<rscale>  0 0.15976501E+04</rscale>
<asrwt>0</asrwt>
<pdfrwt beam="1">  1        2 0.26727538E+00 0.15976501E+04</pdfrwt>
<pdfrwt beam="2">  1       -2 0.56509011E-01 0.15976501E+04</pdfrwt>
<totfact> 0.26344505E+01</totfact>
</mgrwt>
</event>
<event>
 6    1  0.1719556E-004  0.1040733E+04  0.7818608E-02  0.9264964E-01
          2   -1    0    0  501    0  0.00000000000E+00  0.00000000000E+00  0.14076379235E+04  0.14076379235E+04  0.00000000000E+00 0.  1.
         -2   -1    0    0    0  501 -0.00000000000E+00 -0.00000000000E+00 -0.19236573777E+03  0.19236573777E+03  0.00000000000E+00 0. -1.
         23    2    1    2    0    0  0.17727101124E+03 -0.42498608090E+03  0.25326519411E+03  0.53346925848E+03  0.91695206049E+02 0.  0.
         11    1    3    3    0    0  0.11620225500E+03 -0.17042673265E+03  0.90817405272E+02  0.22537976034E+03  0.00000000000E+00 0. -1.
        -11    1    3    3    0    0  0.61068756247E+02 -0.25455934825E+03  0.16244778884E+03  0.30808949815E+03  0.00000000000E+00 0.  1.
         22    1    1    2    0    0 -0.17727101124E+03  0.42498608090E+03  0.96200699164E+03  0.10665344028E+04  0.00000000000E+00 0.  1.
<mgrwt>
<rscale>  0 0.10407330E+04</rscale>
<asrwt>0</asrwt>
<pdfrwt beam="1">  1        2 0.21655967E+00 0.10407330E+04</pdfrwt>
<pdfrwt beam="2">  1       -2 0.29594730E-01 0.10407330E+04</pdfrwt>
<totfact> 0.14994376E+02</totfact>
</mgrwt>
</event>
<event>
 6    1  0.1719556E-004  0.2436150E+04  0.7818608E-02  0.8426092E-01
         -2   -1    0    0    0  501 -0.00000000000E+00  0.00000000000E+00  0.11233633074E+04  0.11233633074E+04  0.00000000000E+00 0. -1.
          2   -1    0    0  501    0  0.00000000000E+00 -0.00000000000E+00 -0.13207713822E+04  0.13207713822E+04  0.00000000000E+00 0.  1.
         23    2    1    2    0    0 -0.66417435033E+03 -0.94307983961E+03 -0.48491574527E+03  0.12553589276E+04  0.10126996435E+03 0.  0.
         13    1    3    3    0    0 -0.50643705939E+03 -0.78653145651E+03 -0.40126744537E+03  0.10179026427E+04  0.00000000000E+00 0. -1.
        -13    1    3    3    0    0 -0.15773729094E+03 -0.15654838309E+03 -0.83648299902E+02  0.23745628498E+03  0.00000000000E+00 0.  1.
         22    1    1    2    0    0  0.66417435033E+03  0.94307983961E+03  0.28750767052E+03  0.11887757619E+04  0.00000000000E+00 0.  1.
<mgrwt>
<rscale>  0 0.24361495E+04</rscale>
<asrwt>0</asrwt>
<pdfrwt beam="1">  1        2 0.20319560E+00 0.24361495E+04</pdfrwt>
<pdfrwt beam="2">  1       -2 0.17282513E+00 0.24361495E+04</pdfrwt>
<totfact> 0.29340342E+00</totfact>
</mgrwt>
</event>
<event>
 6    1  0.1719556E-004  0.2672381E+04  0.7818608E-02  0.8344022E-01
         -1   -1    0    0    0  501 -0.00000000000E+00  0.00000000000E+00  0.88319481316E+03  0.88319481316E+03  0.00000000000E+00 0. -1.
          1   -1    0    0  501    0  0.00000000000E+00 -0.00000000000E+00 -0.20215302696E+04  0.20215302696E+04  0.00000000000E+00 0.  1.
         23    2    1    2    0    0 -0.81951760446E+03  0.60497967947E+03  0.36731516603E+03  0.10868710420E+04  0.93588002082E+02 0.  0.
         13    1    3    3    0    0 -0.14986774385E+03  0.14931802380E+03  0.99334473255E+02  0.23371681680E+03  0.00000000000E+00 0. -1.
        -13    1    3    3    0    0 -0.66964986061E+03  0.45566165567E+03  0.26798069277E+03  0.85315422519E+03  0.00000000000E+00 0.  1.
         22    1    1    2    0    0  0.81951760446E+03 -0.60497967947E+03 -0.15056506225E+04  0.18178540408E+04  0.00000000000E+00 0.  1.
<mgrwt>
<rscale>  0 0.26723810E+04</rscale>
<asrwt>0</asrwt>
<pdfrwt beam="1">  1        1 0.31100465E+00 0.26723810E+04</pdfrwt>
<pdfrwt beam="2">  1       -1 0.13587613E+00 0.26723810E+04</pdfrwt>
<totfact> 0.11423378E+00</totfact>
</mgrwt>
</event>
<event>
 6    1  0.1719556E-004  0.6660233E+04  0.7818608E-02  0.7613528E-01
          2   -1    0    0  501    0  0.00000000000E+00  0.00000000000E+00  0.45843666980E+04  0.45843666980E+04  0.00000000000E+00 0.  1.
         -2   -1    0    0    0  501 -0.00000000000E+00 -0.00000000000E+00 -0.24190202137E+04  0.24190202137E+04  0.00000000000E+00 0. -1.
         23    2    1    2    0    0 -0.10102679220E+04 -0.16668400575E+04  0.39212061567E+04  0.43800226137E+04  0.98708264006E+02 0.  0.
         13    1    3    3    0    0 -0.16715516779E+03 -0.30437104095E+03  0.77921896462E+03  0.85309130550E+03  0.00000000000E+00 0. -1.
        -13    1    3    3    0    0 -0.84311275417E+03 -0.13624690165E+04  0.31419871921E+04  0.35269313082E+04  0.00000000000E+00 0.  1.
         22    1    1    2    0    0  0.10102679220E+04  0.16668400575E+04 -0.17558596724E+04  0.26233642981E+04  0.00000000000E+00 0. -1.
<mgrwt>
<rscale>  0 0.66602329E+04</rscale>
<asrwt>0</asrwt>
<pdfrwt beam="1">  1        2 0.70528718E+00 0.66602329E+04</pdfrwt>
<pdfrwt beam="2">  1       -2 0.37215696E+00 0.66602329E+04</pdfrwt>
<totfact> 0.71954915E-04</totfact>
</mgrwt>
</event>
<event>
 6    1  0.1719556E-004  0.2622602E+04  0.7818608E-02  0.8360564E-01
         -2   -1    0    0    0  501 -0.00000000000E+00  0.00000000000E+00  0.99588610406E+03  0.99588610406E+03  0.00000000000E+00 0. -1.
          2   -1    0    0  501    0  0.00000000000E+00 -0.00000000000E+00 -0.17266130533E+04  0.17266130533E+04  0.00000000000E+00 0.  1.
         23    2    1    2    0    0  0.89302324661E+03 -0.64914757454E+03 -0.10972911074E+04  0.15592053963E+04  0.90501939985E+02 0.  0.
         13    1    3    3    0    0  0.42676599357E+03 -0.31758324998E+03 -0.46572199603E+03  0.70702567953E+03  0.00000000000E+00 0. -1.
        -13    1    3    3    0    0  0.46625725304E+03 -0.33156432456E+03 -0.63156911133E+03  0.85217971680E+03  0.00000000000E+00 0.  1.
         22    1    1    2    0    0 -0.89302324661E+03  0.64914757454E+03  0.36656415810E+03  0.11632937611E+04  0.00000000000E+00 0. -1.
<mgrwt>
<rscale>  0 0.26226017E+04</rscale>
<asrwt>0</asrwt>
<pdfrwt beam="1">  1        2 0.26563278E+00 0.26226017E+04</pdfrwt>
<pdfrwt beam="2">  1       -2 0.15321325E+00 0.26226017E+04</pdfrwt>
<totfact> 0.23701092E+00</totfact>
</mgrwt>
</event>
<event>
 6    1  0.1719556E-004  0.9537987E+03  0.7818608E-02  0.9360722E-01
          2   -1    0    0  501    0  0.00000000000E+00  0.00000000000E+00  0.47643819394E+03  0.47643819394E+03  0.00000000000E+00 0.  1.
         -2   -1    0    0    0  501 -0.00000000000E+00 -0.00000000000E+00 -0.47736091566E+03  0.47736091566E+03  0.00000000000E+00 0. -1.
         23    2    1    2    0    0 -0.42574489922E+03 -0.17848022455E+03  0.10043312565E+03  0.48116085728E+03  0.91186885500E+02 0.  0.
         13    1    3    3    0    0 -0.11766844409E+03 -0.72260969149E+02 -0.63686029441E+01  0.13823194095E+03  0.00000000000E+00 0.  1.
        -13    1    3    3    0    0 -0.30807645513E+03 -0.10621925540E+03  0.10680172859E+03  0.34292891633E+03  0.00000000000E+00 0. -1.
         22    1    1    2    0    0  0.42574489922E+03  0.17848022455E+03 -0.10135584737E+03  0.47263825232E+03  0.00000000000E+00 0. -1.
<mgrwt>
<rscale>  0 0.95379866E+03</rscale>
<asrwt>0</asrwt>
<pdfrwt beam="1">  1        2 0.73298184E-01 0.95379866E+03</pdfrwt>
<pdfrwt beam="2">  1       -2 0.73440141E-01 0.95379866E+03</pdfrwt>
<totfact> 0.10911716E+02</totfact>
</mgrwt>
</event>
<event>
 6    1  0.2026321E-004  0.3288042E+04  0.7818608E-02  0.8165945E-01
         -2   -1    0    0    0  501 -0.00000000000E+00  0.00000000000E+00  0.11826874200E+04  0.11826874200E+04  0.00000000000E+00 0. -1.
          2   -1    0    0  501    0  0.00000000000E+00 -0.00000000000E+00 -0.22853086017E+04  0.22853086017E+04  0.00000000000E+00 0.  1.
         23    2    1    2    0    0  0.15553454740E+04  0.35809412402E+03 -0.14147013349E+03  0.16048958413E+04  0.91355994211E+02 0.  0.
         13    1    3    3    0    0  0.41383847028E+03  0.11633898046E+03 -0.30797334242E+01  0.42989129163E+03  0.00000000000E+00 0. -1.
        -13    1    3    3    0    0  0.11415070037E+04  0.24175514356E+03 -0.13839040006E+03  0.11750045497E+04  0.00000000000E+00 0.  1.
         22    1    1    2    0    0 -0.15553454740E+04 -0.35809412402E+03 -0.96115104821E+03  0.18631001805E+04  0.00000000000E+00 0. -1.
<mgrwt>
<rscale>  0 0.32880424E+04</rscale>
<asrwt>0</asrwt>
<pdfrwt beam="1">  1        2 0.35158593E+00 0.32880424E+04</pdfrwt>
<pdfrwt beam="2">  1       -2 0.18195191E+00 0.32880424E+04</pdfrwt>
<totfact> 0.67918745E-01</totfact>
</mgrwt>
</event>
<event>
 6    1  0.1719556E-004  0.2807914E+04  0.7818608E-02  0.8300816E-01
          2   -1    0    0  501    0  0.00000000000E+00  0.00000000000E+00  0.16792341922E+04  0.16792341922E+04  0.00000000000E+00 0.  1.
         -2   -1    0    0    0  501 -0.00000000000E+00 -0.00000000000E+00 -0.11738057281E+04  0.11738057281E+04  0.00000000000E+00 0. -1.
         23    2    1    2    0    0 -0.13109092197E+04  0.25803356893E+03  0.68642619288E+03  0.15047727053E+04  0.89975949078E+02 0.  0.
         13    1    3    3    0    0 -0.74932816792E+03  0.14444988542E+03  0.44177422906E+03  0.88177261361E+03  0.00000000000E+00 0.  1.
        -13    1    3    3    0    0 -0.56158105181E+03  0.11358368351E+03  0.24465196382E+03  0.62300009174E+03  0.00000000000E+00 0. -1.
         22    1    1    2    0    0  0.13109092197E+04 -0.25803356893E+03 -0.18099772874E+03  0.13482672149E+04  0.00000000000E+00 0. -1.
<mgrwt>
<rscale>  0 0.28079136E+04</rscale>
<asrwt>0</asrwt>
<pdfrwt beam="1">  1        2 0.25834372E+00 0.28079136E+04</pdfrwt>
<pdfrwt beam="2">  1       -2 0.18058550E+00 0.28079136E+04</pdfrwt>
<totfact> 0.15736113E+00</totfact>
</mgrwt>
</event>
<event>
 6    1  0.1719556E-004  0.6479488E+03  0.7818608E-02  0.9810636E-01
          2   -1    0    0  501    0  0.00000000000E+00  0.00000000000E+00  0.17135851733E+04  0.17135851733E+04  0.00000000000E+00 0. -1.
         -2   -1    0    0    0  501 -0.00000000000E+00 -0.00000000000E+00 -0.61251354886E+02  0.61251354886E+02  0.00000000000E+00 0.  1.
         23    2    1    2    0    0 -0.20776823541E+02 -0.31355603029E+03  0.98121193532E+03  0.10337875133E+04  0.84797995604E+02 0.  0.
         13    1    3    3    0    0  0.32619769173E+02 -0.11758611138E+03  0.39147991951E+03  0.41005739880E+03  0.00000000000E+00 0. -1.
        -13    1    3    3    0    0 -0.53396592714E+02 -0.19596991891E+03  0.58973201580E+03  0.62373011447E+03  0.00000000000E+00 0.  1.
         22    1    1    2    0    0  0.20776823541E+02  0.31355603029E+03  0.67112188307E+03  0.74104901489E+03  0.00000000000E+00 0. -1.
<mgrwt>
<rscale>  0 0.64794881E+03</rscale>
<asrwt>0</asrwt>
<pdfrwt beam="1">  1        2 0.26362845E+00 0.64794881E+03</pdfrwt>
<pdfrwt beam="2">  1       -2 0.94232866E-02 0.64794881E+03</pdfrwt>
<totfact> 0.74490941E+02</totfact>
</mgrwt>
</event>
<event>
 6    1  0.1719556E-004  0.2336255E+04  0.7818608E-02  0.8463762E-01
          1   -1    0    0  501    0  0.00000000000E+00  0.00000000000E+00  0.84974098658E+03  0.84974098658E+03  0.00000000000E+00 0.  1.
         -1   -1    0    0    0  501 -0.00000000000E+00 -0.00000000000E+00 -0.16058095329E+04  0.16058095329E+04  0.00000000000E+00 0. -1.
         23    2    1    2    0    0  0.10553660591E+04 -0.42884606743E+03 -0.64153906052E+03  0.13106385266E+04  0.92165683121E+02 0.  0.
         11    1    3    3    0    0  0.48451246117E+03 -0.19825866894E+03 -0.24233359082E+03  0.57687467797E+03  0.00000000000E+00 0. -1.
        -11    1    3    3    0    0  0.57085359790E+03 -0.23058739849E+03 -0.39920546970E+03  0.73376384867E+03  0.00000000000E+00 0.  1.
         22    1    1    2    0    0 -0.10553660591E+04  0.42884606743E+03 -0.11452948577E+03  0.11449119928E+04  0.00000000000E+00 0.  1.
<mgrwt>
<rscale>  0 0.23362553E+04</rscale>
<asrwt>0</asrwt>
<pdfrwt beam="1">  1        1 0.13072938E+00 0.23362553E+04</pdfrwt>
<pdfrwt beam="2">  1       -1 0.24704762E+00 0.23362553E+04</pdfrwt>
<totfact> 0.13159950E+00</totfact>
</mgrwt>
</event>
<event>
 6    1  0.1719556E-004  0.4455921E+04  0.7818608E-02  0.7918399E-01
         -2   -1    0    0    0  501 -0.00000000000E+00  0.00000000000E+00  0.40185528732E+04  0.40185528732E+04  0.00000000000E+00 0. -1.
          2   -1    0    0  501    0  0.00000000000E+00 -0.00000000000E+00 -0.12352228878E+04  0.12352228878E+04  0.00000000000E+00 0.  1.
         23    2    1    2    0    0  0.14003541883E+04 -0.17265487604E+04  0.15509429412E+04  0.27119771259E+04  0.86217456739E+02 0.  0.
         13    1    3    3    0    0  0.94467741590E+03 -0.12123674649E+04  0.10396961817E+04  0.18555911296E+04  0.00000000000E+00 0. -1.
        -13    1    3    3    0    0  0.45567677245E+03 -0.51418129548E+03  0.51124675942E+03  0.85638599626E+03  0.00000000000E+00 0.  1.
         22    1    1    2    0    0 -0.14003541883E+04  0.17265487604E+04  0.12323870443E+04  0.25417986351E+04  0.00000000000E+00 0.  1.
<mgrwt>
<rscale>  0 0.44559212E+04</rscale>
<asrwt>0</asrwt>
<pdfrwt beam="1">  1        2 0.19003429E+00 0.44559212E+04</pdfrwt>
<pdfrwt beam="2">  1       -2 0.61823890E+00 0.44559212E+04</pdfrwt>
<totfact> 0.59672076E-03</totfact>
</mgrwt>
</event>
<event>
 6    1  0.1719556E-004  0.1085789E+04  0.7818608E-02  0.9219155E-01
         -1   -1    0    0    0  501 -0.00000000000E+00  0.00000000000E+00  0.11434115623E+03  0.11434115623E+03  0.00000000000E+00 0. -1.
          1   -1    0    0  501    0  0.00000000000E+00 -0.00000000000E+00 -0.25776752133E+04  0.25776752133E+04  0.00000000000E+00 0.  1.
         23    2    1    2    0    0  0.45275937383E+03  0.29218435042E+03 -0.12798113635E+04  0.13915977018E+04  0.90908152774E+02 0.  0.
         11    1    3    3    0    0  0.16274088590E+03  0.12985633649E+03 -0.39669974944E+03  0.44801557481E+03  0.00000000000E+00 0.  1.
        -11    1    3    3    0    0  0.29001848793E+03  0.16232801393E+03 -0.88311161404E+03  0.94358212695E+03  0.00000000000E+00 0. -1.
         22    1    1    2    0    0 -0.45275937383E+03 -0.29218435042E+03 -0.11835226936E+04  0.13004186677E+04  0.00000000000E+00 0.  1.
<mgrwt>
<rscale>  0 0.10857889E+04</rscale>
<asrwt>0</asrwt>
<pdfrwt beam="1">  1        1 0.39656541E+00 0.10857889E+04</pdfrwt>
<pdfrwt beam="2">  1       -1 0.17590947E-01 0.10857889E+04</pdfrwt>
<totfact> 0.30535795E+01</totfact>
</mgrwt>
</event>
<event>
 6    1  0.1719556E-004  0.4039229E+04  0.7818608E-02  0.7996679E-01
         -1   -1    0    0    0  501 -0.00000000000E+00  0.00000000000E+00  0.25832907475E+04  0.25832907475E+04  0.00000000000E+00 0. -1.
          1   -1    0    0  501    0  0.00000000000E+00 -0.00000000000E+00 -0.15789331936E+04  0.15789331936E+04  0.00000000000E+00 0.  1.
         23    2    1    2    0    0 -0.16578976384E+04 -0.65307339376E+03  0.14797695884E+04  0.23180043123E+04  0.91085234406E+02 0.  0.
         11    1    3    3    0    0 -0.13581178398E+04 -0.50858775613E+03  0.12362377523E+04  0.19056309592E+04  0.00000000000E+00 0. -1.
        -11    1    3    3    0    0 -0.29977979859E+03 -0.14448563763E+03  0.24353183613E+03  0.41237335308E+03  0.00000000000E+00 0.  1.
         22    1    1    2    0    0  0.16578976384E+04  0.65307339376E+03 -0.47541203451E+03  0.18442196289E+04  0.00000000000E+00 0.  1.
<mgrwt>
<rscale>  0 0.40392294E+04</rscale>
<asrwt>0</asrwt>
<pdfrwt beam="1">  1        1 0.24291280E+00 0.40392294E+04</pdfrwt>
<pdfrwt beam="2">  1       -1 0.39742935E+00 0.40392294E+04</pdfrwt>
<totfact> 0.33506678E-02</totfact>
</mgrwt>
</event>
<event>
 6    1  0.1719556E-004  0.6184725E+04  0.7818608E-02  0.7667911E-01
         -2   -1    0    0    0  501 -0.00000000000E+00  0.00000000000E+00  0.30276747639E+04  0.30276747639E+04  0.00000000000E+00 0. -1.
          2   -1    0    0  501    0  0.00000000000E+00 -0.00000000000E+00 -0.31584320673E+04  0.31584320673E+04  0.00000000000E+00 0.  1.
         23    2    1    2    0    0 -0.83999619038E+03 -0.11790735195E+04 -0.27978083224E+04  0.31514785011E+04  0.90980052288E+02 0.  0.
         13    1    3    3    0    0 -0.46060270024E+03 -0.57246667579E+03 -0.14498743354E+04  0.16254256461E+04  0.00000000000E+00 0. -1.
        -13    1    3    3    0    0 -0.37939349014E+03 -0.60660684366E+03 -0.13479339870E+04  0.15260528550E+04  0.00000000000E+00 0.  1.
         22    1    1    2    0    0  0.83999619038E+03  0.11790735195E+04  0.26670510190E+04  0.30346283301E+04  0.00000000000E+00 0. -1.
<mgrwt>
<rscale>  0 0.61847248E+04</rscale>
<asrwt>0</asrwt>
<pdfrwt beam="1">  1        2 0.48591262E+00 0.61847248E+04</pdfrwt>
<pdfrwt beam="2">  1       -2 0.46579612E+00 0.61847248E+04</pdfrwt>
<totfact> 0.25170369E-03</totfact>
</mgrwt>
</event>
<event>
 6    1  0.1719556E-004  0.9920059E+03  0.7818608E-02  0.9317356E-01
          2   -1    0    0  501    0  0.00000000000E+00  0.00000000000E+00  0.82645589529E+03  0.82645589529E+03  0.00000000000E+00 0.  1.
         -2   -1    0    0    0  501 -0.00000000000E+00 -0.00000000000E+00 -0.29767946794E+03  0.29767946794E+03  0.00000000000E+00 0. -1.
         23    2    1    2    0    0 -0.15184355159E+03  0.58493273985E+02  0.79247078037E+03  0.81427629999E+03  0.92509608872E+02 0.  0.
         13    1    3    3    0    0 -0.18259096289E+02 -0.18801430165E+02  0.21294835786E+03  0.21455510128E+03  0.00000000000E+00 0. -1.
        -13    1    3    3    0    0 -0.13358445530E+03  0.77294704150E+02  0.57952242251E+03  0.59972119871E+03  0.00000000000E+00 0.  1.
         22    1    1    2    0    0  0.15184355159E+03 -0.58493273985E+02 -0.26369435301E+03  0.30985906324E+03  0.00000000000E+00 0. -1.
<mgrwt>
<rscale>  0 0.99200595E+03</rscale>
<asrwt>0</asrwt>
<pdfrwt beam="1">  1        2 0.12714706E+00 0.99200595E+03</pdfrwt>
<pdfrwt beam="2">  1       -2 0.45796841E-01 0.99200595E+03</pdfrwt>
<totfact> 0.14885618E+02</totfact>
</mgrwt>
</event>
<event>
 6    1  0.1719556E-004  0.1861027E+04  0.7818608E-02  0.8674503E-01
         -2   -1    0    0    0  501 -0.00000000000E+00  0.00000000000E+00  0.44908234349E+03  0.44908234349E+03  0.00000000000E+00 0.  1.
          2   -1    0    0  501    0  0.00000000000E+00 -0.00000000000E+00 -0.19280541108E+04  0.19280541108E+04  0.00000000000E+00 0. -1.
         23    2    1    2    0    0  0.68665747261E+03  0.33111352370E+02  0.55610501576E+02  0.69560810594E+03  0.90461388508E+02 0.  0.
         11    1    3    3    0    0  0.11071140075E+03 -0.14134766065E+01  0.42147293110E+02  0.11847112090E+03  0.00000000000E+00 0. -1.
        -11    1    3    3    0    0  0.57594607186E+03  0.34524828977E+02  0.13463208465E+02  0.57713698503E+03  0.00000000000E+00 0.  1.
         22    1    1    2    0    0 -0.68665747261E+03 -0.33111352370E+02 -0.15345822689E+04  0.16815283483E+04  0.00000000000E+00 0. -1.
<mgrwt>
<rscale>  0 0.18610267E+04</rscale>
<asrwt>0</asrwt>
<pdfrwt beam="1">  1        2 0.29662372E+00 0.18610267E+04</pdfrwt>
<pdfrwt beam="2">  1       -2 0.69089590E-01 0.18610267E+04</pdfrwt>
<totfact> 0.13163900E+01</totfact>
</mgrwt>
</event>
<event>
 6    1  0.1719556E-004  0.1766865E+04  0.7818608E-02  0.8724121E-01
          2   -1    0    0  501    0  0.00000000000E+00  0.00000000000E+00  0.85179224882E+03  0.85179224882E+03  0.00000000000E+00 0.  1.
         -2   -1    0    0    0  501 -0.00000000000E+00 -0.00000000000E+00 -0.91624804644E+03  0.91624804644E+03  0.00000000000E+00 0. -1.
         23    2    1    2    0    0  0.28400554649E+03  0.83261595724E+03  0.14105475402E+02  0.88481871699E+03  0.93790803414E+02 0.  0.
         13    1    3    3    0    0  0.11550846382E+03  0.29794827326E+03  0.48312044748E+02  0.32318637412E+03  0.00000000000E+00 0.  1.
        -13    1    3    3    0    0  0.16849708267E+03  0.53466768399E+03 -0.34206569346E+02  0.56163234287E+03  0.00000000000E+00 0. -1.
         22    1    1    2    0    0 -0.28400554649E+03 -0.83261595724E+03 -0.78561273022E+02  0.88322157827E+03  0.00000000000E+00 0. -1.
<mgrwt>
<rscale>  0 0.17668650E+04</rscale>
<asrwt>0</asrwt>
<pdfrwt beam="1">  1        2 0.13104496E+00 0.17668650E+04</pdfrwt>
<pdfrwt beam="2">  1       -2 0.14096124E+00 0.17668650E+04</pdfrwt>
<totfact> 0.10566515E+01</totfact>
</mgrwt>
</event>
<event>
 6    1  0.1719556E-004  0.1045867E+04  0.7818608E-02  0.9259621E-01
         -2   -1    0    0    0  501 -0.00000000000E+00  0.00000000000E+00  0.30106781493E+03  0.30106781493E+03  0.00000000000E+00 0. -1.
          2   -1    0    0  501    0  0.00000000000E+00 -0.00000000000E+00 -0.90829878814E+03  0.90829878814E+03  0.00000000000E+00 0.  1.
         23    2    1    2    0    0  0.47615457516E+03  0.30356383683E+02 -0.54192617290E+03  0.72779687145E+03  0.91430956178E+02 0.  0.
         13    1    3    3    0    0  0.29433185289E+03  0.41867192892E+02 -0.27748369538E+03  0.40667100053E+03  0.00000000000E+00 0.  1.
        -13    1    3    3    0    0  0.18182272226E+03 -0.11510809208E+02 -0.26444247752E+03  0.32112587092E+03  0.00000000000E+00 0. -1.
         22    1    1    2    0    0 -0.47615457516E+03 -0.30356383683E+02 -0.65304800304E+02  0.48156973162E+03  0.00000000000E+00 0.  1.
<mgrwt>
<rscale>  0 0.10458672E+04</rscale>
<asrwt>0</asrwt>
<pdfrwt beam="1">  1        2 0.13973827E+00 0.10458672E+04</pdfrwt>
<pdfrwt beam="2">  1       -2 0.46318126E-01 0.10458672E+04</pdfrwt>
<totfact> 0.12735714E+02</totfact>
</mgrwt>
</event>
<event>
 6    1  0.1719556E-004  0.7547712E+03  0.7818608E-02  0.9627895E-01
         -2   -1    0    0    0  501 -0.00000000000E+00  0.00000000000E+00  0.21967028987E+03  0.21967028987E+03  0.00000000000E+00 0. -1.
          2   -1    0    0  501    0  0.00000000000E+00 -0.00000000000E+00 -0.64833477453E+03  0.64833477453E+03  0.00000000000E+00 0.  1.
         23    2    1    2    0    0  0.48945618166E+01 -0.27769344308E+03 -0.50188267843E+03  0.58077952765E+03  0.91000174542E+02 0.  0.
         11    1    3    3    0    0  0.41884096672E+02 -0.11502261331E+03 -0.17198049278E+03  0.21109658695E+03  0.00000000000E+00 0.  1.
        -11    1    3    3    0    0 -0.36989534855E+02 -0.16267082977E+03 -0.32990218565E+03  0.36968294070E+03  0.00000000000E+00 0. -1.
         22    1    1    2    0    0 -0.48945618166E+01  0.27769344308E+03  0.73218193774E+02  0.28722553675E+03  0.00000000000E+00 0. -1.
<mgrwt>
<rscale>  0 0.75477119E+03</rscale>
<asrwt>0</asrwt>
<pdfrwt beam="1">  1        2 0.99743811E-01 0.75477119E+03</pdfrwt>
<pdfrwt beam="2">  1       -2 0.33795429E-01 0.75477119E+03</pdfrwt>
<totfact> 0.37167298E+02</totfact>
</mgrwt>
</event>
<event>
 6    1  0.1719556E-004  0.8462542E+04  0.7818608E-02  0.7442928E-01
         -2   -1    0    0    0  501 -0.00000000000E+00  0.00000000000E+00  0.41842279697E+04  0.41842279697E+04  0.00000000000E+00 0. -1.
          2   -1    0    0  501    0  0.00000000000E+00 -0.00000000000E+00 -0.42788425808E+04  0.42788425808E+04  0.00000000000E+00 0.  1.
         23    2    1    2    0    0 -0.16286891590E+04  0.35171035787E+04 -0.17435894377E+04  0.42509732181E+04  0.89572393240E+02 0.  0.
         13    1    3    3    0    0 -0.62657489053E+03  0.12507456399E+04 -0.62776552408E+03  0.15333135043E+04  0.00000000000E+00 0. -1.
        -13    1    3    3    0    0 -0.10021142685E+04  0.22663579387E+04 -0.11158239136E+04  0.27176597138E+04  0.00000000000E+00 0.  1.
         22    1    1    2    0    0  0.16286891590E+04 -0.35171035787E+04  0.16489748266E+04  0.42120973325E+04  0.00000000000E+00 0. -1.
<mgrwt>
<rscale>  0 0.84625417E+04</rscale>
<asrwt>0</asrwt>
<pdfrwt beam="1">  1        2 0.65828347E+00 0.84625417E+04</pdfrwt>
<pdfrwt beam="2">  1       -2 0.64372738E+00 0.84625417E+04</pdfrwt>
<totfact> 0.40293255E-05</totfact>
</mgrwt>
</event>
<event>
 6    1  0.1719556E-004  0.1023526E+04  0.7818608E-02  0.9283112E-01
         -2   -1    0    0    0  501 -0.00000000000E+00  0.00000000000E+00  0.44745753693E+03  0.44745753693E+03  0.00000000000E+00 0. -1.
          2   -1    0    0  501    0  0.00000000000E+00 -0.00000000000E+00 -0.58531012955E+03  0.58531012955E+03  0.00000000000E+00 0.  1.
         23    2    1    2    0    0 -0.18329751518E+03 -0.26321674060E+03 -0.46619722235E+03  0.57375652558E+03  0.94740006927E+02 0.  0.
         11    1    3    3    0    0 -0.40580018505E+02 -0.11856248585E+03 -0.12747848532E+03  0.17875839889E+03  0.00000000000E+00 0.  1.
        -11    1    3    3    0    0 -0.14271749667E+03 -0.14465425475E+03 -0.33871873703E+03  0.39499812669E+03  0.00000000000E+00 0. -1.
         22    1    1    2    0    0  0.18329751518E+03  0.26321674060E+03  0.32834462973E+03  0.45901114091E+03  0.00000000000E+00 0. -1.
<mgrwt>
<rscale>  0 0.10235261E+04</rscale>
<asrwt>0</asrwt>
<pdfrwt beam="1">  1        2 0.90047713E-01 0.10235261E+04</pdfrwt>
<pdfrwt beam="2">  1       -2 0.68839621E-01 0.10235261E+04</pdfrwt>
<totfact> 0.98320642E+01</totfact>
</mgrwt>
</event>
<event>
 6    1  0.1719556E-004  0.5395465E+04  0.7818608E-02  0.7770239E-01
         -2   -1    0    0    0  501 -0.00000000000E+00  0.00000000000E+00  0.19045236069E+04  0.19045236069E+04  0.00000000000E+00 0. -1.
          2   -1    0    0  501    0  0.00000000000E+00 -0.00000000000E+00 -0.38213023528E+04  0.38213023528E+04  0.00000000000E+00 0.  1.
         23    2    1    2    0    0 -0.22571905225E+04 -0.11443452796E+04  0.30252224716E+02  0.25328078304E+04  0.98818696630E+02 0.  0.
         13    1    3    3    0    0 -0.14030419255E+04 -0.75549628129E+03 -0.78843360849E+01  0.15935380254E+04  0.00000000000E+00 0.  1.
        -13    1    3    3    0    0 -0.85414859695E+03 -0.38884899835E+03  0.38136560801E+02  0.93926980493E+03  0.00000000000E+00 0. -1.
         22    1    1    2    0    0  0.22571905225E+04  0.11443452796E+04 -0.19470309706E+04  0.31930181293E+04  0.00000000000E+00 0. -1.
<mgrwt>
<rscale>  0 0.53954650E+04</rscale>
<asrwt>0</asrwt>
<pdfrwt beam="1">  1        2 0.58789266E+00 0.53954650E+04</pdfrwt>
<pdfrwt beam="2">  1       -2 0.29300364E+00 0.53954650E+04</pdfrwt>
<totfact> 0.11664225E-02</totfact>
</mgrwt>
</event>
<event>
 6    1  0.1719556E-004  0.1691925E+04  0.7818608E-02  0.8765983E-01
         -2   -1    0    0    0  501 -0.00000000000E+00  0.00000000000E+00  0.19094255575E+04  0.19094255575E+04  0.00000000000E+00 0. -1.
          2   -1    0    0  501    0  0.00000000000E+00 -0.00000000000E+00 -0.37480004899E+03  0.37480004899E+03  0.00000000000E+00 0.  1.
         23    2    1    2    0    0 -0.83795509906E+03  0.83393853769E+02  0.70917936062E+03  0.11050374850E+04  0.95127255550E+02 0.  0.
         11    1    3    3    0    0 -0.46453380570E+03  0.48870069092E+02  0.33131805105E+03  0.57267057830E+03  0.00000000000E+00 0.  1.
        -11    1    3    3    0    0 -0.37342129336E+03  0.34523784677E+02  0.37786130957E+03  0.53236690666E+03  0.00000000000E+00 0. -1.
         22    1    1    2    0    0  0.83795509906E+03 -0.83393853769E+02  0.82544614791E+03  0.11791881215E+04  0.00000000000E+00 0.  1.
<mgrwt>
<rscale>  0 0.16919253E+04</rscale>
<asrwt>0</asrwt>
<pdfrwt beam="1">  1        2 0.57661547E-01 0.16919253E+04</pdfrwt>
<pdfrwt beam="2">  1       -2 0.29375777E+00 0.16919253E+04</pdfrwt>
<totfact> 0.28332394E+00</totfact>
</mgrwt>
</event>
<event>
 6    1  0.1719556E-004  0.1503114E+04  0.7818608E-02  0.8882385E-01
          2   -1    0    0  501    0  0.00000000000E+00  0.00000000000E+00  0.12640893096E+04  0.12640893096E+04  0.00000000000E+00 0.  1.
         -2   -1    0    0    0  501 -0.00000000000E+00 -0.00000000000E+00 -0.44683388853E+03  0.44683388853E+03  0.00000000000E+00 0. -1.
         23    2    1    2    0    0 -0.27112070449E+03 -0.46238976174E+03 -0.18479259629E+03  0.57452055943E+03  0.92816169860E+02 0.  0.
         13    1    3    3    0    0 -0.19373286769E+03 -0.25564107924E+03 -0.82392372412E+02  0.33116957658E+03  0.00000000000E+00 0. -1.
        -13    1    3    3    0    0 -0.77387836799E+02 -0.20674868250E+03 -0.10240022388E+03  0.24335098284E+03  0.00000000000E+00 0.  1.
         22    1    1    2    0    0  0.27112070449E+03  0.46238976174E+03  0.10020480174E+04  0.11364026387E+04  0.00000000000E+00 0.  1.
<mgrwt>
<rscale>  0 0.15031140E+04</rscale>
<asrwt>0</asrwt>
<pdfrwt beam="1">  1        2 0.19447528E+00 0.15031140E+04</pdfrwt>
<pdfrwt beam="2">  1       -2 0.68743675E-01 0.15031140E+04</pdfrwt>
<totfact> 0.32416587E+01</totfact>
</mgrwt>
</event>
<event>
 6    1  0.1719556E-004  0.3743045E+04  0.7818608E-02  0.8058489E-01
         -2   -1    0    0    0  501 -0.00000000000E+00  0.00000000000E+00  0.18965387617E+04  0.18965387617E+04  0.00000000000E+00 0. -1.
          2   -1    0    0  501    0  0.00000000000E+00 -0.00000000000E+00 -0.18468365715E+04  0.18468365715E+04  0.00000000000E+00 0.  1.
         23    2    1    2    0    0 -0.77179731263E+03  0.61379302441E+03  0.16143540915E+04  0.18939028298E+04  0.91191159329E+02 0.  0.
         13    1    3    3    0    0 -0.56017679172E+03  0.39207444125E+03  0.11047952202E+04  0.12992662868E+04  0.00000000000E+00 0.  1.
        -13    1    3    3    0    0 -0.21162052091E+03  0.22171858316E+03  0.50955887126E+03  0.59463654300E+03  0.00000000000E+00 0. -1.
         22    1    1    2    0    0  0.77179731263E+03 -0.61379302441E+03 -0.15646519012E+04  0.18494725034E+04  0.00000000000E+00 0.  1.
<mgrwt>
<rscale>  0 0.37430454E+04</rscale>
<asrwt>0</asrwt>
<pdfrwt beam="1">  1        2 0.28412870E+00 0.37430454E+04</pdfrwt>
<pdfrwt beam="2">  1       -2 0.29177519E+00 0.37430454E+04</pdfrwt>
<totfact> 0.23364622E-01</totfact>
</mgrwt>
</event>
<event>
 6    1  0.1719556E-004  0.1168422E+04  0.7818608E-02  0.9140955E-01
          2   -1    0    0  501    0  0.00000000000E+00  0.00000000000E+00  0.48012623431E+03  0.48012623431E+03  0.00000000000E+00 0.  1.
         -2   -1    0    0    0  501 -0.00000000000E+00 -0.00000000000E+00 -0.71085987009E+03  0.71085987009E+03  0.00000000000E+00 0. -1.
         23    2    1    2    0    0  0.57440558698E+03 -0.28370899420E+02 -0.32662125755E+02  0.58272710580E+03  0.88075984755E+02 0.  0.
         11    1    3    3    0    0  0.23832504551E+03 -0.55281992641E+02 -0.12960314756E+02  0.24499570564E+03  0.00000000000E+00 0.  1.
        -11    1    3    3    0    0  0.33608054148E+03  0.26911093222E+02 -0.19701810999E+02  0.33773140016E+03  0.00000000000E+00 0. -1.
         22    1    1    2    0    0 -0.57440558698E+03  0.28370899420E+02 -0.19807151003E+03  0.60825899860E+03  0.00000000000E+00 0.  1.
<mgrwt>
<rscale>  0 0.11684220E+04</rscale>
<asrwt>0</asrwt>
<pdfrwt beam="1">  1        2 0.73865575E-01 0.11684220E+04</pdfrwt>
<pdfrwt beam="2">  1       -2 0.10936306E+00 0.11684220E+04</pdfrwt>
<totfact> 0.42525435E+01</totfact>
</mgrwt>
</event>
<event>
 6    1  0.1719556E-004  0.2690552E+04  0.7818608E-02  0.8338077E-01
          2   -1    0    0  501    0  0.00000000000E+00  0.00000000000E+00  0.21924365949E+04  0.21924365949E+04  0.00000000000E+00 0.  1.
         -2   -1    0    0    0  501 -0.00000000000E+00 -0.00000000000E+00 -0.82545915028E+03  0.82545915028E+03  0.00000000000E+00 0. -1.
         23    2    1    2    0    0 -0.52628138595E+03 -0.84397029060E+03 -0.32884933828E+03  0.10519134395E+04  0.95509414817E+02 0.  0.
         11    1    3    3    0    0 -0.31735394354E+02 -0.54837397651E+02 -0.47056193246E+02  0.78921231356E+02  0.00000000000E+00 0.  1.
        -11    1    3    3    0    0 -0.49454599160E+03 -0.78913289295E+03 -0.28179314504E+03  0.97299220815E+03  0.00000000000E+00 0. -1.
         22    1    1    2    0    0  0.52628138595E+03  0.84397029060E+03  0.16958267829E+04  0.19659823057E+04  0.00000000000E+00 0.  1.
<mgrwt>
<rscale>  0 0.26905515E+04</rscale>
<asrwt>0</asrwt>
<pdfrwt beam="1">  1        2 0.33729794E+00 0.26905515E+04</pdfrwt>
<pdfrwt beam="2">  1       -2 0.12699372E+00 0.26905515E+04</pdfrwt>
<totfact> 0.21093778E+00</totfact>
</mgrwt>
</event>
<event>
 6    1  0.1719556E-004  0.3168471E+04  0.7818608E-02  0.8197194E-01
          2   -1    0    0  501    0  0.00000000000E+00  0.00000000000E+00  0.16862428679E+04  0.16862428679E+04  0.00000000000E+00 0.  1.
         -2   -1    0    0    0  501 -0.00000000000E+00 -0.00000000000E+00 -0.14883985230E+04  0.14883985230E+04  0.00000000000E+00 0. -1.
         23    2    1    2    0    0 -0.15647943114E+04  0.23682518625E+03  0.12777175385E+03  0.15904767612E+04  0.92861729630E+02 0.  0.
         11    1    3    3    0    0 -0.85003123115E+03  0.13764779373E+03  0.11503185296E+03  0.86875332301E+03  0.00000000000E+00 0. -1.
        -11    1    3    3    0    0 -0.71476308029E+03  0.99177392521E+02  0.12739900887E+02  0.72172343818E+03  0.00000000000E+00 0.  1.
         22    1    1    2    0    0  0.15647943114E+04 -0.23682518625E+03  0.70072591012E+02  0.15841646297E+04  0.00000000000E+00 0. -1.
<mgrwt>
<rscale>  0 0.31684705E+04</rscale>
<asrwt>0</asrwt>
<pdfrwt beam="1">  1        2 0.25942198E+00 0.31684705E+04</pdfrwt>
<pdfrwt beam="2">  1       -2 0.22898439E+00 0.31684705E+04</pdfrwt>
<totfact> 0.73117470E-01</totfact>
</mgrwt>
</event>
<event>
 6    1  0.1719556E-004  0.1459752E+04  0.7818608E-02  0.8911668E-01
          2   -1    0    0  501    0  0.00000000000E+00  0.00000000000E+00  0.22554454559E+04  0.22554454559E+04  0.00000000000E+00 0.  1.
         -2   -1    0    0    0  501 -0.00000000000E+00 -0.00000000000E+00 -0.23619225711E+03  0.23619225711E+03  0.00000000000E+00 0. -1.
         23    2    1    2    0    0  0.72110389861E+02  0.49120582640E+03  0.10778300513E+03  0.51674496315E+03  0.94472792555E+02 0.  0.
         11    1    3    3    0    0 -0.18248368274E+02  0.15717876997E+03  0.18007338050E+02  0.15925587241E+03  0.00000000000E+00 0.  1.
        -11    1    3    3    0    0  0.90358758135E+02  0.33402705643E+03  0.89775667076E+02  0.35748909074E+03  0.00000000000E+00 0. -1.
         22    1    1    2    0    0 -0.72110389861E+02 -0.49120582640E+03  0.19114701936E+04  0.19748927498E+04  0.00000000000E+00 0.  1.
<mgrwt>
<rscale>  0 0.14597517E+04</rscale>
<asrwt>0</asrwt>
<pdfrwt beam="1">  1        2 0.34699159E+00 0.14597517E+04</pdfrwt>
<pdfrwt beam="2">  1       -2 0.36337272E-01 0.14597517E+04</pdfrwt>
<totfact> 0.33242998E+01</totfact>
</mgrwt>
</event>
<event>
 6    1  0.1719556E-004  0.2625200E+04  0.7818608E-02  0.8359691E-01
          2   -1    0    0  501    0  0.00000000000E+00  0.00000000000E+00  0.33915982145E+04  0.33915982145E+04  0.00000000000E+00 0.  1.
         -2   -1    0    0    0  501 -0.00000000000E+00 -0.00000000000E+00 -0.50799606011E+03  0.50799606011E+03  0.00000000000E+00 0. -1.
         23    2    1    2    0    0  0.22789225460E+02  0.34591523734E+03  0.33216839121E+04  0.33409420334E+04  0.90182918744E+02 0.  0.
         13    1    3    3    0    0  0.52155290209E+02  0.14505724927E+03  0.13077349450E+04  0.13167886946E+04  0.00000000000E+00 0.  1.
        -13    1    3    3    0    0 -0.29366064750E+02  0.20085798807E+03  0.20139489671E+04  0.20241533388E+04  0.00000000000E+00 0. -1.
         22    1    1    2    0    0 -0.22789225460E+02 -0.34591523734E+03 -0.43808175765E+03  0.55865224121E+03  0.00000000000E+00 0. -1.
<mgrwt>
<rscale>  0 0.26251998E+04</rscale>
<asrwt>0</asrwt>
<pdfrwt beam="1">  1        2 0.52178433E+00 0.26251998E+04</pdfrwt>
<pdfrwt beam="2">  1       -2 0.78153242E-01 0.26251998E+04</pdfrwt>
<totfact> 0.12427070E+00</totfact>
</mgrwt>
</event>
<event>
 6    1  0.1719556E-004  0.2814986E+04  0.7818608E-02  0.8298631E-01
         -1   -1    0    0    0  501 -0.00000000000E+00  0.00000000000E+00  0.86792142526E+03  0.86792142526E+03  0.00000000000E+00 0.  1.
          1   -1    0    0  501    0  0.00000000000E+00 -0.00000000000E+00 -0.22825070969E+04  0.22825070969E+04  0.00000000000E+00 0. -1.
         23    2    1    2    0    0  0.10013386955E+04  0.38305086630E+03 -0.17261044135E+04  0.20339827887E+04  0.90787606084E+02 0.  0.
         13    1    3    3    0    0  0.47513008203E+03  0.13402635728E+03 -0.77752509665E+03  0.92100865100E+03  0.00000000000E+00 0. -1.
        -13    1    3    3    0    0  0.52620861342E+03  0.24902450901E+03 -0.94857931685E+03  0.11129741377E+04  0.00000000000E+00 0.  1.
         22    1    1    2    0    0 -0.10013386955E+04 -0.38305086630E+03  0.31151874184E+03  0.11164457334E+04  0.00000000000E+00 0.  1.
<mgrwt>
<rscale>  0 0.28149862E+04</rscale>
<asrwt>0</asrwt>
<pdfrwt beam="1">  1        1 0.35115494E+00 0.28149862E+04</pdfrwt>
<pdfrwt beam="2">  1       -1 0.13352637E+00 0.28149862E+04</pdfrwt>
<totfact> 0.78350892E-01</totfact>
</mgrwt>
</event>
<event>
 6    1  0.1719556E-004  0.3679287E+04  0.7818608E-02  0.8072568E-01
          2   -1    0    0  501    0  0.00000000000E+00  0.00000000000E+00  0.17510191697E+04  0.17510191697E+04  0.00000000000E+00 0.  1.
         -2   -1    0    0    0  501 -0.00000000000E+00 -0.00000000000E+00 -0.19327537913E+04  0.19327537913E+04  0.00000000000E+00 0. -1.
         23    2    1    2    0    0  0.30939014994E+03 -0.97169261219E+03 -0.16226011280E+04  0.19185519872E+04  0.89991719682E+02 0.  0.
         11    1    3    3    0    0  0.18614002185E+03 -0.62105884141E+03 -0.95128729145E+03  0.11512209619E+04  0.00000000000E+00 0.  1.
        -11    1    3    3    0    0  0.12325012810E+03 -0.35063377078E+03 -0.67131383652E+03  0.76733102530E+03  0.00000000000E+00 0. -1.
         22    1    1    2    0    0 -0.30939014994E+03  0.97169261219E+03  0.14408665063E+04  0.17652209738E+04  0.00000000000E+00 0.  1.
<mgrwt>
<rscale>  0 0.36792874E+04</rscale>
<asrwt>0</asrwt>
<pdfrwt beam="1">  1        2 0.26938756E+00 0.36792874E+04</pdfrwt>
<pdfrwt beam="2">  1       -2 0.29734674E+00 0.36792874E+04</pdfrwt>
<totfact> 0.24543819E-01</totfact>
</mgrwt>
</event>
<event>
 6    1  0.1719556E-004  0.2185416E+04  0.7818608E-02  0.8524523E-01
         -2   -1    0    0    0  501 -0.00000000000E+00  0.00000000000E+00  0.98870855846E+03  0.98870855846E+03  0.00000000000E+00 0.  1.
          2   -1    0    0  501    0  0.00000000000E+00 -0.00000000000E+00 -0.12076466282E+04  0.12076466282E+04  0.00000000000E+00 0. -1.
         23    2    1    2    0    0  0.43027878223E+02  0.72619937169E+03 -0.92654209522E+03  0.11815052556E+04  0.90870727507E+02 0.  0.
         13    1    3    3    0    0  0.43494792963E+01  0.48734941313E+03 -0.56096693488E+03  0.74310986434E+03  0.00000000000E+00 0.  1.
        -13    1    3    3    0    0  0.38678398927E+02  0.23884995856E+03 -0.36557516034E+03  0.43839539129E+03  0.00000000000E+00 0. -1.
         22    1    1    2    0    0 -0.43027878223E+02 -0.72619937169E+03  0.70760402545E+03  0.10148499311E+04  0.00000000000E+00 0.  1.
<mgrwt>
<rscale>  0 0.21854158E+04</rscale>
<asrwt>0</asrwt>
<pdfrwt beam="1">  1        2 0.18579179E+00 0.21854158E+04</pdfrwt>
<pdfrwt beam="2">  1       -2 0.15210901E+00 0.21854158E+04</pdfrwt>
<totfact> 0.49520981E+00</totfact>
</mgrwt>
</event>
<event>
 6    1  0.1719556E-004  0.1611511E+04  0.7818608E-02  0.8813507E-01
          2   -1    0    0  501    0  0.00000000000E+00  0.00000000000E+00  0.15240276502E+04  0.15240276502E+04  0.00000000000E+00 0.  1.
         -2   -1    0    0    0  501 -0.00000000000E+00 -0.00000000000E+00 -0.42600421478E+03  0.42600421478E+03  0.00000000000E+00 0. -1.
         23    2    1    2    0    0  0.27446071354E+03  0.69639572304E+03  0.90307344643E+03  0.11765325537E+04  0.91605207116E+02 0.  0.
         13    1    3    3    0    0  0.20550156650E+03  0.45428921241E+03  0.54310412920E+03  0.73727313629E+03  0.00000000000E+00 0. -1.
        -13    1    3    3    0    0  0.68959147036E+02  0.24210651063E+03  0.35996931724E+03  0.43925941743E+03  0.00000000000E+00 0.  1.
         22    1    1    2    0    0 -0.27446071354E+03 -0.69639572304E+03  0.19494998900E+03  0.77349931128E+03  0.00000000000E+00 0. -1.
<mgrwt>
<rscale>  0 0.16115113E+04</rscale>
<asrwt>0</asrwt>
<pdfrwt beam="1">  1        2 0.23446579E+00 0.16115113E+04</pdfrwt>
<pdfrwt beam="2">  1       -2 0.65539111E-01 0.16115113E+04</pdfrwt>
<totfact> 0.25278247E+01</totfact>
</mgrwt>
</event>
<event>
 6    1  0.1719556E-004  0.5798946E+03  0.7818608E-02  0.9948019E-01
         -2   -1    0    0    0  501 -0.00000000000E+00  0.00000000000E+00  0.41190267358E+03  0.41190267358E+03  0.00000000000E+00 0. -1.
          2   -1    0    0  501    0  0.00000000000E+00 -0.00000000000E+00 -0.20410025008E+03  0.20410025008E+03  0.00000000000E+00 0.  1.
         23    2    1    2    0    0 -0.22867441816E+03  0.16183200155E+03  0.13128840256E+03  0.32559634377E+03  0.10146303849E+03 0.  0.
         13    1    3    3    0    0 -0.54328414706E+02 -0.74640789242E+01  0.27418105608E+02  0.61311023754E+02  0.00000000000E+00 0. -1.
        -13    1    3    3    0    0 -0.17434600346E+03  0.16929608048E+03  0.10387029695E+03  0.26428532001E+03  0.00000000000E+00 0.  1.
         22    1    1    2    0    0  0.22867441816E+03 -0.16183200155E+03  0.76514020939E+02  0.29040657990E+03  0.00000000000E+00 0. -1.
<mgrwt>
<rscale>  0 0.57989461E+03</rscale>
<asrwt>0</asrwt>
<pdfrwt beam="1">  1        2 0.31400039E-01 0.57989461E+03</pdfrwt>
<pdfrwt beam="2">  1       -2 0.63369642E-01 0.57989461E+03</pdfrwt>
<totfact> 0.39348500E+02</totfact>
</mgrwt>
</event>
<event>
 6    1  0.1719556E-004  0.2253705E+04  0.7818608E-02  0.8496402E-01
         -2   -1    0    0    0  501 -0.00000000000E+00  0.00000000000E+00  0.18473886383E+04  0.18473886383E+04  0.00000000000E+00 0. -1.
          2   -1    0    0  501    0  0.00000000000E+00 -0.00000000000E+00 -0.68734680013E+03  0.68734680013E+03  0.00000000000E+00 0.  1.
         23    2    1    2    0    0  0.10122360401E+04  0.26003262497E+03  0.10493132254E+04  0.14837836829E+04  0.91197619412E+02 0.  0.
         13    1    3    3    0    0  0.78580856751E+03  0.16757376064E+03  0.83156491518E+03  0.11563201452E+04  0.00000000000E+00 0. -1.
        -13    1    3    3    0    0  0.22642747255E+03  0.92458864334E+02  0.21774831018E+03  0.32746353767E+03  0.00000000000E+00 0.  1.
         22    1    1    2    0    0 -0.10122360401E+04 -0.26003262497E+03  0.11072861282E+03  0.10509517556E+04  0.00000000000E+00 0.  1.
<mgrwt>
<rscale>  0 0.22537051E+04</rscale>
<asrwt>0</asrwt>
<pdfrwt beam="1">  1        2 0.10574566E+00 0.22537051E+04</pdfrwt>
<pdfrwt beam="2">  1       -2 0.28421364E+00 0.22537051E+04</pdfrwt>
<totfact> 0.15148735E+00</totfact>
</mgrwt>
</event>
<event>
 6    1  0.1719556E-004  0.4299704E+04  0.7818608E-02  0.7946673E-01
         -2   -1    0    0    0  501 -0.00000000000E+00  0.00000000000E+00  0.22805175559E+04  0.22805175559E+04  0.00000000000E+00 0. -1.
          2   -1    0    0  501    0  0.00000000000E+00 -0.00000000000E+00 -0.20266733831E+04  0.20266733831E+04  0.00000000000E+00 0.  1.
         23    2    1    2    0    0  0.64299435678E+03  0.65540598021E+03  0.20733923316E+04  0.22691148256E+04  0.83232140619E+02 0.  0.
         13    1    3    3    0    0  0.16817613501E+03  0.19068949396E+03  0.66263394911E+03  0.70973899851E+03  0.00000000000E+00 0. -1.
        -13    1    3    3    0    0  0.47481822177E+03  0.46471648625E+03  0.14107583825E+04  0.15593758271E+04  0.00000000000E+00 0.  1.
         22    1    1    2    0    0 -0.64299435678E+03 -0.65540598021E+03 -0.18195481588E+04  0.20380761134E+04  0.00000000000E+00 0.  1.
<mgrwt>
<rscale>  0 0.42997043E+04</rscale>
<asrwt>0</asrwt>
<pdfrwt beam="1">  1        2 0.31179591E+00 0.42997043E+04</pdfrwt>
<pdfrwt beam="2">  1       -2 0.35084885E+00 0.42997043E+04</pdfrwt>
<totfact> 0.76396926E-02</totfact>
</mgrwt>
</event>
<event>
 6    1  0.1719556E-004  0.3550168E+03  0.7818608E-02  0.1060575E+00
         -2   -1    0    0    0  501 -0.00000000000E+00  0.00000000000E+00  0.51630414898E+03  0.51630414898E+03  0.00000000000E+00 0. -1.
          2   -1    0    0  501    0  0.00000000000E+00 -0.00000000000E+00 -0.61028431027E+02  0.61028431027E+02  0.00000000000E+00 0.  1.
         23    2    1    2    0    0  0.15150454625E+03  0.29866606677E+02  0.17021749709E+03  0.25313536995E+03  0.10610314546E+03 0.  0.
         11    1    3    3    0    0  0.11550287521E+03  0.54067451749E+02  0.16631189535E+03  0.20958017572E+03  0.00000000000E+00 0.  1.
        -11    1    3    3    0    0  0.36001671033E+02 -0.24200845072E+02  0.39056017425E+01  0.43555194229E+02  0.00000000000E+00 0. -1.
         22    1    1    2    0    0 -0.15150454625E+03 -0.29866606677E+02  0.28505822086E+03  0.32419721006E+03  0.00000000000E+00 0. -1.
<mgrwt>
<rscale>  0 0.35501680E+03</rscale>
<asrwt>0</asrwt>
<pdfrwt beam="1">  1        2 0.93889897E-02 0.35501680E+03</pdfrwt>
<pdfrwt beam="2">  1       -2 0.79431404E-01 0.35501680E+03</pdfrwt>
<totfact> 0.10094826E+03</totfact>
</mgrwt>
</event>
<event>
 6    1  0.1719556E-004  0.1668057E+04  0.7818608E-02  0.8779795E-01
         -2   -1    0    0    0  501 -0.00000000000E+00  0.00000000000E+00  0.18938929449E+03  0.18938929449E+03  0.00000000000E+00 0. -1.
          2   -1    0    0  501    0  0.00000000000E+00 -0.00000000000E+00 -0.36728773251E+04  0.36728773251E+04  0.00000000000E+00 0.  1.
         23    2    1    2    0    0 -0.60555294139E+03  0.96503867606E+02 -0.30474420305E+04  0.31098415565E+04  0.90577128065E+02 0.  0.
         13    1    3    3    0    0 -0.15645763259E+03  0.39422163206E+02 -0.62700738626E+03  0.64743444469E+03  0.00000000000E+00 0.  1.
        -13    1    3    3    0    0 -0.44909530880E+03  0.57081704400E+02 -0.24204346442E+04  0.24624071118E+04  0.00000000000E+00 0. -1.
         22    1    1    2    0    0  0.60555294139E+03 -0.96503867606E+02 -0.43604600007E+03  0.75242506302E+03  0.00000000000E+00 0. -1.
<mgrwt>
<rscale>  0 0.16680571E+04</rscale>
<asrwt>0</asrwt>
<pdfrwt beam="1">  1        2 0.56505802E+00 0.16680571E+04</pdfrwt>
<pdfrwt beam="2">  1       -2 0.29136816E-01 0.16680571E+04</pdfrwt>
<totfact> 0.63948104E+00</totfact>
</mgrwt>
</event>
<event>
 6    1  0.1719556E-004  0.2235830E+04  0.7818608E-02  0.8503661E-01
          2   -1    0    0  501    0  0.00000000000E+00  0.00000000000E+00  0.25673185125E+04  0.25673185125E+04  0.00000000000E+00 0.  1.
         -2   -1    0    0    0  501 -0.00000000000E+00 -0.00000000000E+00 -0.48678564780E+03  0.48678564780E+03  0.00000000000E+00 0. -1.
         23    2    1    2    0    0  0.34090221614E+03  0.97722101716E+03  0.47176381451E+03  0.11411710475E+04  0.92385202117E+02 0.  0.
         13    1    3    3    0    0  0.73495022428E+02  0.25302412415E+03  0.16234587247E+03  0.30948167640E+03  0.00000000000E+00 0. -1.
        -13    1    3    3    0    0  0.26740719371E+03  0.72419689301E+03  0.30941794204E+03  0.83168937107E+03  0.00000000000E+00 0.  1.
         22    1    1    2    0    0 -0.34090221614E+03 -0.97722101716E+03  0.16087690502E+04  0.19129331129E+04  0.00000000000E+00 0.  1.
<mgrwt>
<rscale>  0 0.22358299E+04</rscale>
<asrwt>0</asrwt>
<pdfrwt beam="1">  1        2 0.39497207E+00 0.22358299E+04</pdfrwt>
<pdfrwt beam="2">  1       -2 0.74890101E-01 0.22358299E+04</pdfrwt>
<totfact> 0.46442044E+00</totfact>
</mgrwt>
</event>
<event>
 6    1  0.1719556E-004  0.1773947E+04  0.7818608E-02  0.8720278E-01
         -1   -1    0    0    0  501 -0.00000000000E+00  0.00000000000E+00  0.37976148730E+03  0.37976148730E+03  0.00000000000E+00 0. -1.
          1   -1    0    0  501    0  0.00000000000E+00 -0.00000000000E+00 -0.20716216993E+04  0.20716216993E+04  0.00000000000E+00 0.  1.
         23    2    1    2    0    0 -0.51520387485E+03 -0.67429416293E+03 -0.50290030414E+03  0.99065278255E+03  0.91523597194E+02 0.  0.
         11    1    3    3    0    0 -0.16083871497E+03 -0.24880224976E+03 -0.13307125359E+03  0.32477624644E+03  0.00000000000E+00 0.  1.
        -11    1    3    3    0    0 -0.35436515988E+03 -0.42549191317E+03 -0.36982905055E+03  0.66587653611E+03  0.00000000000E+00 0. -1.
         22    1    1    2    0    0  0.51520387485E+03  0.67429416293E+03 -0.11889599079E+04  0.14607304041E+04  0.00000000000E+00 0.  1.
<mgrwt>
<rscale>  0 0.17739472E+04</rscale>
<asrwt>0</asrwt>
<pdfrwt beam="1">  1        1 0.31871103E+00 0.17739472E+04</pdfrwt>
<pdfrwt beam="2">  1       -1 0.58424845E-01 0.17739472E+04</pdfrwt>
<totfact> 0.74813881E+00</totfact>
</mgrwt>
</event>
<event>
 6    1  0.1719556E-004  0.7601543E+03  0.7818608E-02  0.9619553E-01
         -2   -1    0    0    0  501 -0.00000000000E+00  0.00000000000E+00  0.42858717025E+02  0.42858717025E+02  0.00000000000E+00 0. -1.
          2   -1    0    0  501    0  0.00000000000E+00 -0.00000000000E+00 -0.33705774095E+04  0.33705774095E+04  0.00000000000E+00 0.  1.
         23    2    1    2    0    0  0.28165242883E+03  0.24156754821E+03 -0.14246513879E+04  0.14745322773E+04  0.83251958386E+02 0.  0.
         13    1    3    3    0    0  0.17332642386E+03  0.16835937910E+03 -0.10587546685E+04  0.10859780743E+04  0.00000000000E+00 0.  1.
        -13    1    3    3    0    0  0.10832600497E+03  0.73208169113E+02 -0.36589671945E+03  0.38855420302E+03  0.00000000000E+00 0. -1.
         22    1    1    2    0    0 -0.28165242883E+03 -0.24156754821E+03 -0.19030673045E+04  0.19389038492E+04  0.00000000000E+00 0.  1.
<mgrwt>
<rscale>  0 0.76015426E+03</rscale>
<asrwt>0</asrwt>
<pdfrwt beam="1">  1        2 0.51855059E+00 0.76015426E+03</pdfrwt>
<pdfrwt beam="2">  1       -2 0.65936460E-02 0.76015426E+03</pdfrwt>
<totfact> 0.14283062E+02</totfact>
</mgrwt>
</event>
<event>
 6    1  0.1719556E-004  0.2773837E+04  0.7818608E-02  0.8311437E-01
          2   -1    0    0  501    0  0.00000000000E+00  0.00000000000E+00  0.21764106985E+04  0.21764106985E+04  0.00000000000E+00 0.  1.
         -2   -1    0    0    0  501 -0.00000000000E+00 -0.00000000000E+00 -0.88381409626E+03  0.88381409626E+03  0.00000000000E+00 0. -1.
         23    2    1    2    0    0 -0.12332249133E+03  0.39159672114E+03  0.21067558337E+04  0.21484070043E+04  0.93145499957E+02 0.  0.
         13    1    3    3    0    0 -0.23422778874E+02  0.10779210218E+03  0.79322116361E+03  0.80085428029E+03  0.00000000000E+00 0. -1.
        -13    1    3    3    0    0 -0.99899712453E+02  0.28380461896E+03  0.13135346701E+04  0.13475527240E+04  0.00000000000E+00 0.  1.
         22    1    1    2    0    0  0.12332249133E+03 -0.39159672114E+03 -0.81415923148E+03  0.91181779050E+03  0.00000000000E+00 0. -1.
<mgrwt>
<rscale>  0 0.27738367E+04</rscale>
<asrwt>0</asrwt>
<pdfrwt beam="1">  1        2 0.33483242E+00 0.27738367E+04</pdfrwt>
<pdfrwt beam="2">  1       -2 0.13597140E+00 0.27738367E+04</pdfrwt>
<totfact> 0.17982097E+00</totfact>
</mgrwt>
</event>
<event>
 6    1  0.1719556E-004  0.2476928E+04  0.7818608E-02  0.8411251E-01
         -1   -1    0    0    0  501 -0.00000000000E+00  0.00000000000E+00  0.94273353575E+03  0.94273353575E+03  0.00000000000E+00 0.  1.
          1   -1    0    0  501    0  0.00000000000E+00 -0.00000000000E+00 -0.16269633739E+04  0.16269633739E+04  0.00000000000E+00 0. -1.
         23    2    1    2    0    0  0.18507734234E+02 -0.43933968835E+03 -0.15419603696E+04  0.16058174761E+04  0.87441907230E+02 0.  0.
         11    1    3    3    0    0 -0.29961825503E+02 -0.16790534794E+03 -0.51633647385E+03  0.54377685780E+03  0.00000000000E+00 0. -1.
        -11    1    3    3    0    0  0.48469559737E+02 -0.27143434040E+03 -0.10256238958E+04  0.10620406183E+04  0.00000000000E+00 0.  1.
         22    1    1    2    0    0 -0.18507734234E+02  0.43933968835E+03  0.85773053141E+03  0.96387943359E+03  0.00000000000E+00 0.  1.
<mgrwt>
<rscale>  0 0.24769279E+04</rscale>
<asrwt>0</asrwt>
<pdfrwt beam="1">  1        1 0.25030205E+00 0.24769279E+04</pdfrwt>
<pdfrwt beam="2">  1       -1 0.14503593E+00 0.24769279E+04</pdfrwt>
<totfact> 0.18175154E+00</totfact>
</mgrwt>
</event>
<event>
 6    1  0.1719556E-004  0.2996176E+04  0.7818608E-02  0.8244824E-01
         -2   -1    0    0    0  501 -0.00000000000E+00  0.00000000000E+00  0.10418852846E+04  0.10418852846E+04  0.00000000000E+00 0. -1.
          2   -1    0    0  501    0  0.00000000000E+00 -0.00000000000E+00 -0.21540455852E+04  0.21540455852E+04  0.00000000000E+00 0.  1.
         23    2    1    2    0    0  0.35593767750E+03  0.13937296668E+04 -0.99756221806E+03  0.17529108648E+04  0.91608441961E+02 0.  0.
         13    1    3    3    0    0  0.27197391591E+03  0.11231322661E+04 -0.75937493000E+03  0.13827675807E+04  0.00000000000E+00 0. -1.
        -13    1    3    3    0    0  0.83963761586E+02  0.27059740073E+03 -0.23818728806E+03  0.37014328406E+03  0.00000000000E+00 0.  1.
         22    1    1    2    0    0 -0.35593767750E+03 -0.13937296668E+04 -0.11459808255E+03  0.14430200050E+04  0.00000000000E+00 0. -1.
<mgrwt>
<rscale>  0 0.29961765E+04</rscale>
<asrwt>0</asrwt>
<pdfrwt beam="1">  1        2 0.33139162E+00 0.29961765E+04</pdfrwt>
<pdfrwt beam="2">  1       -2 0.16029005E+00 0.29961765E+04</pdfrwt>
<totfact> 0.11762253E+00</totfact>
</mgrwt>
</event>
<event>
 6    1  0.1719556E-004  0.2568017E+04  0.7818608E-02  0.8379147E-01
          2   -1    0    0  501    0  0.00000000000E+00  0.00000000000E+00  0.32030490209E+04  0.32030490209E+04  0.00000000000E+00 0.  1.
         -2   -1    0    0    0  501 -0.00000000000E+00 -0.00000000000E+00 -0.51472131063E+03  0.51472131063E+03  0.00000000000E+00 0. -1.
         23    2    1    2    0    0  0.89950456756E+03 -0.57645913144E+03  0.23727381519E+04  0.26037638833E+04  0.91029805415E+02 0.  0.
         13    1    3    3    0    0  0.16292161087E+03 -0.76184674381E+02  0.34245434078E+03  0.38681071781E+03  0.00000000000E+00 0. -1.
        -13    1    3    3    0    0  0.73658295669E+03 -0.50027445706E+03  0.20302838111E+04  0.22169531655E+04  0.00000000000E+00 0.  1.
         22    1    1    2    0    0 -0.89950456756E+03  0.57645913144E+03  0.31558955842E+03  0.11140064482E+04  0.00000000000E+00 0. -1.
<mgrwt>
<rscale>  0 0.25680168E+04</rscale>
<asrwt>0</asrwt>
<pdfrwt beam="1">  1        2 0.49277676E+00 0.25680168E+04</pdfrwt>
<pdfrwt beam="2">  1       -2 0.79187895E-01 0.25680168E+04</pdfrwt>
<totfact> 0.16196518E+00</totfact>
</mgrwt>
</event>
<event>
 6    1  0.1719556E-004  0.4970432E+04  0.7818608E-02  0.7833085E-01
          2   -1    0    0  501    0  0.00000000000E+00  0.00000000000E+00  0.32472410284E+04  0.32472410284E+04  0.00000000000E+00 0.  1.
         -2   -1    0    0    0  501 -0.00000000000E+00 -0.00000000000E+00 -0.19020143504E+04  0.19020143504E+04  0.00000000000E+00 0. -1.
         23    2    1    2    0    0  0.17410502779E+04  0.17287824003E+04  0.26824598012E+03  0.24697345109E+04  0.87681187372E+02 0.  0.
         13    1    3    3    0    0  0.11318672262E+04  0.11023520264E+04  0.13334031406E+03  0.15855860264E+04  0.00000000000E+00 0. -1.
        -13    1    3    3    0    0  0.60918305174E+03  0.62643037389E+03  0.13490566606E+03  0.88414848447E+03  0.00000000000E+00 0.  1.
         22    1    1    2    0    0 -0.17410502779E+04 -0.17287824003E+04  0.10769806978E+04  0.26795208679E+04  0.00000000000E+00 0.  1.
<mgrwt>
<rscale>  0 0.49704322E+04</rscale>
<asrwt>0</asrwt>
<pdfrwt beam="1">  1        2 0.49957554E+00 0.49704322E+04</pdfrwt>
<pdfrwt beam="2">  1       -2 0.29261759E+00 0.49704322E+04</pdfrwt>
<totfact> 0.31038305E-02</totfact>
</mgrwt>
</event>
<event>
 6    1  0.1719556E-004  0.2814051E+04  0.7818608E-02  0.8298919E-01
         -2   -1    0    0    0  501 -0.00000000000E+00  0.00000000000E+00  0.26356175163E+04  0.26356175163E+04  0.00000000000E+00 0. -1.
          2   -1    0    0  501    0  0.00000000000E+00 -0.00000000000E+00 -0.75114098417E+03  0.75114098417E+03  0.00000000000E+00 0.  1.
         23    2    1    2    0    0  0.12715693386E+04 -0.48091787221E+03  0.13726088645E+04  0.19341129512E+04  0.92559333211E+02 0.  0.
         11    1    3    3    0    0  0.68838122874E+03 -0.30864638157E+03  0.77240124857E+03  0.10796920828E+04  0.00000000000E+00 0. -1.
        -11    1    3    3    0    0  0.58318810989E+03 -0.17227149064E+03  0.60020761596E+03  0.85442086834E+03  0.00000000000E+00 0.  1.
         22    1    1    2    0    0 -0.12715693386E+04  0.48091787221E+03  0.51186766760E+03  0.14526455493E+04  0.00000000000E+00 0.  1.
<mgrwt>
<rscale>  0 0.28140507E+04</rscale>
<asrwt>0</asrwt>
<pdfrwt beam="1">  1        2 0.11556015E+00 0.28140507E+04</pdfrwt>
<pdfrwt beam="2">  1       -2 0.40547961E+00 0.28140507E+04</pdfrwt>
<totfact> 0.22216768E-01</totfact>
</mgrwt>
</event>
<event>
 6    1  0.1719556E-004  0.1116280E+04  0.7818608E-02  0.9189468E-01
          1   -1    0    0  501    0  0.00000000000E+00  0.00000000000E+00  0.60319535474E+03  0.60319535474E+03  0.00000000000E+00 0.  1.
         -1   -1    0    0    0  501 -0.00000000000E+00 -0.00000000000E+00 -0.51644997277E+03  0.51644997277E+03  0.00000000000E+00 0. -1.
         23    2    1    2    0    0 -0.14143840406E+02  0.12701918635E+03  0.58468251988E+03  0.60556817841E+03  0.92332268119E+02 0.  0.
         11    1    3    3    0    0 -0.46426556853E+02  0.10644674144E+03  0.48694516029E+03  0.50060156120E+03  0.00000000000E+00 0. -1.
        -11    1    3    3    0    0  0.32282716446E+02  0.20572444906E+02  0.97737359588E+02  0.10496661722E+03  0.00000000000E+00 0.  1.
         22    1    1    2    0    0  0.14143840406E+02 -0.12701918635E+03 -0.49793713791E+03  0.51407714910E+03  0.00000000000E+00 0. -1.
<mgrwt>
<rscale>  0 0.11162799E+04</rscale>
<asrwt>0</asrwt>
<pdfrwt beam="1">  1        1 0.92799285E-01 0.11162799E+04</pdfrwt>
<pdfrwt beam="2">  1       -1 0.79453842E-01 0.11162799E+04</pdfrwt>
<totfact> 0.53576393E+01</totfact>
</mgrwt>
</event>
<event>
 6    1  0.1719556E-004  0.1449465E+04  0.7818608E-02  0.8918772E-01
          2   -1    0    0  501    0  0.00000000000E+00  0.00000000000E+00  0.48575021016E+04  0.48575021016E+04  0.00000000000E+00 0.  1.
         -2   -1    0    0    0  501 -0.00000000000E+00 -0.00000000000E+00 -0.10812904082E+03  0.10812904082E+03  0.00000000000E+00 0. -1.
         23    2    1    2    0    0  0.51056860962E+03  0.33466546568E+03  0.10668531382E+04  0.12328527858E+04  0.95231791039E+02 0.  0.
         11    1    3    3    0    0  0.16583832875E+03  0.71774610402E+02  0.25560824979E+03  0.31303278317E+03  0.00000000000E+00 0.  1.
        -11    1    3    3    0    0  0.34473028087E+03  0.26289085528E+03  0.81124488838E+03  0.91982000264E+03  0.00000000000E+00 0. -1.
         22    1    1    2    0    0 -0.51056860962E+03 -0.33466546568E+03  0.36825199226E+04  0.37327783566E+04  0.00000000000E+00 0.  1.
<mgrwt>
<rscale>  0 0.14494648E+04</rscale>
<asrwt>0</asrwt>
<pdfrwt beam="1">  1        2 0.74730784E+00 0.14494648E+04</pdfrwt>
<pdfrwt beam="2">  1       -2 0.16635241E-01 0.14494648E+04</pdfrwt>
<totfact> 0.15349440E+00</totfact>
</mgrwt>
</event>
<event>
 6    1  0.1719556E-004  0.5953256E+03  0.7818608E-02  0.9915152E-01
          2   -1    0    0  501    0  0.00000000000E+00  0.00000000000E+00  0.10704450530E+04  0.10704450530E+04  0.00000000000E+00 0.  1.
         -2   -1    0    0    0  501 -0.00000000000E+00 -0.00000000000E+00 -0.82772242792E+02  0.82772242792E+02  0.00000000000E+00 0. -1.
         23    2    1    2    0    0  0.45182918091E+02  0.26433683971E+03  0.28742781452E+03  0.40337830314E+03  0.90464611679E+02 0.  0.
         13    1    3    3    0    0 -0.24127425009E+02  0.11192154033E+03  0.13431383378E+03  0.17649014072E+03  0.00000000000E+00 0. -1.
        -13    1    3    3    0    0  0.69310343100E+02  0.15241529938E+03  0.15311398075E+03  0.22688816242E+03  0.00000000000E+00 0.  1.
         22    1    1    2    0    0 -0.45182918091E+02 -0.26433683971E+03  0.70024499567E+03  0.74983899264E+03  0.00000000000E+00 0.  1.
<mgrwt>
<rscale>  0 0.59532558E+03</rscale>
<asrwt>0</asrwt>
<pdfrwt beam="1">  1        2 0.16468384E+00 0.59532558E+03</pdfrwt>
<pdfrwt beam="2">  1       -2 0.12734192E-01 0.59532558E+03</pdfrwt>
<totfact> 0.10578445E+03</totfact>
</mgrwt>
</event>
<event>
 6    1  0.1719556E-004  0.7476759E+03  0.7818608E-02  0.9639003E-01
         -1   -1    0    0    0  501 -0.00000000000E+00  0.00000000000E+00  0.79703561020E+03  0.79703561020E+03  0.00000000000E+00 0.  1.
          1   -1    0    0  501    0  0.00000000000E+00 -0.00000000000E+00 -0.17534326559E+03  0.17534326559E+03  0.00000000000E+00 0. -1.
         23    2    1    2    0    0  0.14886082941E+03  0.24581426903E+02  0.75220418055E+03  0.77288668948E+03  0.93695850816E+02 0.  0.
         13    1    3    3    0    0  0.25291502319E+02  0.41257280498E+02  0.29687853682E+03  0.30079675681E+03  0.00000000000E+00 0. -1.
        -13    1    3    3    0    0  0.12356932709E+03 -0.16675853595E+02  0.45532564373E+03  0.47208993267E+03  0.00000000000E+00 0.  1.
         22    1    1    2    0    0 -0.14886082941E+03 -0.24581426903E+02 -0.13051183593E+03  0.19949218631E+03  0.00000000000E+00 0. -1.
<mgrwt>
<rscale>  0 0.74767594E+03</rscale>
<asrwt>0</asrwt>
<pdfrwt beam="1">  1        1 0.26975887E-01 0.74767594E+03</pdfrwt>
<pdfrwt beam="2">  1       -1 0.12262086E+00 0.74767594E+03</pdfrwt>
<totfact> 0.10532844E+02</totfact>
</mgrwt>
</event>
<event>
 6    1  0.1719556E-004  0.2340795E+04  0.7818608E-02  0.8462008E-01
          2   -1    0    0  501    0  0.00000000000E+00  0.00000000000E+00  0.20609464352E+04  0.20609464352E+04  0.00000000000E+00 0. -1.
         -2   -1    0    0    0  501 -0.00000000000E+00 -0.00000000000E+00 -0.66466083994E+03  0.66466083994E+03  0.00000000000E+00 0.  1.
         23    2    1    2    0    0 -0.91111579197E+03 -0.73106511812E+03  0.65694826120E+03  0.13431428500E+04  0.88676402059E+02 0.  0.
         11    1    3    3    0    0 -0.73579731487E+03 -0.63301072404E+03  0.54117808351E+03  0.11112938331E+04  0.00000000000E+00 0.  1.
        -11    1    3    3    0    0 -0.17531847710E+03 -0.98054394076E+02  0.11577017769E+03  0.23184901693E+03  0.00000000000E+00 0. -1.
         22    1    1    2    0    0  0.91111579197E+03  0.73106511812E+03  0.73933733409E+03  0.13824644252E+04  0.00000000000E+00 0.  1.
<mgrwt>
<rscale>  0 0.23407951E+04</rscale>
<asrwt>0</asrwt>
<pdfrwt beam="1">  1        2 0.31706868E+00 0.23407951E+04</pdfrwt>
<pdfrwt beam="2">  1       -2 0.10225551E+00 0.23407951E+04</pdfrwt>
<totfact> 0.43724907E+00</totfact>
</mgrwt>
</event>
<event>
 6    1  0.1719556E-004  0.1179844E+04  0.7818608E-02  0.9130684E-01
          2   -1    0    0  501    0  0.00000000000E+00  0.00000000000E+00  0.66145403276E+03  0.66145403276E+03  0.00000000000E+00 0.  1.
         -2   -1    0    0    0  501 -0.00000000000E+00 -0.00000000000E+00 -0.52612565315E+03  0.52612565315E+03  0.00000000000E+00 0. -1.
         23    2    1    2    0    0 -0.70193750395E+02  0.37297170188E+03  0.51809853312E+03  0.64855459983E+03  0.90343377978E+02 0.  0.
         11    1    3    3    0    0  0.52871339361E+01  0.58222659936E+02  0.13443287022E+03  0.14659477654E+03  0.00000000000E+00 0. -1.
        -11    1    3    3    0    0 -0.75480884331E+02  0.31474904195E+03  0.38366566290E+03  0.50195982329E+03  0.00000000000E+00 0.  1.
         22    1    1    2    0    0  0.70193750395E+02 -0.37297170188E+03 -0.38277015351E+03  0.53902508608E+03  0.00000000000E+00 0. -1.
<mgrwt>
<rscale>  0 0.11798439E+04</rscale>
<asrwt>0</asrwt>
<pdfrwt beam="1">  1        2 0.10176216E+00 0.11798439E+04</pdfrwt>
<pdfrwt beam="2">  1       -2 0.80942408E-01 0.11798439E+04</pdfrwt>
<totfact> 0.58553894E+01</totfact>
</mgrwt>
</event>
<event>
 6    1  0.1719556E-004  0.2160437E+04  0.7818608E-02  0.8535078E-01
          1   -1    0    0  501    0  0.00000000000E+00  0.00000000000E+00  0.12511087052E+04  0.12511087052E+04  0.00000000000E+00 0.  1.
         -1   -1    0    0    0  501 -0.00000000000E+00 -0.00000000000E+00 -0.93267022691E+03  0.93267022691E+03  0.00000000000E+00 0. -1.
         23    2    1    2    0    0 -0.93862627696E+03  0.34132347935E+03  0.57028478246E+03  0.11537558420E+04  0.91688627604E+02 0.  0.
         13    1    3    3    0    0 -0.35077028809E+03  0.13866861056E+03  0.26558365896E+03  0.46130625236E+03  0.00000000000E+00 0.  1.
        -13    1    3    3    0    0 -0.58785598888E+03  0.20265486879E+03  0.30470112350E+03  0.69244958962E+03  0.00000000000E+00 0. -1.
         22    1    1    2    0    0  0.93862627696E+03 -0.34132347935E+03 -0.25184630414E+03  0.10300230902E+04  0.00000000000E+00 0. -1.
<mgrwt>
<rscale>  0 0.21604368E+04</rscale>
<asrwt>0</asrwt>
<pdfrwt beam="1">  1        1 0.19247826E+00 0.21604368E+04</pdfrwt>
<pdfrwt beam="2">  1       -1 0.14348773E+00 0.21604368E+04</pdfrwt>
<totfact> 0.35256722E+00</totfact>
</mgrwt>
</event>
<event>
 6    1  0.1719556E-004  0.2797894E+04  0.7818608E-02  0.8303923E-01
          1   -1    0    0  501    0  0.00000000000E+00  0.00000000000E+00  0.23030242741E+04  0.23030242741E+04  0.00000000000E+00 0.  1.
         -1   -1    0    0    0  501 -0.00000000000E+00 -0.00000000000E+00 -0.84977501564E+03  0.84977501564E+03  0.00000000000E+00 0. -1.
         23    2    1    2    0    0  0.66013011325E+03 -0.30287189141E+03  0.20727616824E+04  0.21981795788E+04  0.90273581246E+02 0.  0.
         13    1    3    3    0    0  0.30465894823E+03 -0.14617876979E+03  0.83121155472E+03  0.89727250943E+03  0.00000000000E+00 0.  1.
        -13    1    3    3    0    0  0.35547116501E+03 -0.15669312162E+03  0.12415501277E+04  0.13009070693E+04  0.00000000000E+00 0. -1.
         22    1    1    2    0    0 -0.66013011325E+03  0.30287189141E+03 -0.61951242398E+03  0.95461971093E+03  0.00000000000E+00 0. -1.
<mgrwt>
<rscale>  0 0.27978938E+04</rscale>
<asrwt>0</asrwt>
<pdfrwt beam="1">  1        1 0.35431143E+00 0.27978938E+04</pdfrwt>
<pdfrwt beam="2">  1       -1 0.13073462E+00 0.27978938E+04</pdfrwt>
<totfact> 0.80162138E-01</totfact>
</mgrwt>
</event>
<event>
 6    1  0.1719556E-004  0.1049763E+04  0.7818608E-02  0.9255589E-01
         -2   -1    0    0    0  501 -0.00000000000E+00  0.00000000000E+00  0.32891346285E+03  0.32891346285E+03  0.00000000000E+00 0. -1.
          2   -1    0    0  501    0  0.00000000000E+00 -0.00000000000E+00 -0.83760756351E+03  0.83760756351E+03  0.00000000000E+00 0.  1.
         23    2    1    2    0    0  0.15208380878E+03  0.14823218219E+03 -0.78486848715E+03  0.81813251265E+03  0.90664223375E+02 0.  0.
         13    1    3    3    0    0  0.86877090121E+02  0.36449594403E+02 -0.23371416474E+03  0.25198911191E+03  0.00000000000E+00 0. -1.
        -13    1    3    3    0    0  0.65206718663E+02  0.11178258778E+03 -0.55115432240E+03  0.56614340073E+03  0.00000000000E+00 0.  1.
         22    1    1    2    0    0 -0.15208380878E+03 -0.14823218219E+03  0.27617438649E+03  0.34838851371E+03  0.00000000000E+00 0. -1.
<mgrwt>
<rscale>  0 0.10497626E+04</rscale>
<asrwt>0</asrwt>
<pdfrwt beam="1">  1        2 0.12886270E+00 0.10497626E+04</pdfrwt>
<pdfrwt beam="2">  1       -2 0.50602072E-01 0.10497626E+04</pdfrwt>
<totfact> 0.11905925E+02</totfact>
</mgrwt>
</event>
<event>
 6    1  0.1719556E-004  0.4673074E+04  0.7818608E-02  0.7881018E-01
          2   -1    0    0  501    0  0.00000000000E+00  0.00000000000E+00  0.29369694947E+04  0.29369694947E+04  0.00000000000E+00 0.  1.
         -2   -1    0    0    0  501 -0.00000000000E+00 -0.00000000000E+00 -0.18588566196E+04  0.18588566196E+04  0.00000000000E+00 0. -1.
         23    2    1    2    0    0  0.28108707852E+03 -0.22686536397E+04  0.10308105645E+04  0.25093360550E+04  0.91639155540E+02 0.  0.
         13    1    3    3    0    0  0.17523260374E+03 -0.11012372867E+04  0.52977048305E+03  0.12345391009E+04  0.00000000000E+00 0. -1.
        -13    1    3    3    0    0  0.10585447478E+03 -0.11674163530E+04  0.50104008141E+03  0.12747969541E+04  0.00000000000E+00 0.  1.
         22    1    1    2    0    0 -0.28108707852E+03  0.22686536397E+04  0.47302310567E+02  0.22864900593E+04  0.00000000000E+00 0. -1.
<mgrwt>
<rscale>  0 0.46730740E+04</rscale>
<asrwt>0</asrwt>
<pdfrwt beam="1">  1        2 0.45184146E+00 0.46730740E+04</pdfrwt>
<pdfrwt beam="2">  1       -2 0.28597794E+00 0.46730740E+04</pdfrwt>
<totfact> 0.55123333E-02</totfact>
</mgrwt>
</event>
<event>
 6    1  0.1719556E-004  0.4776289E+03  0.7818608E-02  0.1019789E+00
         -4   -1    0    0    0  501 -0.00000000000E+00  0.00000000000E+00  0.19560727322E+03  0.19560727322E+03  0.00000000000E+00 0. -1.
          4   -1    0    0  501    0  0.00000000000E+00 -0.00000000000E+00 -0.29156556636E+03  0.29156556636E+03  0.00000000000E+00 0.  1.
         23    2    1    2    0    0 -0.49273656475E+02  0.16238696347E+03  0.11002596789E+03  0.22028909163E+03  0.87316385357E+02 0.  0.
         13    1    3    3    0    0  0.13067676883E+02  0.51755204225E+02  0.68167838544E+02  0.86580711219E+02  0.00000000000E+00 0.  1.
        -13    1    3    3    0    0 -0.62341333358E+02  0.11063175925E+03  0.41858129346E+02  0.13370838041E+03  0.00000000000E+00 0. -1.
         22    1    1    2    0    0  0.49273656475E+02 -0.16238696347E+03 -0.20598426103E+03  0.26688374795E+03  0.00000000000E+00 0.  1.
<mgrwt>
<rscale>  0 0.47762892E+03</rscale>
<asrwt>0</asrwt>
<pdfrwt beam="1">  1        4 0.44856241E-01 0.47762892E+03</pdfrwt>
<pdfrwt beam="2">  1       -4 0.30093426E-01 0.47762892E+03</pdfrwt>
<totfact> 0.10009447E+02</totfact>
</mgrwt>
</event>
<event>
 6    1  0.1719556E-004  0.2418314E+04  0.7818608E-02  0.8432679E-01
         -1   -1    0    0    0  501 -0.00000000000E+00  0.00000000000E+00  0.11035196817E+04  0.11035196817E+04  0.00000000000E+00 0. -1.
          1   -1    0    0  501    0  0.00000000000E+00 -0.00000000000E+00 -0.13249066747E+04  0.13249066747E+04  0.00000000000E+00 0.  1.
         23    2    1    2    0    0  0.32571904082E+03 -0.98205280723E+02  0.10525309442E+04  0.11098649883E+04  0.90783990986E+02 0.  0.
         11    1    3    3    0    0  0.14239771666E+03 -0.89787328714E+02  0.48270081048E+03  0.51121321046E+03  0.00000000000E+00 0. -1.
        -11    1    3    3    0    0  0.18332132416E+03 -0.84179520089E+01  0.56983013370E+03  0.59865177781E+03  0.00000000000E+00 0.  1.
         22    1    1    2    0    0 -0.32571904082E+03  0.98205280723E+02 -0.12739179372E+04  0.13185613681E+04  0.00000000000E+00 0.  1.
<mgrwt>
<rscale>  0 0.24183140E+04</rscale>
<asrwt>0</asrwt>
<pdfrwt beam="1">  1        1 0.20383180E+00 0.24183140E+04</pdfrwt>
<pdfrwt beam="2">  1       -1 0.16977226E+00 0.24183140E+04</pdfrwt>
<totfact> 0.19190553E+00</totfact>
</mgrwt>
</event>
<event>
 6    1  0.1719556E-004  0.1558645E+04  0.7818608E-02  0.8846365E-01
          2   -1    0    0  501    0  0.00000000000E+00  0.00000000000E+00  0.61179426434E+03  0.61179426434E+03  0.00000000000E+00 0.  1.
         -2   -1    0    0    0  501 -0.00000000000E+00 -0.00000000000E+00 -0.99272460467E+03  0.99272460467E+03  0.00000000000E+00 0. -1.
         23    2    1    2    0    0  0.20971859891E+03 -0.47274727461E+03 -0.78753895891E+03  0.94664164256E+03  0.91874431946E+02 0.  0.
         11    1    3    3    0    0  0.12136293424E+03 -0.30601447891E+03 -0.42146151447E+03  0.53479307334E+03  0.00000000000E+00 0.  1.
        -11    1    3    3    0    0  0.88355664675E+02 -0.16673279569E+03 -0.36607744444E+03  0.41184856922E+03  0.00000000000E+00 0. -1.
         22    1    1    2    0    0 -0.20971859891E+03  0.47274727461E+03  0.40660861858E+03  0.65787722645E+03  0.00000000000E+00 0.  1.
<mgrwt>
<rscale>  0 0.15586446E+04</rscale>
<asrwt>0</asrwt>
<pdfrwt beam="1">  1        2 0.94122195E-01 0.15586446E+04</pdfrwt>
<pdfrwt beam="2">  1       -2 0.15272686E+00 0.15586446E+04</pdfrwt>
<totfact> 0.13296920E+01</totfact>
</mgrwt>
</event>
<event>
 6    1  0.1719556E-004  0.3170111E+04  0.7818608E-02  0.8196756E-01
         -2   -1    0    0    0  501 -0.00000000000E+00  0.00000000000E+00  0.16565135108E+04  0.16565135108E+04  0.00000000000E+00 0. -1.
          2   -1    0    0  501    0  0.00000000000E+00 -0.00000000000E+00 -0.15166799482E+04  0.15166799482E+04  0.00000000000E+00 0.  1.
         23    2    1    2    0    0 -0.54122288465E+03 -0.47911303324E+03 -0.13405845460E+04  0.15257380619E+04  0.90764525876E+02 0.  0.
         11    1    3    3    0    0 -0.42739373126E+03 -0.37283643570E+03 -0.96798139746E+03  0.11219003499E+04  0.00000000000E+00 0. -1.
        -11    1    3    3    0    0 -0.11382915339E+03 -0.10627659754E+03 -0.37260314850E+03  0.40383771198E+03  0.00000000000E+00 0.  1.
         22    1    1    2    0    0  0.54122288465E+03  0.47911303324E+03  0.14804181085E+04  0.16474553971E+04  0.00000000000E+00 0. -1.
<mgrwt>
<rscale>  0 0.31701109E+04</rscale>
<asrwt>0</asrwt>
<pdfrwt beam="1">  1        2 0.23333537E+00 0.31701109E+04</pdfrwt>
<pdfrwt beam="2">  1       -2 0.25484823E+00 0.31701109E+04</pdfrwt>
<totfact> 0.62913799E-01</totfact>
</mgrwt>
</event>
<event>
 6    1  0.1719556E-004  0.2986361E+04  0.7818608E-02  0.8247636E-01
          2   -1    0    0  501    0  0.00000000000E+00  0.00000000000E+00  0.27211374160E+04  0.27211374160E+04  0.00000000000E+00 0.  1.
         -2   -1    0    0    0  501 -0.00000000000E+00 -0.00000000000E+00 -0.81935857819E+03  0.81935857819E+03  0.00000000000E+00 0. -1.
         23    2    1    2    0    0  0.90577153714E+03  0.10157429919E+04  0.22754164756E+03  0.13828987027E+04  0.92074521747E+02 0.  0.
         11    1    3    3    0    0  0.51510376195E+03  0.63185326082E+03  0.16356707595E+03  0.83145932981E+03  0.00000000000E+00 0. -1.
        -11    1    3    3    0    0  0.39066777519E+03  0.38388973105E+03  0.63974571610E+02  0.55143937290E+03  0.00000000000E+00 0.  1.
         22    1    1    2    0    0 -0.90577153714E+03 -0.10157429919E+04  0.16742371903E+04  0.21575972915E+04  0.00000000000E+00 0.  1.
<mgrwt>
<rscale>  0 0.29863605E+04</rscale>
<asrwt>0</asrwt>
<pdfrwt beam="1">  1        2 0.41863652E+00 0.29863605E+04</pdfrwt>
<pdfrwt beam="2">  1       -2 0.12605517E+00 0.29863605E+04</pdfrwt>
<totfact> 0.10373349E+00</totfact>
</mgrwt>
</event>
<event>
 6    1  0.1719556E-004  0.2780566E+04  0.7818608E-02  0.8309327E-01
         -1   -1    0    0    0  501 -0.00000000000E+00  0.00000000000E+00  0.16830358757E+04  0.16830358757E+04  0.00000000000E+00 0. -1.
          1   -1    0    0  501    0  0.00000000000E+00 -0.00000000000E+00 -0.11484528256E+04  0.11484528256E+04  0.00000000000E+00 0.  1.
         23    2    1    2    0    0  0.82661625312E+03 -0.25751775771E+02  0.14036865954E+04  0.16317810051E+04  0.91736616290E+02 0.  0.
         11    1    3    3    0    0  0.72018641312E+03  0.84758801006E+01  0.12214161303E+04  0.14179554555E+04  0.00000000000E+00 0. -1.
        -11    1    3    3    0    0  0.10642984000E+03 -0.34227655871E+02  0.18227046501E+03  0.21382554965E+03  0.00000000000E+00 0.  1.
         22    1    1    2    0    0 -0.82661625312E+03  0.25751775771E+02 -0.86910354522E+03  0.11997076961E+04  0.00000000000E+00 0.  1.
<mgrwt>
<rscale>  0 0.27805664E+04</rscale>
<asrwt>0</asrwt>
<pdfrwt beam="1">  1        1 0.17668505E+00 0.27805664E+04</pdfrwt>
<pdfrwt beam="2">  1       -1 0.25892860E+00 0.27805664E+04</pdfrwt>
<totfact> 0.61663168E-01</totfact>
</mgrwt>
</event>
<event>
 6    1  0.1719556E-004  0.1715383E+04  0.7818608E-02  0.8752639E-01
          2   -1    0    0  501    0  0.00000000000E+00  0.00000000000E+00  0.16575253448E+04  0.16575253448E+04  0.00000000000E+00 0.  1.
         -2   -1    0    0    0  501 -0.00000000000E+00 -0.00000000000E+00 -0.44381509592E+03  0.44381509592E+03  0.00000000000E+00 0. -1.
         23    2    1    2    0    0 -0.57620603945E+03 -0.37778165542E+02  0.13813961623E+04  0.15000425484E+04  0.91824288476E+02 0.  0.
         13    1    3    3    0    0 -0.33042921153E+03 -0.44206508098E+02  0.89425721850E+03  0.95437605378E+03  0.00000000000E+00 0. -1.
        -13    1    3    3    0    0 -0.24577682792E+03  0.64283425556E+01  0.48713894385E+03  0.54566649461E+03  0.00000000000E+00 0.  1.
         22    1    1    2    0    0  0.57620603945E+03  0.37778165542E+02 -0.16768591350E+03  0.60129789230E+03  0.00000000000E+00 0. -1.
<mgrwt>
<rscale>  0 0.17153831E+04</rscale>
<asrwt>0</asrwt>
<pdfrwt beam="1">  1        2 0.25500390E+00 0.17153831E+04</pdfrwt>
<pdfrwt beam="2">  1       -2 0.68279247E-01 0.17153831E+04</pdfrwt>
<totfact> 0.19315173E+01</totfact>
</mgrwt>
</event>
<event>
 6    1  0.1719556E-004  0.2063450E+04  0.7818608E-02  0.8577517E-01
          1   -1    0    0  501    0  0.00000000000E+00  0.00000000000E+00  0.17442306376E+04  0.17442306376E+04  0.00000000000E+00 0.  1.
         -1   -1    0    0    0  501 -0.00000000000E+00 -0.00000000000E+00 -0.61027248873E+03  0.61027248873E+03  0.00000000000E+00 0. -1.
         23    2    1    2    0    0  0.11349481770E+00  0.67867098201E+03 -0.31593732467E+03  0.75363111430E+03  0.86885836684E+02 0.  0.
         11    1    3    3    0    0  0.33503716938E+02  0.17151328017E+03 -0.61632402392E+02  0.18530476882E+03  0.00000000000E+00 0. -1.
        -11    1    3    3    0    0 -0.33390222120E+02  0.50715770184E+03 -0.25430492228E+03  0.56832634548E+03  0.00000000000E+00 0.  1.
         22    1    1    2    0    0 -0.11349481770E+00 -0.67867098201E+03  0.14498954735E+04  0.16008720120E+04  0.00000000000E+00 0.  1.
<mgrwt>
<rscale>  0 0.20634495E+04</rscale>
<asrwt>0</asrwt>
<pdfrwt beam="1">  1        1 0.26834317E+00 0.20634495E+04</pdfrwt>
<pdfrwt beam="2">  1       -1 0.93888076E-01 0.20634495E+04</pdfrwt>
<totfact> 0.45093735E+00</totfact>
</mgrwt>
</event>
<event>
 6    1  0.1719556E-004  0.5236565E+03  0.7818608E-02  0.1007782E+00
         -1   -1    0    0    0  501 -0.00000000000E+00  0.00000000000E+00  0.13326433431E+03  0.13326433431E+03  0.00000000000E+00 0.  1.
          1   -1    0    0  501    0  0.00000000000E+00 -0.00000000000E+00 -0.51442149166E+03  0.51442149166E+03  0.00000000000E+00 0. -1.
         23    2    1    2    0    0 -0.20977293154E+03 -0.75734044020E+02 -0.34698216522E+03  0.42205724109E+03  0.89416796751E+02 0.  0.
         13    1    3    3    0    0 -0.16238111280E+03 -0.65057693662E+02 -0.32424020495E+03  0.36841802318E+03  0.00000000000E+00 0. -1.
        -13    1    3    3    0    0 -0.47391818741E+02 -0.10676350358E+02 -0.22741960271E+02  0.53639217906E+02  0.00000000000E+00 0.  1.
         22    1    1    2    0    0  0.20977293154E+03  0.75734044020E+02 -0.34174992128E+02  0.22562858489E+03  0.00000000000E+00 0.  1.
<mgrwt>
<rscale>  0 0.52365652E+03</rscale>
<asrwt>0</asrwt>
<pdfrwt beam="1">  1        1 0.79141769E-01 0.52365652E+03</pdfrwt>
<pdfrwt beam="2">  1       -1 0.20502205E-01 0.52365652E+03</pdfrwt>
<totfact> 0.84080565E+02</totfact>
</mgrwt>
</event>
<event>
 6    1  0.1719556E-004  0.1096054E+04  0.7818608E-02  0.9209047E-01
         -2   -1    0    0    0  501 -0.00000000000E+00  0.00000000000E+00  0.35189566671E+03  0.35189566671E+03  0.00000000000E+00 0. -1.
          2   -1    0    0  501    0  0.00000000000E+00 -0.00000000000E+00 -0.85347322834E+03  0.85347322834E+03  0.00000000000E+00 0.  1.
         23    2    1    2    0    0 -0.94694428276E+02 -0.13143870691E+03 -0.82414018151E+03  0.84441209408E+03  0.87072254069E+02 0.  0.
         13    1    3    3    0    0 -0.39033663549E+02 -0.74645884638E+02 -0.61359959036E+03  0.61935457718E+03  0.00000000000E+00 0.  1.
        -13    1    3    3    0    0 -0.55660764727E+02 -0.56792822270E+02 -0.21054059115E+03  0.22505751690E+03  0.00000000000E+00 0. -1.
         22    1    1    2    0    0  0.94694428276E+02  0.13143870691E+03  0.32256261988E+03  0.36095680097E+03  0.00000000000E+00 0. -1.
<mgrwt>
<rscale>  0 0.10960539E+04</rscale>
<asrwt>0</asrwt>
<pdfrwt beam="1">  1        2 0.13130357E+00 0.10960539E+04</pdfrwt>
<pdfrwt beam="2">  1       -2 0.54137795E-01 0.10960539E+04</pdfrwt>
<totfact> 0.10071239E+02</totfact>
</mgrwt>
</event>
<event>
 6    1  0.1719556E-004  0.1975160E+04  0.7818608E-02  0.8618323E-01
         -2   -1    0    0    0  501 -0.00000000000E+00  0.00000000000E+00  0.30641986099E+03  0.30641986099E+03  0.00000000000E+00 0. -1.
          2   -1    0    0  501    0  0.00000000000E+00 -0.00000000000E+00 -0.31829345209E+04  0.31829345209E+04  0.00000000000E+00 0.  1.
         23    2    1    2    0    0 -0.64796546568E+03 -0.73718480484E+03 -0.15980780593E+04  0.18776159344E+04  0.91035336385E+02 0.  0.
         13    1    3    3    0    0 -0.43541366180E+03 -0.44566378149E+03 -0.10667136265E+04  0.12353457912E+04  0.00000000000E+00 0.  1.
        -13    1    3    3    0    0 -0.21255180388E+03 -0.29152102335E+03 -0.53136443277E+03  0.64227014316E+03  0.00000000000E+00 0. -1.
         22    1    1    2    0    0  0.64796546568E+03  0.73718480484E+03 -0.12784366007E+04  0.16117384475E+04  0.00000000000E+00 0.  1.
<mgrwt>
<rscale>  0 0.19751601E+04</rscale>
<asrwt>0</asrwt>
<pdfrwt beam="1">  1        2 0.48968223E+00 0.19751601E+04</pdfrwt>
<pdfrwt beam="2">  1       -2 0.47141518E-01 0.19751601E+04</pdfrwt>
<totfact> 0.53014564E+00</totfact>
</mgrwt>
</event>
<event>
 6    1  0.1719556E-004  0.1464175E+04  0.7818608E-02  0.8908632E-01
         -1   -1    0    0    0  501 -0.00000000000E+00  0.00000000000E+00  0.24252444818E+03  0.24252444818E+03  0.00000000000E+00 0. -1.
          1   -1    0    0  501    0  0.00000000000E+00 -0.00000000000E+00 -0.22098902864E+04  0.22098902864E+04  0.00000000000E+00 0.  1.
         23    2    1    2    0    0 -0.29483350385E+03  0.14109884242E+03 -0.20793584313E+04  0.21069034913E+04  0.92060619835E+02 0.  0.
         13    1    3    3    0    0 -0.15011974661E+03  0.21298704194E+02 -0.95203425090E+03  0.96403256584E+03  0.00000000000E+00 0. -1.
        -13    1    3    3    0    0 -0.14471375724E+03  0.11980013822E+03 -0.11273241804E+04  0.11428709255E+04  0.00000000000E+00 0.  1.
         22    1    1    2    0    0  0.29483350385E+03 -0.14109884242E+03  0.11199259304E+03  0.34551124326E+03  0.00000000000E+00 0. -1.
<mgrwt>
<rscale>  0 0.14641754E+04</rscale>
<asrwt>0</asrwt>
<pdfrwt beam="1">  1        1 0.33998311E+00 0.14641754E+04</pdfrwt>
<pdfrwt beam="2">  1       -1 0.37311455E-01 0.14641754E+04</pdfrwt>
<totfact> 0.14409211E+01</totfact>
</mgrwt>
</event>
<event>
 6    1  0.1719556E-004  0.1158171E+04  0.7818608E-02  0.9150278E-01
         -2   -1    0    0    0  501 -0.00000000000E+00  0.00000000000E+00  0.54844496669E+03  0.54844496669E+03  0.00000000000E+00 0. -1.
          2   -1    0    0  501    0  0.00000000000E+00 -0.00000000000E+00 -0.61143822845E+03  0.61143822845E+03  0.00000000000E+00 0.  1.
         23    2    1    2    0    0  0.35572256492E+03 -0.42324785768E+03  0.12857313555E+03  0.57475502389E+03  0.90194202012E+02 0.  0.
         11    1    3    3    0    0  0.14575625580E+03 -0.20086619777E+03  0.10004975574E+03  0.26758562954E+03  0.00000000000E+00 0. -1.
        -11    1    3    3    0    0  0.20996630912E+03 -0.22238165991E+03  0.28523379804E+02  0.30716939435E+03  0.00000000000E+00 0.  1.
         22    1    1    2    0    0 -0.35572256492E+03  0.42324785768E+03 -0.19156639730E+03  0.58512817126E+03  0.00000000000E+00 0.  1.
<mgrwt>
<rscale>  0 0.11581713E+04</rscale>
<asrwt>0</asrwt>
<pdfrwt beam="1">  1        2 0.94067420E-01 0.11581713E+04</pdfrwt>
<pdfrwt beam="2">  1       -2 0.84376148E-01 0.11581713E+04</pdfrwt>
<totfact> 0.58791034E+01</totfact>
</mgrwt>
</event>
<event>
 6    1  0.1719556E-004  0.1803553E+04  0.7818608E-02  0.8704412E-01
         -2   -1    0    0    0  501 -0.00000000000E+00  0.00000000000E+00  0.27654250489E+03  0.27654250489E+03  0.00000000000E+00 0. -1.
          2   -1    0    0  501    0  0.00000000000E+00 -0.00000000000E+00 -0.29406005265E+04  0.29406005265E+04  0.00000000000E+00 0.  1.
         23    2    1    2    0    0  0.11637764261E+03  0.88752649033E+03 -0.14871735207E+04  0.17385274102E+04  0.97700811629E+02 0.  0.
         11    1    3    3    0    0  0.11926779196E+03  0.74322402374E+03 -0.12995619547E+04  0.15018215705E+04  0.00000000000E+00 0.  1.
        -11    1    3    3    0    0 -0.28901493545E+01  0.14430246659E+03 -0.18761156606E+03  0.23670583970E+03  0.00000000000E+00 0. -1.
         22    1    1    2    0    0 -0.11637764261E+03 -0.88752649033E+03 -0.11768845009E+04  0.14786156212E+04  0.00000000000E+00 0. -1.
<mgrwt>
<rscale>  0 0.18035532E+04</rscale>
<asrwt>0</asrwt>
<pdfrwt beam="1">  1        2 0.45240010E+00 0.18035532E+04</pdfrwt>
<pdfrwt beam="2">  1       -2 0.42544999E-01 0.18035532E+04</pdfrwt>
<totfact> 0.94048704E+00</totfact>
</mgrwt>
</event>
<event>
 6    1  0.1719556E-004  0.2248391E+04  0.7818608E-02  0.8498552E-01
         -1   -1    0    0    0  501 -0.00000000000E+00  0.00000000000E+00  0.14878920420E+04  0.14878920420E+04  0.00000000000E+00 0.  1.
          1   -1    0    0  501    0  0.00000000000E+00 -0.00000000000E+00 -0.84940024586E+03  0.84940024586E+03  0.00000000000E+00 0. -1.
         23    2    1    2    0    0 -0.57573728849E+03  0.77195467633E+03 -0.27915720437E+03  0.10070790960E+04  0.94298001851E+02 0.  0.
         13    1    3    3    0    0 -0.17761581122E+03  0.25834183903E+03 -0.13553671589E+03  0.34155246089E+03  0.00000000000E+00 0. -1.
        -13    1    3    3    0    0 -0.39812147727E+03  0.51361283731E+03 -0.14362048848E+03  0.66552663509E+03  0.00000000000E+00 0.  1.
         22    1    1    2    0    0  0.57573728849E+03 -0.77195467633E+03  0.91764900048E+03  0.13302131918E+04  0.00000000000E+00 0.  1.
<mgrwt>
<rscale>  0 0.22483913E+04</rscale>
<asrwt>0</asrwt>
<pdfrwt beam="1">  1        1 0.13067696E+00 0.22483913E+04</pdfrwt>
<pdfrwt beam="2">  1       -1 0.22890647E+00 0.22483913E+04</pdfrwt>
<totfact> 0.17472175E+00</totfact>
</mgrwt>
</event>
<event>
 6    1  0.1719556E-004  0.2435785E+04  0.7818608E-02  0.8426226E-01
          2   -1    0    0  501    0  0.00000000000E+00  0.00000000000E+00  0.20294713843E+04  0.20294713843E+04  0.00000000000E+00 0.  1.
         -2   -1    0    0    0  501 -0.00000000000E+00 -0.00000000000E+00 -0.73086155537E+03  0.73086155537E+03  0.00000000000E+00 0. -1.
         23    2    1    2    0    0 -0.11137132597E+04 -0.26682551132E+03  0.18632723151E+03  0.11638600602E+04  0.91100626426E+02 0.  0.
         13    1    3    3    0    0 -0.55583984922E+03 -0.14668935244E+03  0.13768484352E+03  0.59112842956E+03  0.00000000000E+00 0. -1.
        -13    1    3    3    0    0 -0.55787341050E+03 -0.12013615889E+03  0.48642387988E+02  0.57273163063E+03  0.00000000000E+00 0.  1.
         22    1    1    2    0    0  0.11137132597E+04  0.26682551132E+03  0.11122825974E+04  0.15964728795E+04  0.00000000000E+00 0. -1.
<mgrwt>
<rscale>  0 0.24357854E+04</rscale>
<asrwt>0</asrwt>
<pdfrwt beam="1">  1        2 0.31222636E+00 0.24357854E+04</pdfrwt>
<pdfrwt beam="2">  1       -2 0.11244024E+00 0.24357854E+04</pdfrwt>
<totfact> 0.35929925E+00</totfact>
</mgrwt>
</event>
<event>
 6    1  0.1719556E-004  0.1451050E+04  0.7818608E-02  0.8917673E-01
          2   -1    0    0  501    0  0.00000000000E+00  0.00000000000E+00  0.10805245138E+04  0.10805245138E+04  0.00000000000E+00 0. -1.
         -2   -1    0    0    0  501 -0.00000000000E+00 -0.00000000000E+00 -0.48715802323E+03  0.48715802323E+03  0.00000000000E+00 0.  1.
         23    2    1    2    0    0 -0.46450523639E+03  0.10600379163E+03  0.88486000380E+03  0.10091394440E+04  0.91560213131E+02 0.  0.
         11    1    3    3    0    0 -0.17262488350E+03  0.26074168656E+00  0.36220995459E+03  0.40124240752E+03  0.00000000000E+00 0. -1.
        -11    1    3    3    0    0 -0.29188035289E+03  0.10574304994E+03  0.52265004921E+03  0.60789703647E+03  0.00000000000E+00 0.  1.
         22    1    1    2    0    0  0.46450523639E+03 -0.10600379163E+03 -0.29149351325E+03  0.55854309301E+03  0.00000000000E+00 0.  1.
<mgrwt>
<rscale>  0 0.14510495E+04</rscale>
<asrwt>0</asrwt>
<pdfrwt beam="1">  1        2 0.16623454E+00 0.14510495E+04</pdfrwt>
<pdfrwt beam="2">  1       -2 0.74947388E-01 0.14510495E+04</pdfrwt>
<totfact> 0.34746496E+01</totfact>
</mgrwt>
</event>
<event>
 6    1  0.1719556E-004  0.3320965E+04  0.7818608E-02  0.8157581E-01
         -2   -1    0    0    0  501 -0.00000000000E+00  0.00000000000E+00  0.15969890346E+04  0.15969890346E+04  0.00000000000E+00 0. -1.
          2   -1    0    0  501    0  0.00000000000E+00 -0.00000000000E+00 -0.17265006082E+04  0.17265006082E+04  0.00000000000E+00 0.  1.
         23    2    1    2    0    0  0.92370715463E+03  0.12188242837E+04 -0.70895612563E+03  0.16880925867E+04  0.90940922259E+02 0.  0.
         13    1    3    3    0    0  0.74613273625E+03  0.10190053799E+04 -0.61495555399E+03  0.14047264352E+04  0.00000000000E+00 0.  1.
        -13    1    3    3    0    0  0.17757441837E+03  0.19981890378E+03 -0.94000571641E+02  0.28336615153E+03  0.00000000000E+00 0. -1.
         22    1    1    2    0    0 -0.92370715463E+03 -0.12188242837E+04  0.57944455209E+03  0.16353970560E+04  0.00000000000E+00 0.  1.
<mgrwt>
<rscale>  0 0.33209652E+04</rscale>
<asrwt>0</asrwt>
<pdfrwt beam="1">  1        2 0.26561548E+00 0.33209652E+04</pdfrwt>
<pdfrwt beam="2">  1       -2 0.24569062E+00 0.33209652E+04</pdfrwt>
<totfact> 0.53996968E-01</totfact>
</mgrwt>
</event>
<event>
 6    1  0.1719556E-004  0.2882004E+04  0.7818608E-02  0.8278252E-01
          2   -1    0    0  501    0  0.00000000000E+00  0.00000000000E+00  0.12219838235E+04  0.12219838235E+04  0.00000000000E+00 0.  1.
         -2   -1    0    0    0  501 -0.00000000000E+00 -0.00000000000E+00 -0.16992748328E+04  0.16992748328E+04  0.00000000000E+00 0. -1.
         23    2    1    2    0    0 -0.13741653862E+04 -0.39548712692E+03 -0.40721873487E+03  0.14895985360E+04  0.91302377197E+02 0.  0.
         13    1    3    3    0    0 -0.24641536160E+03 -0.56458261496E+02 -0.39180510572E+02  0.25581864305E+03  0.00000000000E+00 0. -1.
        -13    1    3    3    0    0 -0.11277500246E+04 -0.33902886542E+03 -0.36803822430E+03  0.12337798929E+04  0.00000000000E+00 0.  1.
         22    1    1    2    0    0  0.13741653862E+04  0.39548712692E+03 -0.70072274419E+02  0.14316601203E+04  0.00000000000E+00 0. -1.
<mgrwt>
<rscale>  0 0.28820037E+04</rscale>
<asrwt>0</asrwt>
<pdfrwt beam="1">  1        2 0.18799751E+00 0.28820037E+04</pdfrwt>
<pdfrwt beam="2">  1       -2 0.26142690E+00 0.28820037E+04</pdfrwt>
<totfact> 0.86856645E-01</totfact>
</mgrwt>
</event>
<event>
 6    1  0.1719556E-004  0.4051339E+04  0.7818608E-02  0.7994269E-01
          2   -1    0    0  501    0  0.00000000000E+00  0.00000000000E+00  0.25575542643E+04  0.25575542643E+04  0.00000000000E+00 0.  1.
         -2   -1    0    0    0  501 -0.00000000000E+00 -0.00000000000E+00 -0.16043988068E+04  0.16043988068E+04  0.00000000000E+00 0. -1.
         23    2    1    2    0    0  0.14870672887E+04  0.77792190122E+02 -0.93240673851E+03  0.17592950552E+04  0.91192210080E+02 0.  0.
         11    1    3    3    0    0  0.35838595956E+03 -0.20252386475E+02 -0.22515914850E+03  0.42373021761E+03  0.00000000000E+00 0. -1.
        -11    1    3    3    0    0  0.11286813292E+04  0.98044576597E+02 -0.70724759001E+03  0.13355648376E+04  0.00000000000E+00 0.  1.
         22    1    1    2    0    0 -0.14870672887E+04 -0.77792190122E+02  0.18855621961E+04  0.24026580159E+04  0.00000000000E+00 0.  1.
<mgrwt>
<rscale>  0 0.40513390E+04</rscale>
<asrwt>0</asrwt>
<pdfrwt beam="1">  1        2 0.39346989E+00 0.40513390E+04</pdfrwt>
<pdfrwt beam="2">  1       -2 0.24683058E+00 0.40513390E+04</pdfrwt>
<totfact> 0.17017414E-01</totfact>
</mgrwt>
</event>
<event>
 6    1  0.1719556E-004  0.2552591E+04  0.7818608E-02  0.8384486E-01
          2   -1    0    0  501    0  0.00000000000E+00  0.00000000000E+00  0.18204368489E+04  0.18204368489E+04  0.00000000000E+00 0.  1.
         -2   -1    0    0    0  501 -0.00000000000E+00 -0.00000000000E+00 -0.89480161094E+03  0.89480161094E+03  0.00000000000E+00 0. -1.
         23    2    1    2    0    0 -0.55983608592E+03  0.54872748503E+03 -0.60573552373E+03  0.99488538395E+03  0.91450022200E+02 0.  0.
         11    1    3    3    0    0 -0.21915909772E+03  0.19822474161E+03 -0.28301094161E+03  0.40916860995E+03  0.00000000000E+00 0. -1.
        -11    1    3    3    0    0 -0.34067698820E+03  0.35050274343E+03 -0.32272458212E+03  0.58571677400E+03  0.00000000000E+00 0.  1.
         22    1    1    2    0    0  0.55983608592E+03 -0.54872748503E+03  0.15313707617E+04  0.17203530758E+04  0.00000000000E+00 0.  1.
<mgrwt>
<rscale>  0 0.25525907E+04</rscale>
<asrwt>0</asrwt>
<pdfrwt beam="1">  1        2 0.28006721E+00 0.25525907E+04</pdfrwt>
<pdfrwt beam="2">  1       -2 0.13766179E+00 0.25525907E+04</pdfrwt>
<totfact> 0.28012328E+00</totfact>
</mgrwt>
</event>
<event>
 6    1  0.1719556E-004  0.2598977E+04  0.7818608E-02  0.8368549E-01
         -2   -1    0    0    0  501 -0.00000000000E+00  0.00000000000E+00  0.64379672227E+03  0.64379672227E+03  0.00000000000E+00 0. -1.
          2   -1    0    0  501    0  0.00000000000E+00 -0.00000000000E+00 -0.26229874002E+04  0.26229874002E+04  0.00000000000E+00 0.  1.
         23    2    1    2    0    0 -0.11356163621E+04  0.60508782628E+03 -0.12050464547E+04  0.17651000419E+04  0.87666417676E+02 0.  0.
         11    1    3    3    0    0 -0.95701009336E+03  0.47251784573E+03 -0.99470140813E+03  0.14589627564E+04  0.00000000000E+00 0.  1.
        -11    1    3    3    0    0 -0.17860626871E+03  0.13256998055E+03 -0.21034504655E+03  0.30613728550E+03  0.00000000000E+00 0. -1.
         22    1    1    2    0    0  0.11356163621E+04 -0.60508782628E+03 -0.77414422325E+03  0.15016840805E+04  0.00000000000E+00 0. -1.
<mgrwt>
<rscale>  0 0.25989773E+04</rscale>
<asrwt>0</asrwt>
<pdfrwt beam="1">  1        2 0.40353652E+00 0.25989773E+04</pdfrwt>
<pdfrwt beam="2">  1       -2 0.99045650E-01 0.25989773E+04</pdfrwt>
<totfact> 0.22045072E+00</totfact>
</mgrwt>
</event>
<event>
 6    1  0.1719556E-004  0.2287695E+04  0.7818608E-02  0.8482789E-01
          2   -1    0    0  501    0  0.00000000000E+00  0.00000000000E+00  0.20703477686E+04  0.20703477686E+04  0.00000000000E+00 0.  1.
         -2   -1    0    0    0  501 -0.00000000000E+00 -0.00000000000E+00 -0.63196491975E+03  0.63196491975E+03  0.00000000000E+00 0. -1.
         23    2    1    2    0    0 -0.96050877221E+02  0.63415454172E+03 -0.39647287705E+03  0.75858603867E+03  0.82971573600E+02 0.  0.
         11    1    3    3    0    0 -0.70780326543E+02  0.29116134769E+03 -0.22213709228E+03  0.37300090185E+03  0.00000000000E+00 0.  1.
        -11    1    3    3    0    0 -0.25270550678E+02  0.34299319403E+03 -0.17433578476E+03  0.38558513682E+03  0.00000000000E+00 0. -1.
         22    1    1    2    0    0  0.96050877221E+02 -0.63415454172E+03  0.18348557259E+04  0.19437266497E+04  0.00000000000E+00 0.  1.
<mgrwt>
<rscale>  0 0.22876951E+04</rscale>
<asrwt>0</asrwt>
<pdfrwt beam="1">  1        2 0.31851504E+00 0.22876951E+04</pdfrwt>
<pdfrwt beam="2">  1       -2 0.97225373E-01 0.22876951E+04</pdfrwt>
<totfact> 0.48897779E+00</totfact>
</mgrwt>
</event>
<event>
 6    1  0.1719556E-004  0.2026391E+04  0.7818608E-02  0.8594381E-01
         -2   -1    0    0    0  501 -0.00000000000E+00  0.00000000000E+00  0.35848493417E+03  0.35848493417E+03  0.00000000000E+00 0. -1.
          2   -1    0    0  501    0  0.00000000000E+00 -0.00000000000E+00 -0.28636201305E+04  0.28636201305E+04  0.00000000000E+00 0.  1.
         23    2    1    2    0    0 -0.69160316441E+03 -0.24422546774E+03 -0.23618405738E+04  0.24747802591E+04  0.91024275611E+02 0.  0.
         11    1    3    3    0    0 -0.65603645472E+03 -0.23693460361E+03 -0.21639825945E+04  0.22736188127E+04  0.00000000000E+00 0.  1.
        -11    1    3    3    0    0 -0.35566709683E+02 -0.72908641321E+01 -0.19785797936E+03  0.20116144644E+03  0.00000000000E+00 0. -1.
         22    1    1    2    0    0  0.69160316441E+03  0.24422546774E+03 -0.14329462249E+03  0.74732480552E+03  0.00000000000E+00 0. -1.
<mgrwt>
<rscale>  0 0.20263906E+04</rscale>
<asrwt>0</asrwt>
<pdfrwt beam="1">  1        2 0.44055695E+00 0.20263906E+04</pdfrwt>
<pdfrwt beam="2">  1       -2 0.55151528E-01 0.20263906E+04</pdfrwt>
<totfact> 0.60713619E+00</totfact>
</mgrwt>
</event>
<event>
 6    1  0.1719556E-004  0.2567609E+04  0.7818608E-02  0.8379288E-01
         -2   -1    0    0    0  501 -0.00000000000E+00  0.00000000000E+00  0.66107669663E+03  0.66107669663E+03  0.00000000000E+00 0. -1.
          2   -1    0    0  501    0  0.00000000000E+00 -0.00000000000E+00 -0.24931353174E+04  0.24931353174E+04  0.00000000000E+00 0.  1.
         23    2    1    2    0    0  0.11847584485E+04  0.49026213477E+03 -0.90600880136E+03  0.15725743153E+04  0.90158120548E+02 0.  0.
         13    1    3    3    0    0  0.52804709848E+03  0.26558393652E+03 -0.43049539879E+03  0.73122831860E+03  0.00000000000E+00 0.  1.
        -13    1    3    3    0    0  0.65671135005E+03  0.22467819825E+03 -0.47551340257E+03  0.84134599665E+03  0.00000000000E+00 0. -1.
         22    1    1    2    0    0 -0.11847584485E+04 -0.49026213477E+03 -0.92604981938E+03  0.15816376987E+04  0.00000000000E+00 0. -1.
<mgrwt>
<rscale>  0 0.25676087E+04</rscale>
<asrwt>0</asrwt>
<pdfrwt beam="1">  1        2 0.38355928E+00 0.25676087E+04</pdfrwt>
<pdfrwt beam="2">  1       -2 0.10170411E+00 0.25676087E+04</pdfrwt>
<totfact> 0.24717635E+00</totfact>
</mgrwt>
</event>
<event>
 6    1  0.1719556E-004  0.2731976E+04  0.7818608E-02  0.8324704E-01
         -2   -1    0    0    0  501 -0.00000000000E+00  0.00000000000E+00  0.11162183675E+04  0.11162183675E+04  0.00000000000E+00 0. -1.
          2   -1    0    0  501    0  0.00000000000E+00 -0.00000000000E+00 -0.16716473945E+04  0.16716473945E+04  0.00000000000E+00 0.  1.
         23    2    1    2    0    0 -0.21241640958E+03  0.12316498355E+04  0.28063906298E+03  0.12841730077E+04  0.90884441525E+02 0.  0.
         11    1    3    3    0    0 -0.17028690509E+03  0.10558408361E+04  0.27018100197E+03  0.11030844370E+04  0.00000000000E+00 0.  1.
        -11    1    3    3    0    0 -0.42129504493E+02  0.17580899939E+03  0.10458061013E+02  0.18108857074E+03  0.00000000000E+00 0. -1.
         22    1    1    2    0    0  0.21241640958E+03 -0.12316498355E+04 -0.83606808993E+03  0.15036927543E+04  0.00000000000E+00 0. -1.
<mgrwt>
<rscale>  0 0.27319762E+04</rscale>
<asrwt>0</asrwt>
<pdfrwt beam="1">  1        2 0.25717652E+00 0.27319762E+04</pdfrwt>
<pdfrwt beam="2">  1       -2 0.17172590E+00 0.27319762E+04</pdfrwt>
<totfact> 0.18441994E+00</totfact>
</mgrwt>
</event>
<event>
 6    1  0.1719556E-004  0.3319090E+04  0.7818608E-02  0.8158055E-01
          1   -1    0    0  501    0  0.00000000000E+00  0.00000000000E+00  0.49497549539E+04  0.49497549539E+04  0.00000000000E+00 0.  1.
         -1   -1    0    0    0  501 -0.00000000000E+00 -0.00000000000E+00 -0.55640922042E+03  0.55640922042E+03  0.00000000000E+00 0. -1.
         23    2    1    2    0    0  0.19651476520E+03 -0.14815716640E+04  0.10088211604E+04  0.18063426605E+04  0.10714954525E+03 0.  0.
         13    1    3    3    0    0  0.15729037008E+03 -0.82509064687E+03  0.59471633739E+03  0.10291755720E+04  0.00000000000E+00 0.  1.
        -13    1    3    3    0    0  0.39224395128E+02 -0.65648101712E+03  0.41410482305E+03  0.77716708852E+03  0.00000000000E+00 0. -1.
         22    1    1    2    0    0 -0.19651476520E+03  0.14815716640E+04  0.33845245731E+04  0.36998215138E+04  0.00000000000E+00 0.  1.
<mgrwt>
<rscale>  0 0.33190898E+04</rscale>
<asrwt>0</asrwt>
<pdfrwt beam="1">  1        1 0.76150073E+00 0.33190898E+04</pdfrwt>
<pdfrwt beam="2">  1       -1 0.85601422E-01 0.33190898E+04</pdfrwt>
<totfact> 0.11133079E-02</totfact>
</mgrwt>
</event>
<event>
 6    1  0.1719556E-004  0.3004487E+04  0.7818608E-02  0.8242451E-01
          2   -1    0    0  501    0  0.00000000000E+00  0.00000000000E+00  0.23099961139E+04  0.23099961139E+04  0.00000000000E+00 0.  1.
         -2   -1    0    0    0  501 -0.00000000000E+00 -0.00000000000E+00 -0.97694358675E+03  0.97694358675E+03  0.00000000000E+00 0. -1.
         23    2    1    2    0    0 -0.10273305217E+04 -0.37138653760E+03 -0.45834093736E+03  0.11887436884E+04  0.98484419203E+02 0.  0.
         13    1    3    3    0    0 -0.78018052442E+03 -0.31437792879E+03 -0.38237032978E+03  0.92397088801E+03  0.00000000000E+00 0. -1.
        -13    1    3    3    0    0 -0.24714999725E+03 -0.57008608811E+02 -0.75970607578E+02  0.26477280041E+03  0.00000000000E+00 0.  1.
         22    1    1    2    0    0  0.10273305217E+04  0.37138653760E+03  0.17913934645E+04  0.20981960122E+04  0.00000000000E+00 0.  1.
<mgrwt>
<rscale>  0 0.30044872E+04</rscale>
<asrwt>0</asrwt>
<pdfrwt beam="1">  1        2 0.35538402E+00 0.30044872E+04</pdfrwt>
<pdfrwt beam="2">  1       -2 0.15029901E+00 0.30044872E+04</pdfrwt>
<totfact> 0.11410993E+00</totfact>
</mgrwt>
</event>
<event>
 6    1  0.1719556E-004  0.1591535E+04  0.7818608E-02  0.8825766E-01
         -1   -1    0    0    0  501 -0.00000000000E+00  0.00000000000E+00  0.54606382626E+03  0.54606382626E+03  0.00000000000E+00 0.  1.
          1   -1    0    0  501    0  0.00000000000E+00 -0.00000000000E+00 -0.11596548905E+04  0.11596548905E+04  0.00000000000E+00 0. -1.
         23    2    1    2    0    0  0.58939466453E+02 -0.13199970203E+03 -0.11436700416E+04  0.11562812733E+04  0.90041306414E+02 0.  0.
         13    1    3    3    0    0  0.98099291400E+01 -0.10137265854E+03 -0.90395327476E+03  0.90967256393E+03  0.00000000000E+00 0. -1.
        -13    1    3    3    0    0  0.49129537313E+02 -0.30627043492E+02 -0.23971676688E+03  0.24660870941E+03  0.00000000000E+00 0.  1.
         22    1    1    2    0    0 -0.58939466453E+02  0.13199970203E+03  0.53007897737E+03  0.54943744347E+03  0.00000000000E+00 0.  1.
<mgrwt>
<rscale>  0 0.15915346E+04</rscale>
<asrwt>0</asrwt>
<pdfrwt beam="1">  1        1 0.17840844E+00 0.15915346E+04</pdfrwt>
<pdfrwt beam="2">  1       -1 0.84009820E-01 0.15915346E+04</pdfrwt>
<totfact> 0.15430741E+01</totfact>
</mgrwt>
</event>
<event>
 6    1  0.1719556E-004  0.1159363E+04  0.7818608E-02  0.9149189E-01
          2   -1    0    0  501    0  0.00000000000E+00  0.00000000000E+00  0.21149408383E+04  0.21149408383E+04  0.00000000000E+00 0.  1.
         -2   -1    0    0    0  501 -0.00000000000E+00 -0.00000000000E+00 -0.15888421977E+03  0.15888421977E+03  0.00000000000E+00 0. -1.
         23    2    1    2    0    0 -0.21157412230E+02  0.57201069042E+03  0.11122697710E+04  0.12542074287E+04  0.90820508066E+02 0.  0.
         11    1    3    3    0    0  0.14532561876E+02  0.21579300315E+03  0.33949732080E+03  0.40253726088E+03  0.00000000000E+00 0. -1.
        -11    1    3    3    0    0 -0.35689974106E+02  0.35621768726E+03  0.77277245023E+03  0.85167016785E+03  0.00000000000E+00 0.  1.
         22    1    1    2    0    0  0.21157412230E+02 -0.57201069042E+03  0.84378684747E+03  0.10196176293E+04  0.00000000000E+00 0. -1.
<mgrwt>
<rscale>  0 0.11593631E+04</rscale>
<asrwt>0</asrwt>
<pdfrwt beam="1">  1        2 0.32537549E+00 0.11593631E+04</pdfrwt>
<pdfrwt beam="2">  1       -2 0.24443728E-01 0.11593631E+04</pdfrwt>
<totfact> 0.85434406E+01</totfact>
</mgrwt>
</event>
<event>
 6    1  0.1719556E-004  0.1462208E+04  0.7818608E-02  0.8909980E-01
          2   -1    0    0  501    0  0.00000000000E+00  0.00000000000E+00  0.12856223556E+04  0.12856223556E+04  0.00000000000E+00 0.  1.
         -2   -1    0    0    0  501 -0.00000000000E+00 -0.00000000000E+00 -0.41576224367E+03  0.41576224367E+03  0.00000000000E+00 0. -1.
         23    2    1    2    0    0 -0.39218735667E+03 -0.32758153455E+03 -0.16713430641E+03  0.54532317867E+03  0.91229974841E+02 0.  0.
         13    1    3    3    0    0 -0.14455308466E+03 -0.11153967303E+03 -0.10579287430E+03  0.21101854231E+03  0.00000000000E+00 0. -1.
        -13    1    3    3    0    0 -0.24763427200E+03 -0.21604186152E+03 -0.61341432108E+02  0.33430463636E+03  0.00000000000E+00 0.  1.
         22    1    1    2    0    0  0.39218735667E+03  0.32758153455E+03  0.10369944184E+04  0.11560614206E+04  0.00000000000E+00 0.  1.
<mgrwt>
<rscale>  0 0.14622082E+04</rscale>
<asrwt>0</asrwt>
<pdfrwt beam="1">  1        2 0.19778805E+00 0.14622082E+04</pdfrwt>
<pdfrwt beam="2">  1       -2 0.63963423E-01 0.14622082E+04</pdfrwt>
<totfact> 0.36904618E+01</totfact>
</mgrwt>
</event>
<event>
 6    1  0.1719556E-004  0.1660067E+04  0.7818608E-02  0.8784473E-01
          2   -1    0    0  501    0  0.00000000000E+00  0.00000000000E+00  0.71273851119E+03  0.71273851119E+03  0.00000000000E+00 0.  1.
         -2   -1    0    0    0  501 -0.00000000000E+00 -0.00000000000E+00 -0.96663191792E+03  0.96663191792E+03  0.00000000000E+00 0. -1.
         23    2    1    2    0    0 -0.25422890749E+03 -0.56228250827E+03 -0.68514093117E+03  0.92653021774E+03  0.90808547579E+02 0.  0.
         13    1    3    3    0    0 -0.41795036882E+02 -0.65506013491E+02 -0.13288590046E+03  0.15393675796E+03  0.00000000000E+00 0. -1.
        -13    1    3    3    0    0 -0.21243387061E+03 -0.49677649478E+03 -0.55225503071E+03  0.77259345978E+03  0.00000000000E+00 0.  1.
         22    1    1    2    0    0  0.25422890749E+03  0.56228250827E+03  0.43124752445E+03  0.75284021136E+03  0.00000000000E+00 0.  1.
<mgrwt>
<rscale>  0 0.16600672E+04</rscale>
<asrwt>0</asrwt>
<pdfrwt beam="1">  1        2 0.10965208E+00 0.16600672E+04</pdfrwt>
<pdfrwt beam="2">  1       -2 0.14871260E+00 0.16600672E+04</pdfrwt>
<totfact> 0.11710498E+01</totfact>
</mgrwt>
</event>
<event>
 6    1  0.1719556E-004  0.2658634E+04  0.7818608E-02  0.8348553E-01
         -2   -1    0    0    0  501 -0.00000000000E+00  0.00000000000E+00  0.64684954519E+03  0.64684954519E+03  0.00000000000E+00 0. -1.
          2   -1    0    0  501    0  0.00000000000E+00 -0.00000000000E+00 -0.27318302664E+04  0.27318302664E+04  0.00000000000E+00 0.  1.
         23    2    1    2    0    0  0.33772828368E+03  0.94947181791E+03  0.54964242115E+02  0.10133211553E+04  0.90783089503E+02 0.  0.
         11    1    3    3    0    0  0.21701403899E+03  0.49047013188E+03  0.50289802611E+02  0.53868832142E+03  0.00000000000E+00 0.  1.
        -11    1    3    3    0    0  0.12071424469E+03  0.45900168603E+03  0.46744395046E+01  0.47463283392E+03  0.00000000000E+00 0. -1.
         22    1    1    2    0    0 -0.33772828368E+03 -0.94947181791E+03 -0.21399449633E+04  0.23653586562E+04  0.00000000000E+00 0.  1.
<mgrwt>
<rscale>  0 0.26586336E+04</rscale>
<asrwt>0</asrwt>
<pdfrwt beam="1">  1        2 0.42028159E+00 0.26586336E+04</pdfrwt>
<pdfrwt beam="2">  1       -2 0.99515313E-01 0.26586336E+04</pdfrwt>
<totfact> 0.18690215E+00</totfact>
</mgrwt>
</event>
<event>
 6    1  0.1719556E-004  0.2740215E+04  0.7818608E-02  0.8322073E-01
          2   -1    0    0  501    0  0.00000000000E+00  0.00000000000E+00  0.11733024378E+04  0.11733024378E+04  0.00000000000E+00 0.  1.
         -2   -1    0    0    0  501 -0.00000000000E+00 -0.00000000000E+00 -0.15999242024E+04  0.15999242024E+04  0.00000000000E+00 0. -1.
         23    2    1    2    0    0 -0.96218114732E+02  0.28669545856E+03  0.11379337427E+04  0.11797128666E+04  0.73328256932E+02 0.  0.
         13    1    3    3    0    0 -0.20800474330E+02  0.11136100808E+02  0.12759322796E+03  0.12975632660E+03  0.00000000000E+00 0.  1.
        -13    1    3    3    0    0 -0.75417640402E+02  0.27555935776E+03  0.10103405147E+04  0.10499565400E+04  0.00000000000E+00 0. -1.
         22    1    1    2    0    0  0.96218114732E+02 -0.28669545856E+03 -0.15645555072E+04  0.15935137736E+04  0.00000000000E+00 0. -1.
<mgrwt>
<rscale>  0 0.27402153E+04</rscale>
<asrwt>0</asrwt>
<pdfrwt beam="1">  1        2 0.18050807E+00 0.27402153E+04</pdfrwt>
<pdfrwt beam="2">  1       -2 0.24614219E+00 0.27402153E+04</pdfrwt>
<totfact> 0.11664632E+00</totfact>
</mgrwt>
</event>
<event>
 6    1  0.1719556E-004  0.2345210E+04  0.7818608E-02  0.8460306E-01
          2   -1    0    0  501    0  0.00000000000E+00  0.00000000000E+00  0.28347888705E+04  0.28347888705E+04  0.00000000000E+00 0.  1.
         -2   -1    0    0    0  501 -0.00000000000E+00 -0.00000000000E+00 -0.48504578836E+03  0.48504578836E+03  0.00000000000E+00 0. -1.
         23    2    1    2    0    0  0.12044451791E+03 -0.11491993468E+04  0.14348834167E+04  0.18460184465E+04  0.11716511713E+03 0.  0.
         13    1    3    3    0    0 -0.25228540592E+01 -0.25187101719E+03  0.37670496050E+03  0.45315781065E+03  0.00000000000E+00 0. -1.
        -13    1    3    3    0    0  0.12296737197E+03 -0.89732832957E+03  0.10581784562E+04  0.13928606358E+04  0.00000000000E+00 0.  1.
         22    1    1    2    0    0 -0.12044451791E+03  0.11491993468E+04  0.91485966542E+03  0.14738162124E+04  0.00000000000E+00 0. -1.
<mgrwt>
<rscale>  0 0.23452099E+04</rscale>
<asrwt>0</asrwt>
<pdfrwt beam="1">  1        2 0.43612135E+00 0.23452099E+04</pdfrwt>
<pdfrwt beam="2">  1       -2 0.74622431E-01 0.23452099E+04</pdfrwt>
<totfact> 0.32137100E+00</totfact>
</mgrwt>
</event>
<event>
 6    1  0.1719556E-004  0.4586452E+04  0.7818608E-02  0.7895674E-01
         -3   -1    0    0    0  501 -0.00000000000E+00  0.00000000000E+00  0.24018647990E+04  0.24018647990E+04  0.00000000000E+00 0. -1.
          3   -1    0    0  501    0  0.00000000000E+00 -0.00000000000E+00 -0.21895015106E+04  0.21895015106E+04  0.00000000000E+00 0.  1.
         23    2    1    2    0    0  0.15278077160E+04  0.18137348013E+03  0.18073424462E+04  0.23752771259E+04  0.91443701379E+02 0.  0.
         13    1    3    3    0    0  0.65491853172E+03  0.32547009414E+02  0.77727289637E+03  0.10169221929E+04  0.00000000000E+00 0.  1.
        -13    1    3    3    0    0  0.87288918429E+03  0.14882647072E+03  0.10300695498E+04  0.13583549330E+04  0.00000000000E+00 0. -1.
         22    1    1    2    0    0 -0.15278077160E+04 -0.18137348013E+03 -0.15949791578E+04  0.22160891838E+04  0.00000000000E+00 0.  1.
<mgrwt>
<rscale>  0 0.45864525E+04</rscale>
<asrwt>0</asrwt>
<pdfrwt beam="1">  1        3 0.33684639E+00 0.45864525E+04</pdfrwt>
<pdfrwt beam="2">  1       -3 0.36951766E+00 0.45864525E+04</pdfrwt>
<totfact> 0.73135564E-04</totfact>
</mgrwt>
</event>
<event>
 6    1  0.1719556E-004  0.1521305E+04  0.7818608E-02  0.8870407E-01
          2   -1    0    0  501    0  0.00000000000E+00  0.00000000000E+00  0.24666227239E+04  0.24666227239E+04  0.00000000000E+00 0.  1.
         -2   -1    0    0    0  501 -0.00000000000E+00 -0.00000000000E+00 -0.23456868367E+03  0.23456868367E+03  0.00000000000E+00 0. -1.
         23    2    1    2    0    0  0.50694945116E+03  0.16707579202E+03  0.20753747395E+04  0.21448996949E+04  0.92208055250E+02 0.  0.
         13    1    3    3    0    0  0.20712861651E+03  0.85867428459E+02  0.70664296064E+03  0.74136344182E+03  0.00000000000E+00 0.  1.
        -13    1    3    3    0    0  0.29982083465E+03  0.81208363558E+02  0.13687317788E+04  0.14035362530E+04  0.00000000000E+00 0. -1.
         22    1    1    2    0    0 -0.50694945116E+03 -0.16707579202E+03  0.15667930073E+03  0.55629171267E+03  0.00000000000E+00 0. -1.
<mgrwt>
<rscale>  0 0.15213053E+04</rscale>
<asrwt>0</asrwt>
<pdfrwt beam="1">  1        2 0.37948040E+00 0.15213053E+04</pdfrwt>
<pdfrwt beam="2">  1       -2 0.36087492E-01 0.15213053E+04</pdfrwt>
<totfact> 0.25422101E+01</totfact>
</mgrwt>
</event>
<event>
 6    1  0.1719556E-004  0.2575864E+04  0.7818608E-02  0.8376446E-01
          2   -1    0    0  501    0  0.00000000000E+00  0.00000000000E+00  0.13961878991E+04  0.13961878991E+04  0.00000000000E+00 0.  1.
         -2   -1    0    0    0  501 -0.00000000000E+00 -0.00000000000E+00 -0.11880699626E+04  0.11880699626E+04  0.00000000000E+00 0. -1.
         23    2    1    2    0    0 -0.97012325531E+03  0.37291899400E+03  0.86437884505E+03  0.13550767982E+04  0.94205280140E+02 0.  0.
         11    1    3    3    0    0 -0.16286684452E+03  0.27965855035E+02  0.15206637879E+03  0.22457043806E+03  0.00000000000E+00 0.  1.
        -11    1    3    3    0    0 -0.80725641079E+03  0.34495313896E+03  0.71231246627E+03  0.11305063602E+04  0.00000000000E+00 0. -1.
         22    1    1    2    0    0  0.97012325531E+03 -0.37291899400E+03 -0.65626090854E+03  0.12291810634E+04  0.00000000000E+00 0. -1.
<mgrwt>
<rscale>  0 0.25758641E+04</rscale>
<asrwt>0</asrwt>
<pdfrwt beam="1">  1        2 0.21479814E+00 0.25758641E+04</pdfrwt>
<pdfrwt beam="2">  1       -2 0.18278000E+00 0.25758641E+04</pdfrwt>
<totfact> 0.22368294E+00</totfact>
</mgrwt>
</event>
<event>
 6    1  0.1719556E-004  0.1023241E+04  0.7818608E-02  0.9283415E-01
          1   -1    0    0  501    0  0.00000000000E+00  0.00000000000E+00  0.61284393123E+03  0.61284393123E+03  0.00000000000E+00 0.  1.
         -1   -1    0    0    0  501 -0.00000000000E+00 -0.00000000000E+00 -0.42711627281E+03  0.42711627281E+03  0.00000000000E+00 0. -1.
         23    2    1    2    0    0 -0.42977226488E+03  0.85416960819E+02 -0.16852975380E+03  0.47649008861E+03  0.81487850438E+02 0.  0.
         13    1    3    3    0    0 -0.41479696144E+03  0.77544355516E+02 -0.17696244157E+03  0.45758644213E+03  0.00000000000E+00 0. -1.
        -13    1    3    3    0    0 -0.14975303443E+02  0.78726053031E+01  0.84326877646E+01  0.18903646484E+02  0.00000000000E+00 0.  1.
         22    1    1    2    0    0  0.42977226488E+03 -0.85416960819E+02  0.35425741222E+03  0.56347011542E+03  0.00000000000E+00 0.  1.
<mgrwt>
<rscale>  0 0.10232412E+04</rscale>
<asrwt>0</asrwt>
<pdfrwt beam="1">  1        1 0.94283681E-01 0.10232412E+04</pdfrwt>
<pdfrwt beam="2">  1       -1 0.65710196E-01 0.10232412E+04</pdfrwt>
<totfact> 0.78086501E+01</totfact>
</mgrwt>
</event>
<event>
 6    1  0.1719556E-004  0.2020398E+04  0.7818608E-02  0.8597143E-01
          2   -1    0    0  501    0  0.00000000000E+00  0.00000000000E+00  0.15944178204E+04  0.15944178204E+04  0.00000000000E+00 0.  1.
         -2   -1    0    0    0  501 -0.00000000000E+00 -0.00000000000E+00 -0.64004651781E+03  0.64004651781E+03  0.00000000000E+00 0. -1.
         23    2    1    2    0    0  0.56527764481E+03  0.76882309184E+03  0.11849235743E+03  0.96587402874E+03  0.90798889683E+02 0.  0.
         13    1    3    3    0    0  0.26151853297E+03  0.40279151437E+03  0.23444996417E+02  0.48081453284E+03  0.00000000000E+00 0.  1.
        -13    1    3    3    0    0  0.30375911184E+03  0.36603157747E+03  0.95047361011E+02  0.48505949590E+03  0.00000000000E+00 0. -1.
         22    1    1    2    0    0 -0.56527764481E+03 -0.76882309184E+03  0.83587894512E+03  0.12685903094E+04  0.00000000000E+00 0.  1.
<mgrwt>
<rscale>  0 0.20203976E+04</rscale>
<asrwt>0</asrwt>
<pdfrwt beam="1">  1        2 0.24529505E+00 0.20203976E+04</pdfrwt>
<pdfrwt beam="2">  1       -2 0.98468696E-01 0.20203976E+04</pdfrwt>
<totfact> 0.89261769E+00</totfact>
</mgrwt>
</event>
<event>
 6    1  0.1719556E-004  0.1407868E+04  0.7818608E-02  0.8948143E-01
         -2   -1    0    0    0  501 -0.00000000000E+00  0.00000000000E+00  0.23637608049E+03  0.23637608049E+03  0.00000000000E+00 0. -1.
          2   -1    0    0  501    0  0.00000000000E+00 -0.00000000000E+00 -0.20963344457E+04  0.20963344457E+04  0.00000000000E+00 0.  1.
         23    2    1    2    0    0  0.45851945887E+03 -0.42305470907E+03 -0.40434770255E+03  0.74903828034E+03  0.91355896528E+02 0.  0.
         11    1    3    3    0    0  0.21917124767E+03 -0.20527365473E+03 -0.14061742460E+03  0.33158191934E+03  0.00000000000E+00 0. -1.
        -11    1    3    3    0    0  0.23934821120E+03 -0.21778105434E+03 -0.26373027795E+03  0.41745636101E+03  0.00000000000E+00 0.  1.
         22    1    1    2    0    0 -0.45851945887E+03  0.42305470907E+03 -0.14556106627E+04  0.15836722459E+04  0.00000000000E+00 0.  1.
<mgrwt>
<rscale>  0 0.14078683E+04</rscale>
<asrwt>0</asrwt>
<pdfrwt beam="1">  1        2 0.32251299E+00 0.14078683E+04</pdfrwt>
<pdfrwt beam="2">  1       -2 0.36365551E-01 0.14078683E+04</pdfrwt>
<totfact> 0.40914876E+01</totfact>
</mgrwt>
</event>
<event>
 6    1  0.1719556E-004  0.2408693E+04  0.7818608E-02  0.8436256E-01
          2   -1    0    0  501    0  0.00000000000E+00  0.00000000000E+00  0.12032897612E+04  0.12032897612E+04  0.00000000000E+00 0.  1.
         -2   -1    0    0    0  501 -0.00000000000E+00 -0.00000000000E+00 -0.12054038468E+04  0.12054038468E+04  0.00000000000E+00 0. -1.
         23    2    1    2    0    0  0.34861874476E+03 -0.75042046949E+02  0.11474692129E+04  0.12050707027E+04  0.91342574344E+02 0.  0.
         13    1    3    3    0    0  0.27076938623E+03 -0.61650992971E+02  0.99920328296E+03  0.10370747833E+04  0.00000000000E+00 0. -1.
        -13    1    3    3    0    0  0.77849358530E+02 -0.13391053978E+02  0.14826592994E+03  0.16799591938E+03  0.00000000000E+00 0.  1.
         22    1    1    2    0    0 -0.34861874476E+03  0.75042046949E+02 -0.11495832985E+04  0.12036229053E+04  0.00000000000E+00 0. -1.
<mgrwt>
<rscale>  0 0.24086927E+04</rscale>
<asrwt>0</asrwt>
<pdfrwt beam="1">  1        2 0.18512150E+00 0.24086927E+04</pdfrwt>
<pdfrwt beam="2">  1       -2 0.18544675E+00 0.24086927E+04</pdfrwt>
<totfact> 0.28190201E+00</totfact>
</mgrwt>
</event>
<event>
 6    1  0.1719556E-004  0.4564167E+04  0.7818608E-02  0.7899498E-01
         -2   -1    0    0    0  501 -0.00000000000E+00  0.00000000000E+00  0.19017621382E+04  0.19017621382E+04  0.00000000000E+00 0. -1.
          2   -1    0    0  501    0  0.00000000000E+00 -0.00000000000E+00 -0.27384633504E+04  0.27384633504E+04  0.00000000000E+00 0.  1.
         23    2    1    2    0    0 -0.26308954401E+03 -0.21338088120E+04 -0.11936179726E+04  0.24608343517E+04  0.92874579648E+02 0.  0.
         13    1    3    3    0    0 -0.17479851008E+03 -0.16982882732E+04 -0.96447795733E+03  0.19608557591E+04  0.00000000000E+00 0. -1.
        -13    1    3    3    0    0 -0.88291033923E+02 -0.43552053878E+03 -0.22914001529E+03  0.49997859252E+03  0.00000000000E+00 0.  1.
         22    1    1    2    0    0  0.26308954401E+03  0.21338088120E+04  0.35691676037E+03  0.21793911370E+04  0.00000000000E+00 0. -1.
<mgrwt>
<rscale>  0 0.45641674E+04</rscale>
<asrwt>0</asrwt>
<pdfrwt beam="1">  1        2 0.42130205E+00 0.45641674E+04</pdfrwt>
<pdfrwt beam="2">  1       -2 0.29257879E+00 0.45641674E+04</pdfrwt>
<totfact> 0.66979151E-02</totfact>
</mgrwt>
</event>
<event>
 6    1  0.1719556E-004  0.2663560E+04  0.7818608E-02  0.8346926E-01
          2   -1    0    0  501    0  0.00000000000E+00  0.00000000000E+00  0.14977130238E+04  0.14977130238E+04  0.00000000000E+00 0.  1.
         -2   -1    0    0    0  501 -0.00000000000E+00 -0.00000000000E+00 -0.11842310664E+04  0.11842310664E+04  0.00000000000E+00 0. -1.
         23    2    1    2    0    0 -0.18610080437E+03 -0.45667959858E+03  0.14008966247E+04  0.14879338625E+04  0.90807823895E+02 0.  0.
         13    1    3    3    0    0 -0.67345900462E+02 -0.22147006731E+03  0.53750597495E+03  0.58523254705E+03  0.00000000000E+00 0.  1.
        -13    1    3    3    0    0 -0.11875490391E+03 -0.23520953127E+03  0.86339064974E+03  0.90270131542E+03  0.00000000000E+00 0. -1.
         22    1    1    2    0    0  0.18610080437E+03  0.45667959858E+03 -0.10874146673E+04  0.11940102277E+04  0.00000000000E+00 0. -1.
<mgrwt>
<rscale>  0 0.26635602E+04</rscale>
<asrwt>0</asrwt>
<pdfrwt beam="1">  1        2 0.23041739E+00 0.26635602E+04</pdfrwt>
<pdfrwt beam="2">  1       -2 0.18218939E+00 0.26635602E+04</pdfrwt>
<totfact> 0.19623096E+00</totfact>
</mgrwt>
</event>
<event>
 6    1  0.1719556E-004  0.3472574E+04  0.7818608E-02  0.8120320E-01
         -2   -1    0    0    0  501 -0.00000000000E+00  0.00000000000E+00  0.19202735159E+04  0.19202735159E+04  0.00000000000E+00 0. -1.
          2   -1    0    0  501    0  0.00000000000E+00 -0.00000000000E+00 -0.15699286502E+04  0.15699286502E+04  0.00000000000E+00 0.  1.
         23    2    1    2    0    0  0.56109618371E+03 -0.32189073737E+03 -0.14431283443E+04  0.15836375254E+04  0.82739466723E+02 0.  0.
         13    1    3    3    0    0  0.11336627228E+03 -0.56409444352E+02 -0.36703063307E+03  0.38825947859E+03  0.00000000000E+00 0. -1.
        -13    1    3    3    0    0  0.44772991143E+03 -0.26548129302E+03 -0.10760977112E+04  0.11953780468E+04  0.00000000000E+00 0.  1.
         22    1    1    2    0    0 -0.56109618371E+03  0.32189073737E+03  0.17934732100E+04  0.19065646407E+04  0.00000000000E+00 0. -1.
<mgrwt>
<rscale>  0 0.34725739E+04</rscale>
<asrwt>0</asrwt>
<pdfrwt beam="1">  1        2 0.24152748E+00 0.34725739E+04</pdfrwt>
<pdfrwt beam="2">  1       -2 0.29542670E+00 0.34725739E+04</pdfrwt>
<totfact> 0.32363294E-01</totfact>
</mgrwt>
</event>
<event>
 6    1  0.1719556E-004  0.2690975E+04  0.7818608E-02  0.8337939E-01
          1   -1    0    0  501    0  0.00000000000E+00  0.00000000000E+00  0.28739474659E+04  0.28739474659E+04  0.00000000000E+00 0.  1.
         -1   -1    0    0    0  501 -0.00000000000E+00 -0.00000000000E+00 -0.62991272882E+03  0.62991272882E+03  0.00000000000E+00 0. -1.
         23    2    1    2    0    0 -0.51602590143E+03  0.42198032022E+03  0.26428682670E+04  0.27270601521E+04  0.88058360106E+02 0.  0.
         11    1    3    3    0    0 -0.33769332243E+03  0.24788120563E+03  0.18010223245E+04  0.18490979654E+04  0.00000000000E+00 0. -1.
        -11    1    3    3    0    0 -0.17833257900E+03  0.17409911459E+03  0.84184594248E+03  0.87796218672E+03  0.00000000000E+00 0.  1.
         22    1    1    2    0    0  0.51602590143E+03 -0.42198032022E+03 -0.39883352994E+03  0.77680004261E+03  0.00000000000E+00 0. -1.
<mgrwt>
<rscale>  0 0.26909746E+04</rscale>
<asrwt>0</asrwt>
<pdfrwt beam="1">  1        1 0.44214576E+00 0.26909746E+04</pdfrwt>
<pdfrwt beam="2">  1       -1 0.96909652E-01 0.26909746E+04</pdfrwt>
<totfact> 0.65958912E-01</totfact>
</mgrwt>
</event>
<event>
 6    1  0.1719556E-004  0.4289883E+04  0.7818608E-02  0.7948492E-01
          1   -1    0    0  501    0  0.00000000000E+00  0.00000000000E+00  0.23385366740E+04  0.23385366740E+04  0.00000000000E+00 0.  1.
         -1   -1    0    0    0  501 -0.00000000000E+00 -0.00000000000E+00 -0.19673727947E+04  0.19673727947E+04  0.00000000000E+00 0. -1.
         23    2    1    2    0    0 -0.17041650199E+04  0.88295087664E+03 -0.77337027663E+03  0.20712419096E+04  0.90337132865E+02 0.  0.
         13    1    3    3    0    0 -0.82840584734E+03  0.43192654048E+03 -0.42507027372E+03  0.10264022223E+04  0.00000000000E+00 0.  1.
        -13    1    3    3    0    0 -0.87575917257E+03  0.45102433616E+03 -0.34830000290E+03  0.10448396873E+04  0.00000000000E+00 0. -1.
         22    1    1    2    0    0  0.17041650199E+04 -0.88295087664E+03  0.11445341560E+04  0.22346675591E+04  0.00000000000E+00 0.  1.
<mgrwt>
<rscale>  0 0.42898827E+04</rscale>
<asrwt>0</asrwt>
<pdfrwt beam="1">  1        1 0.35977487E+00 0.42898827E+04</pdfrwt>
<pdfrwt beam="2">  1       -1 0.30267274E+00 0.42898827E+04</pdfrwt>
<totfact> 0.42478321E-02</totfact>
</mgrwt>
</event>
<event>
 6    1  0.1719556E-004  0.1234383E+04  0.7818608E-02  0.9083283E-01
          2   -1    0    0  501    0  0.00000000000E+00  0.00000000000E+00  0.64519685850E+03  0.64519685850E+03  0.00000000000E+00 0.  1.
         -2   -1    0    0    0  501 -0.00000000000E+00 -0.00000000000E+00 -0.59040149570E+03  0.59040149570E+03  0.00000000000E+00 0. -1.
         23    2    1    2    0    0  0.18813332734E+03  0.57199240082E+03 -0.91464460592E+02  0.61595217178E+03  0.91988449907E+02 0.  0.
         11    1    3    3    0    0  0.54650834617E+02  0.14930729500E+03  0.16155757090E+02  0.15981361191E+03  0.00000000000E+00 0. -1.
        -11    1    3    3    0    0  0.13348249273E+03  0.42268510582E+03 -0.10762021768E+03  0.45613855987E+03  0.00000000000E+00 0.  1.
         22    1    1    2    0    0 -0.18813332734E+03 -0.57199240082E+03  0.14625982338E+03  0.61964618242E+03  0.00000000000E+00 0.  1.
<mgrwt>
<rscale>  0 0.12343827E+04</rscale>
<asrwt>0</asrwt>
<pdfrwt beam="1">  1        2 0.99261055E-01 0.12343827E+04</pdfrwt>
<pdfrwt beam="2">  1       -2 0.90830999E-01 0.12343827E+04</pdfrwt>
<totfact> 0.46239132E+01</totfact>
</mgrwt>
</event>
<event>
 6    1  0.2880238E-004  0.3477539E+04  0.7818608E-02  0.8119134E-01
         -2   -1    0    0    0  501 -0.00000000000E+00  0.00000000000E+00  0.14479801965E+04  0.14479801965E+04  0.00000000000E+00 0. -1.
          2   -1    0    0  501    0  0.00000000000E+00 -0.00000000000E+00 -0.20879559828E+04  0.20879559828E+04  0.00000000000E+00 0.  1.
         23    2    1    2    0    0 -0.12419188699E+04  0.27395951386E+03 -0.15240668871E+04  0.19870548511E+04  0.90503094706E+02 0.  0.
         11    1    3    3    0    0 -0.60774014613E+03  0.10109577820E+03 -0.68791739896E+03  0.92347105498E+03  0.00000000000E+00 0.  1.
        -11    1    3    3    0    0 -0.63417872374E+03  0.17286373567E+03 -0.83614948816E+03  0.10635837961E+04  0.00000000000E+00 0. -1.
         22    1    1    2    0    0  0.12419188699E+04 -0.27395951386E+03  0.88409110077E+03  0.15488813283E+04  0.00000000000E+00 0. -1.
<mgrwt>
<rscale>  0 0.34775387E+04</rscale>
<asrwt>0</asrwt>
<pdfrwt beam="1">  1        2 0.32122400E+00 0.34775387E+04</pdfrwt>
<pdfrwt beam="2">  1       -2 0.22276618E+00 0.34775387E+04</pdfrwt>
<totfact> 0.46639860E-01</totfact>
</mgrwt>
</event>
<event>
 6    1  0.1719556E-004  0.3122620E+04  0.7818608E-02  0.8209557E-01
          1   -1    0    0  501    0  0.00000000000E+00  0.00000000000E+00  0.28614323401E+04  0.28614323401E+04  0.00000000000E+00 0.  1.
         -1   -1    0    0    0  501 -0.00000000000E+00 -0.00000000000E+00 -0.85191221831E+03  0.85191221831E+03  0.00000000000E+00 0. -1.
         23    2    1    2    0    0 -0.14654955913E+04  0.71464791346E+02  0.16357730570E+04  0.21992536058E+04  0.90434418725E+02 0.  0.
         13    1    3    3    0    0 -0.67766691957E+03  0.27253020339E+02  0.82322266012E+03  0.10666164864E+04  0.00000000000E+00 0. -1.
        -13    1    3    3    0    0 -0.78782867170E+03  0.44211771007E+02  0.81255039687E+03  0.11326371193E+04  0.00000000000E+00 0.  1.
         22    1    1    2    0    0  0.14654955913E+04 -0.71464791346E+02  0.37374706480E+03  0.15140909526E+04  0.00000000000E+00 0. -1.
<mgrwt>
<rscale>  0 0.31226202E+04</rscale>
<asrwt>0</asrwt>
<pdfrwt beam="1">  1        1 0.44022036E+00 0.31226202E+04</pdfrwt>
<pdfrwt beam="2">  1       -1 0.13106342E+00 0.31226202E+04</pdfrwt>
<totfact> 0.31488125E-01</totfact>
</mgrwt>
</event>
<event>
 6    1  0.1719556E-004  0.1706683E+04  0.7818608E-02  0.8757562E-01
         -2   -1    0    0    0  501 -0.00000000000E+00  0.00000000000E+00  0.34593268232E+03  0.34593268232E+03  0.00000000000E+00 0. -1.
          2   -1    0    0  501    0  0.00000000000E+00 -0.00000000000E+00 -0.21050098418E+04  0.21050098418E+04  0.00000000000E+00 0.  1.
         23    2    1    2    0    0  0.19685095288E+01 -0.77565567691E+03 -0.13846195517E+04  0.15896271903E+04  0.89987205778E+02 0.  0.
         13    1    3    3    0    0 -0.40413247407E+02 -0.34857486821E+03 -0.58782264085E+03  0.68459705404E+03  0.00000000000E+00 0. -1.
        -13    1    3    3    0    0  0.42381756935E+02 -0.42708080871E+03 -0.79679691085E+03  0.90503013631E+03  0.00000000000E+00 0.  1.
         22    1    1    2    0    0 -0.19685095288E+01  0.77565567691E+03 -0.37445760778E+03  0.86131533377E+03  0.00000000000E+00 0. -1.
<mgrwt>
<rscale>  0 0.17066830E+04</rscale>
<asrwt>0</asrwt>
<pdfrwt beam="1">  1        2 0.32384767E+00 0.17066830E+04</pdfrwt>
<pdfrwt beam="2">  1       -2 0.53220413E-01 0.17066830E+04</pdfrwt>
<totfact> 0.18486363E+01</totfact>
</mgrwt>
</event>
<event>
 6    1  0.1719556E-004  0.3778068E+04  0.7818608E-02  0.8050878E-01
          2   -1    0    0  501    0  0.00000000000E+00  0.00000000000E+00  0.12845245642E+04  0.12845245642E+04  0.00000000000E+00 0.  1.
         -2   -1    0    0    0  501 -0.00000000000E+00 -0.00000000000E+00 -0.27780312790E+04  0.27780312790E+04  0.00000000000E+00 0. -1.
         23    2    1    2    0    0 -0.11326124604E+04  0.10818936068E+03  0.87286262258E+03  0.14368712155E+04  0.90519660674E+02 0.  0.
         13    1    3    3    0    0 -0.54898794395E+03  0.87540863923E+02  0.46190116041E+03  0.72277510157E+03  0.00000000000E+00 0. -1.
        -13    1    3    3    0    0 -0.58362451643E+03  0.20648496758E+02  0.41096146217E+03  0.71409611397E+03  0.00000000000E+00 0.  1.
         22    1    1    2    0    0  0.11326124604E+04 -0.10818936068E+03 -0.23663693374E+04  0.26256846277E+04  0.00000000000E+00 0. -1.
<mgrwt>
<rscale>  0 0.37780680E+04</rscale>
<asrwt>0</asrwt>
<pdfrwt beam="1">  1        2 0.19761917E+00 0.37780680E+04</pdfrwt>
<pdfrwt beam="2">  1       -2 0.42738942E+00 0.37780680E+04</pdfrwt>
<totfact> 0.66385445E-02</totfact>
</mgrwt>
</event>
<event>
 6    1  0.1719556E-004  0.2058304E+04  0.7818608E-02  0.8579837E-01
         -2   -1    0    0    0  501 -0.00000000000E+00  0.00000000000E+00  0.59622427085E+03  0.59622427085E+03  0.00000000000E+00 0. -1.
          2   -1    0    0  501    0  0.00000000000E+00 -0.00000000000E+00 -0.17764349240E+04  0.17764349240E+04  0.00000000000E+00 0.  1.
         23    2    1    2    0    0  0.51242169506E+03  0.18693824602E+03 -0.15941118915E+04  0.16879430956E+04  0.10216295731E+03 0.  0.
         11    1    3    3    0    0  0.41173833323E+03  0.12231320361E+03 -0.13382855061E+04  0.14055237710E+04  0.00000000000E+00 0. -1.
        -11    1    3    3    0    0  0.10068336183E+03  0.64625042406E+02 -0.25582638537E+03  0.28241932460E+03  0.00000000000E+00 0.  1.
         22    1    1    2    0    0 -0.51242169506E+03 -0.18693824602E+03  0.41390123841E+03  0.68471609923E+03  0.00000000000E+00 0. -1.
<mgrwt>
<rscale>  0 0.20583038E+04</rscale>
<asrwt>0</asrwt>
<pdfrwt beam="1">  1        2 0.27329768E+00 0.20583038E+04</pdfrwt>
<pdfrwt beam="2">  1       -2 0.91726812E-01 0.20583038E+04</pdfrwt>
<totfact> 0.83159288E+00</totfact>
</mgrwt>
</event>
<event>
 6    1  0.1719556E-004  0.3601016E+04  0.7818608E-02  0.8090259E-01
          2   -1    0    0  501    0  0.00000000000E+00  0.00000000000E+00  0.31186709275E+04  0.31186709275E+04  0.00000000000E+00 0.  1.
         -2   -1    0    0    0  501 -0.00000000000E+00 -0.00000000000E+00 -0.10394906166E+04  0.10394906166E+04  0.00000000000E+00 0. -1.
         23    2    1    2    0    0 -0.70136578793E+03 -0.15685369130E+04  0.16574078274E+04  0.23889487124E+04  0.88618440584E+02 0.  0.
         11    1    3    3    0    0 -0.43906919128E+03 -0.10568003430E+04  0.10631481459E+04  0.15620155888E+04  0.00000000000E+00 0.  1.
        -11    1    3    3    0    0 -0.26229659665E+03 -0.51173657007E+03  0.59425968152E+03  0.82693312356E+03  0.00000000000E+00 0. -1.
         22    1    1    2    0    0  0.70136578793E+03  0.15685369130E+04  0.42177248352E+03  0.17692128317E+04  0.00000000000E+00 0. -1.
<mgrwt>
<rscale>  0 0.36010161E+04</rscale>
<asrwt>0</asrwt>
<pdfrwt beam="1">  1        2 0.47979552E+00 0.36010161E+04</pdfrwt>
<pdfrwt beam="2">  1       -2 0.15992163E+00 0.36010161E+04</pdfrwt>
<totfact> 0.30065638E-01</totfact>
</mgrwt>
</event>
<event>
 6    1  0.1719556E-004  0.1040713E+04  0.7818608E-02  0.9264985E-01
         -2   -1    0    0    0  501 -0.00000000000E+00  0.00000000000E+00  0.35535603065E+03  0.35535603065E+03  0.00000000000E+00 0.  1.
          2   -1    0    0  501    0  0.00000000000E+00 -0.00000000000E+00 -0.76197038953E+03  0.76197038953E+03  0.00000000000E+00 0. -1.
         23    2    1    2    0    0 -0.47615149993E+02  0.21675522456E+03 -0.70537109166E+03  0.74516299469E+03  0.92029787694E+02 0.  0.
         13    1    3    3    0    0 -0.62476108422E+02  0.14097652289E+03 -0.36674867577E+03  0.39784699988E+03  0.00000000000E+00 0. -1.
        -13    1    3    3    0    0  0.14860958429E+02  0.75778701673E+02 -0.33862241589E+03  0.34731599482E+03  0.00000000000E+00 0.  1.
         22    1    1    2    0    0  0.47615149993E+02 -0.21675522456E+03  0.29875673278E+03  0.37216342548E+03  0.00000000000E+00 0.  1.
<mgrwt>
<rscale>  0 0.10407128E+04</rscale>
<asrwt>0</asrwt>
<pdfrwt beam="1">  1        2 0.11722621E+00 0.10407128E+04</pdfrwt>
<pdfrwt beam="2">  1       -2 0.54670158E-01 0.10407128E+04</pdfrwt>
<totfact> 0.11523466E+02</totfact>
</mgrwt>
</event>
<event>
 6    1  0.1719556E-004  0.2650840E+04  0.7818608E-02  0.8351134E-01
          2   -1    0    0  501    0  0.00000000000E+00  0.00000000000E+00  0.25474538612E+04  0.25474538612E+04  0.00000000000E+00 0.  1.
         -2   -1    0    0    0  501 -0.00000000000E+00 -0.00000000000E+00 -0.68960566707E+03  0.68960566707E+03  0.00000000000E+00 0. -1.
         23    2    1    2    0    0  0.50955716452E+03  0.98394634704E+03  0.45443397528E+02  0.11127690433E+04  0.91601984844E+02 0.  0.
         11    1    3    3    0    0  0.34282806835E+03  0.65423359122E+03 -0.12850976717E+02  0.73872716475E+03  0.00000000000E+00 0.  1.
        -11    1    3    3    0    0  0.16672909617E+03  0.32971275581E+03  0.58294374245E+02  0.37404187857E+03  0.00000000000E+00 0. -1.
         22    1    1    2    0    0 -0.50955716452E+03 -0.98394634704E+03  0.18124047966E+04  0.21242904850E+04  0.00000000000E+00 0.  1.
<mgrwt>
<rscale>  0 0.26508403E+04</rscale>
<asrwt>0</asrwt>
<pdfrwt beam="1">  1        2 0.39191597E+00 0.26508403E+04</pdfrwt>
<pdfrwt beam="2">  1       -2 0.10609318E+00 0.26508403E+04</pdfrwt>
<totfact> 0.20626306E+00</totfact>
</mgrwt>
</event>
<event>
 6    1  0.1719556E-004  0.2387947E+04  0.7818608E-02  0.8444030E-01
         -1   -1    0    0    0  501 -0.00000000000E+00  0.00000000000E+00  0.10109451067E+04  0.10109451067E+04  0.00000000000E+00 0. -1.
          1   -1    0    0  501    0  0.00000000000E+00 -0.00000000000E+00 -0.14101390820E+04  0.14101390820E+04  0.00000000000E+00 0.  1.
         23    2    1    2    0    0 -0.91571870089E+03 -0.45524748108E+03  0.42148425179E+03  0.11098619495E+04  0.91397835246E+02 0.  0.
         11    1    3    3    0    0 -0.41781985745E+03 -0.18936105659E+03  0.14330592690E+03  0.48059091930E+03  0.00000000000E+00 0. -1.
        -11    1    3    3    0    0 -0.49789884344E+03 -0.26588642449E+03  0.27817832489E+03  0.62927103021E+03  0.00000000000E+00 0.  1.
         22    1    1    2    0    0  0.91571870089E+03  0.45524748108E+03 -0.82067822705E+03  0.13112222392E+04  0.00000000000E+00 0.  1.
<mgrwt>
<rscale>  0 0.23879474E+04</rscale>
<asrwt>0</asrwt>
<pdfrwt beam="1">  1        1 0.21694447E+00 0.23879474E+04</pdfrwt>
<pdfrwt beam="2">  1       -1 0.15553002E+00 0.23879474E+04</pdfrwt>
<totfact> 0.21435165E+00</totfact>
</mgrwt>
</event>
<event>
 6    1  0.1719556E-004  0.5149477E+04  0.7818608E-02  0.7805854E-01
         -2   -1    0    0    0  501 -0.00000000000E+00  0.00000000000E+00  0.16599050082E+04  0.16599050082E+04  0.00000000000E+00 0. -1.
          2   -1    0    0  501    0  0.00000000000E+00 -0.00000000000E+00 -0.39937702958E+04  0.39937702958E+04  0.00000000000E+00 0.  1.
         23    2    1    2    0    0  0.19991762077E+04  0.14383808537E+04 -0.19885443259E+04  0.31667310835E+04  0.90731634104E+02 0.  0.
         11    1    3    3    0    0  0.15358516237E+04  0.10924260441E+04 -0.14733808805E+04  0.23922972413E+04  0.00000000000E+00 0. -1.
        -11    1    3    3    0    0  0.46332458397E+03  0.34595480962E+03 -0.51516344542E+03  0.77443384217E+03  0.00000000000E+00 0.  1.
         22    1    1    2    0    0 -0.19991762077E+04 -0.14383808537E+04 -0.34532096171E+03  0.24869442205E+04  0.00000000000E+00 0. -1.
<mgrwt>
<rscale>  0 0.51494774E+04</rscale>
<asrwt>0</asrwt>
<pdfrwt beam="1">  1        2 0.61442620E+00 0.51494774E+04</pdfrwt>
<pdfrwt beam="2">  1       -2 0.25537000E+00 0.51494774E+04</pdfrwt>
<totfact> 0.14761253E-02</totfact>
</mgrwt>
</event>
<event>
 6    1  0.1719556E-004  0.7655513E+03  0.7818608E-02  0.9611264E-01
          4   -1    0    0  501    0  0.00000000000E+00  0.00000000000E+00  0.14038109320E+04  0.14038109320E+04  0.00000000000E+00 0.  1.
         -4   -1    0    0    0  501 -0.00000000000E+00 -0.00000000000E+00 -0.10437103112E+03  0.10437103112E+03  0.00000000000E+00 0. -1.
         23    2    1    2    0    0 -0.84678227694E+02 -0.25394562360E+03  0.11825274259E+04  0.12160735778E+04  0.93835236138E+02 0.  0.
         11    1    3    3    0    0 -0.87806214486E+02 -0.15609034722E+03  0.88205369458E+03  0.90005158071E+03  0.00000000000E+00 0.  1.
        -11    1    3    3    0    0  0.31279867919E+01 -0.97855276371E+02  0.30047373135E+03  0.31602199709E+03  0.00000000000E+00 0. -1.
         22    1    1    2    0    0  0.84678227694E+02  0.25394562360E+03  0.11691247498E+03  0.29210838536E+03  0.00000000000E+00 0. -1.
<mgrwt>
<rscale>  0 0.76555129E+03</rscale>
<asrwt>0</asrwt>
<pdfrwt beam="1">  1        4 0.21597090E+00 0.76555129E+03</pdfrwt>
<pdfrwt beam="2">  1       -4 0.16057083E-01 0.76555129E+03</pdfrwt>
<totfact> 0.71882261E+00</totfact>
</mgrwt>
</event>
<event>
 6    1  0.1719556E-004  0.1459439E+04  0.7818608E-02  0.8911883E-01
         -1   -1    0    0    0  501 -0.00000000000E+00  0.00000000000E+00  0.11080901694E+04  0.11080901694E+04  0.00000000000E+00 0. -1.
          1   -1    0    0  501    0  0.00000000000E+00 -0.00000000000E+00 -0.48054778671E+03  0.48054778671E+03  0.00000000000E+00 0.  1.
         23    2    1    2    0    0 -0.52919395308E+02 -0.27784619250E+03 -0.41365011560E+03  0.50971219983E+03  0.93279898365E+02 0.  0.
         11    1    3    3    0    0 -0.35277493849E+02 -0.11248754065E+03 -0.24997538060E+03  0.27637952037E+03  0.00000000000E+00 0.  1.
        -11    1    3    3    0    0 -0.17641901459E+02 -0.16535865185E+03 -0.16367473499E+03  0.23333267946E+03  0.00000000000E+00 0. -1.
         22    1    1    2    0    0  0.52919395308E+02  0.27784619250E+03  0.10411924983E+04  0.10789257563E+04  0.00000000000E+00 0. -1.
<mgrwt>
<rscale>  0 0.14594386E+04</rscale>
<asrwt>0</asrwt>
<pdfrwt beam="1">  1        1 0.73930429E-01 0.14594386E+04</pdfrwt>
<pdfrwt beam="2">  1       -1 0.17047541E+00 0.14594386E+04</pdfrwt>
<totfact> 0.11088703E+01</totfact>
</mgrwt>
</event>
<event>
 6    1  0.1719556E-004  0.2378231E+04  0.7818608E-02  0.8447699E-01
         -1   -1    0    0    0  501 -0.00000000000E+00  0.00000000000E+00  0.72429191781E+03  0.72429191781E+03  0.00000000000E+00 0. -1.
          1   -1    0    0  501    0  0.00000000000E+00 -0.00000000000E+00 -0.19522451282E+04  0.19522451282E+04  0.00000000000E+00 0.  1.
         23    2    1    2    0    0  0.57035929451E+03 -0.10356324825E+04 -0.49166583440E+03  0.12837113341E+04  0.91296949425E+02 0.  0.
         13    1    3    3    0    0  0.16767557591E+03 -0.22937598477E+03 -0.10246771321E+03  0.30203985399E+03  0.00000000000E+00 0.  1.
        -13    1    3    3    0    0  0.40268371860E+03 -0.80625649774E+03 -0.38919812119E+03  0.98167148013E+03  0.00000000000E+00 0. -1.
         22    1    1    2    0    0 -0.57035929451E+03  0.10356324825E+04 -0.73628737601E+03  0.13928257119E+04  0.00000000000E+00 0.  1.
<mgrwt>
<rscale>  0 0.23782307E+04</rscale>
<asrwt>0</asrwt>
<pdfrwt beam="1">  1        1 0.30034540E+00 0.23782307E+04</pdfrwt>
<pdfrwt beam="2">  1       -1 0.11142953E+00 0.23782307E+04</pdfrwt>
<totfact> 0.21333323E+00</totfact>
</mgrwt>
</event>
<event>
 6    1  0.1719556E-004  0.3652658E+04  0.7818608E-02  0.8078535E-01
         -2   -1    0    0    0  501 -0.00000000000E+00  0.00000000000E+00  0.13836778261E+04  0.13836778261E+04  0.00000000000E+00 0. -1.
          2   -1    0    0  501    0  0.00000000000E+00 -0.00000000000E+00 -0.24105880963E+04  0.24105880963E+04  0.00000000000E+00 0.  1.
         23    2    1    2    0    0 -0.49496760993E+03 -0.70290618535E+03  0.11587148102E+04  0.14456435534E+04  0.90527520704E+02 0.  0.
         13    1    3    3    0    0 -0.22251136397E+03 -0.30698611680E+03  0.43705366635E+03  0.57859112530E+03  0.00000000000E+00 0. -1.
        -13    1    3    3    0    0 -0.27245624596E+03 -0.39592006855E+03  0.72166114382E+03  0.86705242814E+03  0.00000000000E+00 0.  1.
         22    1    1    2    0    0  0.49496760993E+03  0.70290618535E+03 -0.21856250804E+04  0.23486223690E+04  0.00000000000E+00 0.  1.
<mgrwt>
<rscale>  0 0.36526578E+04</rscale>
<asrwt>0</asrwt>
<pdfrwt beam="1">  1        2 0.37085970E+00 0.36526578E+04</pdfrwt>
<pdfrwt beam="2">  1       -2 0.21287352E+00 0.36526578E+04</pdfrwt>
<totfact> 0.34911871E-01</totfact>
</mgrwt>
</event>
<event>
 6    1  0.1719556E-004  0.2381884E+04  0.7818608E-02  0.8446317E-01
          2   -1    0    0  501    0  0.00000000000E+00  0.00000000000E+00  0.41124283786E+04  0.41124283786E+04  0.00000000000E+00 0.  1.
         -2   -1    0    0    0  501 -0.00000000000E+00 -0.00000000000E+00 -0.34489171548E+03  0.34489171548E+03  0.00000000000E+00 0. -1.
         23    2    1    2    0    0  0.30995542145E+03 -0.77943815834E+03  0.34638412478E+04  0.35652286687E+04  0.95200128554E+02 0.  0.
         11    1    3    3    0    0  0.96756135539E+02 -0.14094650859E+03  0.68148254348E+03  0.70259954818E+03  0.00000000000E+00 0. -1.
        -11    1    3    3    0    0  0.21319928591E+03 -0.63849164976E+03  0.27823587043E+04  0.28626291205E+04  0.00000000000E+00 0.  1.
         22    1    1    2    0    0 -0.30995542145E+03  0.77943815834E+03  0.30369541541E+03  0.89209142542E+03  0.00000000000E+00 0. -1.
<mgrwt>
<rscale>  0 0.23818837E+04</rscale>
<asrwt>0</asrwt>
<pdfrwt beam="1">  1        2 0.63268125E+00 0.23818837E+04</pdfrwt>
<pdfrwt beam="2">  1       -2 0.53060267E-01 0.23818837E+04</pdfrwt>
<totfact> 0.83793744E-01</totfact>
</mgrwt>
</event>
<event>
 6    1  0.1719556E-004  0.2772934E+04  0.7818608E-02  0.8311721E-01
          2   -1    0    0  501    0  0.00000000000E+00  0.00000000000E+00  0.13844455064E+04  0.13844455064E+04  0.00000000000E+00 0.  1.
         -2   -1    0    0    0  501 -0.00000000000E+00 -0.00000000000E+00 -0.13884916805E+04  0.13884916805E+04  0.00000000000E+00 0. -1.
         23    2    1    2    0    0 -0.12005454513E+04 -0.67710048610E+03 -0.13661479947E+03  0.13882535085E+04  0.93860277057E+02 0.  0.
         13    1    3    3    0    0 -0.51818821841E+03 -0.24606224909E+03 -0.79696401869E+02  0.57915211870E+03  0.00000000000E+00 0. -1.
        -13    1    3    3    0    0 -0.68235723285E+03 -0.43103823700E+03 -0.56918397596E+02  0.80910138980E+03  0.00000000000E+00 0.  1.
         22    1    1    2    0    0  0.12005454513E+04  0.67710048610E+03  0.13256862528E+03  0.13846836784E+04  0.00000000000E+00 0.  1.
<mgrwt>
<rscale>  0 0.27729342E+04</rscale>
<asrwt>0</asrwt>
<pdfrwt beam="1">  1        2 0.21299162E+00 0.27729342E+04</pdfrwt>
<pdfrwt beam="2">  1       -2 0.21361410E+00 0.27729342E+04</pdfrwt>
<totfact> 0.13983229E+00</totfact>
</mgrwt>
</event>
<event>
 6    1  0.1719556E-004  0.1386132E+04  0.7818608E-02  0.8963919E-01
          1   -1    0    0  501    0  0.00000000000E+00  0.00000000000E+00  0.58507838052E+03  0.58507838052E+03  0.00000000000E+00 0. -1.
         -1   -1    0    0    0  501 -0.00000000000E+00 -0.00000000000E+00 -0.82098475995E+03  0.82098475995E+03  0.00000000000E+00 0.  1.
         23    2    1    2    0    0 -0.30775121323E+03 -0.51710733324E+03 -0.46087376538E+03  0.76362938662E+03  0.92813841461E+02 0.  0.
         13    1    3    3    0    0 -0.29668588410E+03 -0.49481180961E+03 -0.41253137352E+03  0.70925550748E+03  0.00000000000E+00 0. -1.
        -13    1    3    3    0    0 -0.11065329130E+02 -0.22295523631E+02 -0.48342391853E+02  0.54373879141E+02  0.00000000000E+00 0.  1.
         22    1    1    2    0    0  0.30775121323E+03  0.51710733324E+03  0.22496738594E+03  0.64243375384E+03  0.00000000000E+00 0. -1.
<mgrwt>
<rscale>  0 0.13861319E+04</rscale>
<asrwt>0</asrwt>
<pdfrwt beam="1">  1        1 0.90012058E-01 0.13861319E+04</pdfrwt>
<pdfrwt beam="2">  1       -1 0.12630535E+00 0.13861319E+04</pdfrwt>
<totfact> 0.18910119E+01</totfact>
</mgrwt>
</event>
<event>
 6    1  0.1719556E-004  0.2319226E+04  0.7818608E-02  0.8470379E-01
          2   -1    0    0  501    0  0.00000000000E+00  0.00000000000E+00  0.10484812885E+04  0.10484812885E+04  0.00000000000E+00 0.  1.
         -2   -1    0    0    0  501 -0.00000000000E+00 -0.00000000000E+00 -0.12825239567E+04  0.12825239567E+04  0.00000000000E+00 0. -1.
         23    2    1    2    0    0  0.51480222754E+03  0.10267719228E+04  0.29353757884E+02  0.11525912296E+04  0.91230392249E+02 0.  0.
         11    1    3    3    0    0  0.35433745580E+03  0.66548602248E+03  0.58454502941E+02  0.75620341683E+03  0.00000000000E+00 0. -1.
        -11    1    3    3    0    0  0.16046477174E+03  0.36128590032E+03 -0.29100745057E+02  0.39638781276E+03  0.00000000000E+00 0.  1.
         22    1    1    2    0    0 -0.51480222754E+03 -0.10267719228E+04 -0.26339642612E+03  0.11784140156E+04  0.00000000000E+00 0. -1.
<mgrwt>
<rscale>  0 0.23192261E+04</rscale>
<asrwt>0</asrwt>
<pdfrwt beam="1">  1        2 0.16130481E+00 0.23192261E+04</pdfrwt>
<pdfrwt beam="2">  1       -2 0.19731138E+00 0.23192261E+04</pdfrwt>
<totfact> 0.29415188E+00</totfact>
</mgrwt>
</event>
<event>
 6    1  0.1719556E-004  0.1105018E+04  0.7818608E-02  0.9200314E-01
         -2   -1    0    0    0  501 -0.00000000000E+00  0.00000000000E+00  0.10604458262E+03  0.10604458262E+03  0.00000000000E+00 0. -1.
          2   -1    0    0  501    0  0.00000000000E+00 -0.00000000000E+00 -0.28786610603E+04  0.28786610603E+04  0.00000000000E+00 0.  1.
         23    2    1    2    0    0  0.47100663754E+03  0.77510730260E+02 -0.66157701746E+03  0.82037138765E+03  0.86428570142E+02 0.  0.
         11    1    3    3    0    0  0.40052594919E+03  0.65817759139E+02 -0.60813614899E+03  0.73115155003E+03  0.00000000000E+00 0. -1.
        -11    1    3    3    0    0  0.70480688348E+02  0.11692971121E+02 -0.53440868468E+02  0.89219837627E+02  0.00000000000E+00 0.  1.
         22    1    1    2    0    0 -0.47100663754E+03 -0.77510730260E+02 -0.21110394602E+04  0.21643342552E+04  0.00000000000E+00 0.  1.
<mgrwt>
<rscale>  0 0.11050184E+04</rscale>
<asrwt>0</asrwt>
<pdfrwt beam="1">  1        2 0.44287101E+00 0.11050184E+04</pdfrwt>
<pdfrwt beam="2">  1       -2 0.16314548E-01 0.11050184E+04</pdfrwt>
<totfact> 0.63549515E+01</totfact>
</mgrwt>
</event>
<event>
 6    1  0.1719556E-004  0.5378093E+04  0.7818608E-02  0.7772690E-01
          2   -1    0    0  501    0  0.00000000000E+00  0.00000000000E+00  0.22926777353E+04  0.22926777353E+04  0.00000000000E+00 0.  1.
         -2   -1    0    0    0  501 -0.00000000000E+00 -0.00000000000E+00 -0.31539417394E+04  0.31539417394E+04  0.00000000000E+00 0. -1.
         23    2    1    2    0    0 -0.88660055484E+03  0.27406609961E+02  0.21392970171E+04  0.23176934435E+04  0.91101617658E+02 0.  0.
         11    1    3    3    0    0 -0.36964405447E+03 -0.25363327448E+02  0.95805308557E+03  0.10272028720E+04  0.00000000000E+00 0.  1.
        -11    1    3    3    0    0 -0.51695650037E+03  0.52769937408E+02  0.11812439315E+04  0.12904905716E+04  0.00000000000E+00 0. -1.
         22    1    1    2    0    0  0.88660055484E+03 -0.27406609961E+02 -0.30005610213E+04  0.31289260311E+04  0.00000000000E+00 0. -1.
<mgrwt>
<rscale>  0 0.53780933E+04</rscale>
<asrwt>0</asrwt>
<pdfrwt beam="1">  1        2 0.35271965E+00 0.53780933E+04</pdfrwt>
<pdfrwt beam="2">  1       -2 0.48522180E+00 0.53780933E+04</pdfrwt>
<totfact> 0.66583446E-03</totfact>
</mgrwt>
</event>
<event>
 6    1  0.1719556E-004  0.2013053E+04  0.7818608E-02  0.8600542E-01
          2   -1    0    0  501    0  0.00000000000E+00  0.00000000000E+00  0.44575753720E+03  0.44575753720E+03  0.00000000000E+00 0.  1.
         -2   -1    0    0    0  501 -0.00000000000E+00 -0.00000000000E+00 -0.22727501345E+04  0.22727501345E+04  0.00000000000E+00 0. -1.
         23    2    1    2    0    0 -0.67652138040E+03 -0.73043764681E+03 -0.73461802661E+03  0.12405014009E+04  0.89217411359E+02 0.  0.
         11    1    3    3    0    0 -0.34131890259E+03 -0.31243219451E+03 -0.36896178523E+03  0.59181523163E+03  0.00000000000E+00 0.  1.
        -11    1    3    3    0    0 -0.33520247781E+03 -0.41800545230E+03 -0.36565624138E+03  0.64868616923E+03  0.00000000000E+00 0. -1.
         22    1    1    2    0    0  0.67652138040E+03  0.73043764681E+03 -0.10923745707E+04  0.14780062709E+04  0.00000000000E+00 0. -1.
<mgrwt>
<rscale>  0 0.20130529E+04</rscale>
<asrwt>0</asrwt>
<pdfrwt beam="1">  1        2 0.68578082E-01 0.20130529E+04</pdfrwt>
<pdfrwt beam="2">  1       -2 0.34965387E+00 0.20130529E+04</pdfrwt>
<totfact> 0.10226465E+00</totfact>
</mgrwt>
</event>
<event>
 6    1  0.1719556E-004  0.1538785E+04  0.7818608E-02  0.8859063E-01
          2   -1    0    0  501    0  0.00000000000E+00  0.00000000000E+00  0.97003107351E+03  0.97003107351E+03  0.00000000000E+00 0.  1.
         -2   -1    0    0    0  501 -0.00000000000E+00 -0.00000000000E+00 -0.61025346269E+03  0.61025346269E+03  0.00000000000E+00 0. -1.
         23    2    1    2    0    0 -0.52744253552E+03  0.48726220251E+03  0.45623364437E+03  0.85576825021E+03  0.92574713286E+02 0.  0.
         13    1    3    3    0    0 -0.34777889280E+03  0.35778020641E+03  0.27578584501E+03  0.57010057594E+03  0.00000000000E+00 0. -1.
        -13    1    3    3    0    0 -0.17966364272E+03  0.12948199609E+03  0.18044779936E+03  0.28566767426E+03  0.00000000000E+00 0.  1.
         22    1    1    2    0    0  0.52744253552E+03 -0.48726220251E+03 -0.96456033555E+02  0.72451628600E+03  0.00000000000E+00 0. -1.
<mgrwt>
<rscale>  0 0.15387850E+04</rscale>
<asrwt>0</asrwt>
<pdfrwt beam="1">  1        2 0.14923555E+00 0.15387850E+04</pdfrwt>
<pdfrwt beam="2">  1       -2 0.93885148E-01 0.15387850E+04</pdfrwt>
<totfact> 0.24317702E+01</totfact>
</mgrwt>
</event>
<event>
 6    1  0.1719556E-004  0.3681857E+04  0.7818608E-02  0.8071995E-01
          2   -1    0    0  501    0  0.00000000000E+00  0.00000000000E+00  0.25742281246E+04  0.25742281246E+04  0.00000000000E+00 0.  1.
         -2   -1    0    0    0  501 -0.00000000000E+00 -0.00000000000E+00 -0.13165178486E+04  0.13165178486E+04  0.00000000000E+00 0. -1.
         23    2    1    2    0    0 -0.10852626637E+04 -0.13786801058E+04  0.44377838307E+02  0.17575020847E+04  0.91051094429E+02 0.  0.
         11    1    3    3    0    0 -0.89129846856E+03 -0.11845505597E+04  0.30751494475E+02  0.14827402480E+04  0.00000000000E+00 0.  1.
        -11    1    3    3    0    0 -0.19396419518E+03 -0.19412954606E+03  0.13626343832E+02  0.27476183670E+03  0.00000000000E+00 0. -1.
         22    1    1    2    0    0  0.10852626637E+04  0.13786801058E+04  0.12133324378E+04  0.21332438885E+04  0.00000000000E+00 0.  1.
<mgrwt>
<rscale>  0 0.36818567E+04</rscale>
<asrwt>0</asrwt>
<pdfrwt beam="1">  1        2 0.39603510E+00 0.36818567E+04</pdfrwt>
<pdfrwt beam="2">  1       -2 0.20254121E+00 0.36818567E+04</pdfrwt>
<totfact> 0.32648906E-01</totfact>
</mgrwt>
</event>
<event>
 6    1  0.1719556E-004  0.9826671E+03  0.7818608E-02  0.9327762E-01
         -2   -1    0    0    0  501 -0.00000000000E+00  0.00000000000E+00  0.16084905576E+03  0.16084905576E+03  0.00000000000E+00 0. -1.
          2   -1    0    0  501    0  0.00000000000E+00 -0.00000000000E+00 -0.15008397309E+04  0.15008397309E+04  0.00000000000E+00 0.  1.
         23    2    1    2    0    0  0.13406306826E+03  0.37183115694E+03 -0.19441347143E+03  0.44983960247E+03  0.91256531493E+02 0.  0.
         11    1    3    3    0    0  0.41375322542E+02  0.23597780530E+03 -0.13487474904E+03  0.27493388267E+03  0.00000000000E+00 0.  1.
        -11    1    3    3    0    0  0.92687745722E+02  0.13585335163E+03 -0.59538722394E+02  0.17490571981E+03  0.00000000000E+00 0. -1.
         22    1    1    2    0    0 -0.13406306826E+03 -0.37183115694E+03 -0.11455772037E+04  0.12118491842E+04  0.00000000000E+00 0.  1.
<mgrwt>
<rscale>  0 0.98266709E+03</rscale>
<asrwt>0</asrwt>
<pdfrwt beam="1">  1        2 0.23089842E+00 0.98266709E+03</pdfrwt>
<pdfrwt beam="2">  1       -2 0.24746008E-01 0.98266709E+03</pdfrwt>
<totfact> 0.18502335E+02</totfact>
</mgrwt>
</event>
<event>
 6    1  0.1719556E-004  0.1465285E+04  0.7818608E-02  0.8907872E-01
         -1   -1    0    0    0  501 -0.00000000000E+00  0.00000000000E+00  0.21907364436E+03  0.21907364436E+03  0.00000000000E+00 0. -1.
          1   -1    0    0  501    0  0.00000000000E+00 -0.00000000000E+00 -0.24501565701E+04  0.24501565701E+04  0.00000000000E+00 0.  1.
         23    2    1    2    0    0  0.45252163252E+01 -0.70246445727E+03 -0.74981012101E+03  0.10298260808E+04  0.69640131114E+02 0.  0.
         13    1    3    3    0    0  0.26640786130E+02 -0.24732495855E+03 -0.23327189572E+03  0.34102073828E+03  0.00000000000E+00 0.  1.
        -13    1    3    3    0    0 -0.22115569805E+02 -0.45513949873E+03 -0.51653822529E+03  0.68880534254E+03  0.00000000000E+00 0. -1.
         22    1    1    2    0    0 -0.45252163252E+01  0.70246445727E+03 -0.14812728047E+04  0.16394041336E+04  0.00000000000E+00 0.  1.
<mgrwt>
<rscale>  0 0.14652846E+04</rscale>
<asrwt>0</asrwt>
<pdfrwt beam="1">  1        1 0.37694716E+00 0.14652846E+04</pdfrwt>
<pdfrwt beam="2">  1       -1 0.33703638E-01 0.14652846E+04</pdfrwt>
<totfact> 0.11845128E+01</totfact>
</mgrwt>
</event>
<event>
 6    1  0.1719556E-004  0.1533529E+04  0.7818608E-02  0.8862457E-01
         -2   -1    0    0    0  501 -0.00000000000E+00  0.00000000000E+00  0.28705864553E+03  0.28705864553E+03  0.00000000000E+00 0. -1.
          2   -1    0    0  501    0  0.00000000000E+00 -0.00000000000E+00 -0.20481112376E+04  0.20481112376E+04  0.00000000000E+00 0.  1.
         23    2    1    2    0    0  0.67133723766E+03 -0.34711677761E+03 -0.10529522603E+04  0.12995107578E+04  0.94000017209E+02 0.  0.
         11    1    3    3    0    0  0.52266015049E+03 -0.24531644823E+03 -0.74260691306E+03  0.94064808510E+03  0.00000000000E+00 0.  1.
        -11    1    3    3    0    0  0.14867708717E+03 -0.10180032938E+03 -0.31034534725E+03  0.35886267272E+03  0.00000000000E+00 0. -1.
         22    1    1    2    0    0 -0.67133723766E+03  0.34711677761E+03 -0.70810033173E+03  0.10356591253E+04  0.00000000000E+00 0.  1.
<mgrwt>
<rscale>  0 0.15335293E+04</rscale>
<asrwt>0</asrwt>
<pdfrwt beam="1">  1        2 0.31509402E+00 0.15335293E+04</pdfrwt>
<pdfrwt beam="2">  1       -2 0.44162871E-01 0.15335293E+04</pdfrwt>
<totfact> 0.29448274E+01</totfact>
</mgrwt>
</event>
<event>
 6    1  0.1719556E-004  0.2344054E+04  0.7818608E-02  0.8460751E-01
          2   -1    0    0  501    0  0.00000000000E+00  0.00000000000E+00  0.18660182456E+04  0.18660182456E+04  0.00000000000E+00 0. -1.
         -2   -1    0    0    0  501 -0.00000000000E+00 -0.00000000000E+00 -0.73613836160E+03  0.73613836160E+03  0.00000000000E+00 0.  1.
         23    2    1    2    0    0 -0.39189940158E+03  0.81555330133E+03  0.13895261533E+04  0.16608126141E+04  0.93825797383E+02 0.  0.
         13    1    3    3    0    0 -0.22000349218E+03  0.38449484563E+03  0.61571101598E+03  0.75851030189E+03  0.00000000000E+00 0. -1.
        -13    1    3    3    0    0 -0.17189590940E+03  0.43105845570E+03  0.77381513732E+03  0.90230231222E+03  0.00000000000E+00 0.  1.
         22    1    1    2    0    0  0.39189940158E+03 -0.81555330133E+03 -0.25964626924E+03  0.94134399313E+03  0.00000000000E+00 0.  1.
<mgrwt>
<rscale>  0 0.23440543E+04</rscale>
<asrwt>0</asrwt>
<pdfrwt beam="1">  1        2 0.28707973E+00 0.23440543E+04</pdfrwt>
<pdfrwt beam="2">  1       -2 0.11325206E+00 0.23440543E+04</pdfrwt>
<totfact> 0.43853334E+00</totfact>
</mgrwt>
</event>
<event>
 6    1  0.1719556E-004  0.1756474E+04  0.7818608E-02  0.8729795E-01
         -2   -1    0    0    0  501 -0.00000000000E+00  0.00000000000E+00  0.78108284470E+03  0.78108284470E+03  0.00000000000E+00 0. -1.
          2   -1    0    0  501    0  0.00000000000E+00 -0.00000000000E+00 -0.98747507862E+03  0.98747507862E+03  0.00000000000E+00 0.  1.
         23    2    1    2    0    0 -0.16139176211E+02 -0.58548273325E+03  0.55222202078E+03  0.81014982059E+03  0.91340394314E+02 0.  0.
         13    1    3    3    0    0  0.12654934656E+02 -0.43408023673E+02  0.73927817962E+02  0.86658676190E+02  0.00000000000E+00 0. -1.
        -13    1    3    3    0    0 -0.28794110867E+02 -0.54207470957E+03  0.47829420281E+03  0.72349114440E+03  0.00000000000E+00 0.  1.
         22    1    1    2    0    0  0.16139176211E+02  0.58548273325E+03 -0.75861425470E+03  0.95840810273E+03  0.00000000000E+00 0.  1.
<mgrwt>
<rscale>  0 0.17564736E+04</rscale>
<asrwt>0</asrwt>
<pdfrwt beam="1">  1        2 0.15191924E+00 0.17564736E+04</pdfrwt>
<pdfrwt beam="2">  1       -2 0.12016659E+00 0.17564736E+04</pdfrwt>
<totfact> 0.12865035E+01</totfact>
</mgrwt>
</event>
<event>
 6    1  0.1719556E-004  0.3312524E+04  0.7818608E-02  0.8159716E-01
         -2   -1    0    0    0  501 -0.00000000000E+00  0.00000000000E+00  0.87313333256E+03  0.87313333256E+03  0.00000000000E+00 0. -1.
          2   -1    0    0  501    0  0.00000000000E+00 -0.00000000000E+00 -0.31417920039E+04  0.31417920039E+04  0.00000000000E+00 0.  1.
         23    2    1    2    0    0  0.46872882209E+02  0.16508506883E+04 -0.10053374217E+04  0.19356260213E+04  0.91867844051E+02 0.  0.
         11    1    3    3    0    0  0.31288172141E+01  0.12795623864E+04 -0.75516271610E+03  0.14857861279E+04  0.00000000000E+00 0. -1.
        -11    1    3    3    0    0  0.43744064995E+02  0.37128830190E+03 -0.25017470561E+03  0.44983989338E+03  0.00000000000E+00 0.  1.
         22    1    1    2    0    0 -0.46872882209E+02 -0.16508506883E+04 -0.12633212496E+04  0.20792993151E+04  0.00000000000E+00 0. -1.
<mgrwt>
<rscale>  0 0.33125237E+04</rscale>
<asrwt>0</asrwt>
<pdfrwt beam="1">  1        2 0.48335262E+00 0.33125237E+04</pdfrwt>
<pdfrwt beam="2">  1       -2 0.13432820E+00 0.33125237E+04</pdfrwt>
<totfact> 0.47119204E-01</totfact>
</mgrwt>
</event>
<event>
 6    1  0.1719556E-004  0.1874016E+04  0.7818608E-02  0.8667900E-01
         -1   -1    0    0    0  501 -0.00000000000E+00  0.00000000000E+00  0.12471936288E+04  0.12471936288E+04  0.00000000000E+00 0. -1.
          1   -1    0    0  501    0  0.00000000000E+00 -0.00000000000E+00 -0.70396757014E+03  0.70396757014E+03  0.00000000000E+00 0.  1.
         23    2    1    2    0    0 -0.17006845263E+03 -0.40957847162E+03 -0.58430770505E+03  0.73954649480E+03  0.93998514890E+02 0.  0.
         13    1    3    3    0    0 -0.46027875567E+02 -0.23272770279E+03 -0.31301605550E+03  0.39275921374E+03  0.00000000000E+00 0. -1.
        -13    1    3    3    0    0 -0.12404057706E+03 -0.17685076883E+03 -0.27129164955E+03  0.34678728106E+03  0.00000000000E+00 0.  1.
         22    1    1    2    0    0  0.17006845263E+03  0.40957847162E+03  0.11275337637E+04  0.12116147042E+04  0.00000000000E+00 0. -1.
<mgrwt>
<rscale>  0 0.18740159E+04</rscale>
<asrwt>0</asrwt>
<pdfrwt beam="1">  1        1 0.10830270E+00 0.18740159E+04</pdfrwt>
<pdfrwt beam="2">  1       -1 0.19187594E+00 0.18740159E+04</pdfrwt>
<totfact> 0.43411646E+00</totfact>
</mgrwt>
</event>
<event>
 6    1  0.1719556E-004  0.1090346E+04  0.7818608E-02  0.9214653E-01
         -2   -1    0    0    0  501 -0.00000000000E+00  0.00000000000E+00  0.48877971746E+03  0.48877971746E+03  0.00000000000E+00 0. -1.
          2   -1    0    0  501    0  0.00000000000E+00 -0.00000000000E+00 -0.60807264536E+03  0.60807264536E+03  0.00000000000E+00 0.  1.
         23    2    1    2    0    0 -0.20671829540E+03  0.39067465691E+03  0.25439047447E+03  0.51806187707E+03  0.91183626646E+02 0.  0.
         13    1    3    3    0    0 -0.76554099030E+02  0.78203721526E+02  0.35903448345E+02  0.11517556052E+03  0.00000000000E+00 0. -1.
        -13    1    3    3    0    0 -0.13016419637E+03  0.31247093538E+03  0.21848702612E+03  0.40288631654E+03  0.00000000000E+00 0.  1.
         22    1    1    2    0    0  0.20671829540E+03 -0.39067465691E+03 -0.37368340237E+03  0.57879048576E+03  0.00000000000E+00 0.  1.
<mgrwt>
<rscale>  0 0.10903460E+04</rscale>
<asrwt>0</asrwt>
<pdfrwt beam="1">  1        2 0.93549638E-01 0.10903460E+04</pdfrwt>
<pdfrwt beam="2">  1       -2 0.75196880E-01 0.10903460E+04</pdfrwt>
<totfact> 0.77010335E+01</totfact>
</mgrwt>
</event>
<event>
 6    1  0.1719556E-004  0.2033300E+04  0.7818608E-02  0.8591208E-01
         -2   -1    0    0    0  501 -0.00000000000E+00  0.00000000000E+00  0.37499959443E+03  0.37499959443E+03  0.00000000000E+00 0. -1.
          2   -1    0    0  501    0  0.00000000000E+00 -0.00000000000E+00 -0.27562076257E+04  0.27562076257E+04  0.00000000000E+00 0.  1.
         23    2    1    2    0    0 -0.80337984383E+03 -0.27229808307E+03 -0.33578922040E+03  0.91686679206E+03  0.91240858875E+02 0.  0.
         13    1    3    3    0    0 -0.34692148507E+03 -0.15607280675E+03 -0.12108433877E+03  0.39921755335E+03  0.00000000000E+00 0.  1.
        -13    1    3    3    0    0 -0.45645835876E+03 -0.11622527632E+03 -0.21470488162E+03  0.51764923871E+03  0.00000000000E+00 0. -1.
         22    1    1    2    0    0  0.80337984383E+03  0.27229808307E+03 -0.20454188109E+04  0.22143404281E+04  0.00000000000E+00 0.  1.
<mgrwt>
<rscale>  0 0.20332995E+04</rscale>
<asrwt>0</asrwt>
<pdfrwt beam="1">  1        2 0.42403193E+00 0.20332995E+04</pdfrwt>
<pdfrwt beam="2">  1       -2 0.57692246E-01 0.20332995E+04</pdfrwt>
<totfact> 0.64135183E+00</totfact>
</mgrwt>
</event>
<event>
 6    1  0.1719556E-004  0.2466156E+03  0.7818608E-02  0.1115463E+00
         -2   -1    0    0    0  501 -0.00000000000E+00  0.00000000000E+00  0.21432138295E+03  0.21432138295E+03  0.00000000000E+00 0. -1.
          2   -1    0    0  501    0  0.00000000000E+00 -0.00000000000E+00 -0.70943969208E+02  0.70943969208E+02  0.00000000000E+00 0.  1.
         23    2    1    2    0    0 -0.83607157987E+02  0.42875173490E+02  0.25749096528E+02  0.13471682716E+03  0.93043915327E+02 0.  0.
         13    1    3    3    0    0 -0.85803341930E+02 -0.34304276272E+01  0.16246350829E+02  0.87395224328E+02  0.00000000000E+00 0. -1.
        -13    1    3    3    0    0  0.21961839430E+01  0.46305601117E+02  0.95027456981E+01  0.47321602831E+02  0.00000000000E+00 0.  1.
         22    1    1    2    0    0  0.83607157987E+02 -0.42875173490E+02  0.11762831721E+03  0.15054852499E+03  0.00000000000E+00 0. -1.
<mgrwt>
<rscale>  0 0.24661557E+03</rscale>
<asrwt>0</asrwt>
<pdfrwt beam="1">  1        2 0.10914457E-01 0.24661557E+03</pdfrwt>
<pdfrwt beam="2">  1       -2 0.32972520E-01 0.24661557E+03</pdfrwt>
<totfact> 0.48749378E+03</totfact>
</mgrwt>
</event>
<event>
 6    1  0.1719556E-004  0.1486539E+04  0.7818608E-02  0.8893454E-01
          1   -1    0    0  501    0  0.00000000000E+00  0.00000000000E+00  0.18608427382E+04  0.18608427382E+04  0.00000000000E+00 0. -1.
         -1   -1    0    0    0  501 -0.00000000000E+00 -0.00000000000E+00 -0.29688155050E+03  0.29688155050E+03  0.00000000000E+00 0.  1.
         23    2    1    2    0    0 -0.51340336748E+03  0.34927940639E+03  0.13703458268E+04  0.15072890272E+04  0.92159670901E+02 0.  0.
         13    1    3    3    0    0 -0.43402760340E+03  0.32138951087E+03  0.11249543270E+04  0.12478755611E+04  0.00000000000E+00 0. -1.
        -13    1    3    3    0    0 -0.79375764081E+02  0.27889895521E+02  0.24539149976E+03  0.25941346601E+03  0.00000000000E+00 0.  1.
         22    1    1    2    0    0  0.51340336748E+03 -0.34927940639E+03  0.19361536090E+03  0.65043526153E+03  0.00000000000E+00 0.  1.
<mgrwt>
<rscale>  0 0.14865394E+04</rscale>
<asrwt>0</asrwt>
<pdfrwt beam="1">  1        1 0.28628349E+00 0.14865394E+04</pdfrwt>
<pdfrwt beam="2">  1       -1 0.45674086E-01 0.14865394E+04</pdfrwt>
<totfact> 0.17090377E+01</totfact>
</mgrwt>
</event>
<event>
 6    1  0.1719556E-004  0.4623499E+04  0.7818608E-02  0.7889365E-01
          1   -1    0    0  501    0  0.00000000000E+00  0.00000000000E+00  0.40615993963E+04  0.40615993963E+04  0.00000000000E+00 0.  1.
         -1   -1    0    0    0  501 -0.00000000000E+00 -0.00000000000E+00 -0.13157837827E+04  0.13157837827E+04  0.00000000000E+00 0. -1.
         23    2    1    2    0    0  0.12057901681E+04  0.68267970428E+03 -0.77745679338E+03  0.15914315202E+04  0.90739791607E+02 0.  0.
         13    1    3    3    0    0  0.81733033517E+03  0.41579073632E+03 -0.49827400156E+03  0.10436416022E+04  0.00000000000E+00 0. -1.
        -13    1    3    3    0    0  0.38845983296E+03  0.26688896796E+03 -0.27918279182E+03  0.54778991802E+03  0.00000000000E+00 0.  1.
         22    1    1    2    0    0 -0.12057901681E+04 -0.68267970428E+03  0.35232724070E+04  0.37859516587E+04  0.00000000000E+00 0.  1.
<mgrwt>
<rscale>  0 0.46234994E+04</rscale>
<asrwt>0</asrwt>
<pdfrwt beam="1">  1        1 0.62486144E+00 0.46234994E+04</pdfrwt>
<pdfrwt beam="2">  1       -1 0.20242828E+00 0.46234994E+04</pdfrwt>
<totfact> 0.90790848E-03</totfact>
</mgrwt>
</event>
<event>
 6    1  0.1719556E-004  0.1558189E+04  0.7818608E-02  0.8846654E-01
         -2   -1    0    0    0  501 -0.00000000000E+00  0.00000000000E+00  0.38941877644E+03  0.38941877644E+03  0.00000000000E+00 0. -1.
          2   -1    0    0  501    0  0.00000000000E+00 -0.00000000000E+00 -0.15587034336E+04  0.15587034336E+04  0.00000000000E+00 0.  1.
         23    2    1    2    0    0  0.66740675855E+03  0.16734191095E+03 -0.13688173965E+03  0.70744059069E+03  0.91106982114E+02 0.  0.
         11    1    3    3    0    0  0.11483832215E+03  0.78077857910E-01 -0.34373908468E+01  0.11488978190E+03  0.00000000000E+00 0. -1.
        -11    1    3    3    0    0  0.55256843640E+03  0.16726383309E+03 -0.13344434881E+03  0.59255080879E+03  0.00000000000E+00 0.  1.
         22    1    1    2    0    0 -0.66740675855E+03 -0.16734191095E+03 -0.10324029175E+04  0.12406816193E+04  0.00000000000E+00 0.  1.
<mgrwt>
<rscale>  0 0.15581892E+04</rscale>
<asrwt>0</asrwt>
<pdfrwt beam="1">  1        2 0.23980053E+00 0.15581892E+04</pdfrwt>
<pdfrwt beam="2">  1       -2 0.59910581E-01 0.15581892E+04</pdfrwt>
<totfact> 0.29395508E+01</totfact>
</mgrwt>
</event>
<event>
 6    1  0.1719556E-004  0.1191456E+04  0.7818608E-02  0.9120368E-01
         -2   -1    0    0    0  501 -0.00000000000E+00  0.00000000000E+00  0.15507055640E+04  0.15507055640E+04  0.00000000000E+00 0. -1.
          2   -1    0    0  501    0  0.00000000000E+00 -0.00000000000E+00 -0.22885842308E+03  0.22885842308E+03  0.00000000000E+00 0.  1.
         23    2    1    2    0    0  0.12124480247E+03 -0.48961023754E+03  0.20030356777E+03  0.54981666616E+03  0.88081554816E+02 0.  0.
         11    1    3    3    0    0  0.21992569539E+02 -0.19009639205E+03  0.11379348414E+03  0.22264156938E+03  0.00000000000E+00 0. -1.
        -11    1    3    3    0    0  0.99252232936E+02 -0.29951384549E+03  0.86510083629E+02  0.32717509678E+03  0.00000000000E+00 0.  1.
         22    1    1    2    0    0 -0.12124480247E+03  0.48961023754E+03  0.11215435732E+04  0.12297473209E+04  0.00000000000E+00 0. -1.
<mgrwt>
<rscale>  0 0.11914563E+04</rscale>
<asrwt>0</asrwt>
<pdfrwt beam="1">  1        2 0.35208989E-01 0.11914563E+04</pdfrwt>
<pdfrwt beam="2">  1       -2 0.23857008E+00 0.11914563E+04</pdfrwt>
<totfact> 0.11114886E+01</totfact>
</mgrwt>
</event>
<event>
 6    1  0.1719556E-004  0.1596317E+04  0.7818608E-02  0.8822814E-01
          2   -1    0    0  501    0  0.00000000000E+00  0.00000000000E+00  0.15229635709E+04  0.15229635709E+04  0.00000000000E+00 0.  1.
         -2   -1    0    0    0  501 -0.00000000000E+00 -0.00000000000E+00 -0.41830074335E+03  0.41830074335E+03  0.00000000000E+00 0. -1.
         23    2    1    2    0    0 -0.64706338101E+03 -0.46264518846E+03  0.54757440772E+03  0.97014171799E+03  0.92766543313E+02 0.  0.
         11    1    3    3    0    0 -0.56838062781E+03 -0.43297782209E+03  0.46638386028E+03  0.85325273959E+03  0.00000000000E+00 0. -1.
        -11    1    3    3    0    0 -0.78682753200E+02 -0.29667366362E+02  0.81190547439E+02  0.11688897840E+03  0.00000000000E+00 0.  1.
         22    1    1    2    0    0  0.64706338101E+03  0.46264518846E+03  0.55708841982E+03  0.97112259625E+03  0.00000000000E+00 0. -1.
<mgrwt>
<rscale>  0 0.15963168E+04</rscale>
<asrwt>0</asrwt>
<pdfrwt beam="1">  1        2 0.23430209E+00 0.15963168E+04</pdfrwt>
<pdfrwt beam="2">  1       -2 0.64353961E-01 0.15963168E+04</pdfrwt>
<totfact> 0.26357499E+01</totfact>
</mgrwt>
</event>
<event>
 6    1  0.1719556E-004  0.1634601E+04  0.7818608E-02  0.8799569E-01
          2   -1    0    0  501    0  0.00000000000E+00  0.00000000000E+00  0.27612155121E+04  0.27612155121E+04  0.00000000000E+00 0.  1.
         -2   -1    0    0    0  501 -0.00000000000E+00 -0.00000000000E+00 -0.24191535942E+03  0.24191535942E+03  0.00000000000E+00 0. -1.
         23    2    1    2    0    0  0.28035578365E+03 -0.60082192946E+03  0.39320048249E+03  0.77605068350E+03  0.89786900977E+02 0.  0.
         13    1    3    3    0    0  0.17673876163E+03 -0.38156187850E+03  0.29860719484E+03  0.51574442683E+03  0.00000000000E+00 0. -1.
        -13    1    3    3    0    0  0.10361702201E+03 -0.21926005095E+03  0.94593287653E+02  0.26030625667E+03  0.00000000000E+00 0.  1.
         22    1    1    2    0    0 -0.28035578365E+03  0.60082192946E+03  0.21260996702E+04  0.22270801880E+04  0.00000000000E+00 0.  1.
<mgrwt>
<rscale>  0 0.16346014E+04</rscale>
<asrwt>0</asrwt>
<pdfrwt beam="1">  1        2 0.42480236E+00 0.16346014E+04</pdfrwt>
<pdfrwt beam="2">  1       -2 0.37217750E-01 0.16346014E+04</pdfrwt>
<totfact> 0.15943278E+01</totfact>
</mgrwt>
</event>
<event>
 6    1  0.1719556E-004  0.1482483E+04  0.7818608E-02  0.8896186E-01
          2   -1    0    0  501    0  0.00000000000E+00  0.00000000000E+00  0.15956693534E+04  0.15956693534E+04  0.00000000000E+00 0.  1.
         -2   -1    0    0    0  501 -0.00000000000E+00 -0.00000000000E+00 -0.34433134959E+03  0.34433134959E+03  0.00000000000E+00 0. -1.
         23    2    1    2    0    0  0.32450898082E+03 -0.65952862617E+03  0.53689169319E+03  0.91495552440E+03  0.92773024333E+02 0.  0.
         11    1    3    3    0    0  0.21240736821E+03 -0.49329773630E+03  0.35150154038E+03  0.64188229419E+03  0.00000000000E+00 0. -1.
        -11    1    3    3    0    0  0.11210161262E+03 -0.16623088987E+03  0.18539015281E+03  0.27307323021E+03  0.00000000000E+00 0.  1.
         22    1    1    2    0    0 -0.32450898082E+03  0.65952862617E+03  0.71444631058E+03  0.10250451786E+04  0.00000000000E+00 0.  1.
<mgrwt>
<rscale>  0 0.14824830E+04</rscale>
<asrwt>0</asrwt>
<pdfrwt beam="1">  1        2 0.24548759E+00 0.14824830E+04</pdfrwt>
<pdfrwt beam="2">  1       -2 0.52974054E-01 0.14824830E+04</pdfrwt>
<totfact> 0.36454662E+01</totfact>
</mgrwt>
</event>
<event>
 6    1  0.1719556E-004  0.3946565E+04  0.7818608E-02  0.8015414E-01
          2   -1    0    0  501    0  0.00000000000E+00  0.00000000000E+00  0.36311086422E+04  0.36311086422E+04  0.00000000000E+00 0.  1.
         -2   -1    0    0    0  501 -0.00000000000E+00 -0.00000000000E+00 -0.10723565330E+04  0.10723565330E+04  0.00000000000E+00 0. -1.
         23    2    1    2    0    0  0.16469763099E+04  0.91991053773E+03  0.59441217958E+03  0.19799751859E+04  0.90606481765E+02 0.  0.
         13    1    3    3    0    0  0.39101345055E+03  0.21862495747E+03  0.18195281957E+03  0.48352375235E+03  0.00000000000E+00 0. -1.
        -13    1    3    3    0    0  0.12559628594E+04  0.70128558026E+03  0.41245936001E+03  0.14964514335E+04  0.00000000000E+00 0.  1.
         22    1    1    2    0    0 -0.16469763099E+04 -0.91991053773E+03  0.19643399296E+04  0.27234899893E+04  0.00000000000E+00 0.  1.
<mgrwt>
<rscale>  0 0.39465646E+04</rscale>
<asrwt>0</asrwt>
<pdfrwt beam="1">  1        2 0.55863209E+00 0.39465646E+04</pdfrwt>
<pdfrwt beam="2">  1       -2 0.16497793E+00 0.39465646E+04</pdfrwt>
<totfact> 0.12003033E-01</totfact>
</mgrwt>
</event>
<event>
 6    1  0.1719556E-004  0.1614462E+04  0.7818608E-02  0.8811713E-01
         -1   -1    0    0    0  501 -0.00000000000E+00  0.00000000000E+00  0.22224845891E+03  0.22224845891E+03  0.00000000000E+00 0. -1.
          1   -1    0    0  501    0  0.00000000000E+00 -0.00000000000E+00 -0.29319505461E+04  0.29319505461E+04  0.00000000000E+00 0.  1.
         23    2    1    2    0    0  0.53175620838E+03 -0.21860246391E+03 -0.25994361261E+03  0.63787861878E+03  0.93630914708E+02 0.  0.
         13    1    3    3    0    0  0.20180162127E+03 -0.93423411925E+02 -0.52387029290E+02  0.22846494060E+03  0.00000000000E+00 0.  1.
        -13    1    3    3    0    0  0.32995458711E+03 -0.12517905199E+03 -0.20755658332E+03  0.40941367819E+03  0.00000000000E+00 0. -1.
         22    1    1    2    0    0 -0.53175620838E+03  0.21860246391E+03 -0.24497584746E+04  0.25163203863E+04  0.00000000000E+00 0.  1.
<mgrwt>
<rscale>  0 0.16144615E+04</rscale>
<asrwt>0</asrwt>
<pdfrwt beam="1">  1        1 0.45106931E+00 0.16144615E+04</pdfrwt>
<pdfrwt beam="2">  1       -1 0.34192071E-01 0.16144615E+04</pdfrwt>
<totfact> 0.52176252E+00</totfact>
</mgrwt>
</event>
<event>
 6    1  0.1719556E-004  0.1465140E+04  0.7818608E-02  0.8907971E-01
         -2   -1    0    0    0  501 -0.00000000000E+00  0.00000000000E+00  0.26608339024E+03  0.26608339024E+03  0.00000000000E+00 0. -1.
          2   -1    0    0  501    0  0.00000000000E+00 -0.00000000000E+00 -0.20168817658E+04  0.20168817658E+04  0.00000000000E+00 0.  1.
         23    2    1    2    0    0  0.56330822715E+03 -0.27717302023E+03 -0.14584293151E+04  0.15904186165E+04  0.90962995997E+02 0.  0.
         11    1    3    3    0    0  0.49569411980E+03 -0.23551684008E+03 -0.11892687434E+04  0.13097866186E+04  0.00000000000E+00 0. -1.
        -11    1    3    3    0    0  0.67614107356E+02 -0.41656180156E+02 -0.26916057175E+03  0.28063199789E+03  0.00000000000E+00 0.  1.
         22    1    1    2    0    0 -0.56330822715E+03  0.27717302023E+03 -0.29236906049E+03  0.69254653956E+03  0.00000000000E+00 0. -1.
<mgrwt>
<rscale>  0 0.14651399E+04</rscale>
<asrwt>0</asrwt>
<pdfrwt beam="1">  1        2 0.31028950E+00 0.14651399E+04</pdfrwt>
<pdfrwt beam="2">  1       -2 0.40935907E-01 0.14651399E+04</pdfrwt>
<totfact> 0.35812292E+01</totfact>
</mgrwt>
</event>
<event>
 6    1  0.1719556E-004  0.2720133E+04  0.7818608E-02  0.8328502E-01
          2   -1    0    0  501    0  0.00000000000E+00  0.00000000000E+00  0.22494318988E+04  0.22494318988E+04  0.00000000000E+00 0.  1.
         -2   -1    0    0    0  501 -0.00000000000E+00 -0.00000000000E+00 -0.82233225830E+03  0.82233225830E+03  0.00000000000E+00 0. -1.
         23    2    1    2    0    0  0.82804795916E+03 -0.58744082958E+03  0.17338467957E+04  0.20111775420E+04  0.88658013996E+02 0.  0.
         13    1    3    3    0    0  0.16323273646E+03 -0.13579063732E+03  0.30183370974E+03  0.36903605755E+03  0.00000000000E+00 0.  1.
        -13    1    3    3    0    0  0.66481522269E+03 -0.45165019226E+03  0.14320130860E+04  0.16421414844E+04  0.00000000000E+00 0. -1.
         22    1    1    2    0    0 -0.82804795916E+03  0.58744082958E+03 -0.30674715522E+03  0.10605866151E+04  0.00000000000E+00 0. -1.
<mgrwt>
<rscale>  0 0.27201327E+04</rscale>
<asrwt>0</asrwt>
<pdfrwt beam="1">  1        2 0.34606644E+00 0.27201327E+04</pdfrwt>
<pdfrwt beam="2">  1       -2 0.12651266E+00 0.27201327E+04</pdfrwt>
<totfact> 0.19729117E+00</totfact>
</mgrwt>
</event>
<event>
 6    1  0.1719556E-004  0.2104922E+04  0.7818608E-02  0.8559078E-01
          2   -1    0    0  501    0  0.00000000000E+00  0.00000000000E+00  0.13907089038E+04  0.13907089038E+04  0.00000000000E+00 0.  1.
         -2   -1    0    0    0  501 -0.00000000000E+00 -0.00000000000E+00 -0.79648144420E+03  0.79648144420E+03  0.00000000000E+00 0. -1.
         23    2    1    2    0    0  0.84666832445E+03 -0.32926503605E+03 -0.25045413120E+03  0.94672684373E+03  0.91113825585E+02 0.  0.
         13    1    3    3    0    0  0.31930396356E+03 -0.97476829860E+02 -0.54591878287E+02  0.33828542191E+03  0.00000000000E+00 0.  1.
        -13    1    3    3    0    0  0.52736436089E+03 -0.23178820619E+03 -0.19586225291E+03  0.60844142182E+03  0.00000000000E+00 0. -1.
         22    1    1    2    0    0 -0.84666832445E+03  0.32926503605E+03  0.84468159081E+03  0.12404635043E+04  0.00000000000E+00 0.  1.
<mgrwt>
<rscale>  0 0.21049217E+04</rscale>
<asrwt>0</asrwt>
<pdfrwt beam="1">  1        2 0.21395522E+00 0.21049217E+04</pdfrwt>
<pdfrwt beam="2">  1       -2 0.12253561E+00 0.21049217E+04</pdfrwt>
<totfact> 0.68027446E+00</totfact>
</mgrwt>
</event>
<event>
 6    1  0.1719556E-004  0.3343276E+04  0.7818608E-02  0.8151970E-01
          1   -1    0    0  501    0  0.00000000000E+00  0.00000000000E+00  0.14548502908E+04  0.14548502908E+04  0.00000000000E+00 0.  1.
         -1   -1    0    0    0  501 -0.00000000000E+00 -0.00000000000E+00 -0.19207290021E+04  0.19207290021E+04  0.00000000000E+00 0. -1.
         23    2    1    2    0    0  0.73884308188E+02  0.63288460281E+03 -0.17921738169E+04  0.19041648311E+04  0.89190261070E+02 0.  0.
         11    1    3    3    0    0  0.88109627783E+02  0.38514398867E+03 -0.10805437640E+04  0.11505103322E+04  0.00000000000E+00 0.  1.
        -11    1    3    3    0    0 -0.14225319595E+02  0.24774061414E+03 -0.71163005290E+03  0.75365449897E+03  0.00000000000E+00 0. -1.
         22    1    1    2    0    0 -0.73884308188E+02 -0.63288460281E+03  0.13262951055E+04  0.14714144618E+04  0.00000000000E+00 0.  1.
<mgrwt>
<rscale>  0 0.33432757E+04</rscale>
<asrwt>0</asrwt>
<pdfrwt beam="1">  1        1 0.22382312E+00 0.33432757E+04</pdfrwt>
<pdfrwt beam="2">  1       -1 0.29549677E+00 0.33432757E+04</pdfrwt>
<totfact> 0.20530038E-01</totfact>
</mgrwt>
</event>
<event>
 6    1  0.1719556E-004  0.5227279E+04  0.7818608E-02  0.7794373E-01
         -1   -1    0    0    0  501 -0.00000000000E+00  0.00000000000E+00  0.20087367797E+04  0.20087367797E+04  0.00000000000E+00 0. -1.
          1   -1    0    0  501    0  0.00000000000E+00 -0.00000000000E+00 -0.34007004511E+04  0.34007004511E+04  0.00000000000E+00 0.  1.
         23    2    1    2    0    0 -0.22086071283E+04 -0.62003881321E+03 -0.19905642967E+04  0.30386322440E+04  0.92445215884E+02 0.  0.
         11    1    3    3    0    0 -0.24034049621E+03 -0.92102859688E+02 -0.24609918539E+03  0.35610574262E+03  0.00000000000E+00 0.  1.
        -11    1    3    3    0    0 -0.19682666321E+04 -0.52793595352E+03 -0.17444651113E+04  0.26825265014E+04  0.00000000000E+00 0. -1.
         22    1    1    2    0    0  0.22086071283E+04  0.62003881321E+03  0.59860062522E+03  0.23708049868E+04  0.00000000000E+00 0. -1.
<mgrwt>
<rscale>  0 0.52272792E+04</rscale>
<asrwt>0</asrwt>
<pdfrwt beam="1">  1        1 0.52318468E+00 0.52272792E+04</pdfrwt>
<pdfrwt beam="2">  1       -1 0.30903643E+00 0.52272792E+04</pdfrwt>
<totfact> 0.61086970E-03</totfact>
</mgrwt>
</event>
<event>
 6    1  0.1719556E-004  0.2483180E+04  0.7818608E-02  0.8409002E-01
         -1   -1    0    0    0  501 -0.00000000000E+00  0.00000000000E+00  0.56750535007E+03  0.56750535007E+03  0.00000000000E+00 0. -1.
          1   -1    0    0  501    0  0.00000000000E+00 -0.00000000000E+00 -0.27163540206E+04  0.27163540206E+04  0.00000000000E+00 0.  1.
         23    2    1    2    0    0  0.88526653888E+03  0.77540128955E+03 -0.55989706406E+03  0.13065604018E+04  0.93120118403E+02 0.  0.
         13    1    3    3    0    0  0.21288697955E+03  0.21133182609E+03 -0.18317029335E+03  0.35147313290E+03  0.00000000000E+00 0.  1.
        -13    1    3    3    0    0  0.67237955933E+03  0.56406946346E+03 -0.37672677071E+03  0.95508726888E+03  0.00000000000E+00 0. -1.
         22    1    1    2    0    0 -0.88526653888E+03 -0.77540128955E+03 -0.15889516065E+04  0.19772989689E+04  0.00000000000E+00 0.  1.
<mgrwt>
<rscale>  0 0.24831798E+04</rscale>
<asrwt>0</asrwt>
<pdfrwt beam="1">  1        1 0.41790062E+00 0.24831798E+04</pdfrwt>
<pdfrwt beam="2">  1       -1 0.87308515E-01 0.24831798E+04</pdfrwt>
<totfact> 0.10976770E+00</totfact>
</mgrwt>
</event>
<event>
 6    1  0.1719556E-004  0.2580162E+04  0.7818608E-02  0.8374971E-01
         -1   -1    0    0    0  501 -0.00000000000E+00  0.00000000000E+00  0.44674790591E+03  0.44674790591E+03  0.00000000000E+00 0.  1.
          1   -1    0    0  501    0  0.00000000000E+00 -0.00000000000E+00 -0.37253864320E+04  0.37253864320E+04  0.00000000000E+00 0. -1.
         23    2    1    2    0    0 -0.39413046190E+03  0.53993509913E+03  0.13969480463E+03  0.68905071959E+03  0.91692548537E+02 0.  0.
         13    1    3    3    0    0 -0.14578844400E+03  0.21719143184E+03  0.99389939847E+02  0.27982985654E+03  0.00000000000E+00 0.  1.
        -13    1    3    3    0    0 -0.24834201789E+03  0.32274366729E+03  0.40304864783E+02  0.40922086304E+03  0.00000000000E+00 0. -1.
         22    1    1    2    0    0  0.39413046190E+03 -0.53993509913E+03 -0.34183333307E+04  0.34830836183E+04  0.00000000000E+00 0. -1.
<mgrwt>
<rscale>  0 0.25801617E+04</rscale>
<asrwt>0</asrwt>
<pdfrwt beam="1">  1        1 0.57313638E+00 0.25801617E+04</pdfrwt>
<pdfrwt beam="2">  1       -1 0.68730447E-01 0.25801617E+04</pdfrwt>
<totfact> 0.31109669E-01</totfact>
</mgrwt>
</event>
<event>
 6    1  0.1719556E-004  0.1253411E+04  0.7818608E-02  0.9067349E-01
          2   -1    0    0  501    0  0.00000000000E+00  0.00000000000E+00  0.92618277887E+03  0.92618277887E+03  0.00000000000E+00 0.  1.
         -2   -1    0    0    0  501 -0.00000000000E+00 -0.00000000000E+00 -0.42406262485E+03  0.42406262485E+03  0.00000000000E+00 0. -1.
         23    2    1    2    0    0  0.20633258492E+03  0.54375324856E+03  0.10241057669E+02  0.58854613475E+03  0.89671302849E+02 0.  0.
         11    1    3    3    0    0  0.13662638235E+03  0.44284097676E+03 -0.13444843052E+02  0.46363311234E+03  0.00000000000E+00 0.  1.
        -11    1    3    3    0    0  0.69706202567E+02  0.10091227180E+03  0.23685900721E+02  0.12491302241E+03  0.00000000000E+00 0. -1.
         22    1    1    2    0    0 -0.20633258492E+03 -0.54375324856E+03  0.49187909635E+03  0.76169926896E+03  0.00000000000E+00 0. -1.
<mgrwt>
<rscale>  0 0.12534105E+04</rscale>
<asrwt>0</asrwt>
<pdfrwt beam="1">  1        2 0.14248966E+00 0.12534105E+04</pdfrwt>
<pdfrwt beam="2">  1       -2 0.65240404E-01 0.12534105E+04</pdfrwt>
<totfact> 0.59978714E+01</totfact>
</mgrwt>
</event>
<event>
 6    1  0.1719556E-004  0.1608509E+04  0.7818608E-02  0.8815338E-01
         -2   -1    0    0    0  501 -0.00000000000E+00  0.00000000000E+00  0.60258097287E+03  0.60258097287E+03  0.00000000000E+00 0. -1.
          2   -1    0    0  501    0  0.00000000000E+00 -0.00000000000E+00 -0.10734245543E+04  0.10734245543E+04  0.00000000000E+00 0.  1.
         23    2    1    2    0    0 -0.14696871187E+02  0.34248906834E+03  0.51894305723E+03  0.62853602880E+03  0.90779308767E+02 0.  0.
         11    1    3    3    0    0  0.13340550569E+02  0.27583503375E+03  0.35834333987E+03  0.45240787500E+03  0.00000000000E+00 0.  1.
        -11    1    3    3    0    0 -0.28037421756E+02  0.66654034592E+02  0.16059971736E+03  0.17612815380E+03  0.00000000000E+00 0. -1.
         22    1    1    2    0    0  0.14696871187E+02 -0.34248906834E+03 -0.98978663868E+03  0.10474694984E+04  0.00000000000E+00 0.  1.
<mgrwt>
<rscale>  0 0.16085089E+04</rscale>
<asrwt>0</asrwt>
<pdfrwt beam="1">  1        2 0.16514224E+00 0.16085089E+04</pdfrwt>
<pdfrwt beam="2">  1       -2 0.92704766E-01 0.16085089E+04</pdfrwt>
<totfact> 0.21402803E+01</totfact>
</mgrwt>
</event>
<event>
 6    1  0.1719556E-004  0.2275108E+04  0.7818608E-02  0.8487801E-01
         -2   -1    0    0    0  501 -0.00000000000E+00  0.00000000000E+00  0.14044193254E+04  0.14044193254E+04  0.00000000000E+00 0. -1.
          2   -1    0    0  501    0  0.00000000000E+00 -0.00000000000E+00 -0.92139820550E+03  0.92139820550E+03  0.00000000000E+00 0.  1.
         23    2    1    2    0    0 -0.37966677718E+03 -0.10367597963E+04  0.51588347549E+03  0.12212372164E+04  0.79163384840E+02 0.  0.
         11    1    3    3    0    0 -0.33717634718E+02 -0.15377173981E+03  0.93390766291E+02  0.18304224126E+03  0.00000000000E+00 0. -1.
        -11    1    3    3    0    0 -0.34594914246E+03 -0.88298805644E+03  0.42249270920E+03  0.10381949751E+04  0.00000000000E+00 0.  1.
         22    1    1    2    0    0  0.37966677718E+03  0.10367597963E+04 -0.32862355599E+02  0.11045803145E+04  0.00000000000E+00 0.  1.
<mgrwt>
<rscale>  0 0.22751083E+04</rscale>
<asrwt>0</asrwt>
<pdfrwt beam="1">  1        2 0.14175357E+00 0.22751083E+04</pdfrwt>
<pdfrwt beam="2">  1       -2 0.21606451E+00 0.22751083E+04</pdfrwt>
<totfact> 0.26970652E+00</totfact>
</mgrwt>
</event>
<event>
 6    1  0.1719556E-004  0.1805576E+04  0.7818608E-02  0.8703340E-01
         -2   -1    0    0    0  501 -0.00000000000E+00  0.00000000000E+00  0.56236217666E+03  0.56236217666E+03  0.00000000000E+00 0. -1.
          2   -1    0    0  501    0  0.00000000000E+00 -0.00000000000E+00 -0.14492911161E+04  0.14492911161E+04  0.00000000000E+00 0.  1.
         23    2    1    2    0    0 -0.22194961733E+02 -0.15333250787E+03 -0.14329363033E+04  0.14440905070E+04  0.89930356188E+02 0.  0.
         11    1    3    3    0    0 -0.42650804188E+00 -0.12427669343E+03 -0.75308831074E+03  0.76327379243E+03  0.00000000000E+00 0.  1.
        -11    1    3    3    0    0 -0.21768453691E+02 -0.29055814449E+02 -0.67984799254E+03  0.68081671461E+03  0.00000000000E+00 0. -1.
         22    1    1    2    0    0  0.22194961733E+02  0.15333250787E+03  0.54600736387E+03  0.56756278569E+03  0.00000000000E+00 0. -1.
<mgrwt>
<rscale>  0 0.18055764E+04</rscale>
<asrwt>0</asrwt>
<pdfrwt beam="1">  1        2 0.22296786E+00 0.18055764E+04</pdfrwt>
<pdfrwt beam="2">  1       -2 0.86517259E-01 0.18055764E+04</pdfrwt>
<totfact> 0.14810868E+01</totfact>
</mgrwt>
</event>
<event>
 6    1  0.1719556E-004  0.1231602E+04  0.7818608E-02  0.9085636E-01
         -2   -1    0    0    0  501 -0.00000000000E+00  0.00000000000E+00  0.55361190020E+03  0.55361190020E+03  0.00000000000E+00 0. -1.
          2   -1    0    0  501    0  0.00000000000E+00 -0.00000000000E+00 -0.68497629587E+03  0.68497629587E+03  0.00000000000E+00 0.  1.
         23    2    1    2    0    0  0.10166033037E+02 -0.27561903629E+03 -0.61598489811E+03  0.68098059857E+03  0.90708210943E+02 0.  0.
         11    1    3    3    0    0  0.41189429273E+02 -0.23813873075E+03 -0.51495619052E+03  0.56884664218E+03  0.00000000000E+00 0.  1.
        -11    1    3    3    0    0 -0.31023396236E+02 -0.37480305546E+02 -0.10102870759E+03  0.11213395639E+03  0.00000000000E+00 0. -1.
         22    1    1    2    0    0 -0.10166033037E+02  0.27561903629E+03  0.48462050245E+03  0.55760759750E+03  0.00000000000E+00 0. -1.
<mgrwt>
<rscale>  0 0.12316023E+04</rscale>
<asrwt>0</asrwt>
<pdfrwt beam="1">  1        2 0.10538097E+00 0.12316023E+04</pdfrwt>
<pdfrwt beam="2">  1       -2 0.85171062E-01 0.12316023E+04</pdfrwt>
<totfact> 0.49760140E+01</totfact>
</mgrwt>
</event>
<event>
 6    1  0.2351560E-004  0.2302291E+04  0.7818608E-02  0.8477018E-01
          1   -1    0    0  501    0  0.00000000000E+00  0.00000000000E+00  0.16061146548E+04  0.16061146548E+04  0.00000000000E+00 0.  1.
         -1   -1    0    0    0  501 -0.00000000000E+00 -0.00000000000E+00 -0.82505695862E+03  0.82505695862E+03  0.00000000000E+00 0. -1.
         23    2    1    2    0    0 -0.43414861424E+03  0.98350087023E+03 -0.37941228169E+02  0.10796842035E+04  0.92300929631E+02 0.  0.
         13    1    3    3    0    0 -0.31784289381E+03  0.61476712710E+03 -0.36640558210E+02  0.69304058771E+03  0.00000000000E+00 0. -1.
        -13    1    3    3    0    0 -0.11630572043E+03  0.36873374313E+03 -0.13006699589E+01  0.38664361584E+03  0.00000000000E+00 0.  1.
         22    1    1    2    0    0  0.43414861424E+03 -0.98350087023E+03  0.81899892438E+03  0.13514874099E+04  0.00000000000E+00 0. -1.
<mgrwt>
<rscale>  0 0.23022911E+04</rscale>
<asrwt>0</asrwt>
<pdfrwt beam="1">  1        1 0.24709456E+00 0.23022911E+04</pdfrwt>
<pdfrwt beam="2">  1       -1 0.12693184E+00 0.23022911E+04</pdfrwt>
<totfact> 0.26897364E+00</totfact>
</mgrwt>
</event>
<event>
 6    1  0.1719556E-004  0.3751245E+04  0.7818608E-02  0.8056699E-01
          1   -1    0    0  501    0  0.00000000000E+00  0.00000000000E+00  0.30787456117E+04  0.30787456117E+04  0.00000000000E+00 0.  1.
         -1   -1    0    0    0  501 -0.00000000000E+00 -0.00000000000E+00 -0.11426603753E+04  0.11426603753E+04  0.00000000000E+00 0. -1.
         23    2    1    2    0    0 -0.37015445972E+03 -0.13849478530E+04  0.23277427905E+04  0.27353068923E+04  0.91773725563E+02 0.  0.
         13    1    3    3    0    0 -0.24404044341E+03 -0.73861128782E+03  0.12754961779E+04  0.14939855663E+04  0.00000000000E+00 0. -1.
        -13    1    3    3    0    0 -0.12611401631E+03 -0.64633656514E+03  0.10522466127E+04  0.12413213260E+04  0.00000000000E+00 0.  1.
         22    1    1    2    0    0  0.37015445972E+03  0.13849478530E+04 -0.39165755414E+03  0.14860990947E+04  0.00000000000E+00 0. -1.
<mgrwt>
<rscale>  0 0.37512455E+04</rscale>
<asrwt>0</asrwt>
<pdfrwt beam="1">  1        1 0.47365317E+00 0.37512455E+04</pdfrwt>
<pdfrwt beam="2">  1       -1 0.17579391E+00 0.37512455E+04</pdfrwt>
<totfact> 0.93231603E-02</totfact>
</mgrwt>
</event>
<event>
 6    1  0.1719556E-004  0.1592633E+04  0.7818608E-02  0.8825086E-01
         -2   -1    0    0    0  501 -0.00000000000E+00  0.00000000000E+00  0.30629102368E+03  0.30629102368E+03  0.00000000000E+00 0. -1.
          2   -1    0    0  501    0  0.00000000000E+00 -0.00000000000E+00 -0.20703195153E+04  0.20703195153E+04  0.00000000000E+00 0.  1.
         23    2    1    2    0    0  0.19792783299E+03 -0.37389967527E+03 -0.18869705330E+04  0.19360527791E+04  0.93092301758E+02 0.  0.
         11    1    3    3    0    0  0.16950679890E+03 -0.22596379348E+03 -0.12460549074E+04  0.12776717197E+04  0.00000000000E+00 0.  1.
        -11    1    3    3    0    0  0.28421034089E+02 -0.14793588180E+03 -0.64091562560E+03  0.65838105944E+03  0.00000000000E+00 0. -1.
         22    1    1    2    0    0 -0.19792783299E+03  0.37389967527E+03  0.12294204142E+03  0.44055775988E+03  0.00000000000E+00 0. -1.
<mgrwt>
<rscale>  0 0.15926334E+04</rscale>
<asrwt>0</asrwt>
<pdfrwt beam="1">  1        2 0.31851069E+00 0.15926334E+04</pdfrwt>
<pdfrwt beam="2">  1       -2 0.47121697E-01 0.15926334E+04</pdfrwt>
<totfact> 0.25012361E+01</totfact>
</mgrwt>
</event>
<event>
 6    1  0.1719556E-004  0.1444948E+04  0.7818608E-02  0.8921911E-01
          1   -1    0    0  501    0  0.00000000000E+00  0.00000000000E+00  0.37000359173E+03  0.37000359173E+03  0.00000000000E+00 0.  1.
         -1   -1    0    0    0  501 -0.00000000000E+00 -0.00000000000E+00 -0.14107120065E+04  0.14107120065E+04  0.00000000000E+00 0. -1.
         23    2    1    2    0    0  0.28876162693E+03 -0.98966334782E+02 -0.13255352695E+04  0.13632183530E+04  0.90238099130E+02 0.  0.
         11    1    3    3    0    0  0.10871016189E+03 -0.82735840652E+02 -0.62219181494E+03  0.63701316564E+03  0.00000000000E+00 0. -1.
        -11    1    3    3    0    0  0.18005146504E+03 -0.16230494131E+02 -0.70334345458E+03  0.72620518733E+03  0.00000000000E+00 0.  1.
         22    1    1    2    0    0 -0.28876162693E+03  0.98966334782E+02  0.28482685475E+03  0.41749724525E+03  0.00000000000E+00 0.  1.
<mgrwt>
<rscale>  0 0.14449478E+04</rscale>
<asrwt>0</asrwt>
<pdfrwt beam="1">  1        1 0.56923631E-01 0.14449478E+04</pdfrwt>
<pdfrwt beam="2">  1       -1 0.21703261E+00 0.14449478E+04</pdfrwt>
<totfact> 0.74504026E+00</totfact>
</mgrwt>
</event>
<event>
 6    1  0.1719556E-004  0.3240566E+04  0.7818608E-02  0.8178185E-01
         -2   -1    0    0    0  501 -0.00000000000E+00  0.00000000000E+00  0.50598279554E+03  0.50598279554E+03  0.00000000000E+00 0. -1.
          2   -1    0    0  501    0  0.00000000000E+00 -0.00000000000E+00 -0.51885515211E+04  0.51885515211E+04  0.00000000000E+00 0.  1.
         23    2    1    2    0    0 -0.15687268824E+02 -0.14753206701E+04 -0.11716647007E+04  0.18862191718E+04  0.90594830342E+02 0.  0.
         13    1    3    3    0    0 -0.36005522874E+02 -0.10698457338E+04 -0.80790740813E+03  0.13411117299E+04  0.00000000000E+00 0.  1.
        -13    1    3    3    0    0  0.20318254050E+02 -0.40547493632E+03 -0.36375729255E+03  0.54510744199E+03  0.00000000000E+00 0. -1.
         22    1    1    2    0    0  0.15687268824E+02  0.14753206701E+04 -0.35109040249E+04  0.38083151448E+04  0.00000000000E+00 0. -1.
<mgrwt>
<rscale>  0 0.32405665E+04</rscale>
<asrwt>0</asrwt>
<pdfrwt beam="1">  1        2 0.79823864E+00 0.32405665E+04</pdfrwt>
<pdfrwt beam="2">  1       -2 0.77843512E-01 0.32405665E+04</pdfrwt>
<totfact> 0.23506695E-02</totfact>
</mgrwt>
</event>
<event>
 6    1  0.1719556E-004  0.1734466E+04  0.7818608E-02  0.8741948E-01
         -1   -1    0    0    0  501 -0.00000000000E+00  0.00000000000E+00  0.42851258910E+03  0.42851258910E+03  0.00000000000E+00 0. -1.
          1   -1    0    0  501    0  0.00000000000E+00 -0.00000000000E+00 -0.17551238532E+04  0.17551238532E+04  0.00000000000E+00 0.  1.
         23    2    1    2    0    0 -0.15708881490E+03 -0.25061535458E+03 -0.16881432626E+04  0.17165279563E+04  0.95684888404E+02 0.  0.
         11    1    3    3    0    0 -0.77335329604E+02 -0.43568545786E+02 -0.51280740925E+03  0.52043290669E+03  0.00000000000E+00 0. -1.
        -11    1    3    3    0    0 -0.79753485301E+02 -0.20704680879E+03 -0.11753358534E+04  0.11960950496E+04  0.00000000000E+00 0.  1.
         22    1    1    2    0    0  0.15708881490E+03  0.25061535458E+03  0.36153199855E+03  0.46710848600E+03  0.00000000000E+00 0. -1.
<mgrwt>
<rscale>  0 0.17344655E+04</rscale>
<asrwt>0</asrwt>
<pdfrwt beam="1">  1        1 0.27001905E+00 0.17344655E+04</pdfrwt>
<pdfrwt beam="2">  1       -1 0.65925014E-01 0.17344655E+04</pdfrwt>
<totfact> 0.96715728E+00</totfact>
</mgrwt>
</event>
<event>
 6    1  0.1719556E-004  0.5065182E+04  0.7818608E-02  0.7818530E-01
         -2   -1    0    0    0  501 -0.00000000000E+00  0.00000000000E+00  0.16943209197E+04  0.16943209197E+04  0.00000000000E+00 0. -1.
          2   -1    0    0  501    0  0.00000000000E+00 -0.00000000000E+00 -0.37855981959E+04  0.37855981959E+04  0.00000000000E+00 0.  1.
         23    2    1    2    0    0 -0.19640094666E+04 -0.14307491368E+04 -0.18145111296E+04  0.30343157591E+04  0.10121861764E+03 0.  0.
         11    1    3    3    0    0 -0.10304701722E+04 -0.68811715628E+03 -0.92225589630E+03  0.15446455693E+04  0.00000000000E+00 0. -1.
        -11    1    3    3    0    0 -0.93353929440E+03 -0.74263198057E+03 -0.89225523334E+03  0.14896701897E+04  0.00000000000E+00 0.  1.
         22    1    1    2    0    0  0.19640094666E+04  0.14307491368E+04 -0.27676614656E+03  0.24456033565E+04  0.00000000000E+00 0.  1.
<mgrwt>
<rscale>  0 0.50651824E+04</rscale>
<asrwt>0</asrwt>
<pdfrwt beam="1">  1        2 0.58239972E+00 0.50651824E+04</pdfrwt>
<pdfrwt beam="2">  1       -2 0.26066476E+00 0.50651824E+04</pdfrwt>
<totfact> 0.20094524E-02</totfact>
</mgrwt>
</event>
<event>
 6    1  0.1719556E-004  0.4121858E+04  0.7818608E-02  0.7980405E-01
          2   -1    0    0  501    0  0.00000000000E+00  0.00000000000E+00  0.25911718673E+04  0.25911718673E+04  0.00000000000E+00 0.  1.
         -2   -1    0    0    0  501 -0.00000000000E+00 -0.00000000000E+00 -0.16391924159E+04  0.16391924159E+04  0.00000000000E+00 0. -1.
         23    2    1    2    0    0  0.13983404984E+04 -0.13702885580E+03 -0.10698502563E+04  0.17682659051E+04  0.89731172536E+02 0.  0.
         13    1    3    3    0    0  0.97314095217E+03 -0.67382461405E+02 -0.70319521641E+03  0.12025087198E+04  0.00000000000E+00 0. -1.
        -13    1    3    3    0    0  0.42519954626E+03 -0.69646394393E+02 -0.36665503988E+03  0.56575718525E+03  0.00000000000E+00 0.  1.
         22    1    1    2    0    0 -0.13983404984E+04  0.13702885580E+03  0.20218297076E+04  0.24620983781E+04  0.00000000000E+00 0.  1.
<mgrwt>
<rscale>  0 0.41218585E+04</rscale>
<asrwt>0</asrwt>
<pdfrwt beam="1">  1        2 0.39864183E+00 0.41218585E+04</pdfrwt>
<pdfrwt beam="2">  1       -2 0.25218345E+00 0.41218585E+04</pdfrwt>
<totfact> 0.14988805E-01</totfact>
</mgrwt>
</event>
<event>
 6    1  0.1719556E-004  0.2811824E+04  0.7818608E-02  0.8299607E-01
          1   -1    0    0  501    0  0.00000000000E+00  0.00000000000E+00  0.22201781452E+04  0.22201781452E+04  0.00000000000E+00 0.  1.
         -1   -1    0    0    0  501 -0.00000000000E+00 -0.00000000000E+00 -0.89028368843E+03  0.89028368843E+03  0.00000000000E+00 0. -1.
         23    2    1    2    0    0 -0.78922561346E+03  0.11590993784E+04  0.75240002257E+03  0.15939235851E+04  0.89989794659E+02 0.  0.
         13    1    3    3    0    0 -0.18470248286E+03  0.33844590738E+03  0.22186425321E+03  0.44484197896E+03  0.00000000000E+00 0.  1.
        -13    1    3    3    0    0 -0.60452313060E+03  0.82065347100E+03  0.53053576936E+03  0.11490816061E+04  0.00000000000E+00 0. -1.
         22    1    1    2    0    0  0.78922561346E+03 -0.11590993784E+04  0.57749443423E+03  0.15165382486E+04  0.00000000000E+00 0.  1.
<mgrwt>
<rscale>  0 0.28118239E+04</rscale>
<asrwt>0</asrwt>
<pdfrwt beam="1">  1        1 0.34156587E+00 0.28118239E+04</pdfrwt>
<pdfrwt beam="2">  1       -1 0.13696672E+00 0.28118239E+04</pdfrwt>
<totfact> 0.80985954E-01</totfact>
</mgrwt>
</event>
<event>
 6    1  0.1719556E-004  0.2509873E+04  0.7818608E-02  0.8399477E-01
          2   -1    0    0  501    0  0.00000000000E+00  0.00000000000E+00  0.10920540609E+04  0.10920540609E+04  0.00000000000E+00 0.  1.
         -2   -1    0    0    0  501 -0.00000000000E+00 -0.00000000000E+00 -0.14421132148E+04  0.14421132148E+04  0.00000000000E+00 0. -1.
         23    2    1    2    0    0 -0.48363458394E+02  0.98640085154E+03 -0.95458705218E+03  0.13762468795E+04  0.86564248891E+02 0.  0.
         13    1    3    3    0    0 -0.67936469736E+02  0.50335536329E+03 -0.48581502976E+03  0.70285007563E+03  0.00000000000E+00 0.  1.
        -13    1    3    3    0    0  0.19573011342E+02  0.48304548825E+03 -0.46877202242E+03  0.67339680389E+03  0.00000000000E+00 0. -1.
         22    1    1    2    0    0  0.48363458394E+02 -0.98640085154E+03  0.60452789834E+03  0.11579203962E+04  0.00000000000E+00 0.  1.
<mgrwt>
<rscale>  0 0.25098730E+04</rscale>
<asrwt>0</asrwt>
<pdfrwt beam="1">  1        2 0.16800832E+00 0.25098730E+04</pdfrwt>
<pdfrwt beam="2">  1       -2 0.22186357E+00 0.25098730E+04</pdfrwt>
<totfact> 0.18884988E+00</totfact>
</mgrwt>
</event>
<event>
 6    1  0.1719556E-004  0.9259472E+03  0.7818608E-02  0.9393715E-01
          2   -1    0    0  501    0  0.00000000000E+00  0.00000000000E+00  0.24885568881E+04  0.24885568881E+04  0.00000000000E+00 0.  1.
         -2   -1    0    0    0  501 -0.00000000000E+00 -0.00000000000E+00 -0.86132074873E+02  0.86132074873E+02  0.00000000000E+00 0. -1.
         23    2    1    2    0    0  0.10115329519E+03 -0.55702333134E+02  0.24466712610E+04  0.24510261667E+04  0.89410690916E+02 0.  0.
         11    1    3    3    0    0  0.15880968844E+02  0.22379616206E+02  0.69619620815E+03  0.69673683170E+03  0.00000000000E+00 0.  1.
        -11    1    3    3    0    0  0.85272326343E+02 -0.78081949341E+02  0.17504750528E+04  0.17542893350E+04  0.00000000000E+00 0. -1.
         22    1    1    2    0    0 -0.10115329519E+03  0.55702333134E+02 -0.44246447729E+02  0.12366279627E+03  0.00000000000E+00 0. -1.
<mgrwt>
<rscale>  0 0.92594723E+03</rscale>
<asrwt>0</asrwt>
<pdfrwt beam="1">  1        2 0.38285485E+00 0.92594723E+03</pdfrwt>
<pdfrwt beam="2">  1       -2 0.13251090E-01 0.92594723E+03</pdfrwt>
<totfact> 0.15562827E+02</totfact>
</mgrwt>
</event>
<event>
 6    1  0.1719556E-004  0.1382958E+04  0.7818608E-02  0.8966247E-01
         -1   -1    0    0    0  501 -0.00000000000E+00  0.00000000000E+00  0.36716432359E+03  0.36716432359E+03  0.00000000000E+00 0. -1.
          1   -1    0    0  501    0  0.00000000000E+00 -0.00000000000E+00 -0.13022603357E+04  0.13022603357E+04  0.00000000000E+00 0.  1.
         23    2    1    2    0    0 -0.32108488189E+03  0.53718373145E+02  0.26259393104E+03  0.42827907359E+03  0.92120721126E+02 0.  0.
         13    1    3    3    0    0 -0.25341592474E+03  0.19646631932E+02  0.23908821004E+03  0.34895385546E+03  0.00000000000E+00 0. -1.
        -13    1    3    3    0    0 -0.67668957159E+02  0.34071741212E+02  0.23505720995E+02  0.79325218132E+02  0.00000000000E+00 0.  1.
         22    1    1    2    0    0  0.32108488189E+03 -0.53718373145E+02 -0.11976899431E+04  0.12411455857E+04  0.00000000000E+00 0.  1.
<mgrwt>
<rscale>  0 0.13829585E+04</rscale>
<asrwt>0</asrwt>
<pdfrwt beam="1">  1        1 0.20034774E+00 0.13829585E+04</pdfrwt>
<pdfrwt beam="2">  1       -1 0.56486819E-01 0.13829585E+04</pdfrwt>
<totfact> 0.27905857E+01</totfact>
</mgrwt>
</event>
<event>
 6    1  0.1719556E-004  0.1935361E+04  0.7818608E-02  0.8637453E-01
          2   -1    0    0  501    0  0.00000000000E+00  0.00000000000E+00  0.11044884155E+04  0.11044884155E+04  0.00000000000E+00 0.  1.
         -2   -1    0    0    0  501 -0.00000000000E+00 -0.00000000000E+00 -0.84781793380E+03  0.84781793380E+03  0.00000000000E+00 0. -1.
         23    2    1    2    0    0  0.40310481618E+03 -0.56926479034E+03 -0.54485206735E+03  0.88976491906E+03  0.90895222899E+02 0.  0.
         13    1    3    3    0    0  0.74578254762E+02 -0.10306059922E+03 -0.57636797677E+02  0.13966174724E+03  0.00000000000E+00 0.  1.
        -13    1    3    3    0    0  0.32852656142E+03 -0.46620419112E+03 -0.48721526968E+03  0.75010317182E+03  0.00000000000E+00 0. -1.
         22    1    1    2    0    0 -0.40310481618E+03  0.56926479034E+03  0.80152254909E+03  0.10625414303E+04  0.00000000000E+00 0.  1.
<mgrwt>
<rscale>  0 0.19353605E+04</rscale>
<asrwt>0</asrwt>
<pdfrwt beam="1">  1        2 0.16992129E+00 0.19353605E+04</pdfrwt>
<pdfrwt beam="2">  1       -2 0.13043353E+00 0.19353605E+04</pdfrwt>
<totfact> 0.87071732E+00</totfact>
</mgrwt>
</event>
<event>
 6    1  0.1719556E-004  0.8114323E+03  0.7818608E-02  0.9543615E-01
          2   -1    0    0  501    0  0.00000000000E+00  0.00000000000E+00  0.66626501286E+03  0.66626501286E+03  0.00000000000E+00 0.  1.
         -2   -1    0    0    0  501 -0.00000000000E+00 -0.00000000000E+00 -0.24705723359E+03  0.24705723359E+03  0.00000000000E+00 0. -1.
         23    2    1    2    0    0 -0.11013708138E+03 -0.11794920999E+03  0.62472686729E+03  0.65201727448E+03  0.93811911151E+02 0.  0.
         13    1    3    3    0    0 -0.41585315721E+02 -0.78009863811E+02  0.18313694393E+03  0.20335687244E+03  0.00000000000E+00 0.  1.
        -13    1    3    3    0    0 -0.68551765657E+02 -0.39939346183E+02  0.44158992336E+03  0.44866040204E+03  0.00000000000E+00 0. -1.
         22    1    1    2    0    0  0.11013708138E+03  0.11794920999E+03 -0.20551908803E+03  0.26130497197E+03  0.00000000000E+00 0. -1.
<mgrwt>
<rscale>  0 0.81143229E+03</rscale>
<asrwt>0</asrwt>
<pdfrwt beam="1">  1        2 0.10250231E+00 0.81143229E+03</pdfrwt>
<pdfrwt beam="2">  1       -2 0.38008805E-01 0.81143229E+03</pdfrwt>
<totfact> 0.28639270E+02</totfact>
</mgrwt>
</event>
<event>
 6    1  0.1719556E-004  0.2052424E+04  0.7818608E-02  0.8582496E-01
         -2   -1    0    0    0  501 -0.00000000000E+00  0.00000000000E+00  0.19472357902E+04  0.19472357902E+04  0.00000000000E+00 0.  1.
          2   -1    0    0  501    0  0.00000000000E+00 -0.00000000000E+00 -0.54082352398E+03  0.54082352398E+03  0.00000000000E+00 0. -1.
         23    2    1    2    0    0  0.10178421850E+04  0.93244682837E+02  0.78294556455E+03  0.12908091262E+04  0.92125777165E+02 0.  0.
         13    1    3    3    0    0  0.17310069978E+03  0.45391990627E+02  0.11358530412E+03  0.21195732210E+03  0.00000000000E+00 0.  1.
        -13    1    3    3    0    0  0.84474148524E+03  0.47852692210E+02  0.66936026043E+03  0.10788518041E+04  0.00000000000E+00 0. -1.
         22    1    1    2    0    0 -0.10178421850E+04 -0.93244682837E+02  0.62346670168E+03  0.11972501880E+04  0.00000000000E+00 0.  1.
<mgrwt>
<rscale>  0 0.20524239E+04</rscale>
<asrwt>0</asrwt>
<pdfrwt beam="1">  1        2 0.83203620E-01 0.20524239E+04</pdfrwt>
<pdfrwt beam="2">  1       -2 0.29957473E+00 0.20524239E+04</pdfrwt>
<totfact> 0.16627302E+00</totfact>
</mgrwt>
</event>
<event>
 6    1  0.1719556E-004  0.1458291E+04  0.7818608E-02  0.8912673E-01
          2   -1    0    0  501    0  0.00000000000E+00  0.00000000000E+00  0.10794927308E+04  0.10794927308E+04  0.00000000000E+00 0.  1.
         -2   -1    0    0    0  501 -0.00000000000E+00 -0.00000000000E+00 -0.49250278373E+03  0.49250278373E+03  0.00000000000E+00 0. -1.
         23    2    1    2    0    0  0.48286490767E+03  0.46919909371E+03  0.58876286867E+03  0.89871292018E+03  0.87959586053E+02 0.  0.
         13    1    3    3    0    0  0.40616149946E+03  0.36375851629E+03  0.43793609843E+03  0.69933929400E+03  0.00000000000E+00 0.  1.
        -13    1    3    3    0    0  0.76703408209E+02  0.10544057742E+03  0.15082677024E+03  0.19937362618E+03  0.00000000000E+00 0. -1.
         22    1    1    2    0    0 -0.48286490767E+03 -0.46919909371E+03 -0.17729216084E+01  0.67328259435E+03  0.00000000000E+00 0. -1.
<mgrwt>
<rscale>  0 0.14582910E+04</rscale>
<asrwt>0</asrwt>
<pdfrwt beam="1">  1        2 0.16607580E+00 0.14582910E+04</pdfrwt>
<pdfrwt beam="2">  1       -2 0.75769659E-01 0.14582910E+04</pdfrwt>
<totfact> 0.33946478E+01</totfact>
</mgrwt>
</event>
<event>
 6    1  0.1719556E-004  0.1895347E+04  0.7818608E-02  0.8657176E-01
         -1   -1    0    0    0  501 -0.00000000000E+00  0.00000000000E+00  0.71868218002E+03  0.71868218002E+03  0.00000000000E+00 0. -1.
          1   -1    0    0  501    0  0.00000000000E+00 -0.00000000000E+00 -0.12496279929E+04  0.12496279929E+04  0.00000000000E+00 0.  1.
         23    2    1    2    0    0  0.94194591534E+03  0.81856101175E+02 -0.30057629587E+03  0.99515415097E+03  0.77608928677E+02 0.  0.
         11    1    3    3    0    0  0.47488544317E+03  0.83560371058E+01 -0.17239851669E+03  0.50527938415E+03  0.00000000000E+00 0.  1.
        -11    1    3    3    0    0  0.46706047218E+03  0.73500064069E+02 -0.12817777919E+03  0.48987476682E+03  0.00000000000E+00 0. -1.
         22    1    1    2    0    0 -0.94194591534E+03 -0.81856101175E+02 -0.23036951703E+03  0.97315602198E+03  0.00000000000E+00 0. -1.
<mgrwt>
<rscale>  0 0.18953473E+04</rscale>
<asrwt>0</asrwt>
<pdfrwt beam="1">  1        1 0.19225046E+00 0.18953473E+04</pdfrwt>
<pdfrwt beam="2">  1       -1 0.11056649E+00 0.18953473E+04</pdfrwt>
<totfact> 0.69394825E+00</totfact>
</mgrwt>
</event>
<event>
 6    1  0.1719556E-004  0.3759120E+04  0.7818608E-02  0.8054985E-01
         -2   -1    0    0    0  501 -0.00000000000E+00  0.00000000000E+00  0.20307347535E+04  0.20307347535E+04  0.00000000000E+00 0. -1.
          2   -1    0    0  501    0  0.00000000000E+00 -0.00000000000E+00 -0.17396395184E+04  0.17396395184E+04  0.00000000000E+00 0.  1.
         23    2    1    2    0    0 -0.69240444912E+03 -0.16441294866E+04  0.73538939559E+03  0.19319012666E+04  0.94123593424E+02 0.  0.
         13    1    3    3    0    0 -0.54011775143E+03 -0.13094346968E+04  0.62289243181E+03  0.15473659529E+04  0.00000000000E+00 0. -1.
        -13    1    3    3    0    0 -0.15228669769E+03 -0.33469478988E+03  0.11249696378E+03  0.38453531376E+03  0.00000000000E+00 0.  1.
         22    1    1    2    0    0  0.69240444912E+03  0.16441294866E+04 -0.44429416057E+03  0.18384730053E+04  0.00000000000E+00 0.  1.
<mgrwt>
<rscale>  0 0.37591203E+04</rscale>
<asrwt>0</asrwt>
<pdfrwt beam="1">  1        2 0.26763685E+00 0.37591203E+04</pdfrwt>
<pdfrwt beam="2">  1       -2 0.31242073E+00 0.37591203E+04</pdfrwt>
<totfact> 0.19994186E-01</totfact>
</mgrwt>
</event>
<event>
 6    1  0.1719556E-004  0.2157641E+04  0.7818608E-02  0.8536269E-01
          1   -1    0    0  501    0  0.00000000000E+00  0.00000000000E+00  0.10290952600E+04  0.10290952600E+04  0.00000000000E+00 0.  1.
         -1   -1    0    0    0  501 -0.00000000000E+00 -0.00000000000E+00 -0.11309484641E+04  0.11309484641E+04  0.00000000000E+00 0. -1.
         23    2    1    2    0    0 -0.26281274106E+03 -0.84764672888E+02 -0.10930000168E+04  0.11311474267E+04  0.92681592605E+02 0.  0.
         13    1    3    3    0    0 -0.16763997373E+03 -0.49295855720E+02 -0.50343826024E+03  0.53290085762E+03  0.00000000000E+00 0. -1.
        -13    1    3    3    0    0 -0.95172767333E+02 -0.35468817167E+02 -0.58956175654E+03  0.59824656907E+03  0.00000000000E+00 0.  1.
         22    1    1    2    0    0  0.26281274106E+03  0.84764672888E+02  0.99114681266E+03  0.10288962974E+04  0.00000000000E+00 0.  1.
<mgrwt>
<rscale>  0 0.21576410E+04</rscale>
<asrwt>0</asrwt>
<pdfrwt beam="1">  1        1 0.15832235E+00 0.21576410E+04</pdfrwt>
<pdfrwt beam="2">  1       -1 0.17399207E+00 0.21576410E+04</pdfrwt>
<totfact> 0.30235482E+00</totfact>
</mgrwt>
</event>
<event>
 6    1  0.1719556E-004  0.3170951E+04  0.7818608E-02  0.8196531E-01
         -1   -1    0    0    0  501 -0.00000000000E+00  0.00000000000E+00  0.11696787359E+04  0.11696787359E+04  0.00000000000E+00 0. -1.
          1   -1    0    0  501    0  0.00000000000E+00 -0.00000000000E+00 -0.21490790502E+04  0.21490790502E+04  0.00000000000E+00 0.  1.
         23    2    1    2    0    0 -0.12323335235E+04 -0.61761620880E+03  0.32663376303E+03  0.14198579188E+04  0.95974996790E+02 0.  0.
         13    1    3    3    0    0 -0.10395726018E+04 -0.49000728198E+03  0.24840432260E+03  0.11758073985E+04  0.00000000000E+00 0.  1.
        -13    1    3    3    0    0 -0.19276092167E+03 -0.12760892683E+03  0.78229440426E+02  0.24405052034E+03  0.00000000000E+00 0. -1.
         22    1    1    2    0    0  0.12323335235E+04  0.61761620880E+03 -0.13060340773E+04  0.18988998672E+04  0.00000000000E+00 0.  1.
<mgrwt>
<rscale>  0 0.31709507E+04</rscale>
<asrwt>0</asrwt>
<pdfrwt beam="1">  1        1 0.33062755E+00 0.31709507E+04</pdfrwt>
<pdfrwt beam="2">  1       -1 0.17995058E+00 0.31709507E+04</pdfrwt>
<totfact> 0.41221819E-01</totfact>
</mgrwt>
</event>
<event>
 6    1  0.1719556E-004  0.2105329E+04  0.7818608E-02  0.8558900E-01
          1   -1    0    0  501    0  0.00000000000E+00  0.00000000000E+00  0.93809718649E+03  0.93809718649E+03  0.00000000000E+00 0.  1.
         -1   -1    0    0    0  501 -0.00000000000E+00 -0.00000000000E+00 -0.11812231569E+04  0.11812231569E+04  0.00000000000E+00 0. -1.
         23    2    1    2    0    0 -0.73872847860E+03 -0.71938407008E+03 -0.32461049846E+03  0.10849737217E+04  0.92535375788E+02 0.  0.
         13    1    3    3    0    0 -0.39283210982E+03 -0.31798267965E+03 -0.15865474953E+03  0.52971820869E+03  0.00000000000E+00 0. -1.
        -13    1    3    3    0    0 -0.34589636878E+03 -0.40140139042E+03 -0.16595574893E+03  0.55525551305E+03  0.00000000000E+00 0.  1.
         22    1    1    2    0    0  0.73872847860E+03  0.71938407008E+03  0.81484528061E+02  0.10343466216E+04  0.00000000000E+00 0. -1.
<mgrwt>
<rscale>  0 0.21053286E+04</rscale>
<asrwt>0</asrwt>
<pdfrwt beam="1">  1        1 0.14432264E+00 0.21053286E+04</pdfrwt>
<pdfrwt beam="2">  1       -1 0.18172664E+00 0.21053286E+04</pdfrwt>
<totfact> 0.31502180E+00</totfact>
</mgrwt>
</event>
<event>
 6    1  0.1719556E-004  0.1556582E+04  0.7818608E-02  0.8847674E-01
         -2   -1    0    0    0  501 -0.00000000000E+00  0.00000000000E+00  0.95365358277E+03  0.95365358277E+03  0.00000000000E+00 0. -1.
          2   -1    0    0  501    0  0.00000000000E+00 -0.00000000000E+00 -0.63517514113E+03  0.63517514113E+03  0.00000000000E+00 0.  1.
         23    2    1    2    0    0 -0.27035086523E+01 -0.22226827900E+03 -0.59869979473E+03  0.64509867030E+03  0.91106275337E+02 0.  0.
         13    1    3    3    0    0 -0.31715380238E+02 -0.23999043293E+02 -0.10539975723E+03  0.11265402011E+03  0.00000000000E+00 0. -1.
        -13    1    3    3    0    0  0.29011871585E+02 -0.19826923570E+03 -0.49330003750E+03  0.53244465019E+03  0.00000000000E+00 0.  1.
         22    1    1    2    0    0  0.27035086523E+01  0.22226827900E+03  0.91717823637E+03  0.94373005360E+03  0.00000000000E+00 0. -1.
<mgrwt>
<rscale>  0 0.15565822E+04</rscale>
<asrwt>0</asrwt>
<pdfrwt beam="1">  1        2 0.97719253E-01 0.15565822E+04</pdfrwt>
<pdfrwt beam="2">  1       -2 0.14671593E+00 0.15565822E+04</pdfrwt>
<totfact> 0.14130983E+01</totfact>
</mgrwt>
</event>
<event>
 6    1  0.1719556E-004  0.5480557E+04  0.7818608E-02  0.7758370E-01
         -2   -1    0    0    0  501 -0.00000000000E+00  0.00000000000E+00  0.21596537283E+04  0.21596537283E+04  0.00000000000E+00 0. -1.
          2   -1    0    0  501    0  0.00000000000E+00 -0.00000000000E+00 -0.34770045094E+04  0.34770045094E+04  0.00000000000E+00 0.  1.
         23    2    1    2    0    0  0.25829645246E+04  0.89914445696E+03 -0.82065811076E+03  0.28569334134E+04  0.91773111025E+02 0.  0.
         13    1    3    3    0    0  0.70238236486E+03  0.24669297563E+03 -0.26618278914E+03  0.79060210468E+03  0.00000000000E+00 0. -1.
        -13    1    3    3    0    0  0.18805821598E+04  0.65245148133E+03 -0.55447532161E+03  0.20663313087E+04  0.00000000000E+00 0.  1.
         22    1    1    2    0    0 -0.25829645246E+04 -0.89914445696E+03 -0.49669267040E+03  0.27797248243E+04  0.00000000000E+00 0.  1.
<mgrwt>
<rscale>  0 0.54805568E+04</rscale>
<asrwt>0</asrwt>
<pdfrwt beam="1">  1        2 0.53492377E+00 0.54805568E+04</pdfrwt>
<pdfrwt beam="2">  1       -2 0.33225442E+00 0.54805568E+04</pdfrwt>
<totfact> 0.11860919E-02</totfact>
</mgrwt>
</event>
<event>
 6    1  0.1719556E-004  0.1967412E+04  0.7818608E-02  0.8622010E-01
          2   -1    0    0  501    0  0.00000000000E+00  0.00000000000E+00  0.12529765501E+04  0.12529765501E+04  0.00000000000E+00 0.  1.
         -2   -1    0    0    0  501 -0.00000000000E+00 -0.00000000000E+00 -0.77230289575E+03  0.77230289575E+03  0.00000000000E+00 0. -1.
         23    2    1    2    0    0  0.51162241829E+03  0.41499126642E+03 -0.50809018110E+03  0.83715942986E+03  0.93300743696E+02 0.  0.
         13    1    3    3    0    0  0.30109495218E+03  0.25117137704E+03 -0.35868482821E+03  0.53141324490E+03  0.00000000000E+00 0.  1.
        -13    1    3    3    0    0  0.21052746612E+03  0.16381988938E+03 -0.14940535289E+03  0.30574618496E+03  0.00000000000E+00 0. -1.
         22    1    1    2    0    0 -0.51162241829E+03 -0.41499126642E+03  0.98876383540E+03  0.11881200160E+04  0.00000000000E+00 0.  1.
<mgrwt>
<rscale>  0 0.19674119E+04</rscale>
<asrwt>0</asrwt>
<pdfrwt beam="1">  1        2 0.19276562E+00 0.19674119E+04</pdfrwt>
<pdfrwt beam="2">  1       -2 0.11881583E+00 0.19674119E+04</pdfrwt>
<totfact> 0.89325088E+00</totfact>
</mgrwt>
</event>
<event>
 6    1  0.1719556E-004  0.1649879E+04  0.7818608E-02  0.8790478E-01
          2   -1    0    0  501    0  0.00000000000E+00  0.00000000000E+00  0.18429704677E+04  0.18429704677E+04  0.00000000000E+00 0.  1.
         -2   -1    0    0    0  501 -0.00000000000E+00 -0.00000000000E+00 -0.36925431229E+03  0.36925431229E+03  0.00000000000E+00 0. -1.
         23    2    1    2    0    0  0.69312536951E+02 -0.58047181671E+03 -0.37443953956E+02  0.59192954951E+03  0.85010494151E+02 0.  0.
         11    1    3    3    0    0  0.50449760762E+02 -0.23976807960E+03  0.20279904080E+02  0.24585602467E+03  0.00000000000E+00 0. -1.
        -11    1    3    3    0    0  0.18862776188E+02 -0.34070373712E+03 -0.57723858036E+02  0.34607352484E+03  0.00000000000E+00 0.  1.
         22    1    1    2    0    0 -0.69312536951E+02  0.58047181671E+03  0.15111601094E+04  0.16202952305E+04  0.00000000000E+00 0.  1.
<mgrwt>
<rscale>  0 0.16498785E+04</rscale>
<asrwt>0</asrwt>
<pdfrwt beam="1">  1        2 0.28353391E+00 0.16498785E+04</pdfrwt>
<pdfrwt beam="2">  1       -2 0.56808357E-01 0.16498785E+04</pdfrwt>
<totfact> 0.22671425E+01</totfact>
</mgrwt>
</event>
<event>
 6    1  0.1719556E-004  0.1302508E+04  0.7818608E-02  0.9027578E-01
          1   -1    0    0  501    0  0.00000000000E+00  0.00000000000E+00  0.27702649153E+04  0.27702649153E+04  0.00000000000E+00 0.  1.
         -1   -1    0    0    0  501 -0.00000000000E+00 -0.00000000000E+00 -0.15310163597E+03  0.15310163597E+03  0.00000000000E+00 0. -1.
         23    2    1    2    0    0 -0.61893868753E+03 -0.32757159493E+01  0.88314691260E+03  0.10821961112E+04  0.90022911881E+02 0.  0.
         13    1    3    3    0    0 -0.17850916545E+03 -0.92260704127E+01  0.32790350244E+03  0.37345863150E+03  0.00000000000E+00 0. -1.
        -13    1    3    3    0    0 -0.44042952208E+03  0.59503544634E+01  0.55524341015E+03  0.70873747972E+03  0.00000000000E+00 0.  1.
         22    1    1    2    0    0  0.61893868753E+03  0.32757159493E+01  0.17340163667E+04  0.18411704400E+04  0.00000000000E+00 0.  1.
<mgrwt>
<rscale>  0 0.13025085E+04</rscale>
<asrwt>0</asrwt>
<pdfrwt beam="1">  1        1 0.42619456E+00 0.13025085E+04</pdfrwt>
<pdfrwt beam="2">  1       -1 0.23554100E-01 0.13025085E+04</pdfrwt>
<totfact> 0.13431080E+01</totfact>
</mgrwt>
</event>
<event>
 6    1  0.1719556E-004  0.1575234E+04  0.7818608E-02  0.8835909E-01
         -1   -1    0    0    0  501 -0.00000000000E+00  0.00000000000E+00  0.28192222962E+03  0.28192222962E+03  0.00000000000E+00 0.  1.
          1   -1    0    0  501    0  0.00000000000E+00 -0.00000000000E+00 -0.22003949023E+04  0.22003949023E+04  0.00000000000E+00 0. -1.
         23    2    1    2    0    0  0.35979721900E+03  0.55986470526E+03 -0.16184091174E+04  0.17522892802E+04  0.91471981176E+02 0.  0.
         11    1    3    3    0    0  0.19394511371E+03  0.32918942069E+03 -0.81471237251E+03  0.89985367240E+03  0.00000000000E+00 0. -1.
        -11    1    3    3    0    0  0.16585210528E+03  0.23067528458E+03 -0.80369674491E+03  0.85243560784E+03  0.00000000000E+00 0.  1.
         22    1    1    2    0    0 -0.35979721900E+03 -0.55986470526E+03 -0.30006355523E+03  0.73002785164E+03  0.00000000000E+00 0.  1.
<mgrwt>
<rscale>  0 0.15752336E+04</rscale>
<asrwt>0</asrwt>
<pdfrwt beam="1">  1        1 0.33852229E+00 0.15752336E+04</pdfrwt>
<pdfrwt beam="2">  1       -1 0.43372651E-01 0.15752336E+04</pdfrwt>
<totfact> 0.10991522E+01</totfact>
</mgrwt>
</event>
<event>
 6    1  0.1719556E-004  0.1860620E+04  0.7818608E-02  0.8674711E-01
          2   -1    0    0  501    0  0.00000000000E+00  0.00000000000E+00  0.28713529621E+04  0.28713529621E+04  0.00000000000E+00 0.  1.
         -2   -1    0    0    0  501 -0.00000000000E+00 -0.00000000000E+00 -0.30141761160E+03  0.30141761160E+03  0.00000000000E+00 0. -1.
         23    2    1    2    0    0  0.54516399219E+03  0.70561149309E+03  0.17270562573E+04  0.19457675080E+04  0.90534643278E+02 0.  0.
         11    1    3    3    0    0  0.38638191017E+02  0.55657223898E+02  0.86343366531E+02  0.10975342054E+03  0.00000000000E+00 0. -1.
        -11    1    3    3    0    0  0.50652580117E+03  0.64995426919E+03  0.16407128908E+04  0.18360140874E+04  0.00000000000E+00 0.  1.
         22    1    1    2    0    0 -0.54516399219E+03 -0.70561149309E+03  0.84287909324E+03  0.12270030658E+04  0.00000000000E+00 0.  1.
<mgrwt>
<rscale>  0 0.18606196E+04</rscale>
<asrwt>0</asrwt>
<pdfrwt beam="1">  1        2 0.44174659E+00 0.18606196E+04</pdfrwt>
<pdfrwt beam="2">  1       -2 0.46371942E-01 0.18606196E+04</pdfrwt>
<totfact> 0.86889222E+00</totfact>
</mgrwt>
</event>
<event>
 6    1  0.1719556E-004  0.7019211E+03  0.7818608E-02  0.9713952E-01
         -2   -1    0    0    0  501 -0.00000000000E+00  0.00000000000E+00  0.64500958426E+02  0.64500958426E+02  0.00000000000E+00 0. -1.
          2   -1    0    0  501    0  0.00000000000E+00 -0.00000000000E+00 -0.19096353660E+04  0.19096353660E+04  0.00000000000E+00 0.  1.
         23    2    1    2    0    0  0.16060767781E+03  0.93029427741E+02 -0.17561623474E+04  0.17683079297E+04  0.91419053110E+02 0.  0.
         13    1    3    3    0    0  0.56310172370E+02  0.78048367208E+02 -0.10387745942E+04  0.10432233896E+04  0.00000000000E+00 0. -1.
        -13    1    3    3    0    0  0.10429750544E+03  0.14981060532E+02 -0.71738775320E+03  0.72508454008E+03  0.00000000000E+00 0.  1.
         22    1    1    2    0    0 -0.16060767781E+03 -0.93029427741E+02 -0.88972060251E+02  0.20582839479E+03  0.00000000000E+00 0. -1.
<mgrwt>
<rscale>  0 0.70192111E+03</rscale>
<asrwt>0</asrwt>
<pdfrwt beam="1">  1        2 0.29379008E+00 0.70192111E+03</pdfrwt>
<pdfrwt beam="2">  1       -2 0.99232237E-02 0.70192111E+03</pdfrwt>
<totfact> 0.53415120E+02</totfact>
</mgrwt>
</event>
<event>
 6    1  0.1719556E-004  0.1748797E+04  0.7818608E-02  0.8734013E-01
          2   -1    0    0  501    0  0.00000000000E+00  0.00000000000E+00  0.15675905554E+04  0.15675905554E+04  0.00000000000E+00 0.  1.
         -2   -1    0    0    0  501 -0.00000000000E+00 -0.00000000000E+00 -0.48773754596E+03  0.48773754596E+03  0.00000000000E+00 0. -1.
         23    2    1    2    0    0 -0.39240715324E+02  0.84636784154E+03  0.78359333501E+03  0.11577490510E+04  0.92119452459E+02 0.  0.
         11    1    3    3    0    0 -0.24530486146E+02  0.14440428289E+03  0.96721843837E+02  0.17552622808E+03  0.00000000000E+00 0.  1.
        -11    1    3    3    0    0 -0.14710229178E+02  0.70196355865E+03  0.68687149117E+03  0.98222282294E+03  0.00000000000E+00 0. -1.
         22    1    1    2    0    0  0.39240715324E+02 -0.84636784154E+03  0.29625967444E+03  0.89757905036E+03  0.00000000000E+00 0.  1.
<mgrwt>
<rscale>  0 0.17487970E+04</rscale>
<asrwt>0</asrwt>
<pdfrwt beam="1">  1        2 0.24116778E+00 0.17487970E+04</pdfrwt>
<pdfrwt beam="2">  1       -2 0.75036546E-01 0.17487970E+04</pdfrwt>
<totfact> 0.17581057E+01</totfact>
</mgrwt>
</event>
<event>
 6    1  0.1719556E-004  0.5454984E+04  0.7818608E-02  0.7761914E-01
         -2   -1    0    0    0  501 -0.00000000000E+00  0.00000000000E+00  0.19514299242E+04  0.19514299242E+04  0.00000000000E+00 0. -1.
          2   -1    0    0  501    0  0.00000000000E+00 -0.00000000000E+00 -0.38121858059E+04  0.38121858059E+04  0.00000000000E+00 0.  1.
         23    2    1    2    0    0  0.73914582657E+03  0.69445794564E+03 -0.36050038707E+04  0.37459414654E+04  0.86117150128E+02 0.  0.
         13    1    3    3    0    0  0.50913320130E+03  0.42888049416E+03 -0.22873654661E+04  0.23822669604E+04  0.00000000000E+00 0. -1.
        -13    1    3    3    0    0  0.23001262527E+03  0.26557745147E+03 -0.13176384046E+04  0.13636745050E+04  0.00000000000E+00 0.  1.
         22    1    1    2    0    0 -0.73914582657E+03 -0.69445794564E+03  0.17442479889E+04  0.20176742646E+04  0.00000000000E+00 0. -1.
<mgrwt>
<rscale>  0 0.54549843E+04</rscale>
<asrwt>0</asrwt>
<pdfrwt beam="1">  1        2 0.58649012E+00 0.54549843E+04</pdfrwt>
<pdfrwt beam="2">  1       -2 0.30021999E+00 0.54549843E+04</pdfrwt>
<totfact> 0.10657449E-02</totfact>
</mgrwt>
</event>
<event>
 6    1  0.1719556E-004  0.3195021E+04  0.7818608E-02  0.8190133E-01
         -2   -1    0    0    0  501 -0.00000000000E+00  0.00000000000E+00  0.21264420050E+04  0.21264420050E+04  0.00000000000E+00 0. -1.
          2   -1    0    0  501    0  0.00000000000E+00 -0.00000000000E+00 -0.12001455704E+04  0.12001455704E+04  0.00000000000E+00 0.  1.
         23    2    1    2    0    0 -0.69097717438E+03  0.13615137405E+04  0.94826872978E+03  0.17996128204E+04  0.90684058003E+02 0.  0.
         13    1    3    3    0    0 -0.12476683551E+03  0.19573101473E+03  0.17210566445E+03  0.28895977766E+03  0.00000000000E+00 0. -1.
        -13    1    3    3    0    0 -0.56621033887E+03  0.11657827257E+04  0.77616306533E+03  0.15106530427E+04  0.00000000000E+00 0.  1.
         22    1    1    2    0    0  0.69097717438E+03 -0.13615137405E+04 -0.21972295153E+02  0.15269747551E+04  0.00000000000E+00 0.  1.
<mgrwt>
<rscale>  0 0.31950211E+04</rscale>
<asrwt>0</asrwt>
<pdfrwt beam="1">  1        2 0.18463778E+00 0.31950211E+04</pdfrwt>
<pdfrwt beam="2">  1       -2 0.32714492E+00 0.31950211E+04</pdfrwt>
<totfact> 0.34487955E-01</totfact>
</mgrwt>
</event>
<event>
 6    1  0.1719556E-004  0.1206875E+04  0.7818608E-02  0.9106860E-01
         -4   -1    0    0    0  501 -0.00000000000E+00  0.00000000000E+00  0.55958277419E+03  0.55958277419E+03  0.00000000000E+00 0. -1.
          4   -1    0    0  501    0  0.00000000000E+00 -0.00000000000E+00 -0.65072899026E+03  0.65072899026E+03  0.00000000000E+00 0.  1.
         23    2    1    2    0    0  0.37339210912E+03 -0.84356466161E+02 -0.50924583319E+03  0.64343878893E+03  0.90246750313E+02 0.  0.
         11    1    3    3    0    0  0.14821917736E+03 -0.56057142464E+02 -0.14805248170E+03  0.21686600724E+03  0.00000000000E+00 0. -1.
        -11    1    3    3    0    0  0.22517293176E+03 -0.28299323696E+02 -0.36119335149E+03  0.42657278169E+03  0.00000000000E+00 0.  1.
         22    1    1    2    0    0 -0.37339210912E+03  0.84356466161E+02  0.41809961712E+03  0.56687297552E+03  0.00000000000E+00 0. -1.
<mgrwt>
<rscale>  0 0.12068749E+04</rscale>
<asrwt>0</asrwt>
<pdfrwt beam="1">  1        4 0.10011215E+00 0.12068749E+04</pdfrwt>
<pdfrwt beam="2">  1       -4 0.86089658E-01 0.12068749E+04</pdfrwt>
<totfact> 0.19001316E+00</totfact>
</mgrwt>
</event>
<event>
 6    1  0.1719556E-004  0.3138647E+04  0.7818608E-02  0.8205211E-01
          1   -1    0    0  501    0  0.00000000000E+00  0.00000000000E+00  0.10038712688E+04  0.10038712688E+04  0.00000000000E+00 0. -1.
         -1   -1    0    0    0  501 -0.00000000000E+00 -0.00000000000E+00 -0.24532793106E+04  0.24532793106E+04  0.00000000000E+00 0.  1.
         23    2    1    2    0    0  0.12014709808E+04  0.22143461565E+03  0.35741578967E+03  0.12760549454E+04  0.89467146756E+02 0.  0.
         13    1    3    3    0    0  0.36949114635E+03  0.99305514954E+02  0.82868823007E+02  0.39147481957E+03  0.00000000000E+00 0.  1.
        -13    1    3    3    0    0  0.83197983441E+03  0.12212910069E+03  0.27454696666E+03  0.88458012583E+03  0.00000000000E+00 0. -1.
         22    1    1    2    0    0 -0.12014709808E+04 -0.22143461565E+03 -0.18068238315E+04  0.21810956340E+04  0.00000000000E+00 0. -1.
<mgrwt>
<rscale>  0 0.31386472E+04</rscale>
<asrwt>0</asrwt>
<pdfrwt beam="1">  1        1 0.15444174E+00 0.31386472E+04</pdfrwt>
<pdfrwt beam="2">  1       -1 0.37742758E+00 0.31386472E+04</pdfrwt>
<totfact> 0.12861834E-01</totfact>
</mgrwt>
</event>
<event>
 6    1  0.1719556E-004  0.8599573E+03  0.7818608E-02  0.9477069E-01
          2   -1    0    0  501    0  0.00000000000E+00  0.00000000000E+00  0.43278020366E+04  0.43278020366E+04  0.00000000000E+00 0.  1.
         -2   -1    0    0    0  501 -0.00000000000E+00 -0.00000000000E+00 -0.42719521925E+02  0.42719521925E+02  0.00000000000E+00 0. -1.
         23    2    1    2    0    0  0.12583166186E+03  0.24585950723E+03  0.38052698144E+04  0.38168964762E+04  0.11108485607E+03 0.  0.
         13    1    3    3    0    0 -0.62907595397E+01  0.91572725272E+02  0.14388089090E+04  0.14417337529E+04  0.00000000000E+00 0. -1.
        -13    1    3    3    0    0  0.13212242140E+03  0.15428678196E+03  0.23664609054E+04  0.23751627233E+04  0.00000000000E+00 0.  1.
         22    1    1    2    0    0 -0.12583166186E+03 -0.24585950723E+03  0.47981270024E+03  0.55362508228E+03  0.00000000000E+00 0. -1.
<mgrwt>
<rscale>  0 0.85995729E+03</rscale>
<asrwt>0</asrwt>
<pdfrwt beam="1">  1        2 0.66581535E+00 0.85995729E+03</pdfrwt>
<pdfrwt beam="2">  1       -2 0.65722375E-02 0.85995729E+03</pdfrwt>
<totfact> 0.26471257E+01</totfact>
</mgrwt>
</event>
<event>
 6    1  0.1719556E-004  0.3214123E+04  0.7818608E-02  0.8185097E-01
          2   -1    0    0  501    0  0.00000000000E+00  0.00000000000E+00  0.33360403248E+04  0.33360403248E+04  0.00000000000E+00 0.  1.
         -2   -1    0    0    0  501 -0.00000000000E+00 -0.00000000000E+00 -0.77416522872E+03  0.77416522872E+03  0.00000000000E+00 0. -1.
         23    2    1    2    0    0 -0.56261062681E+03 -0.14224048187E+04  0.65748889098E+03  0.16675731612E+04  0.93500911446E+02 0.  0.
         13    1    3    3    0    0 -0.48945494017E+03 -0.11374618574E+04  0.53054741580E+03  0.13471696909E+04  0.00000000000E+00 0.  1.
        -13    1    3    3    0    0 -0.73155686637E+02 -0.28494296131E+03  0.12694147519E+03  0.32040347035E+03  0.00000000000E+00 0. -1.
         22    1    1    2    0    0  0.56261062681E+03  0.14224048187E+04  0.19043862051E+04  0.24426323923E+04  0.00000000000E+00 0.  1.
<mgrwt>
<rscale>  0 0.32141228E+04</rscale>
<asrwt>0</asrwt>
<pdfrwt beam="1">  1        2 0.51323696E+00 0.32141228E+04</pdfrwt>
<pdfrwt beam="2">  1       -2 0.11910234E+00 0.32141228E+04</pdfrwt>
<totfact> 0.47887420E-01</totfact>
</mgrwt>
</event>
<event>
 6    1  0.1719556E-004  0.2091793E+04  0.7818608E-02  0.8564867E-01
          1   -1    0    0  501    0  0.00000000000E+00  0.00000000000E+00  0.27466050058E+04  0.27466050058E+04  0.00000000000E+00 0.  1.
         -1   -1    0    0    0  501 -0.00000000000E+00 -0.00000000000E+00 -0.39827314022E+03  0.39827314022E+03  0.00000000000E+00 0. -1.
         23    2    1    2    0    0  0.69823460687E+03  0.71423277276E+03  0.71938317097E+03  0.12340841044E+04  0.88268964350E+02 0.  0.
         13    1    3    3    0    0  0.33008138991E+03  0.27547229083E+03  0.30307794636E+03  0.52601801162E+03  0.00000000000E+00 0. -1.
        -13    1    3    3    0    0  0.36815321696E+03  0.43876048194E+03  0.41630522461E+03  0.70806609275E+03  0.00000000000E+00 0.  1.
         22    1    1    2    0    0 -0.69823460687E+03 -0.71423277276E+03  0.16289486946E+04  0.19107940417E+04  0.00000000000E+00 0. -1.
<mgrwt>
<rscale>  0 0.20917925E+04</rscale>
<asrwt>0</asrwt>
<pdfrwt beam="1">  1        1 0.42255460E+00 0.20917925E+04</pdfrwt>
<pdfrwt beam="2">  1       -1 0.61272792E-01 0.20917925E+04</pdfrwt>
<totfact> 0.22630751E+00</totfact>
</mgrwt>
</event>
<event>
 6    1  0.1719556E-004  0.3151798E+04  0.7818608E-02  0.8201664E-01
          2   -1    0    0  501    0  0.00000000000E+00  0.00000000000E+00  0.28343796673E+04  0.28343796673E+04  0.00000000000E+00 0.  1.
         -2   -1    0    0    0  501 -0.00000000000E+00 -0.00000000000E+00 -0.87619098873E+03  0.87619098873E+03  0.00000000000E+00 0. -1.
         23    2    1    2    0    0  0.14998532635E+04 -0.47832998473E+03  0.10163496691E+04  0.18760625186E+04  0.91019435181E+02 0.  0.
         11    1    3    3    0    0  0.98180449301E+03 -0.26750330931E+03  0.65265734057E+03  0.12089084693E+04  0.00000000000E+00 0. -1.
        -11    1    3    3    0    0  0.51804877051E+03 -0.21082667542E+03  0.36369232854E+03  0.66715404933E+03  0.00000000000E+00 0.  1.
         22    1    1    2    0    0 -0.14998532635E+04  0.47832998473E+03  0.94183900946E+03  0.18345081374E+04  0.00000000000E+00 0. -1.
<mgrwt>
<rscale>  0 0.31517982E+04</rscale>
<asrwt>0</asrwt>
<pdfrwt beam="1">  1        2 0.43605841E+00 0.31517982E+04</pdfrwt>
<pdfrwt beam="2">  1       -2 0.13479861E+00 0.31517982E+04</pdfrwt>
<totfact> 0.73747949E-01</totfact>
</mgrwt>
</event>
<event>
 6    1  0.1719556E-004  0.9667829E+03  0.7818608E-02  0.9345746E-01
         -3   -1    0    0    0  501 -0.00000000000E+00  0.00000000000E+00  0.28502253458E+03  0.28502253458E+03  0.00000000000E+00 0. -1.
          3   -1    0    0  501    0  0.00000000000E+00 -0.00000000000E+00 -0.81982046324E+03  0.81982046324E+03  0.00000000000E+00 0.  1.
         23    2    1    2    0    0  0.13483835666E+03 -0.78727566459E+02 -0.78736635289E+03  0.80790828940E+03  0.91600318075E+02 0.  0.
         13    1    3    3    0    0 -0.60202276395E+01 -0.28762908664E+02 -0.18248979970E+03  0.18484067477E+03  0.00000000000E+00 0.  1.
        -13    1    3    3    0    0  0.14085858430E+03 -0.49964657795E+02 -0.60487655319E+03  0.62306761463E+03  0.00000000000E+00 0. -1.
         22    1    1    2    0    0 -0.13483835666E+03  0.78727566459E+02  0.25256842423E+03  0.29693470842E+03  0.00000000000E+00 0. -1.
<mgrwt>
<rscale>  0 0.96678293E+03</rscale>
<asrwt>0</asrwt>
<pdfrwt beam="1">  1        3 0.12612623E+00 0.96678293E+03</pdfrwt>
<pdfrwt beam="2">  1       -3 0.43849621E-01 0.96678293E+03</pdfrwt>
<totfact> 0.68012328E+00</totfact>
</mgrwt>
</event>
<event>
 6    1  0.1719556E-004  0.3598188E+04  0.7818608E-02  0.8090907E-01
          2   -1    0    0  501    0  0.00000000000E+00  0.00000000000E+00  0.25296423572E+04  0.25296423572E+04  0.00000000000E+00 0.  1.
         -2   -1    0    0    0  501 -0.00000000000E+00 -0.00000000000E+00 -0.12795243509E+04  0.12795243509E+04  0.00000000000E+00 0. -1.
         23    2    1    2    0    0  0.93165608615E+03  0.11100147824E+04  0.17518847926E+04  0.22755807836E+04  0.95140403788E+02 0.  0.
         11    1    3    3    0    0  0.34200174144E+03  0.34090411326E+03  0.56189849232E+03  0.74088509316E+03  0.00000000000E+00 0.  1.
        -11    1    3    3    0    0  0.58965434471E+03  0.76911066914E+03  0.11899863002E+04  0.15346956905E+04  0.00000000000E+00 0. -1.
         22    1    1    2    0    0 -0.93165608615E+03 -0.11100147824E+04 -0.50176678626E+03  0.15335859245E+04  0.00000000000E+00 0. -1.
<mgrwt>
<rscale>  0 0.35981879E+04</rscale>
<asrwt>0</asrwt>
<pdfrwt beam="1">  1        2 0.38917575E+00 0.35981879E+04</pdfrwt>
<pdfrwt beam="2">  1       -2 0.19684990E+00 0.35981879E+04</pdfrwt>
<totfact> 0.38046306E-01</totfact>
</mgrwt>
</event>
<event>
 6    1  0.1719556E-004  0.2694349E+04  0.7818608E-02  0.8336841E-01
          2   -1    0    0  501    0  0.00000000000E+00  0.00000000000E+00  0.10729024860E+04  0.10729024860E+04  0.00000000000E+00 0.  1.
         -2   -1    0    0    0  501 -0.00000000000E+00 -0.00000000000E+00 -0.16915601380E+04  0.16915601380E+04  0.00000000000E+00 0. -1.
         23    2    1    2    0    0 -0.12141827751E+04  0.57856916339E+03 -0.35258231247E+03  0.13934125977E+04  0.91116914636E+02 0.  0.
         13    1    3    3    0    0 -0.10177574844E+04  0.45681032144E+03 -0.31571354594E+03  0.11593882050E+04  0.00000000000E+00 0. -1.
        -13    1    3    3    0    0 -0.19642529071E+03  0.12175884195E+03 -0.36868766529E+02  0.23402439268E+03  0.00000000000E+00 0.  1.
         22    1    1    2    0    0  0.12141827751E+04 -0.57856916339E+03 -0.26607533955E+03  0.13710500263E+04  0.00000000000E+00 0. -1.
<mgrwt>
<rscale>  0 0.26943490E+04</rscale>
<asrwt>0</asrwt>
<pdfrwt beam="1">  1        2 0.16506192E+00 0.26943490E+04</pdfrwt>
<pdfrwt beam="2">  1       -2 0.26024002E+00 0.26943490E+04</pdfrwt>
<totfact> 0.11052111E+00</totfact>
</mgrwt>
</event>
<event>
 6    1  0.1719556E-004  0.3121807E+04  0.7818608E-02  0.8209779E-01
         -2   -1    0    0    0  501 -0.00000000000E+00  0.00000000000E+00  0.10179819652E+04  0.10179819652E+04  0.00000000000E+00 0. -1.
          2   -1    0    0  501    0  0.00000000000E+00 -0.00000000000E+00 -0.23933814325E+04  0.23933814325E+04  0.00000000000E+00 0.  1.
         23    2    1    2    0    0  0.12346311724E+04  0.92703137342E+03 -0.44705757988E+03  0.16098307283E+04  0.89404669202E+02 0.  0.
         13    1    3    3    0    0  0.99354942819E+03  0.74031964622E+03 -0.39510110813E+03  0.13005070282E+04  0.00000000000E+00 0.  1.
        -13    1    3    3    0    0  0.24108174417E+03  0.18671172720E+03 -0.51956471749E+02  0.30932370004E+03  0.00000000000E+00 0. -1.
         22    1    1    2    0    0 -0.12346311724E+04 -0.92703137342E+03 -0.92834188746E+03  0.18015326695E+04  0.00000000000E+00 0. -1.
<mgrwt>
<rscale>  0 0.31218066E+04</rscale>
<asrwt>0</asrwt>
<pdfrwt beam="1">  1        2 0.36821252E+00 0.31218066E+04</pdfrwt>
<pdfrwt beam="2">  1       -2 0.15661261E+00 0.31218066E+04</pdfrwt>
<totfact> 0.90723341E-01</totfact>
</mgrwt>
</event>
<event>
 6    1  0.1719556E-004  0.1103023E+04  0.7818608E-02  0.9202250E-01
         -2   -1    0    0    0  501 -0.00000000000E+00  0.00000000000E+00  0.51180259456E+03  0.51180259456E+03  0.00000000000E+00 0. -1.
          2   -1    0    0  501    0  0.00000000000E+00 -0.00000000000E+00 -0.59430176573E+03  0.59430176573E+03  0.00000000000E+00 0.  1.
         23    2    1    2    0    0 -0.45293666386E+03  0.16446807572E+03 -0.30084987649E+03  0.57706901184E+03  0.10147229590E+03 0.  0.
         11    1    3    3    0    0 -0.17994149404E+03  0.14537640505E+02 -0.12243467822E+03  0.21812962820E+03  0.00000000000E+00 0.  1.
        -11    1    3    3    0    0 -0.27299516982E+03  0.14993043521E+03 -0.17841519827E+03  0.35893938363E+03  0.00000000000E+00 0. -1.
         22    1    1    2    0    0  0.45293666386E+03 -0.16446807572E+03  0.21835070532E+03  0.52903534846E+03  0.00000000000E+00 0. -1.
<mgrwt>
<rscale>  0 0.11030235E+04</rscale>
<asrwt>0</asrwt>
<pdfrwt beam="1">  1        2 0.91431041E-01 0.11030235E+04</pdfrwt>
<pdfrwt beam="2">  1       -2 0.78738861E-01 0.11030235E+04</pdfrwt>
<totfact> 0.71394278E+01</totfact>
</mgrwt>
</event>
<event>
 6    1  0.1719556E-004  0.2231989E+04  0.7818608E-02  0.8505230E-01
         -2   -1    0    0    0  501 -0.00000000000E+00  0.00000000000E+00  0.88230879061E+03  0.88230879061E+03  0.00000000000E+00 0. -1.
          2   -1    0    0  501    0  0.00000000000E+00 -0.00000000000E+00 -0.14115731047E+04  0.14115731047E+04  0.00000000000E+00 0.  1.
         23    2    1    2    0    0 -0.74006380082E+03 -0.68993343313E+03 -0.74457390414E+03  0.12594444680E+04  0.90041644792E+02 0.  0.
         13    1    3    3    0    0 -0.14933166506E+03 -0.10081370193E+03 -0.15744464770E+03  0.23927424805E+03  0.00000000000E+00 0.  1.
        -13    1    3    3    0    0 -0.59073213576E+03 -0.58911973120E+03 -0.58712925644E+03  0.10201702199E+04  0.00000000000E+00 0. -1.
         22    1    1    2    0    0  0.74006380082E+03  0.68993343313E+03  0.21530959006E+03  0.10344374273E+04  0.00000000000E+00 0.  1.
<mgrwt>
<rscale>  0 0.22319887E+04</rscale>
<asrwt>0</asrwt>
<pdfrwt beam="1">  1        2 0.21716509E+00 0.22319887E+04</pdfrwt>
<pdfrwt beam="2">  1       -2 0.13573982E+00 0.22319887E+04</pdfrwt>
<totfact> 0.50553946E+00</totfact>
</mgrwt>
</event>
<event>
 6    1  0.1719556E-004  0.1302002E+04  0.7818608E-02  0.9027979E-01
          2   -1    0    0  501    0  0.00000000000E+00  0.00000000000E+00  0.91470101513E+03  0.91470101513E+03  0.00000000000E+00 0.  1.
         -2   -1    0    0    0  501 -0.00000000000E+00 -0.00000000000E+00 -0.46332316193E+03  0.46332316193E+03  0.00000000000E+00 0. -1.
         23    2    1    2    0    0  0.41325145045E+03  0.20585300206E+03 -0.25423391126E+03  0.53479219124E+03  0.90639872184E+02 0.  0.
         13    1    3    3    0    0  0.49867008876E+02  0.56771693127E+02 -0.60698858653E+02  0.96923140459E+02  0.00000000000E+00 0.  1.
        -13    1    3    3    0    0  0.36338444157E+03  0.14908130893E+03 -0.19353505261E+03  0.43786905078E+03  0.00000000000E+00 0. -1.
         22    1    1    2    0    0 -0.41325145045E+03 -0.20585300206E+03  0.70561176446E+03  0.84323198581E+03  0.00000000000E+00 0.  1.
<mgrwt>
<rscale>  0 0.13020018E+04</rscale>
<asrwt>0</asrwt>
<pdfrwt beam="1">  1        2 0.14072323E+00 0.13020018E+04</pdfrwt>
<pdfrwt beam="2">  1       -2 0.71280487E-01 0.13020018E+04</pdfrwt>
<totfact> 0.50195284E+01</totfact>
</mgrwt>
</event>
<event>
 6    1  0.1719556E-004  0.2615156E+04  0.7818608E-02  0.8363071E-01
         -2   -1    0    0    0  501 -0.00000000000E+00  0.00000000000E+00  0.13472717117E+04  0.13472717117E+04  0.00000000000E+00 0. -1.
          2   -1    0    0  501    0  0.00000000000E+00 -0.00000000000E+00 -0.12690534193E+04  0.12690534193E+04  0.00000000000E+00 0.  1.
         23    2    1    2    0    0  0.36087609252E+02 -0.46438929724E+03  0.12597795593E+04  0.13462673519E+04  0.91823253636E+02 0.  0.
         13    1    3    3    0    0  0.50294214483E+02 -0.20043492762E+03  0.46993740959E+03  0.51336618233E+03  0.00000000000E+00 0. -1.
        -13    1    3    3    0    0 -0.14206605231E+02 -0.26395436962E+03  0.78984214969E+03  0.83290116959E+03  0.00000000000E+00 0.  1.
         22    1    1    2    0    0 -0.36087609252E+02  0.46438929724E+03 -0.11815612669E+04  0.12700577791E+04  0.00000000000E+00 0.  1.
<mgrwt>
<rscale>  0 0.26151557E+04</rscale>
<asrwt>0</asrwt>
<pdfrwt beam="1">  1        2 0.19523899E+00 0.26151557E+04</pdfrwt>
<pdfrwt beam="2">  1       -2 0.20727257E+00 0.26151557E+04</pdfrwt>
<totfact> 0.18158152E+00</totfact>
</mgrwt>
</event>
<event>
 6    1  0.1719556E-004  0.2628118E+04  0.7818608E-02  0.8358712E-01
         -2   -1    0    0    0  501 -0.00000000000E+00  0.00000000000E+00  0.11741903620E+04  0.11741903620E+04  0.00000000000E+00 0. -1.
          2   -1    0    0  501    0  0.00000000000E+00 -0.00000000000E+00 -0.14705887625E+04  0.14705887625E+04  0.00000000000E+00 0.  1.
         23    2    1    2    0    0 -0.71326843499E+03  0.82284216763E+03 -0.88566649419E+03  0.14066119390E+04  0.91273845594E+02 0.  0.
         13    1    3    3    0    0 -0.52623434649E+03  0.63431785420E+03 -0.71352847284E+03  0.10901397200E+04  0.00000000000E+00 0.  1.
        -13    1    3    3    0    0 -0.18703408849E+03  0.18852431343E+03 -0.17213802135E+03  0.31647221902E+03  0.00000000000E+00 0. -1.
         22    1    1    2    0    0  0.71326843499E+03 -0.82284216763E+03  0.58926809369E+03  0.12381671856E+04  0.00000000000E+00 0. -1.
<mgrwt>
<rscale>  0 0.26281181E+04</rscale>
<asrwt>0</asrwt>
<pdfrwt beam="1">  1        2 0.22624442E+00 0.26281181E+04</pdfrwt>
<pdfrwt beam="2">  1       -2 0.18064467E+00 0.26281181E+04</pdfrwt>
<totfact> 0.20894638E+00</totfact>
</mgrwt>
</event>
<event>
 6    1  0.1719556E-004  0.1056474E+04  0.7818608E-02  0.9248685E-01
         -3   -1    0    0    0  501 -0.00000000000E+00  0.00000000000E+00  0.44980738739E+03  0.44980738739E+03  0.00000000000E+00 0. -1.
          3   -1    0    0  501    0  0.00000000000E+00 -0.00000000000E+00 -0.62034202096E+03  0.62034202096E+03  0.00000000000E+00 0.  1.
         23    2    1    2    0    0  0.18931223597E+03  0.16960538414E+03  0.37923241039E+03  0.46446887240E+03  0.85492709138E+02 0.  0.
         11    1    3    3    0    0 -0.18088269789E+01  0.29949926024E+02  0.59644652660E+02  0.66766417568E+02  0.00000000000E+00 0. -1.
        -11    1    3    3    0    0  0.19112106295E+03  0.13965545812E+03  0.31958775773E+03  0.39770245483E+03  0.00000000000E+00 0.  1.
         22    1    1    2    0    0 -0.18931223597E+03 -0.16960538414E+03 -0.54976704395E+03  0.60568053595E+03  0.00000000000E+00 0.  1.
<mgrwt>
<rscale>  0 0.10564742E+04</rscale>
<asrwt>0</asrwt>
<pdfrwt beam="1">  1        3 0.95437234E-01 0.10564742E+04</pdfrwt>
<pdfrwt beam="2">  1       -3 0.69201137E-01 0.10564742E+04</pdfrwt>
<totfact> 0.50901902E+00</totfact>
</mgrwt>
</event>
<event>
 6    1  0.1719556E-004  0.2310853E+04  0.7818608E-02  0.8473654E-01
         -1   -1    0    0    0  501 -0.00000000000E+00  0.00000000000E+00  0.22026862345E+04  0.22026862345E+04  0.00000000000E+00 0. -1.
          1   -1    0    0  501    0  0.00000000000E+00 -0.00000000000E+00 -0.60608298667E+03  0.60608298667E+03  0.00000000000E+00 0.  1.
         23    2    1    2    0    0  0.61672435104E+03 -0.65467246334E+03 -0.74296930095E+02  0.91117802073E+03  0.12562003117E+03 0.  0.
         13    1    3    3    0    0  0.46985134793E+03 -0.44012438091E+03 -0.93118511978E+02  0.65049274946E+03  0.00000000000E+00 0. -1.
        -13    1    3    3    0    0  0.14687300310E+03 -0.21454808243E+03  0.18821581883E+02  0.26068527127E+03  0.00000000000E+00 0.  1.
         22    1    1    2    0    0 -0.61672435104E+03  0.65467246334E+03  0.16709001779E+04  0.18975912004E+04  0.00000000000E+00 0. -1.
<mgrwt>
<rscale>  0 0.23108532E+04</rscale>
<asrwt>0</asrwt>
<pdfrwt beam="1">  1        1 0.93243537E-01 0.23108532E+04</pdfrwt>
<pdfrwt beam="2">  1       -1 0.33887480E+00 0.23108532E+04</pdfrwt>
<totfact> 0.56130038E-01</totfact>
</mgrwt>
</event>
<event>
 6    1  0.1719556E-004  0.2344495E+04  0.7818608E-02  0.8460581E-01
         -2   -1    0    0    0  501 -0.00000000000E+00  0.00000000000E+00  0.20795555687E+04  0.20795555687E+04  0.00000000000E+00 0. -1.
          2   -1    0    0  501    0  0.00000000000E+00 -0.00000000000E+00 -0.66079694377E+03  0.66079694377E+03  0.00000000000E+00 0.  1.
         23    2    1    2    0    0  0.72705622820E+03  0.63695598909E+03 -0.60895403006E+02  0.97295336871E+03  0.92770235493E+02 0.  0.
         11    1    3    3    0    0  0.28843576995E+03  0.23588943820E+03  0.19914939426E+02  0.37314290192E+03  0.00000000000E+00 0.  1.
        -11    1    3    3    0    0  0.43862045824E+03  0.40106655088E+03 -0.80810342433E+02  0.59981046679E+03  0.00000000000E+00 0. -1.
         22    1    1    2    0    0 -0.72705622820E+03 -0.63695598909E+03  0.14796540280E+04  0.17673991438E+04  0.00000000000E+00 0.  1.
<mgrwt>
<rscale>  0 0.23444948E+04</rscale>
<asrwt>0</asrwt>
<pdfrwt beam="1">  1        2 0.10166107E+00 0.23444948E+04</pdfrwt>
<pdfrwt beam="2">  1       -2 0.31993162E+00 0.23444948E+04</pdfrwt>
<totfact> 0.95430232E-01</totfact>
</mgrwt>
</event>
<event>
 6    1  0.1719556E-004  0.3164838E+03  0.7818608E-02  0.1077279E+00
         -2   -1    0    0    0  501 -0.00000000000E+00  0.00000000000E+00  0.36235564004E+02  0.36235564004E+02  0.00000000000E+00 0. -1.
          2   -1    0    0  501    0  0.00000000000E+00 -0.00000000000E+00 -0.69104736456E+03  0.69104736456E+03  0.00000000000E+00 0.  1.
         23    2    1    2    0    0 -0.12751868768E+03  0.36252849120E+02 -0.49221700020E+03  0.51749171359E+03  0.89133683705E+02 0.  0.
         13    1    3    3    0    0 -0.89051249929E+02 -0.17825780038E+02 -0.32883661794E+03  0.34114718942E+03  0.00000000000E+00 0.  1.
        -13    1    3    3    0    0 -0.38467437753E+02  0.54078629157E+02 -0.16338038226E+03  0.17634452417E+03  0.00000000000E+00 0. -1.
         22    1    1    2    0    0  0.12751868768E+03 -0.36252849120E+02 -0.16259480035E+03  0.20979121497E+03  0.00000000000E+00 0. -1.
<mgrwt>
<rscale>  0 0.31648375E+03</rscale>
<asrwt>0</asrwt>
<pdfrwt beam="1">  1        2 0.10631498E+00 0.31648375E+03</pdfrwt>
<pdfrwt beam="2">  1       -2 0.55747021E-02 0.31648375E+03</pdfrwt>
<totfact> 0.70734615E+03</totfact>
</mgrwt>
</event>
<event>
 6    1  0.1719556E-004  0.1608562E+04  0.7818608E-02  0.8815306E-01
          2   -1    0    0  501    0  0.00000000000E+00  0.00000000000E+00  0.34678204244E+04  0.34678204244E+04  0.00000000000E+00 0.  1.
         -2   -1    0    0    0  501 -0.00000000000E+00 -0.00000000000E+00 -0.18653433626E+03  0.18653433626E+03  0.00000000000E+00 0. -1.
         23    2    1    2    0    0  0.54566625769E+03 -0.30056537134E+03  0.27922433138E+04  0.28623610471E+04  0.91634235547E+02 0.  0.
         13    1    3    3    0    0  0.90379087642E+02 -0.14153176669E+02  0.37520845785E+03  0.38619953228E+03  0.00000000000E+00 0. -1.
        -13    1    3    3    0    0  0.45528717005E+03 -0.28641219467E+03  0.24170348559E+04  0.24761615148E+04  0.00000000000E+00 0.  1.
         22    1    1    2    0    0 -0.54566625769E+03  0.30056537134E+03  0.48904277433E+03  0.79199371358E+03  0.00000000000E+00 0. -1.
<mgrwt>
<rscale>  0 0.16085616E+04</rscale>
<asrwt>0</asrwt>
<pdfrwt beam="1">  1        2 0.53351079E+00 0.16085616E+04</pdfrwt>
<pdfrwt beam="2">  1       -2 0.28697593E-01 0.16085616E+04</pdfrwt>
<totfact> 0.92412200E+00</totfact>
</mgrwt>
</event>
<event>
 6    1  0.1719556E-004  0.3139927E+04  0.7818608E-02  0.8204865E-01
         -2   -1    0    0    0  501 -0.00000000000E+00  0.00000000000E+00  0.78110698505E+03  0.78110698505E+03  0.00000000000E+00 0. -1.
          2   -1    0    0  501    0  0.00000000000E+00 -0.00000000000E+00 -0.31555039275E+04  0.31555039275E+04  0.00000000000E+00 0.  1.
         23    2    1    2    0    0 -0.57048367988E+03  0.10645068293E+03  0.63881971347E+03  0.86801872843E+03  0.92641835549E+02 0.  0.
         13    1    3    3    0    0 -0.37756167641E+03  0.38122739756E+02  0.45921671416E+03  0.59572321874E+03  0.00000000000E+00 0. -1.
        -13    1    3    3    0    0 -0.19292200347E+03  0.68327943169E+02  0.17960299931E+03  0.27229550970E+03  0.00000000000E+00 0.  1.
         22    1    1    2    0    0  0.57048367988E+03 -0.10645068293E+03 -0.30132166559E+04  0.30685921841E+04  0.00000000000E+00 0.  1.
<mgrwt>
<rscale>  0 0.31399275E+04</rscale>
<asrwt>0</asrwt>
<pdfrwt beam="1">  1        2 0.48546214E+00 0.31399275E+04</pdfrwt>
<pdfrwt beam="2">  1       -2 0.12017031E+00 0.31399275E+04</pdfrwt>
<totfact> 0.62012062E-01</totfact>
</mgrwt>
</event>
<event>
 6    1  0.1719556E-004  0.4230285E+04  0.7818608E-02  0.7959636E-01
         -2   -1    0    0    0  501 -0.00000000000E+00  0.00000000000E+00  0.21936858135E+04  0.21936858135E+04  0.00000000000E+00 0. -1.
          2   -1    0    0  501    0  0.00000000000E+00 -0.00000000000E+00 -0.20394112451E+04  0.20394112451E+04  0.00000000000E+00 0.  1.
         23    2    1    2    0    0 -0.19676877273E+04 -0.23561898383E+03  0.81374370688E+03  0.21445064232E+04  0.97044735419E+02 0.  0.
         13    1    3    3    0    0 -0.15967559187E+04 -0.22629129309E+03  0.64553759025E+03  0.17371113935E+04  0.00000000000E+00 0.  1.
        -13    1    3    3    0    0 -0.37093180866E+03 -0.93276907364E+01  0.16820611663E+03  0.40739502963E+03  0.00000000000E+00 0. -1.
         22    1    1    2    0    0  0.19676877273E+04  0.23561898383E+03 -0.65946913851E+03  0.20885906355E+04  0.00000000000E+00 0.  1.
<mgrwt>
<rscale>  0 0.42302849E+04</rscale>
<asrwt>0</asrwt>
<pdfrwt beam="1">  1        2 0.31375557E+00 0.42302849E+04</pdfrwt>
<pdfrwt beam="2">  1       -2 0.33749013E+00 0.42302849E+04</pdfrwt>
<totfact> 0.91691140E-02</totfact>
</mgrwt>
</event>
<event>
 6    1  0.1719556E-004  0.1971937E+04  0.7818608E-02  0.8619855E-01
         -1   -1    0    0    0  501 -0.00000000000E+00  0.00000000000E+00  0.55861095357E+03  0.55861095357E+03  0.00000000000E+00 0. -1.
          1   -1    0    0  501    0  0.00000000000E+00 -0.00000000000E+00 -0.17402695285E+04  0.17402695285E+04  0.00000000000E+00 0.  1.
         23    2    1    2    0    0 -0.34698526499E+03  0.76448737336E+03 -0.11898318119E+04  0.14592933693E+04  0.94856095990E+02 0.  0.
         13    1    3    3    0    0 -0.26028256808E+03  0.61699046684E+03 -0.10025638621E+04  0.12056361595E+04  0.00000000000E+00 0. -1.
        -13    1    3    3    0    0 -0.86702696914E+02  0.14749690652E+03 -0.18726794984E+03  0.25365720987E+03  0.00000000000E+00 0.  1.
         22    1    1    2    0    0  0.34698526499E+03 -0.76448737336E+03  0.81732369619E+01  0.83958711278E+03  0.00000000000E+00 0. -1.
<mgrwt>
<rscale>  0 0.19719367E+04</rscale>
<asrwt>0</asrwt>
<pdfrwt beam="1">  1        1 0.26773376E+00 0.19719367E+04</pdfrwt>
<pdfrwt beam="2">  1       -1 0.85940150E-01 0.19719367E+04</pdfrwt>
<totfact> 0.55604351E+00</totfact>
</mgrwt>
</event>
<event>
 6    1  0.1719556E-004  0.1656684E+04  0.7818608E-02  0.8786462E-01
          2   -1    0    0  501    0  0.00000000000E+00  0.00000000000E+00  0.17805397729E+04  0.17805397729E+04  0.00000000000E+00 0.  1.
         -2   -1    0    0    0  501 -0.00000000000E+00 -0.00000000000E+00 -0.38536096162E+03  0.38536096162E+03  0.00000000000E+00 0. -1.
         23    2    1    2    0    0 -0.44110659975E+03  0.15100658661E+02 -0.21288140741E+03  0.49836940673E+03  0.90832316420E+02 0.  0.
         13    1    3    3    0    0 -0.17982245524E+03  0.36519722626E+02 -0.51756422833E+02  0.19065291200E+03  0.00000000000E+00 0.  1.
        -13    1    3    3    0    0 -0.26128414451E+03 -0.21419063965E+02 -0.16112498457E+03  0.30771649473E+03  0.00000000000E+00 0. -1.
         22    1    1    2    0    0  0.44110659975E+03 -0.15100658661E+02  0.16080602186E+04  0.16675313277E+04  0.00000000000E+00 0.  1.
<mgrwt>
<rscale>  0 0.16566841E+04</rscale>
<asrwt>0</asrwt>
<pdfrwt beam="1">  1        2 0.27392919E+00 0.16566841E+04</pdfrwt>
<pdfrwt beam="2">  1       -2 0.59286303E-01 0.16566841E+04</pdfrwt>
<totfact> 0.22433312E+01</totfact>
</mgrwt>
</event>
<event>
 6    1  0.1719556E-004  0.1947544E+04  0.7818608E-02  0.8631546E-01
         -2   -1    0    0    0  501 -0.00000000000E+00  0.00000000000E+00  0.41168377814E+03  0.41168377814E+03  0.00000000000E+00 0. -1.
          2   -1    0    0  501    0  0.00000000000E+00 -0.00000000000E+00 -0.23033018358E+04  0.23033018358E+04  0.00000000000E+00 0.  1.
         23    2    1    2    0    0 -0.33563037945E+03  0.28263623290E+03  0.26085785339E+03  0.51824176464E+03  0.89424354570E+02 0.  0.
         11    1    3    3    0    0 -0.28276685767E+03  0.26384543675E+03  0.25159057824E+03  0.46137764288E+03  0.00000000000E+00 0.  1.
        -11    1    3    3    0    0 -0.52863521783E+02  0.18790796142E+02  0.92672751446E+01  0.56864121760E+02  0.00000000000E+00 0. -1.
         22    1    1    2    0    0  0.33563037945E+03 -0.28263623290E+03 -0.21524759111E+04  0.21967438493E+04  0.00000000000E+00 0.  1.
<mgrwt>
<rscale>  0 0.19475441E+04</rscale>
<asrwt>0</asrwt>
<pdfrwt beam="1">  1        2 0.35435413E+00 0.19475441E+04</pdfrwt>
<pdfrwt beam="2">  1       -2 0.63335966E-01 0.19475441E+04</pdfrwt>
<totfact> 0.97233371E+00</totfact>
</mgrwt>
</event>
<event>
 6    1  0.1719556E-004  0.2151571E+04  0.7818608E-02  0.8538860E-01
         -1   -1    0    0    0  501 -0.00000000000E+00  0.00000000000E+00  0.47059272813E+03  0.47059272813E+03  0.00000000000E+00 0. -1.
          1   -1    0    0  501    0  0.00000000000E+00 -0.00000000000E+00 -0.24592688513E+04  0.24592688513E+04  0.00000000000E+00 0.  1.
         23    2    1    2    0    0  0.67850901511E+03  0.75675032198E+03 -0.52408379777E+03  0.11471456141E+04  0.90739734897E+02 0.  0.
         11    1    3    3    0    0  0.26742835574E+03  0.36061887315E+03 -0.21140147306E+03  0.49624034493E+03  0.00000000000E+00 0. -1.
        -11    1    3    3    0    0  0.41108065938E+03  0.39613144882E+03 -0.31268232470E+03  0.65090526917E+03  0.00000000000E+00 0.  1.
         22    1    1    2    0    0 -0.67850901511E+03 -0.75675032198E+03 -0.14645923254E+04  0.17827159654E+04  0.00000000000E+00 0.  1.
<mgrwt>
<rscale>  0 0.21515706E+04</rscale>
<asrwt>0</asrwt>
<pdfrwt beam="1">  1        1 0.37834905E+00 0.21515706E+04</pdfrwt>
<pdfrwt beam="2">  1       -1 0.72398881E-01 0.21515706E+04</pdfrwt>
<totfact> 0.25476086E+00</totfact>
</mgrwt>
</event>
<event>
 6    1  0.1719556E-004  0.2546978E+04  0.7818608E-02  0.8386438E-01
         -2   -1    0    0    0  501 -0.00000000000E+00  0.00000000000E+00  0.57479011835E+03  0.57479011835E+03  0.00000000000E+00 0. -1.
          2   -1    0    0  501    0  0.00000000000E+00 -0.00000000000E+00 -0.28215073346E+04  0.28215073346E+04  0.00000000000E+00 0.  1.
         23    2    1    2    0    0  0.89578743481E+03 -0.54275253251E+03 -0.16287162575E+03  0.10640393444E+04  0.92936107212E+02 0.  0.
         11    1    3    3    0    0  0.70250159803E+03 -0.38797029656E+03 -0.14735786444E+03  0.81593123881E+03  0.00000000000E+00 0.  1.
        -11    1    3    3    0    0  0.19328583677E+03 -0.15478223595E+03 -0.15513761306E+02  0.24810810558E+03  0.00000000000E+00 0. -1.
         22    1    1    2    0    0 -0.89578743481E+03  0.54275253251E+03 -0.20838455905E+04  0.23322581085E+04  0.00000000000E+00 0.  1.
<mgrwt>
<rscale>  0 0.25469782E+04</rscale>
<asrwt>0</asrwt>
<pdfrwt beam="1">  1        2 0.43407805E+00 0.25469782E+04</pdfrwt>
<pdfrwt beam="2">  1       -2 0.88429249E-01 0.25469782E+04</pdfrwt>
<totfact> 0.21939020E+00</totfact>
</mgrwt>
</event>
<event>
 6    1  0.1719556E-004  0.1912039E+04  0.7818608E-02  0.8648887E-01
         -2   -1    0    0    0  501 -0.00000000000E+00  0.00000000000E+00  0.15817183100E+04  0.15817183100E+04  0.00000000000E+00 0. -1.
          2   -1    0    0  501    0  0.00000000000E+00 -0.00000000000E+00 -0.57783579087E+03  0.57783579087E+03  0.00000000000E+00 0.  1.
         23    2    1    2    0    0  0.14312500551E+03  0.53940269346E+03 -0.37061836958E+03  0.67608090395E+03  0.91035047653E+02 0.  0.
         11    1    3    3    0    0  0.48445825801E+02  0.35294426367E+03 -0.22833277822E+03  0.42314596643E+03  0.00000000000E+00 0.  1.
        -11    1    3    3    0    0  0.94679179709E+02  0.18645842979E+03 -0.14228559136E+03  0.25293493752E+03  0.00000000000E+00 0. -1.
         22    1    1    2    0    0 -0.14312500551E+03 -0.53940269346E+03  0.13745008887E+04  0.14834731969E+04  0.00000000000E+00 0. -1.
<mgrwt>
<rscale>  0 0.19120392E+04</rscale>
<asrwt>0</asrwt>
<pdfrwt beam="1">  1        2 0.88897815E-01 0.19120392E+04</pdfrwt>
<pdfrwt beam="2">  1       -2 0.24334128E+00 0.19120392E+04</pdfrwt>
<totfact> 0.34290068E+00</totfact>
</mgrwt>
</event>
<event>
 6    1  0.1719556E-004  0.9718581E+03  0.7818608E-02  0.9339960E-01
          1   -1    0    0  501    0  0.00000000000E+00  0.00000000000E+00  0.17289331539E+03  0.17289331539E+03  0.00000000000E+00 0.  1.
         -1   -1    0    0    0  501 -0.00000000000E+00 -0.00000000000E+00 -0.13657385094E+04  0.13657385094E+04  0.00000000000E+00 0. -1.
         23    2    1    2    0    0  0.27510564427E+03  0.13429104660E+03 -0.11904487478E+04  0.12324897929E+04  0.90253353034E+02 0.  0.
         11    1    3    3    0    0  0.10339029710E+03  0.90804760757E+02 -0.42111747220E+03  0.44302932578E+03  0.00000000000E+00 0. -1.
        -11    1    3    3    0    0  0.17171534717E+03  0.43486285840E+02 -0.76933127563E+03  0.78946046714E+03  0.00000000000E+00 0.  1.
         22    1    1    2    0    0 -0.27510564427E+03 -0.13429104660E+03 -0.23964461443E+01  0.30614203184E+03  0.00000000000E+00 0.  1.
<mgrwt>
<rscale>  0 0.97185814E+03</rscale>
<asrwt>0</asrwt>
<pdfrwt beam="1">  1        1 0.26598972E-01 0.97185814E+03</pdfrwt>
<pdfrwt beam="2">  1       -1 0.21011362E+00 0.97185814E+03</pdfrwt>
<totfact> 0.23273295E+01</totfact>
</mgrwt>
</event>
<event>
 6    1  0.1719556E-004  0.1888545E+04  0.7818608E-02  0.8660580E-01
          2   -1    0    0  501    0  0.00000000000E+00  0.00000000000E+00  0.49948968473E+03  0.49948968473E+03  0.00000000000E+00 0.  1.
         -2   -1    0    0    0  501 -0.00000000000E+00 -0.00000000000E+00 -0.17851224962E+04  0.17851224962E+04  0.00000000000E+00 0. -1.
         23    2    1    2    0    0 -0.33482232947E+03 -0.58660621648E+03 -0.14386609361E+04  0.15920586073E+04  0.93233439795E+02 0.  0.
         11    1    3    3    0    0 -0.19424933473E+03 -0.42495813112E+03 -0.10104254605E+04  0.11132303573E+04  0.00000000000E+00 0. -1.
        -11    1    3    3    0    0 -0.14057299474E+03 -0.16164808536E+03 -0.42823547564E+03  0.47882824995E+03  0.00000000000E+00 0.  1.
         22    1    1    2    0    0  0.33482232947E+03  0.58660621648E+03  0.15302812463E+03  0.69255357370E+03  0.00000000000E+00 0.  1.
<mgrwt>
<rscale>  0 0.18885447E+04</rscale>
<asrwt>0</asrwt>
<pdfrwt beam="1">  1        2 0.76844568E-01 0.18885447E+04</pdfrwt>
<pdfrwt beam="2">  1       -2 0.27463423E+00 0.18885447E+04</pdfrwt>
<totfact> 0.26258316E+00</totfact>
</mgrwt>
</event>
<event>
 6    1  0.1719556E-004  0.9951086E+03  0.7818608E-02  0.9313926E-01
          1   -1    0    0  501    0  0.00000000000E+00  0.00000000000E+00  0.13763830375E+04  0.13763830375E+04  0.00000000000E+00 0.  1.
         -1   -1    0    0    0  501 -0.00000000000E+00 -0.00000000000E+00 -0.17986291339E+03  0.17986291339E+03  0.00000000000E+00 0. -1.
         23    2    1    2    0    0  0.15779886610E+03 -0.34838267743E+02  0.13323111819E+04  0.13451691913E+04  0.91175000774E+02 0.  0.
         13    1    3    3    0    0  0.67445848103E+02  0.26049291017E+02  0.39664793507E+03  0.40318369558E+03  0.00000000000E+00 0.  1.
        -13    1    3    3    0    0  0.90353017998E+02 -0.60887558760E+02  0.93566324685E+03  0.94198549573E+03  0.00000000000E+00 0. -1.
         22    1    1    2    0    0 -0.15779886610E+03  0.34838267743E+02 -0.13579105782E+03  0.21107675956E+03  0.00000000000E+00 0. -1.
<mgrwt>
<rscale>  0 0.99510856E+03</rscale>
<asrwt>0</asrwt>
<pdfrwt beam="1">  1        1 0.21175123E+00 0.99510856E+03</pdfrwt>
<pdfrwt beam="2">  1       -1 0.27671218E-01 0.99510856E+03</pdfrwt>
<totfact> 0.94035127E+01</totfact>
</mgrwt>
</event>
<event>
 6    1  0.1719556E-004  0.1348927E+04  0.7818608E-02  0.8991640E-01
          2   -1    0    0  501    0  0.00000000000E+00  0.00000000000E+00  0.23115423334E+04  0.23115423334E+04  0.00000000000E+00 0.  1.
         -2   -1    0    0    0  501 -0.00000000000E+00 -0.00000000000E+00 -0.19679557599E+03  0.19679557599E+03  0.00000000000E+00 0. -1.
         23    2    1    2    0    0  0.45550061716E+03 -0.28466389698E+03  0.31338693359E+03  0.62860081039E+03  0.91723836617E+02 0.  0.
         11    1    3    3    0    0  0.17138644267E+03 -0.14207328555E+03  0.90246212931E+02  0.24021346787E+03  0.00000000000E+00 0. -1.
        -11    1    3    3    0    0  0.28411417449E+03 -0.14259061143E+03  0.22314072065E+03  0.38838734252E+03  0.00000000000E+00 0.  1.
         22    1    1    2    0    0 -0.45550061716E+03  0.28466389698E+03  0.18013598238E+04  0.18797370990E+04  0.00000000000E+00 0.  1.
<mgrwt>
<rscale>  0 0.13489274E+04</rscale>
<asrwt>0</asrwt>
<pdfrwt beam="1">  1        2 0.35562188E+00 0.13489274E+04</pdfrwt>
<pdfrwt beam="2">  1       -2 0.30276244E-01 0.13489274E+04</pdfrwt>
<totfact> 0.44087194E+01</totfact>
</mgrwt>
</event>
<event>
 6    1  0.1719556E-004  0.2006404E+04  0.7818608E-02  0.8603632E-01
          2   -1    0    0  501    0  0.00000000000E+00  0.00000000000E+00  0.29030588408E+04  0.29030588408E+04  0.00000000000E+00 0.  1.
         -2   -1    0    0    0  501 -0.00000000000E+00 -0.00000000000E+00 -0.34667375865E+03  0.34667375865E+03  0.00000000000E+00 0. -1.
         23    2    1    2    0    0 -0.68809495392E+03 -0.36494147039E+03  0.22995747717E+04  0.24296054886E+04  0.91004160652E+02 0.  0.
         11    1    3    3    0    0 -0.34491818373E+03 -0.15092190050E+03  0.12193023156E+04  0.12761050546E+04  0.00000000000E+00 0.  1.
        -11    1    3    3    0    0 -0.34317677019E+03 -0.21401956989E+03  0.10802724561E+04  0.11535004340E+04  0.00000000000E+00 0. -1.
         22    1    1    2    0    0  0.68809495392E+03  0.36494147039E+03  0.25681031050E+03  0.82012711088E+03  0.00000000000E+00 0. -1.
<mgrwt>
<rscale>  0 0.20064041E+04</rscale>
<asrwt>0</asrwt>
<pdfrwt beam="1">  1        2 0.44662442E+00 0.20064041E+04</pdfrwt>
<pdfrwt beam="2">  1       -2 0.53334426E-01 0.20064041E+04</pdfrwt>
<totfact> 0.61672017E+00</totfact>
</mgrwt>
</event>
<event>
 6    1  0.1719556E-004  0.4379512E+04  0.7818608E-02  0.7932077E-01
          2   -1    0    0  501    0  0.00000000000E+00  0.00000000000E+00  0.22049827414E+04  0.22049827414E+04  0.00000000000E+00 0.  1.
         -2   -1    0    0    0  501 -0.00000000000E+00 -0.00000000000E+00 -0.21746339244E+04  0.21746339244E+04  0.00000000000E+00 0. -1.
         23    2    1    2    0    0 -0.19311023971E+03  0.17337213466E+04  0.13371464265E+04  0.21999833790E+04  0.94260434536E+02 0.  0.
         11    1    3    3    0    0 -0.65294943480E+02  0.37842510161E+03  0.33466771065E+03  0.50938341525E+03  0.00000000000E+00 0. -1.
        -11    1    3    3    0    0 -0.12781529623E+03  0.13552962450E+04  0.10024787159E+04  0.16905999638E+04  0.00000000000E+00 0.  1.
         22    1    1    2    0    0  0.19311023971E+03 -0.17337213466E+04 -0.13067976096E+04  0.21796332868E+04  0.00000000000E+00 0. -1.
<mgrwt>
<rscale>  0 0.43795115E+04</rscale>
<asrwt>0</asrwt>
<pdfrwt beam="1">  1        2 0.33922811E+00 0.43795115E+04</pdfrwt>
<pdfrwt beam="2">  1       -2 0.33455906E+00 0.43795115E+04</pdfrwt>
<totfact> 0.76328117E-02</totfact>
</mgrwt>
</event>
<event>
 6    1  0.1719556E-004  0.1077137E+04  0.7818608E-02  0.9227767E-01
          2   -1    0    0  501    0  0.00000000000E+00  0.00000000000E+00  0.42286761636E+03  0.42286761636E+03  0.00000000000E+00 0.  1.
         -2   -1    0    0    0  501 -0.00000000000E+00 -0.00000000000E+00 -0.68592629476E+03  0.68592629476E+03  0.00000000000E+00 0. -1.
         23    2    1    2    0    0  0.30255277320E+03 -0.28777850096E+03  0.21072705500E+03  0.47726594867E+03  0.94985513957E+02 0.  0.
         13    1    3    3    0    0  0.26149549964E+03 -0.19670938019E+03  0.17568081645E+03  0.37140035791E+03  0.00000000000E+00 0.  1.
        -13    1    3    3    0    0  0.41057273562E+02 -0.91069120768E+02  0.35046238549E+02  0.10586559076E+03  0.00000000000E+00 0. -1.
         22    1    1    2    0    0 -0.30255277320E+03  0.28777850096E+03 -0.47378573340E+03  0.63152796245E+03  0.00000000000E+00 0.  1.
<mgrwt>
<rscale>  0 0.10771370E+04</rscale>
<asrwt>0</asrwt>
<pdfrwt beam="1">  1        2 0.65056556E-01 0.10771370E+04</pdfrwt>
<pdfrwt beam="2">  1       -2 0.10552712E+00 0.10771370E+04</pdfrwt>
<totfact> 0.53916474E+01</totfact>
</mgrwt>
</event>
<event>
 6    1  0.1719556E-004  0.2015557E+04  0.7818608E-02  0.8599381E-01
          1   -1    0    0  501    0  0.00000000000E+00  0.00000000000E+00  0.23399008365E+04  0.23399008365E+04  0.00000000000E+00 0.  1.
         -1   -1    0    0    0  501 -0.00000000000E+00 -0.00000000000E+00 -0.43404312187E+03  0.43404312187E+03  0.00000000000E+00 0. -1.
         23    2    1    2    0    0 -0.48380550318E+03  0.41183535855E+03  0.20276338927E+04  0.21270238977E+04  0.96204630579E+02 0.  0.
         13    1    3    3    0    0 -0.32746590287E+03  0.21723147858E+03  0.12439547237E+04  0.13045484995E+04  0.00000000000E+00 0. -1.
        -13    1    3    3    0    0 -0.15633960031E+03  0.19460387997E+03  0.78367916900E+03  0.82247539820E+03  0.00000000000E+00 0.  1.
         22    1    1    2    0    0  0.48380550318E+03 -0.41183535855E+03 -0.12177617804E+03  0.64692006075E+03  0.00000000000E+00 0. -1.
<mgrwt>
<rscale>  0 0.20155574E+04</rscale>
<asrwt>0</asrwt>
<pdfrwt beam="1">  1        1 0.35998474E+00 0.20155574E+04</pdfrwt>
<pdfrwt beam="2">  1       -1 0.66775866E-01 0.20155574E+04</pdfrwt>
<totfact> 0.36789272E+00</totfact>
</mgrwt>
</event>
<event>
 6    1  0.1719556E-004  0.1564366E+04  0.7818608E-02  0.8842743E-01
         -2   -1    0    0    0  501 -0.00000000000E+00  0.00000000000E+00  0.31718870381E+03  0.31718870381E+03  0.00000000000E+00 0. -1.
          2   -1    0    0  501    0  0.00000000000E+00 -0.00000000000E+00 -0.19288534188E+04  0.19288534188E+04  0.00000000000E+00 0.  1.
         23    2    1    2    0    0 -0.73252031711E+03 -0.24225688096E+03 -0.64848373626E+03  0.10119464986E+04  0.90720166176E+02 0.  0.
         13    1    3    3    0    0 -0.51275696990E+02 -0.26570337341E+02 -0.80837995304E+02  0.99347679454E+02  0.00000000000E+00 0. -1.
        -13    1    3    3    0    0 -0.68124462012E+03 -0.21568654362E+03 -0.56764574095E+03  0.91259881918E+03  0.00000000000E+00 0.  1.
         22    1    1    2    0    0  0.73252031711E+03  0.24225688096E+03 -0.96318097875E+03  0.12340956240E+04  0.00000000000E+00 0. -1.
<mgrwt>
<rscale>  0 0.15643663E+04</rscale>
<asrwt>0</asrwt>
<pdfrwt beam="1">  1        2 0.29674668E+00 0.15643663E+04</pdfrwt>
<pdfrwt beam="2">  1       -2 0.48798262E-01 0.15643663E+04</pdfrwt>
<totfact> 0.27986652E+01</totfact>
</mgrwt>
</event>
<event>
 6    1  0.1719556E-004  0.4308873E+04  0.7818608E-02  0.7944979E-01
         -1   -1    0    0    0  501 -0.00000000000E+00  0.00000000000E+00  0.19847231036E+04  0.19847231036E+04  0.00000000000E+00 0. -1.
          1   -1    0    0  501    0  0.00000000000E+00 -0.00000000000E+00 -0.23386617493E+04  0.23386617493E+04  0.00000000000E+00 0.  1.
         23    2    1    2    0    0 -0.15153486153E+04  0.11405343919E+04  0.84642381122E+03  0.20788425493E+04  0.89738239378E+02 0.  0.
         13    1    3    3    0    0 -0.95720895105E+03  0.72422595559E+03  0.48818041532E+03  0.12957902333E+04  0.00000000000E+00 0. -1.
        -13    1    3    3    0    0 -0.55813966422E+03  0.41630843629E+03  0.35824339589E+03  0.78305231601E+03  0.00000000000E+00 0.  1.
         22    1    1    2    0    0  0.15153486153E+04 -0.11405343919E+04 -0.12003624569E+04  0.22445423036E+04  0.00000000000E+00 0.  1.
<mgrwt>
<rscale>  0 0.43088727E+04</rscale>
<asrwt>0</asrwt>
<pdfrwt beam="1">  1        1 0.35979412E+00 0.43088727E+04</pdfrwt>
<pdfrwt beam="2">  1       -1 0.30534202E+00 0.43088727E+04</pdfrwt>
<totfact> 0.40744464E-02</totfact>
</mgrwt>
</event>
<event>
 6    1  0.1719556E-004  0.1727046E+04  0.7818608E-02  0.8746088E-01
          2   -1    0    0  501    0  0.00000000000E+00  0.00000000000E+00  0.13478163750E+04  0.13478163750E+04  0.00000000000E+00 0.  1.
         -2   -1    0    0    0  501 -0.00000000000E+00 -0.00000000000E+00 -0.55324455058E+03  0.55324455058E+03  0.00000000000E+00 0. -1.
         23    2    1    2    0    0  0.75555384465E+03 -0.33977312991E+03  0.14091677468E+03  0.84580156599E+03  0.95996664944E+02 0.  0.
         13    1    3    3    0    0  0.19318180390E+03 -0.11275898026E+03  0.22801492167E+01  0.22369397862E+03  0.00000000000E+00 0. -1.
        -13    1    3    3    0    0  0.56237204075E+03 -0.22701414964E+03  0.13863662546E+03  0.62210758738E+03  0.00000000000E+00 0.  1.
         22    1    1    2    0    0 -0.75555384465E+03  0.33977312991E+03  0.65365504975E+03  0.10552593596E+04  0.00000000000E+00 0.  1.
<mgrwt>
<rscale>  0 0.17270461E+04</rscale>
<asrwt>0</asrwt>
<pdfrwt beam="1">  1        2 0.20735636E+00 0.17270461E+04</pdfrwt>
<pdfrwt beam="2">  1       -2 0.85114547E-01 0.17270461E+04</pdfrwt>
<totfact> 0.17688570E+01</totfact>
</mgrwt>
</event>
<event>
 6    1  0.1719556E-004  0.2700198E+04  0.7818608E-02  0.8334941E-01
         -1   -1    0    0    0  501 -0.00000000000E+00  0.00000000000E+00  0.15305725052E+04  0.15305725052E+04  0.00000000000E+00 0. -1.
          1   -1    0    0  501    0  0.00000000000E+00 -0.00000000000E+00 -0.11909057567E+04  0.11909057567E+04  0.00000000000E+00 0.  1.
         23    2    1    2    0    0  0.46872448328E+03 -0.15648123268E+03  0.14346327659E+04  0.15201708088E+04  0.92515390950E+02 0.  0.
         13    1    3    3    0    0  0.96929681654E+02 -0.34182647311E+02  0.42694448928E+03  0.43914167816E+03  0.00000000000E+00 0.  1.
        -13    1    3    3    0    0  0.37179480163E+03 -0.12229858537E+03  0.10076882766E+04  0.10810291307E+04  0.00000000000E+00 0. -1.
         22    1    1    2    0    0 -0.46872448328E+03  0.15648123268E+03 -0.10949660175E+04  0.12013074531E+04  0.00000000000E+00 0.  1.
<mgrwt>
<rscale>  0 0.27001982E+04</rscale>
<asrwt>0</asrwt>
<pdfrwt beam="1">  1        1 0.18321627E+00 0.27001982E+04</pdfrwt>
<pdfrwt beam="2">  1       -1 0.23547269E+00 0.27001982E+04</pdfrwt>
<totfact> 0.82272386E-01</totfact>
</mgrwt>
</event>
<event>
 6    1  0.1719556E-004  0.3077019E+04  0.7818608E-02  0.8222073E-01
          2   -1    0    0  501    0  0.00000000000E+00  0.00000000000E+00  0.29778967755E+04  0.29778967755E+04  0.00000000000E+00 0.  1.
         -2   -1    0    0    0  501 -0.00000000000E+00 -0.00000000000E+00 -0.79486003132E+03  0.79486003132E+03  0.00000000000E+00 0. -1.
         23    2    1    2    0    0  0.13901666769E+04  0.28557842885E+03  0.18165799892E+04  0.23070116101E+04  0.90671291825E+02 0.  0.
         13    1    3    3    0    0  0.94255801850E+03  0.21053098339E+03  0.12978316386E+04  0.16177471605E+04  0.00000000000E+00 0. -1.
        -13    1    3    3    0    0  0.44760865841E+03  0.75047445466E+02  0.51874835064E+03  0.68926444958E+03  0.00000000000E+00 0.  1.
         22    1    1    2    0    0 -0.13901666769E+04 -0.28557842885E+03  0.36645675499E+03  0.14657451968E+04  0.00000000000E+00 0. -1.
<mgrwt>
<rscale>  0 0.30770188E+04</rscale>
<asrwt>0</asrwt>
<pdfrwt beam="1">  1        2 0.45813796E+00 0.30770188E+04</pdfrwt>
<pdfrwt beam="2">  1       -2 0.12228616E+00 0.30770188E+04</pdfrwt>
<totfact> 0.77409669E-01</totfact>
</mgrwt>
</event>
<event>
 6    1  0.1719556E-004  0.4577902E+04  0.7818608E-02  0.7897139E-01
         -2   -1    0    0    0  501 -0.00000000000E+00  0.00000000000E+00  0.18438257606E+04  0.18438257606E+04  0.00000000000E+00 0. -1.
          2   -1    0    0  501    0  0.00000000000E+00 -0.00000000000E+00 -0.28415354222E+04  0.28415354222E+04  0.00000000000E+00 0.  1.
         23    2    1    2    0    0 -0.19543654352E+04 -0.11758932993E+04 -0.31306455055E+03  0.23039733030E+04  0.89522415705E+02 0.  0.
         13    1    3    3    0    0 -0.74015775493E+03 -0.40072895203E+03 -0.13577513542E+03  0.85255620494E+03  0.00000000000E+00 0. -1.
        -13    1    3    3    0    0 -0.12142076802E+04 -0.77516434723E+03 -0.17728941513E+03  0.14514170981E+04  0.00000000000E+00 0.  1.
         22    1    1    2    0    0  0.19543654352E+04  0.11758932993E+04 -0.68464511106E+03  0.23813878797E+04  0.00000000000E+00 0.  1.
<mgrwt>
<rscale>  0 0.45779018E+04</rscale>
<asrwt>0</asrwt>
<pdfrwt beam="1">  1        2 0.43715930E+00 0.45779018E+04</pdfrwt>
<pdfrwt beam="2">  1       -2 0.28366550E+00 0.45779018E+04</pdfrwt>
<totfact> 0.65694995E-02</totfact>
</mgrwt>
</event>
<event>
 6    1  0.1719556E-004  0.2283924E+04  0.7818608E-02  0.8484287E-01
          2   -1    0    0  501    0  0.00000000000E+00  0.00000000000E+00  0.15450638323E+04  0.15450638323E+04  0.00000000000E+00 0. -1.
         -2   -1    0    0    0  501 -0.00000000000E+00 -0.00000000000E+00 -0.84402825954E+03  0.84402825954E+03  0.00000000000E+00 0.  1.
         23    2    1    2    0    0 -0.38236530704E+03 -0.63841835106E+03 -0.55245101168E+03  0.93135074429E+03  0.91819766915E+02 0.  0.
         11    1    3    3    0    0 -0.21632860965E+03 -0.44405744997E+03 -0.37502899381E+03  0.62018693346E+03  0.00000000000E+00 0. -1.
        -11    1    3    3    0    0 -0.16603669739E+03 -0.19436090108E+03 -0.17742201786E+03  0.31116381084E+03  0.00000000000E+00 0.  1.
         22    1    1    2    0    0  0.38236530704E+03  0.63841835106E+03  0.12534865844E+04  0.14577413475E+04  0.00000000000E+00 0. -1.
<mgrwt>
<rscale>  0 0.22839243E+04</rscale>
<asrwt>0</asrwt>
<pdfrwt beam="1">  1        2 0.23770213E+00 0.22839243E+04</pdfrwt>
<pdfrwt beam="2">  1       -2 0.12985050E+00 0.22839243E+04</pdfrwt>
<totfact> 0.47348272E+00</totfact>
</mgrwt>
</event>
<event>
 6    1  0.1719556E-004  0.4792477E+04  0.7818608E-02  0.7861342E-01
         -2   -1    0    0    0  501 -0.00000000000E+00  0.00000000000E+00  0.25567331535E+04  0.25567331535E+04  0.00000000000E+00 0. -1.
          2   -1    0    0  501    0  0.00000000000E+00 -0.00000000000E+00 -0.22458189457E+04  0.22458189457E+04  0.00000000000E+00 0.  1.
         23    2    1    2    0    0 -0.17863243669E+04  0.13759120707E+04  0.96572539747E+03  0.24546026824E+04  0.91433117581E+02 0.  0.
         13    1    3    3    0    0 -0.25058166133E+03  0.17039068607E+03  0.15790825496E+03  0.34170041247E+03  0.00000000000E+00 0. -1.
        -13    1    3    3    0    0 -0.15357427055E+04  0.12055213847E+04  0.80781714251E+03  0.21129022699E+04  0.00000000000E+00 0.  1.
         22    1    1    2    0    0  0.17863243669E+04 -0.13759120707E+04 -0.65481118958E+03  0.23479494168E+04  0.00000000000E+00 0. -1.
<mgrwt>
<rscale>  0 0.47924773E+04</rscale>
<asrwt>0</asrwt>
<pdfrwt beam="1">  1        2 0.34551061E+00 0.47924773E+04</pdfrwt>
<pdfrwt beam="2">  1       -2 0.39334356E+00 0.47924773E+04</pdfrwt>
<totfact> 0.29552774E-02</totfact>
</mgrwt>
</event>
<event>
 6    1  0.1719556E-004  0.3236684E+04  0.7818608E-02  0.8179196E-01
         -2   -1    0    0    0  501 -0.00000000000E+00  0.00000000000E+00  0.13162807909E+04  0.13162807909E+04  0.00000000000E+00 0. -1.
          2   -1    0    0  501    0  0.00000000000E+00 -0.00000000000E+00 -0.19897203316E+04  0.19897203316E+04  0.00000000000E+00 0.  1.
         23    2    1    2    0    0  0.13775967500E+04  0.60583128525E+03 -0.94125533984E+03  0.17774300074E+04  0.92149142986E+02 0.  0.
         13    1    3    3    0    0  0.69918448079E+03  0.26654974146E+03 -0.49903467928E+03  0.89941276062E+03  0.00000000000E+00 0. -1.
        -13    1    3    3    0    0  0.67841226919E+03  0.33928154379E+03 -0.44222066056E+03  0.87801724674E+03  0.00000000000E+00 0.  1.
         22    1    1    2    0    0 -0.13775967500E+04 -0.60583128525E+03  0.26781579923E+03  0.15285711151E+04  0.00000000000E+00 0. -1.
<mgrwt>
<rscale>  0 0.32366839E+04</rscale>
<asrwt>0</asrwt>
<pdfrwt beam="1">  1        2 0.30611082E+00 0.32366839E+04</pdfrwt>
<pdfrwt beam="2">  1       -2 0.20250474E+00 0.32366839E+04</pdfrwt>
<totfact> 0.72791010E-01</totfact>
</mgrwt>
</event>
<event>
 6    1  0.1719556E-004  0.2381541E+04  0.7818608E-02  0.8446447E-01
          2   -1    0    0  501    0  0.00000000000E+00  0.00000000000E+00  0.98754104843E+03  0.98754104843E+03  0.00000000000E+00 0.  1.
         -2   -1    0    0    0  501 -0.00000000000E+00 -0.00000000000E+00 -0.14358227390E+04  0.14358227390E+04  0.00000000000E+00 0. -1.
         23    2    1    2    0    0 -0.78719002073E+02  0.11409244456E+04 -0.55565747495E+03  0.12746972427E+04  0.90512757069E+02 0.  0.
         13    1    3    3    0    0 -0.44966793622E+02  0.24855837237E+03 -0.15101027234E+03  0.29429131716E+03  0.00000000000E+00 0.  1.
        -13    1    3    3    0    0 -0.33752208451E+02  0.89236607327E+03 -0.40464720261E+03  0.98040592556E+03  0.00000000000E+00 0. -1.
         22    1    1    2    0    0  0.78719002073E+02 -0.11409244456E+04  0.10737578436E+03  0.11486665447E+04  0.00000000000E+00 0.  1.
<mgrwt>
<rscale>  0 0.23815406E+04</rscale>
<asrwt>0</asrwt>
<pdfrwt beam="1">  1        2 0.15192939E+00 0.23815406E+04</pdfrwt>
<pdfrwt beam="2">  1       -2 0.22089581E+00 0.23815406E+04</pdfrwt>
<totfact> 0.22538052E+00</totfact>
</mgrwt>
</event>
<event>
 6    1  0.1719556E-004  0.3205697E+04  0.7818608E-02  0.8187314E-01
         -2   -1    0    0    0  501 -0.00000000000E+00  0.00000000000E+00  0.14139893534E+04  0.14139893534E+04  0.00000000000E+00 0. -1.
          2   -1    0    0  501    0  0.00000000000E+00 -0.00000000000E+00 -0.18169323771E+04  0.18169323771E+04  0.00000000000E+00 0.  1.
         23    2    1    2    0    0  0.84209141211E+03  0.13036649465E+04 -0.60008947724E+03  0.16664643283E+04  0.91300261692E+02 0.  0.
         11    1    3    3    0    0  0.34424191741E+03  0.61528305573E+03 -0.28107628843E+03  0.75899908847E+03  0.00000000000E+00 0.  1.
        -11    1    3    3    0    0  0.49784949470E+03  0.68838189078E+03 -0.31901318880E+03  0.90746523986E+03  0.00000000000E+00 0. -1.
         22    1    1    2    0    0 -0.84209141211E+03 -0.13036649465E+04  0.19714645347E+03  0.15644574022E+04  0.00000000000E+00 0. -1.
<mgrwt>
<rscale>  0 0.32056968E+04</rscale>
<asrwt>0</asrwt>
<pdfrwt beam="1">  1        2 0.27952806E+00 0.32056968E+04</pdfrwt>
<pdfrwt beam="2">  1       -2 0.21753682E+00 0.32056968E+04</pdfrwt>
<totfact> 0.72826009E-01</totfact>
</mgrwt>
</event>
<event>
 6    1  0.1719556E-004  0.2521840E+04  0.7818608E-02  0.8395246E-01
         -2   -1    0    0    0  501 -0.00000000000E+00  0.00000000000E+00  0.15870344107E+04  0.15870344107E+04  0.00000000000E+00 0. -1.
          2   -1    0    0  501    0  0.00000000000E+00 -0.00000000000E+00 -0.10018177098E+04  0.10018177098E+04  0.00000000000E+00 0.  1.
         23    2    1    2    0    0  0.32513464702E+03 -0.87170671051E+03 -0.57819572843E+03  0.10991831610E+04  0.91149291134E+02 0.  0.
         11    1    3    3    0    0  0.26966175612E+03 -0.65757402974E+03 -0.47688110418E+03  0.85588355214E+03  0.00000000000E+00 0. -1.
        -11    1    3    3    0    0  0.55472890902E+02 -0.21413268077E+03 -0.10131462426E+03  0.24329960889E+03  0.00000000000E+00 0.  1.
         22    1    1    2    0    0 -0.32513464702E+03  0.87170671051E+03  0.11634124294E+04  0.14896689594E+04  0.00000000000E+00 0. -1.
<mgrwt>
<rscale>  0 0.25218399E+04</rscale>
<asrwt>0</asrwt>
<pdfrwt beam="1">  1        2 0.15412580E+00 0.25218399E+04</pdfrwt>
<pdfrwt beam="2">  1       -2 0.24415914E+00 0.25218399E+04</pdfrwt>
<totfact> 0.15611979E+00</totfact>
</mgrwt>
</event>
<event>
 6    1  0.1719556E-004  0.2501453E+04  0.7818608E-02  0.8402468E-01
          2   -1    0    0  501    0  0.00000000000E+00  0.00000000000E+00  0.34311526595E+04  0.34311526595E+04  0.00000000000E+00 0.  1.
         -2   -1    0    0    0  501 -0.00000000000E+00 -0.00000000000E+00 -0.45591575998E+03  0.45591575998E+03  0.00000000000E+00 0. -1.
         23    2    1    2    0    0  0.45296115173E+03  0.80553051320E+03  0.18390303524E+03  0.94672865092E+03  0.91769272823E+02 0.  0.
         13    1    3    3    0    0  0.18935884488E+03  0.34779172994E+03  0.32954688641E+02  0.39736868404E+03  0.00000000000E+00 0.  1.
        -13    1    3    3    0    0  0.26360230685E+03  0.45773878325E+03  0.15094834660E+03  0.54935996688E+03  0.00000000000E+00 0. -1.
         22    1    1    2    0    0 -0.45296115173E+03 -0.80553051320E+03  0.27913338643E+04  0.29403397686E+04  0.00000000000E+00 0.  1.
<mgrwt>
<rscale>  0 0.25014528E+04</rscale>
<asrwt>0</asrwt>
<pdfrwt beam="1">  1        2 0.52786962E+00 0.25014528E+04</pdfrwt>
<pdfrwt beam="2">  1       -2 0.70140888E-01 0.25014528E+04</pdfrwt>
<totfact> 0.14996076E+00</totfact>
</mgrwt>
</event>
<event>
 6    1  0.1719556E-004  0.1854869E+04  0.7818608E-02  0.8677653E-01
          2   -1    0    0  501    0  0.00000000000E+00  0.00000000000E+00  0.22570974174E+04  0.22570974174E+04  0.00000000000E+00 0.  1.
         -2   -1    0    0    0  501 -0.00000000000E+00 -0.00000000000E+00 -0.38107985055E+03  0.38107985055E+03  0.00000000000E+00 0. -1.
         23    2    1    2    0    0  0.34156897735E+03  0.25242011877E+03 -0.22874379938E+03  0.49099174001E+03  0.91454252802E+02 0.  0.
         11    1    3    3    0    0  0.24220520646E+03  0.22313137321E+03 -0.15592057324E+03  0.36436547162E+03  0.00000000000E+00 0.  1.
        -11    1    3    3    0    0  0.99363770892E+02  0.29288745561E+02 -0.72823226135E+02  0.12662626839E+03  0.00000000000E+00 0. -1.
         22    1    1    2    0    0 -0.34156897735E+03 -0.25242011877E+03  0.21047613662E+04  0.21471855279E+04  0.00000000000E+00 0.  1.
<mgrwt>
<rscale>  0 0.18548686E+04</rscale>
<asrwt>0</asrwt>
<pdfrwt beam="1">  1        2 0.34724575E+00 0.18548686E+04</pdfrwt>
<pdfrwt beam="2">  1       -2 0.58627671E-01 0.18548686E+04</pdfrwt>
<totfact> 0.12260299E+01</totfact>
</mgrwt>
</event>
<event>
 6    1  0.1719556E-004  0.2834495E+04  0.7818608E-02  0.8292639E-01
         -2   -1    0    0    0  501 -0.00000000000E+00  0.00000000000E+00  0.67425090598E+03  0.67425090598E+03  0.00000000000E+00 0. -1.
          2   -1    0    0  501    0  0.00000000000E+00 -0.00000000000E+00 -0.29789946158E+04  0.29789946158E+04  0.00000000000E+00 0.  1.
         23    2    1    2    0    0  0.10192459493E+04  0.21224344142E+03  0.83025610153E+02  0.10483747171E+04  0.91031379370E+02 0.  0.
         13    1    3    3    0    0  0.51194123907E+03  0.15269855064E+03  0.48315914651E+02  0.53640945857E+03  0.00000000000E+00 0.  1.
        -13    1    3    3    0    0  0.50730471020E+03  0.59544890782E+02  0.34709695501E+02  0.51196525856E+03  0.00000000000E+00 0. -1.
         22    1    1    2    0    0 -0.10192459493E+04 -0.21224344142E+03 -0.23877693200E+04  0.26048708046E+04  0.00000000000E+00 0. -1.
<mgrwt>
<rscale>  0 0.28344945E+04</rscale>
<asrwt>0</asrwt>
<pdfrwt beam="1">  1        2 0.45830687E+00 0.28344945E+04</pdfrwt>
<pdfrwt beam="2">  1       -2 0.10373091E+00 0.28344945E+04</pdfrwt>
<totfact> 0.11780787E+00</totfact>
</mgrwt>
</event>
<event>
 6    1  0.1719556E-004  0.2822108E+04  0.7818608E-02  0.8296437E-01
          1   -1    0    0  501    0  0.00000000000E+00  0.00000000000E+00  0.15302108058E+04  0.15302108058E+04  0.00000000000E+00 0.  1.
         -1   -1    0    0    0  501 -0.00000000000E+00 -0.00000000000E+00 -0.13011759295E+04  0.13011759295E+04  0.00000000000E+00 0. -1.
         23    2    1    2    0    0 -0.11405449504E+04 -0.71361643140E+03  0.53659702657E+03  0.14512832350E+04  0.90528803872E+02 0.  0.
         13    1    3    3    0    0 -0.51972504389E+03 -0.33775570427E+03  0.20008077908E+03  0.65132584408E+03  0.00000000000E+00 0. -1.
        -13    1    3    3    0    0 -0.62081990651E+03 -0.37586072713E+03  0.33651624749E+03  0.79995739095E+03  0.00000000000E+00 0.  1.
         22    1    1    2    0    0  0.11405449504E+04  0.71361643140E+03 -0.30756215033E+03  0.13801035002E+04  0.00000000000E+00 0. -1.
<mgrwt>
<rscale>  0 0.28221081E+04</rscale>
<asrwt>0</asrwt>
<pdfrwt beam="1">  1        1 0.23541705E+00 0.28221081E+04</pdfrwt>
<pdfrwt beam="2">  1       -1 0.20018091E+00 0.28221081E+04</pdfrwt>
<totfact> 0.80842388E-01</totfact>
</mgrwt>
</event>
<event>
 6    1  0.1719556E-004  0.5451125E+04  0.7818608E-02  0.7762450E-01
          2   -1    0    0  501    0  0.00000000000E+00  0.00000000000E+00  0.34749118709E+04  0.34749118709E+04  0.00000000000E+00 0.  1.
         -2   -1    0    0    0  501 -0.00000000000E+00 -0.00000000000E+00 -0.21378069274E+04  0.21378069274E+04  0.00000000000E+00 0. -1.
         23    2    1    2    0    0  0.12219475147E+04  0.24006257329E+04  0.10911003884E+04  0.29077829618E+04  0.92423248644E+02 0.  0.
         11    1    3    3    0    0  0.43890683089E+03  0.82847599537E+03  0.42442910904E+03  0.10291509849E+04  0.00000000000E+00 0. -1.
        -11    1    3    3    0    0  0.78304068384E+03  0.15721497376E+04  0.66667127937E+03  0.18786319769E+04  0.00000000000E+00 0.  1.
         22    1    1    2    0    0 -0.12219475147E+04 -0.24006257329E+04  0.24600455507E+03  0.27049358365E+04  0.00000000000E+00 0.  1.
<mgrwt>
<rscale>  0 0.54511249E+04</rscale>
<asrwt>0</asrwt>
<pdfrwt beam="1">  1        2 0.53460183E+00 0.54511249E+04</pdfrwt>
<pdfrwt beam="2">  1       -2 0.32889337E+00 0.54511249E+04</pdfrwt>
<totfact> 0.12516818E-02</totfact>
</mgrwt>
</event>
<event>
 6    1  0.1719556E-004  0.4348950E+04  0.7818608E-02  0.7937628E-01
         -2   -1    0    0    0  501 -0.00000000000E+00  0.00000000000E+00  0.12787853102E+04  0.12787853102E+04  0.00000000000E+00 0. -1.
          2   -1    0    0  501    0  0.00000000000E+00 -0.00000000000E+00 -0.36975255908E+04  0.36975255908E+04  0.00000000000E+00 0.  1.
         23    2    1    2    0    0  0.38628880229E+03 -0.20191836464E+04 -0.40171486281E+03  0.20962565313E+04  0.81209464627E+02 0.  0.
         11    1    3    3    0    0  0.99815256423E+02 -0.36722084456E+03 -0.86840699838E+02  0.39032747949E+03  0.00000000000E+00 0. -1.
        -11    1    3    3    0    0  0.28647354587E+03 -0.16519628019E+04 -0.31487416297E+03  0.17059290518E+04  0.00000000000E+00 0.  1.
         22    1    1    2    0    0 -0.38628880229E+03  0.20191836464E+04 -0.20170254177E+04  0.28800543697E+04  0.00000000000E+00 0.  1.
<mgrwt>
<rscale>  0 0.43489499E+04</rscale>
<asrwt>0</asrwt>
<pdfrwt beam="1">  1        2 0.56885010E+00 0.43489499E+04</pdfrwt>
<pdfrwt beam="2">  1       -2 0.19673620E+00 0.43489499E+04</pdfrwt>
<totfact> 0.62669543E-02</totfact>
</mgrwt>
</event>
<event>
 6    1  0.1719556E-004  0.1220881E+04  0.7818608E-02  0.9094774E-01
         -2   -1    0    0    0  501 -0.00000000000E+00  0.00000000000E+00  0.22813128707E+03  0.22813128707E+03  0.00000000000E+00 0. -1.
          2   -1    0    0  501    0  0.00000000000E+00 -0.00000000000E+00 -0.16334340229E+04  0.16334340229E+04  0.00000000000E+00 0.  1.
         23    2    1    2    0    0  0.19499178642E+03  0.54044675068E+03 -0.40739121375E+03  0.71007414935E+03  0.90184308179E+02 0.  0.
         13    1    3    3    0    0  0.16832103801E+03  0.34046868971E+03 -0.26946273424E+03  0.46568343932E+03  0.00000000000E+00 0.  1.
        -13    1    3    3    0    0  0.26670748408E+02  0.19997806097E+03 -0.13792847951E+03  0.24439071003E+03  0.00000000000E+00 0. -1.
         22    1    1    2    0    0 -0.19499178642E+03 -0.54044675068E+03 -0.99791152204E+03  0.11514911606E+04  0.00000000000E+00 0.  1.
<mgrwt>
<rscale>  0 0.12208807E+04</rscale>
<asrwt>0</asrwt>
<pdfrwt beam="1">  1        2 0.25129754E+00 0.12208807E+04</pdfrwt>
<pdfrwt beam="2">  1       -2 0.35097121E-01 0.12208807E+04</pdfrwt>
<totfact> 0.80184150E+01</totfact>
</mgrwt>
</event>
<event>
 6    1  0.2321705E-004  0.3686543E+04  0.7818608E-02  0.8070951E-01
         -2   -1    0    0    0  501 -0.00000000000E+00  0.00000000000E+00  0.17114939181E+04  0.17114939181E+04  0.00000000000E+00 0.  1.
          2   -1    0    0  501    0  0.00000000000E+00 -0.00000000000E+00 -0.19851950930E+04  0.19851950930E+04  0.00000000000E+00 0. -1.
         23    2    1    2    0    0 -0.77494699373E+03  0.32974735258E+03  0.15059073155E+04  0.17278613043E+04  0.92041753800E+02 0.  0.
         13    1    3    3    0    0 -0.26918781959E+03  0.16274177410E+03  0.56523215153E+03  0.64686501867E+03  0.00000000000E+00 0.  1.
        -13    1    3    3    0    0 -0.50575917414E+03  0.16700557848E+03  0.94067516399E+03  0.10809962857E+04  0.00000000000E+00 0. -1.
         22    1    1    2    0    0  0.77494699373E+03 -0.32974735258E+03 -0.17796084904E+04  0.19688277067E+04  0.00000000000E+00 0. -1.
<mgrwt>
<rscale>  0 0.36865427E+04</rscale>
<asrwt>0</asrwt>
<pdfrwt beam="1">  1        2 0.30541463E+00 0.36865427E+04</pdfrwt>
<pdfrwt beam="2">  1       -2 0.26330676E+00 0.36865427E+04</pdfrwt>
<totfact> 0.29347915E-01</totfact>
</mgrwt>
</event>
<event>
 6    1  0.1719556E-004  0.3761264E+04  0.7818608E-02  0.8054519E-01
          2   -1    0    0  501    0  0.00000000000E+00  0.00000000000E+00  0.27954203896E+04  0.27954203896E+04  0.00000000000E+00 0.  1.
         -2   -1    0    0    0  501 -0.00000000000E+00 -0.00000000000E+00 -0.12652036407E+04  0.12652036407E+04  0.00000000000E+00 0. -1.
         23    2    1    2    0    0  0.55902611687E+03  0.76593410685E+03 -0.98645021782E+03  0.13712415963E+04  0.89745349042E+02 0.  0.
         13    1    3    3    0    0  0.21204032189E+03  0.25398434071E+03 -0.39799267401E+03  0.51755899374E+03  0.00000000000E+00 0. -1.
        -13    1    3    3    0    0  0.34698579498E+03  0.51194976614E+03 -0.58845754381E+03  0.85368260252E+03  0.00000000000E+00 0.  1.
         22    1    1    2    0    0 -0.55902611687E+03 -0.76593410685E+03  0.25166669667E+04  0.26893824340E+04  0.00000000000E+00 0.  1.
<mgrwt>
<rscale>  0 0.37612636E+04</rscale>
<asrwt>0</asrwt>
<pdfrwt beam="1">  1        2 0.43006467E+00 0.37612636E+04</pdfrwt>
<pdfrwt beam="2">  1       -2 0.19464672E+00 0.37612636E+04</pdfrwt>
<totfact> 0.27002122E-01</totfact>
</mgrwt>
</event>
<event>
 6    1  0.1719556E-004  0.2013105E+04  0.7818608E-02  0.8600518E-01
         -1   -1    0    0    0  501 -0.00000000000E+00  0.00000000000E+00  0.13479357805E+04  0.13479357805E+04  0.00000000000E+00 0.  1.
          1   -1    0    0  501    0  0.00000000000E+00 -0.00000000000E+00 -0.75162948590E+03  0.75162948590E+03  0.00000000000E+00 0. -1.
         23    2    1    2    0    0 -0.69342690757E+03  0.16179474441E+03  0.10376551175E+04  0.12618259281E+04  0.91968007890E+02 0.  0.
         13    1    3    3    0    0 -0.17940372799E+03  0.26309487191E+02  0.33281236667E+03  0.37900126404E+03  0.00000000000E+00 0.  1.
        -13    1    3    3    0    0 -0.51402317957E+03  0.13548525722E+03  0.70484275080E+03  0.88282466403E+03  0.00000000000E+00 0. -1.
         22    1    1    2    0    0  0.69342690757E+03 -0.16179474441E+03 -0.44134882291E+03  0.83773933830E+03  0.00000000000E+00 0. -1.
<mgrwt>
<rscale>  0 0.20131053E+04</rscale>
<asrwt>0</asrwt>
<pdfrwt beam="1">  1        1 0.11563531E+00 0.20131053E+04</pdfrwt>
<pdfrwt beam="2">  1       -1 0.20737474E+00 0.20131053E+04</pdfrwt>
<totfact> 0.30294152E+00</totfact>
</mgrwt>
</event>
<event>
 6    1  0.1719556E-004  0.1778481E+04  0.7818608E-02  0.8717828E-01
         -2   -1    0    0    0  501 -0.00000000000E+00  0.00000000000E+00  0.43175829686E+03  0.43175829686E+03  0.00000000000E+00 0. -1.
          2   -1    0    0  501    0  0.00000000000E+00 -0.00000000000E+00 -0.18314608806E+04  0.18314608806E+04  0.00000000000E+00 0.  1.
         23    2    1    2    0    0 -0.77941233528E+03  0.39557052931E+03 -0.89504336563E+03  0.12539419319E+04  0.85487484808E+02 0.  0.
         11    1    3    3    0    0 -0.38949558204E+03  0.17470529778E+03 -0.38319208042E+03  0.57364180461E+03  0.00000000000E+00 0.  1.
        -11    1    3    3    0    0 -0.38991675324E+03  0.22086523153E+03 -0.51185128521E+03  0.68030012725E+03  0.00000000000E+00 0. -1.
         22    1    1    2    0    0  0.77941233528E+03 -0.39557052931E+03 -0.50465921810E+03  0.10092772456E+04  0.00000000000E+00 0. -1.
<mgrwt>
<rscale>  0 0.17784807E+04</rscale>
<asrwt>0</asrwt>
<pdfrwt beam="1">  1        2 0.28176321E+00 0.17784807E+04</pdfrwt>
<pdfrwt beam="2">  1       -2 0.66424353E-01 0.17784807E+04</pdfrwt>
<totfact> 0.16329154E+01</totfact>
</mgrwt>
</event>
<event>
 6    1  0.1719556E-004  0.2932092E+04  0.7818608E-02  0.8263393E-01
         -1   -1    0    0    0  501 -0.00000000000E+00  0.00000000000E+00  0.10977330356E+04  0.10977330356E+04  0.00000000000E+00 0. -1.
          1   -1    0    0  501    0  0.00000000000E+00 -0.00000000000E+00 -0.19579352640E+04  0.19579352640E+04  0.00000000000E+00 0.  1.
         23    2    1    2    0    0 -0.79877728975E+03 -0.10116809025E+04 -0.11554569228E+04  0.17332770029E+04  0.87321596849E+02 0.  0.
         13    1    3    3    0    0 -0.43675008491E+03 -0.60874544919E+03 -0.70519149396E+03  0.10288910058E+04  0.00000000000E+00 0. -1.
        -13    1    3    3    0    0 -0.36202720484E+03 -0.40293545329E+03 -0.45026542885E+03  0.70438599715E+03  0.00000000000E+00 0.  1.
         22    1    1    2    0    0  0.79877728975E+03  0.10116809025E+04  0.29525469436E+03  0.13223912967E+04  0.00000000000E+00 0. -1.
<mgrwt>
<rscale>  0 0.29320916E+04</rscale>
<asrwt>0</asrwt>
<pdfrwt beam="1">  1        1 0.30122081E+00 0.29320916E+04</pdfrwt>
<pdfrwt beam="2">  1       -1 0.16888201E+00 0.29320916E+04</pdfrwt>
<totfact> 0.68316369E-01</totfact>
</mgrwt>
</event>
<event>
 6    1  0.1719556E-004  0.1596253E+04  0.7818608E-02  0.8822853E-01
         -2   -1    0    0    0  501 -0.00000000000E+00  0.00000000000E+00  0.20364416181E+03  0.20364416181E+03  0.00000000000E+00 0. -1.
          2   -1    0    0  501    0  0.00000000000E+00 -0.00000000000E+00 -0.31280352695E+04  0.31280352695E+04  0.00000000000E+00 0.  1.
         23    2    1    2    0    0  0.66122547253E+03 -0.10632947865E+03 -0.57082109822E+03  0.88467782261E+03  0.91066130297E+02 0.  0.
         11    1    3    3    0    0  0.54064550164E+02  0.12231564981E+02 -0.66180140105E+02  0.86327270955E+02  0.00000000000E+00 0.  1.
        -11    1    3    3    0    0  0.60716092236E+03 -0.11856104363E+03 -0.50464095812E+03  0.79835055165E+03  0.00000000000E+00 0. -1.
         22    1    1    2    0    0 -0.66122547253E+03  0.10632947865E+03 -0.23535700095E+04  0.24470016087E+04  0.00000000000E+00 0.  1.
<mgrwt>
<rscale>  0 0.15962533E+04</rscale>
<asrwt>0</asrwt>
<pdfrwt beam="1">  1        2 0.48123621E+00 0.15962533E+04</pdfrwt>
<pdfrwt beam="2">  1       -2 0.31329870E-01 0.15962533E+04</pdfrwt>
<totfact> 0.13188748E+01</totfact>
</mgrwt>
</event>
<event>
 6    1  0.1719556E-004  0.1788030E+04  0.7818608E-02  0.8712691E-01
         -2   -1    0    0    0  501 -0.00000000000E+00  0.00000000000E+00  0.25850375582E+03  0.25850375582E+03  0.00000000000E+00 0. -1.
          2   -1    0    0  501    0  0.00000000000E+00 -0.00000000000E+00 -0.30918802931E+04  0.30918802931E+04  0.00000000000E+00 0.  1.
         23    2    1    2    0    0  0.28175314715E+02  0.63425838855E+03 -0.24722020402E+03  0.68743791130E+03  0.91517762313E+02 0.  0.
         11    1    3    3    0    0  0.30310665686E+02  0.26848236706E+03 -0.14966169622E+03  0.30886913280E+03  0.00000000000E+00 0. -1.
        -11    1    3    3    0    0 -0.21353509714E+01  0.36577602149E+03 -0.97558507799E+02  0.37856877851E+03  0.00000000000E+00 0.  1.
         22    1    1    2    0    0 -0.28175314715E+02 -0.63425838855E+03 -0.25861563332E+04  0.26629461376E+04  0.00000000000E+00 0.  1.
<mgrwt>
<rscale>  0 0.17880298E+04</rscale>
<asrwt>0</asrwt>
<pdfrwt beam="1">  1        2 0.47567388E+00 0.17880298E+04</pdfrwt>
<pdfrwt beam="2">  1       -2 0.39769810E-01 0.17880298E+04</pdfrwt>
<totfact> 0.86484180E+00</totfact>
</mgrwt>
</event>
<event>
 6    1  0.1719556E-004  0.3165822E+04  0.7818608E-02  0.8197902E-01
         -2   -1    0    0    0  501 -0.00000000000E+00  0.00000000000E+00  0.84790057293E+03  0.84790057293E+03  0.00000000000E+00 0. -1.
          2   -1    0    0  501    0  0.00000000000E+00 -0.00000000000E+00 -0.29550726170E+04  0.29550726170E+04  0.00000000000E+00 0.  1.
         23    2    1    2    0    0  0.26873815481E+03  0.90931841824E+03 -0.25750756665E+04  0.27456113874E+04  0.91033076305E+02 0.  0.
         13    1    3    3    0    0  0.16419318436E+03  0.60789058031E+03 -0.18221325365E+04  0.19278634132E+04  0.00000000000E+00 0.  1.
        -13    1    3    3    0    0  0.10454497045E+03  0.30142783793E+03 -0.75294312996E+03  0.81774797419E+03  0.00000000000E+00 0. -1.
         22    1    1    2    0    0 -0.26873815481E+03 -0.90931841824E+03  0.46790362240E+03  0.10573618025E+04  0.00000000000E+00 0. -1.
<mgrwt>
<rscale>  0 0.31658223E+04</rscale>
<asrwt>0</asrwt>
<pdfrwt beam="1">  1        2 0.45462656E+00 0.31658223E+04</pdfrwt>
<pdfrwt beam="2">  1       -2 0.13044624E+00 0.31658223E+04</pdfrwt>
<totfact> 0.67484449E-01</totfact>
</mgrwt>
</event>
<event>
 6    1  0.1719556E-004  0.2075320E+04  0.7818608E-02  0.8572194E-01
         -2   -1    0    0    0  501 -0.00000000000E+00  0.00000000000E+00  0.56482400737E+03  0.56482400737E+03  0.00000000000E+00 0. -1.
          2   -1    0    0  501    0  0.00000000000E+00 -0.00000000000E+00 -0.19063243908E+04  0.19063243908E+04  0.00000000000E+00 0.  1.
         23    2    1    2    0    0  0.53861430856E+03 -0.21029862721E+03  0.35081902838E+03  0.68277598795E+03  0.93691904978E+02 0.  0.
         11    1    3    3    0    0  0.25778645222E+03 -0.13021442614E+03  0.21862721838E+03  0.36222577536E+03  0.00000000000E+00 0. -1.
        -11    1    3    3    0    0  0.28082785634E+03 -0.80084201062E+02  0.13219181001E+03  0.32055021259E+03  0.00000000000E+00 0.  1.
         22    1    1    2    0    0 -0.53861430856E+03  0.21029862721E+03 -0.16923194118E+04  0.17883724102E+04  0.00000000000E+00 0.  1.
<mgrwt>
<rscale>  0 0.20753195E+04</rscale>
<asrwt>0</asrwt>
<pdfrwt beam="1">  1        2 0.29328067E+00 0.20753195E+04</pdfrwt>
<pdfrwt beam="2">  1       -2 0.86896004E-01 0.20753195E+04</pdfrwt>
<totfact> 0.79679606E+00</totfact>
</mgrwt>
</event>
<event>
 6    1  0.1719556E-004  0.2247299E+04  0.7818608E-02  0.8498995E-01
         -2   -1    0    0    0  501 -0.00000000000E+00  0.00000000000E+00  0.12084907983E+04  0.12084907983E+04  0.00000000000E+00 0. -1.
          2   -1    0    0  501    0  0.00000000000E+00 -0.00000000000E+00 -0.10447645137E+04  0.10447645137E+04  0.00000000000E+00 0.  1.
         23    2    1    2    0    0  0.97065344964E+03 -0.14126908541E+03 -0.46380366462E+03  0.10888160002E+04  0.91002028555E+02 0.  0.
         11    1    3    3    0    0  0.41428026196E+03 -0.69535312757E+02 -0.24760526314E+03  0.48761835641E+03  0.00000000000E+00 0.  1.
        -11    1    3    3    0    0  0.55637318768E+03 -0.71733772655E+02 -0.21619840148E+03  0.60119764380E+03  0.00000000000E+00 0. -1.
         22    1    1    2    0    0 -0.97065344964E+03  0.14126908541E+03  0.62752994919E+03  0.11644393118E+04  0.00000000000E+00 0. -1.
<mgrwt>
<rscale>  0 0.22472991E+04</rscale>
<asrwt>0</asrwt>
<pdfrwt beam="1">  1        2 0.16073300E+00 0.22472991E+04</pdfrwt>
<pdfrwt beam="2">  1       -2 0.18592166E+00 0.22472991E+04</pdfrwt>
<totfact> 0.35462523E+00</totfact>
</mgrwt>
</event>
<event>
 6    1  0.1719556E-004  0.9008809E+03  0.7818608E-02  0.9424481E-01
          2   -1    0    0  501    0  0.00000000000E+00  0.00000000000E+00  0.12402155116E+04  0.12402155116E+04  0.00000000000E+00 0.  1.
         -2   -1    0    0    0  501 -0.00000000000E+00 -0.00000000000E+00 -0.16359785993E+03  0.16359785993E+03  0.00000000000E+00 0. -1.
         23    2    1    2    0    0 -0.96773409891E+02 -0.25129450678E+03 -0.98499023959E+01  0.28447170428E+03  0.91176246677E+02 0.  0.
         13    1    3    3    0    0 -0.11459621495E+03 -0.20956935114E+03 -0.10654985697E+02  0.23909231300E+03  0.00000000000E+00 0.  1.
        -13    1    3    3    0    0  0.17822805057E+02 -0.41725155641E+02  0.80508330120E+00  0.45379391275E+02  0.00000000000E+00 0. -1.
         22    1    1    2    0    0  0.96773409891E+02  0.25129450678E+03  0.10864675540E+04  0.11193416672E+04  0.00000000000E+00 0.  1.
<mgrwt>
<rscale>  0 0.90088091E+03</rscale>
<asrwt>0</asrwt>
<pdfrwt beam="1">  1        2 0.19080238E+00 0.90088091E+03</pdfrwt>
<pdfrwt beam="2">  1       -2 0.25168902E-01 0.90088091E+03</pdfrwt>
<totfact> 0.25431485E+02</totfact>
</mgrwt>
</event>
<event>
 6    1  0.1719556E-004  0.2703722E+04  0.7818608E-02  0.8333798E-01
         -2   -1    0    0    0  501 -0.00000000000E+00  0.00000000000E+00  0.12196303520E+04  0.12196303520E+04  0.00000000000E+00 0. -1.
          2   -1    0    0  501    0  0.00000000000E+00 -0.00000000000E+00 -0.14984273724E+04  0.14984273724E+04  0.00000000000E+00 0.  1.
         23    2    1    2    0    0  0.20372274558E+03  0.31052158187E+03  0.11656999513E+04  0.12265825785E+04  0.87873975615E+02 0.  0.
         11    1    3    3    0    0  0.17880232155E+03  0.24032143720E+03  0.10180962444E+04  0.10612467320E+04  0.00000000000E+00 0. -1.
        -11    1    3    3    0    0  0.24920424026E+02  0.70200144671E+02  0.14760370690E+03  0.16533584649E+03  0.00000000000E+00 0.  1.
         22    1    1    2    0    0 -0.20372274558E+03 -0.31052158187E+03 -0.14444969716E+04  0.14914751459E+04  0.00000000000E+00 0.  1.
<mgrwt>
<rscale>  0 0.27037215E+04</rscale>
<asrwt>0</asrwt>
<pdfrwt beam="1">  1        2 0.23052729E+00 0.27037215E+04</pdfrwt>
<pdfrwt beam="2">  1       -2 0.18763544E+00 0.27037215E+04</pdfrwt>
<totfact> 0.17939860E+00</totfact>
</mgrwt>
</event>
<event>
 6    1  0.1719556E-004  0.1997217E+04  0.7818608E-02  0.8607923E-01
          2   -1    0    0  501    0  0.00000000000E+00  0.00000000000E+00  0.15495051266E+04  0.15495051266E+04  0.00000000000E+00 0.  1.
         -2   -1    0    0    0  501 -0.00000000000E+00 -0.00000000000E+00 -0.64357223566E+03  0.64357223566E+03  0.00000000000E+00 0. -1.
         23    2    1    2    0    0 -0.35279588002E+03 -0.61159649950E+03 -0.31859556101E+03  0.77957633971E+03  0.87868804344E+02 0.  0.
         11    1    3    3    0    0 -0.20643895150E+03 -0.28608063667E+03 -0.18616626588E+03  0.39889478553E+03  0.00000000000E+00 0.  1.
        -11    1    3    3    0    0 -0.14635692852E+03 -0.32551586283E+03 -0.13242929513E+03  0.38068155418E+03  0.00000000000E+00 0. -1.
         22    1    1    2    0    0  0.35279588002E+03  0.61159649950E+03  0.12245284520E+04  0.14135010226E+04  0.00000000000E+00 0.  1.
<mgrwt>
<rscale>  0 0.19972165E+04</rscale>
<asrwt>0</asrwt>
<pdfrwt beam="1">  1        2 0.23838540E+00 0.19972165E+04</pdfrwt>
<pdfrwt beam="2">  1       -2 0.99011113E-01 0.19972165E+04</pdfrwt>
<totfact> 0.93553945E+00</totfact>
</mgrwt>
</event>
<event>
 6    1  0.1719556E-004  0.1901280E+04  0.7818608E-02  0.8654219E-01
         -2   -1    0    0    0  501 -0.00000000000E+00  0.00000000000E+00  0.54379548532E+03  0.54379548532E+03  0.00000000000E+00 0. -1.
          2   -1    0    0  501    0  0.00000000000E+00 -0.00000000000E+00 -0.16618682687E+04  0.16618682687E+04  0.00000000000E+00 0.  1.
         23    2    1    2    0    0  0.45567746035E+03  0.17161157439E+03  0.38302654201E+03  0.62756627129E+03  0.10018788673E+03 0.  0.
         11    1    3    3    0    0  0.16087248168E+03  0.22882530809E+02  0.16684047592E+03  0.23289334465E+03  0.00000000000E+00 0. -1.
        -11    1    3    3    0    0  0.29480497867E+03  0.14872904358E+03  0.21618606609E+03  0.39467292664E+03  0.00000000000E+00 0.  1.
         22    1    1    2    0    0 -0.45567746035E+03 -0.17161157439E+03 -0.15010993254E+04  0.15780974828E+04  0.00000000000E+00 0.  1.
<mgrwt>
<rscale>  0 0.19012801E+04</rscale>
<asrwt>0</asrwt>
<pdfrwt beam="1">  1        2 0.25567204E+00 0.19012801E+04</pdfrwt>
<pdfrwt beam="2">  1       -2 0.83660844E-01 0.19012801E+04</pdfrwt>
<totfact> 0.12047687E+01</totfact>
</mgrwt>
</event>
<event>
 6    1  0.1719556E-004  0.1515330E+04  0.7818608E-02  0.8874322E-01
         -2   -1    0    0    0  501 -0.00000000000E+00  0.00000000000E+00  0.64272724767E+03  0.64272724767E+03  0.00000000000E+00 0. -1.
          2   -1    0    0  501    0  0.00000000000E+00 -0.00000000000E+00 -0.89315706272E+03  0.89315706272E+03  0.00000000000E+00 0.  1.
         23    2    1    2    0    0 -0.41614387446E+03 -0.62812865327E+03 -0.17729280184E+03  0.77887020747E+03  0.86514352462E+02 0.  0.
         13    1    3    3    0    0 -0.21049064398E+03 -0.33352165813E+03 -0.13618433537E+03  0.41723995595E+03  0.00000000000E+00 0. -1.
        -13    1    3    3    0    0 -0.20565323047E+03 -0.29460699514E+03 -0.41108466474E+02  0.36163025151E+03  0.00000000000E+00 0.  1.
         22    1    1    2    0    0  0.41614387446E+03  0.62812865327E+03 -0.73137013210E+02  0.75701410291E+03  0.00000000000E+00 0.  1.
<mgrwt>
<rscale>  0 0.15153302E+04</rscale>
<asrwt>0</asrwt>
<pdfrwt beam="1">  1        2 0.13740878E+00 0.15153302E+04</pdfrwt>
<pdfrwt beam="2">  1       -2 0.98881115E-01 0.15153302E+04</pdfrwt>
<totfact> 0.24268370E+01</totfact>
</mgrwt>
</event>
<event>
 6    1  0.1719556E-004  0.1099475E+04  0.7818608E-02  0.9205704E-01
          3   -1    0    0  501    0  0.00000000000E+00  0.00000000000E+00  0.10253939759E+04  0.10253939759E+04  0.00000000000E+00 0.  1.
         -3   -1    0    0    0  501 -0.00000000000E+00 -0.00000000000E+00 -0.29472681757E+03  0.29472681757E+03  0.00000000000E+00 0. -1.
         23    2    1    2    0    0  0.51583595897E+03 -0.17708339736E+03  0.38385471112E+03  0.67380497303E+03  0.96038722618E+02 0.  0.
         13    1    3    3    0    0  0.37948856915E+03 -0.11798498198E+03  0.32717731372E+03  0.51475919098E+03  0.00000000000E+00 0. -1.
        -13    1    3    3    0    0  0.13634738982E+03 -0.59098415375E+02  0.56677397406E+02  0.15904578205E+03  0.00000000000E+00 0.  1.
         22    1    1    2    0    0 -0.51583595897E+03  0.17708339736E+03  0.34681244716E+03  0.64631582039E+03  0.00000000000E+00 0. -1.
<mgrwt>
<rscale>  0 0.10994746E+04</rscale>
<asrwt>0</asrwt>
<pdfrwt beam="1">  1        3 0.15775292E+00 0.10994746E+04</pdfrwt>
<pdfrwt beam="2">  1       -3 0.45342588E-01 0.10994746E+04</pdfrwt>
<totfact> 0.35740441E+00</totfact>
</mgrwt>
</event>
<event>
 6    1  0.1719556E-004  0.1790929E+04  0.7818608E-02  0.8711138E-01
         -2   -1    0    0    0  501 -0.00000000000E+00  0.00000000000E+00  0.73506867317E+03  0.73506867317E+03  0.00000000000E+00 0. -1.
          2   -1    0    0  501    0  0.00000000000E+00 -0.00000000000E+00 -0.10908590338E+04  0.10908590338E+04  0.00000000000E+00 0.  1.
         23    2    1    2    0    0 -0.40712304583E+02  0.43369552414E+03  0.61666558461E+03  0.76036688522E+03  0.90177921323E+02 0.  0.
         11    1    3    3    0    0 -0.55214488126E+02  0.25252793963E+03  0.41468105447E+03  0.48865056731E+03  0.00000000000E+00 0.  1.
        -11    1    3    3    0    0  0.14502183543E+02  0.18116758451E+03  0.20198453014E+03  0.27171631792E+03  0.00000000000E+00 0. -1.
         22    1    1    2    0    0  0.40712304583E+02 -0.43369552414E+03 -0.97245594524E+03  0.10655608217E+04  0.00000000000E+00 0.  1.
<mgrwt>
<rscale>  0 0.17909286E+04</rscale>
<asrwt>0</asrwt>
<pdfrwt beam="1">  1        2 0.16782447E+00 0.17909286E+04</pdfrwt>
<pdfrwt beam="2">  1       -2 0.11308749E+00 0.17909286E+04</pdfrwt>
<totfact> 0.12811030E+01</totfact>
</mgrwt>
</event>
<event>
 6    1  0.1719556E-004  0.2513815E+04  0.7818608E-02  0.8398080E-01
          2   -1    0    0  501    0  0.00000000000E+00  0.00000000000E+00  0.35369260528E+04  0.35369260528E+04  0.00000000000E+00 0.  1.
         -2   -1    0    0    0  501 -0.00000000000E+00 -0.00000000000E+00 -0.44666383585E+03  0.44666383585E+03  0.00000000000E+00 0. -1.
         23    2    1    2    0    0  0.43529314735E+02 -0.93517829668E+03  0.28723229847E+04  0.30223663159E+04  0.89473858683E+02 0.  0.
         13    1    3    3    0    0 -0.73300609073E+01 -0.98026993331E+02  0.22980406136E+03  0.24994584980E+03  0.00000000000E+00 0. -1.
        -13    1    3    3    0    0  0.50859375642E+02 -0.83715130335E+03  0.26425189233E+04  0.27724204661E+04  0.00000000000E+00 0.  1.
         22    1    1    2    0    0 -0.43529314735E+02  0.93517829668E+03  0.21793923226E+03  0.96122357273E+03  0.00000000000E+00 0. -1.
<mgrwt>
<rscale>  0 0.25138154E+04</rscale>
<asrwt>0</asrwt>
<pdfrwt beam="1">  1        2 0.54414245E+00 0.25138154E+04</pdfrwt>
<pdfrwt beam="2">  1       -2 0.68717516E-01 0.25138154E+04</pdfrwt>
<totfact> 0.13220946E+00</totfact>
</mgrwt>
</event>
<event>
 6    1  0.1719556E-004  0.5838123E+03  0.7818608E-02  0.9939571E-01
          2   -1    0    0  501    0  0.00000000000E+00  0.00000000000E+00  0.10736497799E+04  0.10736497799E+04  0.00000000000E+00 0.  1.
         -2   -1    0    0    0  501 -0.00000000000E+00 -0.00000000000E+00 -0.79364043157E+02  0.79364043157E+02  0.00000000000E+00 0. -1.
         23    2    1    2    0    0  0.15984154331E+03 -0.12358455808E+03  0.90519542993E+03  0.93219818792E+03  0.93766909041E+02 0.  0.
         13    1    3    3    0    0  0.28819102491E+02  0.93628396225E+01  0.21828187290E+03  0.22037508814E+03  0.00000000000E+00 0.  1.
        -13    1    3    3    0    0  0.13102244082E+03 -0.13294739770E+03  0.68691355702E+03  0.71182309978E+03  0.00000000000E+00 0. -1.
         22    1    1    2    0    0 -0.15984154331E+03  0.12358455808E+03  0.89090306855E+02  0.22081563518E+03  0.00000000000E+00 0. -1.
<mgrwt>
<rscale>  0 0.58381226E+03</rscale>
<asrwt>0</asrwt>
<pdfrwt beam="1">  1        2 0.16517688E+00 0.58381226E+03</pdfrwt>
<pdfrwt beam="2">  1       -2 0.12209854E-01 0.58381226E+03</pdfrwt>
<totfact> 0.11291982E+03</totfact>
</mgrwt>
</event>
<event>
 6    1  0.1719556E-004  0.2906879E+04  0.7818608E-02  0.8270834E-01
         -2   -1    0    0    0  501 -0.00000000000E+00  0.00000000000E+00  0.28192661832E+04  0.28192661832E+04  0.00000000000E+00 0. -1.
          2   -1    0    0  501    0  0.00000000000E+00 -0.00000000000E+00 -0.74930386265E+03  0.74930386265E+03  0.00000000000E+00 0.  1.
         23    2    1    2    0    0  0.11310645623E+04 -0.61281878229E+03  0.18628228444E+04  0.22655885929E+04  0.89043915167E+02 0.  0.
         13    1    3    3    0    0  0.44138781118E+03 -0.27899936869E+03  0.80120901700E+03  0.95634707952E+03  0.00000000000E+00 0.  1.
        -13    1    3    3    0    0  0.68967675113E+03 -0.33381941360E+03  0.10616138274E+04  0.13092415134E+04  0.00000000000E+00 0. -1.
         22    1    1    2    0    0 -0.11310645623E+04  0.61281878229E+03  0.20713947616E+03  0.13029814529E+04  0.00000000000E+00 0.  1.
<mgrwt>
<rscale>  0 0.29068795E+04</rscale>
<asrwt>0</asrwt>
<pdfrwt beam="1">  1        2 0.11527752E+00 0.29068795E+04</pdfrwt>
<pdfrwt beam="2">  1       -2 0.43373325E+00 0.29068795E+04</pdfrwt>
<totfact> 0.14388686E-01</totfact>
</mgrwt>
</event>
<event>
 6    1  0.1719556E-004  0.2027971E+04  0.7818608E-02  0.8593654E-01
         -2   -1    0    0    0  501 -0.00000000000E+00  0.00000000000E+00  0.68822478708E+03  0.68822478708E+03  0.00000000000E+00 0. -1.
          2   -1    0    0  501    0  0.00000000000E+00 -0.00000000000E+00 -0.14939407437E+04  0.14939407437E+04  0.00000000000E+00 0.  1.
         23    2    1    2    0    0 -0.95757197011E+03  0.25584656440E+03 -0.62332613699E+03  0.11743621825E+04  0.90495967832E+02 0.  0.
         11    1    3    3    0    0 -0.69596877393E+03  0.18808534380E+03 -0.40467264220E+03  0.82674577602E+03  0.00000000000E+00 0. -1.
        -11    1    3    3    0    0 -0.26160319619E+03  0.67761220607E+02 -0.21865349479E+03  0.34761640649E+03  0.00000000000E+00 0.  1.
         22    1    1    2    0    0  0.95757197011E+03 -0.25584656440E+03 -0.18238981962E+03  0.10078033483E+04  0.00000000000E+00 0. -1.
<mgrwt>
<rscale>  0 0.20279714E+04</rscale>
<asrwt>0</asrwt>
<pdfrwt beam="1">  1        2 0.22983703E+00 0.20279714E+04</pdfrwt>
<pdfrwt beam="2">  1       -2 0.10588074E+00 0.20279714E+04</pdfrwt>
<totfact> 0.85457497E+00</totfact>
</mgrwt>
</event>
<event>
 6    1  0.1719556E-004  0.1491025E+04  0.7818608E-02  0.8890443E-01
         -2   -1    0    0    0  501 -0.00000000000E+00  0.00000000000E+00  0.19218088283E+03  0.19218088283E+03  0.00000000000E+00 0. -1.
          2   -1    0    0  501    0  0.00000000000E+00 -0.00000000000E+00 -0.28920111085E+04  0.28920111085E+04  0.00000000000E+00 0.  1.
         23    2    1    2    0    0 -0.71550947111E+03  0.14984755916E+03 -0.16126421206E+04  0.17740828089E+04  0.11111754712E+03 0.  0.
         11    1    3    3    0    0 -0.49013826863E+03  0.64218413190E+02 -0.99427801538E+03  0.11103820508E+04  0.00000000000E+00 0. -1.
        -11    1    3    3    0    0 -0.22537120247E+03  0.85629145970E+02 -0.61836410526E+03  0.66370075804E+03  0.00000000000E+00 0.  1.
         22    1    1    2    0    0  0.71550947111E+03 -0.14984755916E+03 -0.10871881051E+04  0.13101091825E+04  0.00000000000E+00 0. -1.
<mgrwt>
<rscale>  0 0.14910255E+04</rscale>
<asrwt>0</asrwt>
<pdfrwt beam="1">  1        2 0.44492478E+00 0.14910255E+04</pdfrwt>
<pdfrwt beam="2">  1       -2 0.29566290E-01 0.14910255E+04</pdfrwt>
<totfact> 0.20831460E+01</totfact>
</mgrwt>
</event>
<event>
 6    1  0.1719556E-004  0.1748269E+04  0.7818608E-02  0.8734304E-01
         -2   -1    0    0    0  501 -0.00000000000E+00  0.00000000000E+00  0.25540892956E+03  0.25540892956E+03  0.00000000000E+00 0. -1.
          2   -1    0    0  501    0  0.00000000000E+00 -0.00000000000E+00 -0.29917157354E+04  0.29917157354E+04  0.00000000000E+00 0.  1.
         23    2    1    2    0    0 -0.19238356560E+03 -0.75957698984E+03 -0.20804472474E+04  0.22253025669E+04  0.98702203599E+02 0.  0.
         11    1    3    3    0    0 -0.81972887361E+02 -0.21797739879E+03 -0.72506991781E+03  0.76155110555E+03  0.00000000000E+00 0.  1.
        -11    1    3    3    0    0 -0.11041067824E+03 -0.54159959105E+03 -0.13553773296E+04  0.14637514613E+04  0.00000000000E+00 0. -1.
         22    1    1    2    0    0  0.19238356560E+03  0.75957698984E+03 -0.65585955842E+03  0.10218220981E+04  0.00000000000E+00 0. -1.
<mgrwt>
<rscale>  0 0.17482688E+04</rscale>
<asrwt>0</asrwt>
<pdfrwt beam="1">  1        2 0.46026400E+00 0.17482688E+04</pdfrwt>
<pdfrwt beam="2">  1       -2 0.39293678E-01 0.17482688E+04</pdfrwt>
<totfact> 0.10273674E+01</totfact>
</mgrwt>
</event>
<event>
 6    1  0.1719556E-004  0.2972296E+04  0.7818608E-02  0.8251687E-01
         -2   -1    0    0    0  501 -0.00000000000E+00  0.00000000000E+00  0.12501907233E+04  0.12501907233E+04  0.00000000000E+00 0. -1.
          2   -1    0    0  501    0  0.00000000000E+00 -0.00000000000E+00 -0.17666388713E+04  0.17666388713E+04  0.00000000000E+00 0.  1.
         23    2    1    2    0    0 -0.70289438960E+03 -0.40841683487E+03 -0.15195448211E+04  0.17256798087E+04  0.89941675115E+02 0.  0.
         11    1    3    3    0    0 -0.24517096185E+03 -0.18842241359E+03 -0.53756296070E+03  0.62014977481E+03  0.00000000000E+00 0.  1.
        -11    1    3    3    0    0 -0.45772342775E+03 -0.21999442128E+03 -0.98198186043E+03  0.11055300339E+04  0.00000000000E+00 0. -1.
         22    1    1    2    0    0  0.70289438960E+03  0.40841683487E+03  0.10030966731E+04  0.12911497858E+04  0.00000000000E+00 0. -1.
<mgrwt>
<rscale>  0 0.29722958E+04</rscale>
<asrwt>0</asrwt>
<pdfrwt beam="1">  1        2 0.27179060E+00 0.29722958E+04</pdfrwt>
<pdfrwt beam="2">  1       -2 0.19233703E+00 0.29722958E+04</pdfrwt>
<totfact> 0.11552512E+00</totfact>
</mgrwt>
</event>
<event>
 6    1  0.1719556E-004  0.3098181E+04  0.7818608E-02  0.8216237E-01
         -2   -1    0    0    0  501 -0.00000000000E+00  0.00000000000E+00  0.78498377373E+03  0.78498377373E+03  0.00000000000E+00 0. -1.
          2   -1    0    0  501    0  0.00000000000E+00 -0.00000000000E+00 -0.30569829540E+04  0.30569829540E+04  0.00000000000E+00 0.  1.
         23    2    1    2    0    0  0.12399672924E+04  0.73997851290E+03 -0.44621712535E+03  0.15141851233E+04  0.92519074025E+02 0.  0.
         13    1    3    3    0    0  0.56645362261E+03  0.30823865103E+03 -0.15923420740E+03  0.66425620461E+03  0.00000000000E+00 0. -1.
        -13    1    3    3    0    0  0.67351366975E+03  0.43173986186E+03 -0.28698291796E+03  0.84992891871E+03  0.00000000000E+00 0.  1.
         22    1    1    2    0    0 -0.12399672924E+04 -0.73997851290E+03 -0.18257820549E+04  0.23277816044E+04  0.00000000000E+00 0.  1.
<mgrwt>
<rscale>  0 0.30981814E+04</rscale>
<asrwt>0</asrwt>
<pdfrwt beam="1">  1        2 0.47030507E+00 0.30981814E+04</pdfrwt>
<pdfrwt beam="2">  1       -2 0.12076673E+00 0.30981814E+04</pdfrwt>
<totfact> 0.71084463E-01</totfact>
</mgrwt>
</event>
<event>
 6    1  0.1719556E-004  0.2289474E+04  0.7818608E-02  0.8482083E-01
          1   -1    0    0  501    0  0.00000000000E+00  0.00000000000E+00  0.22851517997E+04  0.22851517997E+04  0.00000000000E+00 0.  1.
         -1   -1    0    0    0  501 -0.00000000000E+00 -0.00000000000E+00 -0.57345133752E+03  0.57345133752E+03  0.00000000000E+00 0. -1.
         23    2    1    2    0    0  0.10490066849E+04  0.45362651927E+03  0.86516047994E+03  0.14363436723E+04  0.91588453905E+02 0.  0.
         13    1    3    3    0    0  0.32967792325E+03  0.18368280753E+03  0.31110949672E+03  0.48909715376E+03  0.00000000000E+00 0. -1.
        -13    1    3    3    0    0  0.71932876167E+03  0.26994371174E+03  0.55405098322E+03  0.94724651853E+03  0.00000000000E+00 0.  1.
         22    1    1    2    0    0 -0.10490066849E+04 -0.45362651927E+03  0.84653998222E+03  0.14222594649E+04  0.00000000000E+00 0. -1.
<mgrwt>
<rscale>  0 0.22894745E+04</rscale>
<asrwt>0</asrwt>
<pdfrwt beam="1">  1        1 0.35156181E+00 0.22894745E+04</pdfrwt>
<pdfrwt beam="2">  1       -1 0.88223284E-01 0.22894745E+04</pdfrwt>
<totfact> 0.21752415E+00</totfact>
</mgrwt>
</event>
<event>
 6    1  0.1719556E-004  0.8596078E+03  0.7818608E-02  0.9477532E-01
         -2   -1    0    0    0  501 -0.00000000000E+00  0.00000000000E+00  0.13483514903E+03  0.13483514903E+03  0.00000000000E+00 0. -1.
          2   -1    0    0  501    0  0.00000000000E+00 -0.00000000000E+00 -0.13700535778E+04  0.13700535778E+04  0.00000000000E+00 0.  1.
         23    2    1    2    0    0 -0.20918892934E+03  0.31439579328E+03 -0.28374137879E+03  0.48121236213E+03  0.91931737951E+02 0.  0.
         13    1    3    3    0    0 -0.14266051845E+03  0.14569585306E+03 -0.11830888748E+03  0.23574625762E+03  0.00000000000E+00 0. -1.
        -13    1    3    3    0    0 -0.66528410886E+02  0.16869994022E+03 -0.16543249131E+03  0.24546610452E+03  0.00000000000E+00 0.  1.
         22    1    1    2    0    0  0.20918892934E+03 -0.31439579328E+03 -0.95147704996E+03  0.10236763647E+04  0.00000000000E+00 0.  1.
<mgrwt>
<rscale>  0 0.85960777E+03</rscale>
<asrwt>0</asrwt>
<pdfrwt beam="1">  1        2 0.21077748E+00 0.85960777E+03</pdfrwt>
<pdfrwt beam="2">  1       -2 0.20743869E-01 0.85960777E+03</pdfrwt>
<totfact> 0.30276920E+02</totfact>
</mgrwt>
</event>
<event>
 6    1  0.1719556E-004  0.1566255E+04  0.7818608E-02  0.8841551E-01
          2   -1    0    0  501    0  0.00000000000E+00  0.00000000000E+00  0.14858715645E+04  0.14858715645E+04  0.00000000000E+00 0.  1.
         -2   -1    0    0    0  501 -0.00000000000E+00 -0.00000000000E+00 -0.41274670448E+03  0.41274670448E+03  0.00000000000E+00 0. -1.
         23    2    1    2    0    0  0.50967919746E+03  0.55107205336E+01  0.12548566410E+04  0.13574808626E+04  0.91026646932E+02 0.  0.
         13    1    3    3    0    0  0.12232469985E+03 -0.34013072844E+02  0.35398222341E+03  0.37606334015E+03  0.00000000000E+00 0.  1.
        -13    1    3    3    0    0  0.38735449760E+03  0.39523793377E+02  0.90087441758E+03  0.98141752242E+03  0.00000000000E+00 0. -1.
         22    1    1    2    0    0 -0.50967919746E+03 -0.55107205336E+01 -0.18173178099E+03  0.54113740638E+03  0.00000000000E+00 0. -1.
<mgrwt>
<rscale>  0 0.15662549E+04</rscale>
<asrwt>0</asrwt>
<pdfrwt beam="1">  1        2 0.22859562E+00 0.15662549E+04</pdfrwt>
<pdfrwt beam="2">  1       -2 0.63499494E-01 0.15662549E+04</pdfrwt>
<totfact> 0.28530204E+01</totfact>
</mgrwt>
</event>
<event>
 6    1  0.1719556E-004  0.3242102E+04  0.7818608E-02  0.8177786E-01
         -1   -1    0    0    0  501 -0.00000000000E+00  0.00000000000E+00  0.12620391387E+04  0.12620391387E+04  0.00000000000E+00 0. -1.
          1   -1    0    0  501    0  0.00000000000E+00 -0.00000000000E+00 -0.20821907139E+04  0.20821907139E+04  0.00000000000E+00 0.  1.
         23    2    1    2    0    0  0.98148414001E+03 -0.76443290688E+03  0.65967040932E+03  0.14109575252E+04  0.89259748370E+02 0.  0.
         13    1    3    3    0    0  0.67077005398E+03 -0.51595188147E+03  0.49487002931E+03  0.98032400522E+03  0.00000000000E+00 0. -1.
        -13    1    3    3    0    0  0.31071408603E+03 -0.24848102542E+03  0.16480038001E+03  0.43063351994E+03  0.00000000000E+00 0.  1.
         22    1    1    2    0    0 -0.98148414001E+03  0.76443290688E+03 -0.14798219845E+04  0.19332723275E+04  0.00000000000E+00 0.  1.
<mgrwt>
<rscale>  0 0.32421019E+04</rscale>
<asrwt>0</asrwt>
<pdfrwt beam="1">  1        1 0.32033703E+00 0.32421019E+04</pdfrwt>
<pdfrwt beam="2">  1       -1 0.19415987E+00 0.32421019E+04</pdfrwt>
<totfact> 0.36097525E-01</totfact>
</mgrwt>
</event>
<event>
 6    1  0.1719556E-004  0.2711200E+04  0.7818608E-02  0.8331380E-01
          2   -1    0    0  501    0  0.00000000000E+00  0.00000000000E+00  0.25754723053E+04  0.25754723053E+04  0.00000000000E+00 0.  1.
         -2   -1    0    0    0  501 -0.00000000000E+00 -0.00000000000E+00 -0.71352019571E+03  0.71352019571E+03  0.00000000000E+00 0. -1.
         23    2    1    2    0    0 -0.91711142319E+03  0.90287073183E+03  0.14426655332E+04  0.19354526404E+04  0.91783232200E+02 0.  0.
         11    1    3    3    0    0 -0.40766358861E+03  0.38902194352E+03  0.56501931142E+03  0.79798151376E+03  0.00000000000E+00 0. -1.
        -11    1    3    3    0    0 -0.50944783458E+03  0.51384878831E+03  0.87764622179E+03  0.11374711267E+04  0.00000000000E+00 0.  1.
         22    1    1    2    0    0  0.91711142319E+03 -0.90287073183E+03  0.41928657634E+03  0.13535398605E+04  0.00000000000E+00 0. -1.
<mgrwt>
<rscale>  0 0.27112001E+04</rscale>
<asrwt>0</asrwt>
<pdfrwt beam="1">  1        2 0.39622651E+00 0.27112001E+04</pdfrwt>
<pdfrwt beam="2">  1       -2 0.10977234E+00 0.27112001E+04</pdfrwt>
<totfact> 0.18201806E+00</totfact>
</mgrwt>
</event>
<event>
 6    1  0.1719556E-004  0.2763939E+04  0.7818608E-02  0.8314552E-01
          1   -1    0    0  501    0  0.00000000000E+00  0.00000000000E+00  0.59566785078E+03  0.59566785078E+03  0.00000000000E+00 0.  1.
         -1   -1    0    0    0  501 -0.00000000000E+00 -0.00000000000E+00 -0.32062168583E+04  0.32062168583E+04  0.00000000000E+00 0. -1.
         23    2    1    2    0    0 -0.12178782937E+04  0.30287025469E+03 -0.20978785330E+04  0.24462339631E+04  0.89489294048E+02 0.  0.
         13    1    3    3    0    0 -0.35677972831E+03  0.49667824011E+02 -0.62849459260E+03  0.72440604650E+03  0.00000000000E+00 0. -1.
        -13    1    3    3    0    0 -0.86109856539E+03  0.25320243068E+03 -0.14693839404E+04  0.17218279166E+04  0.00000000000E+00 0.  1.
         22    1    1    2    0    0  0.12178782937E+04 -0.30287025469E+03 -0.51267047448E+03  0.13556507459E+04  0.00000000000E+00 0.  1.
<mgrwt>
<rscale>  0 0.27639394E+04</rscale>
<asrwt>0</asrwt>
<pdfrwt beam="1">  1        1 0.91641208E-01 0.27639394E+04</pdfrwt>
<pdfrwt beam="2">  1       -1 0.49326413E+00 0.27639394E+04</pdfrwt>
<totfact> 0.49399434E-02</totfact>
</mgrwt>
</event>
<event>
 6    1  0.1719556E-004  0.3712435E+04  0.7818608E-02  0.8065212E-01
          2   -1    0    0  501    0  0.00000000000E+00  0.00000000000E+00  0.16925964330E+04  0.16925964330E+04  0.00000000000E+00 0.  1.
         -2   -1    0    0    0  501 -0.00000000000E+00 -0.00000000000E+00 -0.20356556321E+04  0.20356556321E+04  0.00000000000E+00 0. -1.
         23    2    1    2    0    0  0.16979729171E+04  0.63755265093E+03  0.22080528461E+03  0.18289025538E+04  0.80896030244E+02 0.  0.
         13    1    3    3    0    0  0.18001567178E+03  0.43153403866E+02  0.13855621004E+02  0.18563360844E+03  0.00000000000E+00 0.  1.
        -13    1    3    3    0    0  0.15179572453E+04  0.59439924706E+03  0.20694966360E+03  0.16432689454E+04  0.00000000000E+00 0. -1.
         22    1    1    2    0    0 -0.16979729171E+04 -0.63755265093E+03 -0.56386448373E+03  0.18993495113E+04  0.00000000000E+00 0.  1.
<mgrwt>
<rscale>  0 0.37124350E+04</rscale>
<asrwt>0</asrwt>
<pdfrwt beam="1">  1        2 0.26039945E+00 0.37124350E+04</pdfrwt>
<pdfrwt beam="2">  1       -2 0.31317779E+00 0.37124350E+04</pdfrwt>
<totfact> 0.21089501E-01</totfact>
</mgrwt>
</event>
<event>
 6    1  0.1719556E-004  0.3611663E+04  0.7818608E-02  0.8087825E-01
          2   -1    0    0  501    0  0.00000000000E+00  0.00000000000E+00  0.21059900683E+04  0.21059900683E+04  0.00000000000E+00 0.  1.
         -2   -1    0    0    0  501 -0.00000000000E+00 -0.00000000000E+00 -0.15484537484E+04  0.15484537484E+04  0.00000000000E+00 0. -1.
         23    2    1    2    0    0 -0.21126921471E+03 -0.10937249387E+04  0.17156247872E+04  0.20475717557E+04  0.91174348281E+02 0.  0.
         13    1    3    3    0    0 -0.10841925548E+03 -0.77714933113E+03  0.12187477764E+04  0.14495040394E+04  0.00000000000E+00 0. -1.
        -13    1    3    3    0    0 -0.10284995922E+03 -0.31657560752E+03  0.49687701084E+03  0.59806771631E+03  0.00000000000E+00 0.  1.
         22    1    1    2    0    0  0.21126921471E+03  0.10937249387E+04 -0.11580884673E+04  0.16068720610E+04  0.00000000000E+00 0. -1.
<mgrwt>
<rscale>  0 0.36116634E+04</rscale>
<asrwt>0</asrwt>
<pdfrwt beam="1">  1        2 0.32399847E+00 0.36116634E+04</pdfrwt>
<pdfrwt beam="2">  1       -2 0.23822365E+00 0.36116634E+04</pdfrwt>
<totfact> 0.36074476E-01</totfact>
</mgrwt>
</event>
<event>
 6    1  0.1719556E-004  0.5629030E+03  0.7818608E-02  0.9985507E-01
         -2   -1    0    0    0  501 -0.00000000000E+00  0.00000000000E+00  0.27563498357E+03  0.27563498357E+03  0.00000000000E+00 0. -1.
          2   -1    0    0  501    0  0.00000000000E+00 -0.00000000000E+00 -0.28739077696E+03  0.28739077696E+03  0.00000000000E+00 0.  1.
         23    2    1    2    0    0 -0.20530933785E+03  0.18146479436E+03  0.47149890363E+01  0.28852132982E+03  0.90227107021E+02 0.  0.
         13    1    3    3    0    0 -0.63823874233E+02  0.59236777714E+02  0.43856500500E+02  0.97498078915E+02  0.00000000000E+00 0. -1.
        -13    1    3    3    0    0 -0.14148546362E+03  0.12222801665E+03 -0.39141511464E+02  0.19102325091E+03  0.00000000000E+00 0.  1.
         22    1    1    2    0    0  0.20530933785E+03 -0.18146479436E+03 -0.16470782428E+02  0.27450443070E+03  0.00000000000E+00 0. -1.
<mgrwt>
<rscale>  0 0.56290302E+03</rscale>
<asrwt>0</asrwt>
<pdfrwt beam="1">  1        2 0.44213965E-01 0.56290302E+03</pdfrwt>
<pdfrwt beam="2">  1       -2 0.42405382E-01 0.56290302E+03</pdfrwt>
<totfact> 0.61133145E+02</totfact>
</mgrwt>
</event>
<event>
 6    1  0.1719556E-004  0.2727643E+04  0.7818608E-02  0.8326091E-01
         -1   -1    0    0    0  501 -0.00000000000E+00  0.00000000000E+00  0.77376182822E+03  0.77376182822E+03  0.00000000000E+00 0. -1.
          1   -1    0    0  501    0  0.00000000000E+00 -0.00000000000E+00 -0.24038522954E+04  0.24038522954E+04  0.00000000000E+00 0.  1.
         23    2    1    2    0    0  0.50416368828E+03  0.89100806573E+02 -0.22866402496E+04  0.23450412468E+04  0.91514150457E+02 0.  0.
         11    1    3    3    0    0  0.24308766627E+03  0.48373462591E+02 -0.13126734907E+04  0.13358679945E+04  0.00000000000E+00 0. -1.
        -11    1    3    3    0    0  0.26107602201E+03  0.40727343981E+02 -0.97396675886E+03  0.10091732523E+04  0.00000000000E+00 0.  1.
         22    1    1    2    0    0 -0.50416368828E+03 -0.89100806573E+02  0.65654978247E+03  0.83257287679E+03  0.00000000000E+00 0. -1.
<mgrwt>
<rscale>  0 0.27276430E+04</rscale>
<asrwt>0</asrwt>
<pdfrwt beam="1">  1        1 0.36982342E+00 0.27276430E+04</pdfrwt>
<pdfrwt beam="2">  1       -1 0.11904028E+00 0.27276430E+04</pdfrwt>
<totfact> 0.86811935E-01</totfact>
</mgrwt>
</event>
<event>
 6    1  0.1719556E-004  0.2899515E+04  0.7818608E-02  0.8273022E-01
         -2   -1    0    0    0  501 -0.00000000000E+00  0.00000000000E+00  0.23151420160E+04  0.23151420160E+04  0.00000000000E+00 0. -1.
          2   -1    0    0  501    0  0.00000000000E+00 -0.00000000000E+00 -0.90784802929E+03  0.90784802929E+03  0.00000000000E+00 0.  1.
         23    2    1    2    0    0  0.10435079338E+04  0.43563674733E+03  0.17096556635E+04  0.20524727379E+04  0.10504127083E+03 0.  0.
         13    1    3    3    0    0  0.64120272132E+03  0.31014057787E+03  0.10150437655E+04  0.12400169168E+04  0.00000000000E+00 0.  1.
        -13    1    3    3    0    0  0.40230521246E+03  0.12549616946E+03  0.69461189794E+03  0.81245582113E+03  0.00000000000E+00 0. -1.
         22    1    1    2    0    0 -0.10435079338E+04 -0.43563674733E+03 -0.30236167673E+03  0.11705173074E+04  0.00000000000E+00 0.  1.
<mgrwt>
<rscale>  0 0.28995152E+04</rscale>
<asrwt>0</asrwt>
<pdfrwt beam="1">  1        2 0.13966893E+00 0.28995152E+04</pdfrwt>
<pdfrwt beam="2">  1       -2 0.35617569E+00 0.28995152E+04</pdfrwt>
<totfact> 0.35544685E-01</totfact>
</mgrwt>
</event>
<event>
 6    1  0.1719556E-004  0.2561946E+04  0.7818608E-02  0.8381243E-01
          2   -1    0    0  501    0  0.00000000000E+00  0.00000000000E+00  0.23269221614E+04  0.23269221614E+04  0.00000000000E+00 0.  1.
         -2   -1    0    0    0  501 -0.00000000000E+00 -0.00000000000E+00 -0.70517703737E+03  0.70517703737E+03  0.00000000000E+00 0. -1.
         23    2    1    2    0    0 -0.60823831320E+03 -0.11177625027E+04  0.65801727768E+03  0.14358165734E+04  0.96102219724E+02 0.  0.
         13    1    3    3    0    0 -0.33370944612E+03 -0.62873541241E+03  0.31479458179E+03  0.77830960547E+03  0.00000000000E+00 0. -1.
        -13    1    3    3    0    0 -0.27452886709E+03 -0.48902709032E+03  0.34322269589E+03  0.65750696796E+03  0.00000000000E+00 0.  1.
         22    1    1    2    0    0  0.60823831320E+03  0.11177625027E+04  0.96372784638E+03  0.15962826254E+04  0.00000000000E+00 0. -1.
<mgrwt>
<rscale>  0 0.25619462E+04</rscale>
<asrwt>0</asrwt>
<pdfrwt beam="1">  1        2 0.35798802E+00 0.25619462E+04</pdfrwt>
<pdfrwt beam="2">  1       -2 0.10848878E+00 0.25619462E+04</pdfrwt>
<totfact> 0.26380245E+00</totfact>
</mgrwt>
</event>
<event>
 6    1  0.1719556E-004  0.2230124E+04  0.7818608E-02  0.8505993E-01
         -2   -1    0    0    0  501 -0.00000000000E+00  0.00000000000E+00  0.45625423384E+03  0.45625423384E+03  0.00000000000E+00 0. -1.
          2   -1    0    0  501    0  0.00000000000E+00 -0.00000000000E+00 -0.27251542053E+04  0.27251542053E+04  0.00000000000E+00 0.  1.
         23    2    1    2    0    0 -0.91404439741E+03  0.15452004437E+03 -0.20156702233E+04  0.22204303385E+04  0.89614924725E+02 0.  0.
         11    1    3    3    0    0 -0.68252052321E+03  0.15384904521E+03 -0.15323530143E+04  0.16845205709E+04  0.00000000000E+00 0. -1.
        -11    1    3    3    0    0 -0.23152387420E+03  0.67099915459E+00 -0.48331720896E+03  0.53590976763E+03  0.00000000000E+00 0.  1.
         22    1    1    2    0    0  0.91404439741E+03 -0.15452004437E+03 -0.25322974825E+03  0.96097810066E+03  0.00000000000E+00 0. -1.
<mgrwt>
<rscale>  0 0.22301239E+04</rscale>
<asrwt>0</asrwt>
<pdfrwt beam="1">  1        2 0.41925449E+00 0.22301239E+04</pdfrwt>
<pdfrwt beam="2">  1       -2 0.70192959E-01 0.22301239E+04</pdfrwt>
<totfact> 0.43234724E+00</totfact>
</mgrwt>
</event>
<event>
 6    1  0.1719556E-004  0.4048969E+04  0.7818608E-02  0.7994740E-01
         -2   -1    0    0    0  501 -0.00000000000E+00  0.00000000000E+00  0.11319024417E+04  0.11319024417E+04  0.00000000000E+00 0. -1.
          2   -1    0    0  501    0  0.00000000000E+00 -0.00000000000E+00 -0.36209277352E+04  0.36209277352E+04  0.00000000000E+00 0.  1.
         23    2    1    2    0    0  0.77844403009E+03 -0.86588506513E+02  0.94495328195E+03  0.12306601734E+04  0.90083737835E+02 0.  0.
         11    1    3    3    0    0  0.41582992700E+03 -0.61830782275E+01  0.53168068244E+03  0.67500896788E+03  0.00000000000E+00 0.  1.
        -11    1    3    3    0    0  0.36261410309E+03 -0.80405428286E+02  0.41327259951E+03  0.55565120549E+03  0.00000000000E+00 0. -1.
         22    1    1    2    0    0 -0.77844403009E+03  0.86588506513E+02 -0.34339785754E+04  0.35221700035E+04  0.00000000000E+00 0.  1.
<mgrwt>
<rscale>  0 0.40489687E+04</rscale>
<asrwt>0</asrwt>
<pdfrwt beam="1">  1        2 0.55706582E+00 0.40489687E+04</pdfrwt>
<pdfrwt beam="2">  1       -2 0.17413883E+00 0.40489687E+04</pdfrwt>
<totfact> 0.10416269E-01</totfact>
</mgrwt>
</event>
<event>
 6    1  0.1719556E-004  0.9672670E+03  0.7818608E-02  0.9345193E-01
         -2   -1    0    0    0  501 -0.00000000000E+00  0.00000000000E+00  0.34209347044E+03  0.34209347044E+03  0.00000000000E+00 0. -1.
          2   -1    0    0  501    0  0.00000000000E+00 -0.00000000000E+00 -0.68373524226E+03  0.68373524226E+03  0.00000000000E+00 0.  1.
         23    2    1    2    0    0 -0.37813940705E+03 -0.18137187803E+03 -0.41845576268E+03  0.59946553594E+03  0.91479692601E+02 0.  0.
         11    1    3    3    0    0 -0.15402483671E+03 -0.97733362191E+02 -0.12630515129E+03  0.22187485583E+03  0.00000000000E+00 0. -1.
        -11    1    3    3    0    0 -0.22411457034E+03 -0.83638515839E+02 -0.29215061138E+03  0.37759068011E+03  0.00000000000E+00 0.  1.
         22    1    1    2    0    0  0.37813940705E+03  0.18137187803E+03  0.76813990856E+02  0.42636317676E+03  0.00000000000E+00 0. -1.
<mgrwt>
<rscale>  0 0.96726700E+03</rscale>
<asrwt>0</asrwt>
<pdfrwt beam="1">  1        2 0.10519004E+00 0.96726700E+03</pdfrwt>
<pdfrwt beam="2">  1       -2 0.52629765E-01 0.96726700E+03</pdfrwt>
<totfact> 0.14381474E+02</totfact>
</mgrwt>
</event>
<event>
 6    1  0.1719556E-004  0.2930468E+04  0.7818608E-02  0.8263870E-01
          2   -1    0    0  501    0  0.00000000000E+00  0.00000000000E+00  0.12416152179E+04  0.12416152179E+04  0.00000000000E+00 0.  1.
         -2   -1    0    0    0  501 -0.00000000000E+00 -0.00000000000E+00 -0.17291278138E+04  0.17291278138E+04  0.00000000000E+00 0. -1.
         23    2    1    2    0    0 -0.54506688437E+03  0.53678587806E+03 -0.15091365143E+04  0.16944388290E+04  0.91612986624E+02 0.  0.
         11    1    3    3    0    0 -0.35452769542E+03  0.40662132862E+03 -0.10372074450E+04  0.11691150823E+04  0.00000000000E+00 0.  1.
        -11    1    3    3    0    0 -0.19053918895E+03  0.13016454944E+03 -0.47192906929E+03  0.52532374675E+03  0.00000000000E+00 0. -1.
         22    1    1    2    0    0  0.54506688437E+03 -0.53678587806E+03  0.10216239183E+04  0.12763042027E+04  0.00000000000E+00 0.  1.
<mgrwt>
<rscale>  0 0.29304685E+04</rscale>
<asrwt>0</asrwt>
<pdfrwt beam="1">  1        2 0.19101773E+00 0.29304685E+04</pdfrwt>
<pdfrwt beam="2">  1       -2 0.26601966E+00 0.29304685E+04</pdfrwt>
<totfact> 0.78949980E-01</totfact>
</mgrwt>
</event>
<event>
 6    1  0.1719556E-004  0.4218149E+04  0.7818608E-02  0.7961929E-01
          2   -1    0    0  501    0  0.00000000000E+00  0.00000000000E+00  0.38785074352E+04  0.38785074352E+04  0.00000000000E+00 0.  1.
         -2   -1    0    0    0  501 -0.00000000000E+00 -0.00000000000E+00 -0.11468831912E+04  0.11468831912E+04  0.00000000000E+00 0. -1.
         23    2    1    2    0    0 -0.18361730438E+04 -0.95137371808E+03  0.87927174602E+03  0.22490885580E+04  0.92936214725E+02 0.  0.
         11    1    3    3    0    0 -0.45966056983E+03 -0.24804099929E+03  0.26532047505E+03  0.58583882704E+03  0.00000000000E+00 0. -1.
        -11    1    3    3    0    0 -0.13765124740E+04 -0.70333271879E+03  0.61395127097E+03  0.16632497309E+04  0.00000000000E+00 0.  1.
         22    1    1    2    0    0  0.18361730438E+04  0.95137371808E+03  0.18523524980E+04  0.27763020684E+04  0.00000000000E+00 0. -1.
<mgrwt>
<rscale>  0 0.42181489E+04</rscale>
<asrwt>0</asrwt>
<pdfrwt beam="1">  1        2 0.59669345E+00 0.42181489E+04</pdfrwt>
<pdfrwt beam="2">  1       -2 0.17644357E+00 0.42181489E+04</pdfrwt>
<totfact> 0.63365323E-02</totfact>
</mgrwt>
</event>
<event>
 6    1  0.1719556E-004  0.1920883E+04  0.7818608E-02  0.8644531E-01
          1   -1    0    0  501    0  0.00000000000E+00  0.00000000000E+00  0.13191473886E+04  0.13191473886E+04  0.00000000000E+00 0.  1.
         -1   -1    0    0    0  501 -0.00000000000E+00 -0.00000000000E+00 -0.69927592944E+03  0.69927592944E+03  0.00000000000E+00 0. -1.
         23    2    1    2    0    0 -0.62964899394E+03 -0.70644631875E+03  0.46843932701E+03  0.10600622444E+04  0.93660568286E+02 0.  0.
         13    1    3    3    0    0 -0.34341708005E+03 -0.31551004719E+03  0.22307543908E+03  0.51695699267E+03  0.00000000000E+00 0. -1.
        -13    1    3    3    0    0 -0.28623191388E+03 -0.39093627155E+03  0.24536388793E+03  0.54310525172E+03  0.00000000000E+00 0.  1.
         22    1    1    2    0    0  0.62964899394E+03  0.70644631875E+03  0.15143213214E+03  0.95836107365E+03  0.00000000000E+00 0.  1.
<mgrwt>
<rscale>  0 0.19208831E+04</rscale>
<asrwt>0</asrwt>
<pdfrwt beam="1">  1        1 0.20294575E+00 0.19208831E+04</pdfrwt>
<pdfrwt beam="2">  1       -1 0.10758091E+00 0.19208831E+04</pdfrwt>
<totfact> 0.65844754E+00</totfact>
</mgrwt>
</event>
<event>
 6    1  0.1719556E-004  0.1555656E+04  0.7818608E-02  0.8848263E-01
         -4   -1    0    0    0  501 -0.00000000000E+00  0.00000000000E+00  0.94713609045E+03  0.94713609045E+03  0.00000000000E+00 0. -1.
          4   -1    0    0  501    0  0.00000000000E+00 -0.00000000000E+00 -0.63878500235E+03  0.63878500235E+03  0.00000000000E+00 0.  1.
         23    2    1    2    0    0 -0.74259621917E+03  0.21002430973E+03  0.80680079017E+02  0.78131345937E+03  0.91553761439E+02 0.  0.
         13    1    3    3    0    0 -0.90914374628E+02  0.36066122757E+02  0.39739283136E+02  0.10557177345E+03  0.00000000000E+00 0.  1.
        -13    1    3    3    0    0 -0.65168184454E+03  0.17395818697E+03  0.40940795881E+02  0.67574168592E+03  0.00000000000E+00 0. -1.
         22    1    1    2    0    0  0.74259621917E+03 -0.21002430973E+03  0.22767100908E+03  0.80460763344E+03  0.00000000000E+00 0.  1.
<mgrwt>
<rscale>  0 0.15556559E+04</rscale>
<asrwt>0</asrwt>
<pdfrwt beam="1">  1        4 0.98274616E-01 0.15556559E+04</pdfrwt>
<pdfrwt beam="2">  1       -4 0.14571324E+00 0.15556559E+04</pdfrwt>
<totfact> 0.53278209E-01</totfact>
</mgrwt>
</event>
<event>
 6    1  0.1719556E-004  0.1973054E+04  0.7818608E-02  0.8619323E-01
         -2   -1    0    0    0  501 -0.00000000000E+00  0.00000000000E+00  0.86418978188E+03  0.86418978188E+03  0.00000000000E+00 0. -1.
          2   -1    0    0  501    0  0.00000000000E+00 -0.00000000000E+00 -0.11261831040E+04  0.11261831040E+04  0.00000000000E+00 0.  1.
         23    2    1    2    0    0 -0.86590907572E+03 -0.46426008774E+03 -0.52689264902E+02  0.98581121786E+03  0.60923247921E+02 0.  0.
         11    1    3    3    0    0 -0.40557909028E+03 -0.24974154284E+03 -0.36339934382E+02  0.47768800228E+03  0.00000000000E+00 0.  1.
        -11    1    3    3    0    0 -0.46032998543E+03 -0.21451854491E+03 -0.16349330519E+02  0.50812321557E+03  0.00000000000E+00 0. -1.
         22    1    1    2    0    0  0.86590907572E+03  0.46426008774E+03 -0.20930405722E+03  0.10045616680E+04  0.00000000000E+00 0. -1.
<mgrwt>
<rscale>  0 0.19730544E+04</rscale>
<asrwt>0</asrwt>
<pdfrwt beam="1">  1        2 0.17325894E+00 0.19730544E+04</pdfrwt>
<pdfrwt beam="2">  1       -2 0.13295227E+00 0.19730544E+04</pdfrwt>
<totfact> 0.80188004E+00</totfact>
</mgrwt>
</event>
<event>
 6    1  0.1719556E-004  0.1071068E+04  0.7818608E-02  0.9233859E-01
          4   -1    0    0  501    0  0.00000000000E+00  0.00000000000E+00  0.67592813853E+03  0.67592813853E+03  0.00000000000E+00 0.  1.
         -4   -1    0    0    0  501 -0.00000000000E+00 -0.00000000000E+00 -0.42430064193E+03  0.42430064193E+03  0.00000000000E+00 0. -1.
         23    2    1    2    0    0 -0.89795557908E+02 -0.46817712825E+03 -0.11502939956E+03  0.49882180916E+03  0.91314669648E+02 0.  0.
         11    1    3    3    0    0 -0.88600183068E+02 -0.22604792533E+03 -0.68378615487E+02  0.25223657951E+03  0.00000000000E+00 0.  1.
        -11    1    3    3    0    0 -0.11953748394E+01 -0.24212920291E+03 -0.46650784070E+02  0.24658522965E+03  0.00000000000E+00 0. -1.
         22    1    1    2    0    0  0.89795557908E+02  0.46817712825E+03  0.36665689615E+03  0.60140697130E+03  0.00000000000E+00 0.  1.
<mgrwt>
<rscale>  0 0.10710681E+04</rscale>
<asrwt>0</asrwt>
<pdfrwt beam="1">  1        4 0.10398894E+00 0.10710681E+04</pdfrwt>
<pdfrwt beam="2">  1       -4 0.65277022E-01 0.10710681E+04</pdfrwt>
<totfact> 0.32480599E+00</totfact>
</mgrwt>
</event>
<event>
 6    1  0.1719556E-004  0.4670672E+04  0.7818608E-02  0.7881420E-01
         -2   -1    0    0    0  501 -0.00000000000E+00  0.00000000000E+00  0.13350921641E+04  0.13350921641E+04  0.00000000000E+00 0. -1.
          2   -1    0    0  501    0  0.00000000000E+00 -0.00000000000E+00 -0.40849567810E+04  0.40849567810E+04  0.00000000000E+00 0.  1.
         23    2    1    2    0    0  0.80087966771E+03 -0.15736191013E+04  0.39658018982E+03  0.18120300649E+04  0.92150913928E+02 0.  0.
         13    1    3    3    0    0  0.44005845599E+03 -0.96415050122E+03  0.23922350024E+03  0.10864922994E+04  0.00000000000E+00 0. -1.
        -13    1    3    3    0    0  0.36082121172E+03 -0.60946860007E+03  0.15735668958E+03  0.72553776542E+03  0.00000000000E+00 0.  1.
         22    1    1    2    0    0 -0.80087966771E+03  0.15736191013E+04 -0.31464448067E+04  0.36080188802E+04  0.00000000000E+00 0.  1.
<mgrwt>
<rscale>  0 0.46706718E+04</rscale>
<asrwt>0</asrwt>
<pdfrwt beam="1">  1        2 0.62845488E+00 0.46706718E+04</pdfrwt>
<pdfrwt beam="2">  1       -2 0.20539880E+00 0.46706718E+04</pdfrwt>
<totfact> 0.26563791E-02</totfact>
</mgrwt>
</event>
<event>
 6    1  0.1719556E-004  0.3768006E+04  0.7818608E-02  0.8053056E-01
          1   -1    0    0  501    0  0.00000000000E+00  0.00000000000E+00  0.19071600596E+04  0.19071600596E+04  0.00000000000E+00 0. -1.
         -1   -1    0    0    0  501 -0.00000000000E+00 -0.00000000000E+00 -0.18611269270E+04  0.18611269270E+04  0.00000000000E+00 0.  1.
         23    2    1    2    0    0 -0.30090218752E+03 -0.99660556567E+03 -0.15460236381E+04  0.18660752368E+04  0.91010547283E+02 0.  0.
         13    1    3    3    0    0 -0.27921065777E+03 -0.95176490014E+03 -0.14354675657E+04  0.17448157922E+04  0.00000000000E+00 0.  1.
        -13    1    3    3    0    0 -0.21691529749E+02 -0.44840665526E+02 -0.11055607248E+03  0.12125944462E+03  0.00000000000E+00 0. -1.
         22    1    1    2    0    0  0.30090218752E+03  0.99660556567E+03  0.15920567708E+04  0.19022117499E+04  0.00000000000E+00 0. -1.
<mgrwt>
<rscale>  0 0.37680058E+04</rscale>
<asrwt>0</asrwt>
<pdfrwt beam="1">  1        1 0.29340924E+00 0.37680058E+04</pdfrwt>
<pdfrwt beam="2">  1       -1 0.28632722E+00 0.37680058E+04</pdfrwt>
<totfact> 0.11132018E-01</totfact>
</mgrwt>
</event>
<event>
 6    1  0.1719556E-004  0.3303191E+04  0.7818608E-02  0.8162084E-01
          2   -1    0    0  501    0  0.00000000000E+00  0.00000000000E+00  0.17670614222E+04  0.17670614222E+04  0.00000000000E+00 0. -1.
         -2   -1    0    0    0  501 -0.00000000000E+00 -0.00000000000E+00 -0.15436747271E+04  0.15436747271E+04  0.00000000000E+00 0.  1.
         23    2    1    2    0    0 -0.30002109824E+03 -0.88095573230E+03 -0.12541783763E+04  0.15645133108E+04  0.92966866278E+02 0.  0.
         13    1    3    3    0    0 -0.24690832573E+03 -0.69299094605E+03 -0.92665599243E+03  0.11831701065E+04  0.00000000000E+00 0. -1.
        -13    1    3    3    0    0 -0.53112772507E+02 -0.18796478625E+03 -0.32752238391E+03  0.38134320426E+03  0.00000000000E+00 0.  1.
         22    1    1    2    0    0  0.30002109824E+03  0.88095573230E+03  0.14775650714E+04  0.17462228385E+04  0.00000000000E+00 0. -1.
<mgrwt>
<rscale>  0 0.33031912E+04</rscale>
<asrwt>0</asrwt>
<pdfrwt beam="1">  1        2 0.27185560E+00 0.33031912E+04</pdfrwt>
<pdfrwt beam="2">  1       -2 0.23748842E+00 0.33031912E+04</pdfrwt>
<totfact> 0.57704219E-01</totfact>
</mgrwt>
</event>
<event>
 6    1  0.1719556E-004  0.4662338E+04  0.7818608E-02  0.7882817E-01
          2   -1    0    0  501    0  0.00000000000E+00  0.00000000000E+00  0.31222781928E+04  0.31222781928E+04  0.00000000000E+00 0.  1.
         -2   -1    0    0    0  501 -0.00000000000E+00 -0.00000000000E+00 -0.17405078948E+04  0.17405078948E+04  0.00000000000E+00 0. -1.
         23    2    1    2    0    0 -0.14155394041E+04  0.15796245285E+04 -0.31551763947E+03  0.21462162287E+04  0.87904856761E+02 0.  0.
         13    1    3    3    0    0 -0.83401972368E+03  0.99435502406E+03 -0.18726230274E+03  0.13112581681E+04  0.00000000000E+00 0.  1.
        -13    1    3    3    0    0 -0.58151968043E+03  0.58526950443E+03 -0.12825533673E+03  0.83495806059E+03  0.00000000000E+00 0. -1.
         22    1    1    2    0    0  0.14155394041E+04 -0.15796245285E+04  0.16972879375E+04  0.27165698589E+04  0.00000000000E+00 0.  1.
<mgrwt>
<rscale>  0 0.46623384E+04</rscale>
<asrwt>0</asrwt>
<pdfrwt beam="1">  1        2 0.48035049E+00 0.46623384E+04</pdfrwt>
<pdfrwt beam="2">  1       -2 0.26777045E+00 0.46623384E+04</pdfrwt>
<totfact> 0.54419096E-02</totfact>
</mgrwt>
</event>
<event>
 6    1  0.1719556E-004  0.3328934E+04  0.7818608E-02  0.8155572E-01
         -2   -1    0    0    0  501 -0.00000000000E+00  0.00000000000E+00  0.13943128913E+04  0.13943128913E+04  0.00000000000E+00 0. -1.
          2   -1    0    0  501    0  0.00000000000E+00 -0.00000000000E+00 -0.19869648921E+04  0.19869648921E+04  0.00000000000E+00 0.  1.
         23    2    1    2    0    0  0.14764459674E+04 -0.29750943236E+03 -0.10129902909E+04  0.18175998002E+04  0.95473279555E+02 0.  0.
         11    1    3    3    0    0  0.70245733736E+03 -0.10008103012E+03 -0.44661708288E+03  0.83840881562E+03  0.00000000000E+00 0. -1.
        -11    1    3    3    0    0  0.77398863009E+03 -0.19742840224E+03 -0.56637320798E+03  0.97919098455E+03  0.00000000000E+00 0.  1.
         22    1    1    2    0    0 -0.14764459674E+04  0.29750943236E+03  0.42033829005E+03  0.15636779832E+04  0.00000000000E+00 0. -1.
<mgrwt>
<rscale>  0 0.33289342E+04</rscale>
<asrwt>0</asrwt>
<pdfrwt beam="1">  1        2 0.30568690E+00 0.33289342E+04</pdfrwt>
<pdfrwt beam="2">  1       -2 0.21450968E+00 0.33289342E+04</pdfrwt>
<totfact> 0.60644321E-01</totfact>
</mgrwt>
</event>
<event>
 6    1  0.1719556E-004  0.1648731E+04  0.7818608E-02  0.8791157E-01
         -2   -1    0    0    0  501 -0.00000000000E+00  0.00000000000E+00  0.31543659400E+03  0.31543659400E+03  0.00000000000E+00 0. -1.
          2   -1    0    0  501    0  0.00000000000E+00 -0.00000000000E+00 -0.21544071900E+04  0.21544071900E+04  0.00000000000E+00 0.  1.
         23    2    1    2    0    0  0.36733863751E+03 -0.25027439312E+03  0.11308520163E+03  0.46782061141E+03  0.92157013706E+02 0.  0.
         11    1    3    3    0    0  0.25743243065E+03 -0.13124828639E+03  0.97940051759E+02  0.30510624833E+03  0.00000000000E+00 0.  1.
        -11    1    3    3    0    0  0.10990620686E+03 -0.11902610673E+03  0.15145149876E+02  0.16271436309E+03  0.00000000000E+00 0. -1.
         22    1    1    2    0    0 -0.36733863751E+03  0.25027439312E+03 -0.19520557976E+04  0.20020231725E+04  0.00000000000E+00 0.  1.
<mgrwt>
<rscale>  0 0.16487315E+04</rscale>
<asrwt>0</asrwt>
<pdfrwt beam="1">  1        2 0.33144724E+00 0.16487315E+04</pdfrwt>
<pdfrwt beam="2">  1       -2 0.48528709E-01 0.16487315E+04</pdfrwt>
<totfact> 0.21056521E+01</totfact>
</mgrwt>
</event>
<event>
 6    1  0.1719556E-004  0.6074984E+04  0.7818608E-02  0.7681174E-01
         -1   -1    0    0    0  501 -0.00000000000E+00  0.00000000000E+00  0.26607234044E+04  0.26607234044E+04  0.00000000000E+00 0. -1.
          1   -1    0    0  501    0  0.00000000000E+00 -0.00000000000E+00 -0.34676129280E+04  0.34676129280E+04  0.00000000000E+00 0.  1.
         23    2    1    2    0    0  0.25711403965E+04  0.13393177549E+04 -0.13156965207E+04  0.31849675911E+04  0.91794521904E+02 0.  0.
         11    1    3    3    0    0  0.12993287045E+04  0.65169247557E+03 -0.61556184635E+03  0.15785672465E+04  0.00000000000E+00 0. -1.
        -11    1    3    3    0    0  0.12718116920E+04  0.68762527932E+03 -0.70013467434E+03  0.16064003445E+04  0.00000000000E+00 0.  1.
         22    1    1    2    0    0 -0.25711403965E+04 -0.13393177549E+04  0.50880699718E+03  0.29433687414E+04  0.00000000000E+00 0. -1.
<mgrwt>
<rscale>  0 0.60749844E+04</rscale>
<asrwt>0</asrwt>
<pdfrwt beam="1">  1        1 0.53347891E+00 0.60749844E+04</pdfrwt>
<pdfrwt beam="2">  1       -1 0.40934206E+00 0.60749844E+04</pdfrwt>
<totfact> 0.10869336E-03</totfact>
</mgrwt>
</event>
<event>
 6    1  0.1719556E-004  0.9676241E+03  0.7818608E-02  0.9344785E-01
         -4   -1    0    0    0  501 -0.00000000000E+00  0.00000000000E+00  0.10943216849E+04  0.10943216849E+04  0.00000000000E+00 0. -1.
          4   -1    0    0  501    0  0.00000000000E+00 -0.00000000000E+00 -0.21389879326E+03  0.21389879326E+03  0.00000000000E+00 0.  1.
         23    2    1    2    0    0 -0.24774974409E+03  0.10479076107E+03 -0.91490450304E+02  0.29976790935E+03  0.95547148973E+02 0.  0.
         13    1    3    3    0    0 -0.14951875471E+03  0.10430339214E+03 -0.32485174654E+02  0.18517651632E+03  0.00000000000E+00 0.  1.
        -13    1    3    3    0    0 -0.98230989378E+02  0.48736892764E+00 -0.59005275650E+02  0.11459139303E+03  0.00000000000E+00 0. -1.
         22    1    1    2    0    0  0.24774974409E+03 -0.10479076107E+03  0.97191334196E+03  0.10084525688E+04  0.00000000000E+00 0. -1.
<mgrwt>
<rscale>  0 0.96762408E+03</rscale>
<asrwt>0</asrwt>
<pdfrwt beam="1">  1        4 0.32907507E-01 0.96762408E+03</pdfrwt>
<pdfrwt beam="2">  1       -4 0.16835718E+00 0.96762408E+03</pdfrwt>
<totfact> 0.38869375E+00</totfact>
</mgrwt>
</event>
<event>
 6    1  0.1719556E-004  0.2357842E+04  0.7818608E-02  0.8455458E-01
          2   -1    0    0  501    0  0.00000000000E+00  0.00000000000E+00  0.94021118377E+03  0.94021118377E+03  0.00000000000E+00 0.  1.
         -2   -1    0    0    0  501 -0.00000000000E+00 -0.00000000000E+00 -0.14782366883E+04  0.14782366883E+04  0.00000000000E+00 0. -1.
         23    2    1    2    0    0  0.32131971706E+03 -0.20555339172E+03 -0.14115755214E+04  0.14652489476E+04  0.94395277836E+02 0.  0.
         11    1    3    3    0    0  0.24057195063E+03 -0.14768339446E+03 -0.87040279586E+03  0.91503348325E+03  0.00000000000E+00 0. -1.
        -11    1    3    3    0    0  0.80747766428E+02 -0.57869997259E+02 -0.54117272555E+03  0.55021546438E+03  0.00000000000E+00 0.  1.
         22    1    1    2    0    0 -0.32131971706E+03  0.20555339172E+03  0.87355001692E+03  0.95319892440E+03  0.00000000000E+00 0.  1.
<mgrwt>
<rscale>  0 0.23578420E+04</rscale>
<asrwt>0</asrwt>
<pdfrwt beam="1">  1        2 0.14464787E+00 0.23578420E+04</pdfrwt>
<pdfrwt beam="2">  1       -2 0.22742103E+00 0.23578420E+04</pdfrwt>
<totfact> 0.22061465E+00</totfact>
</mgrwt>
</event>
<event>
 6    1  0.1719556E-004  0.2603992E+04  0.7818608E-02  0.8366846E-01
          2   -1    0    0  501    0  0.00000000000E+00  0.00000000000E+00  0.17731339791E+04  0.17731339791E+04  0.00000000000E+00 0.  1.
         -2   -1    0    0    0  501 -0.00000000000E+00 -0.00000000000E+00 -0.95604386074E+03  0.95604386074E+03  0.00000000000E+00 0. -1.
         23    2    1    2    0    0  0.83021644293E+03 -0.94898340197E+02 -0.63524924601E+03  0.10536019190E+04  0.90941531468E+02 0.  0.
         13    1    3    3    0    0  0.50419227917E+03 -0.56038282933E+02 -0.44050783417E+03  0.67186106860E+03  0.00000000000E+00 0. -1.
        -13    1    3    3    0    0  0.32602416376E+03 -0.38860057264E+02 -0.19474141184E+03  0.38174085044E+03  0.00000000000E+00 0.  1.
         22    1    1    2    0    0 -0.83021644293E+03  0.94898340197E+02  0.14523393643E+04  0.16755759208E+04  0.00000000000E+00 0.  1.
<mgrwt>
<rscale>  0 0.26039922E+04</rscale>
<asrwt>0</asrwt>
<pdfrwt beam="1">  1        2 0.27278984E+00 0.26039922E+04</pdfrwt>
<pdfrwt beam="2">  1       -2 0.14708367E+00 0.26039922E+04</pdfrwt>
<totfact> 0.24925677E+00</totfact>
</mgrwt>
</event>
<event>
 6    1  0.1719556E-004  0.2387806E+04  0.7818608E-02  0.8444083E-01
         -2   -1    0    0    0  501 -0.00000000000E+00  0.00000000000E+00  0.52227448467E+03  0.52227448467E+03  0.00000000000E+00 0. -1.
          2   -1    0    0  501    0  0.00000000000E+00 -0.00000000000E+00 -0.27292248857E+04  0.27292248857E+04  0.00000000000E+00 0.  1.
         23    2    1    2    0    0  0.11080223292E+03 -0.77775486659E+03 -0.23261113170E+04  0.24569057062E+04  0.91717079342E+02 0.  0.
         11    1    3    3    0    0  0.10859506706E+03 -0.72656483247E+03 -0.22314432085E+04  0.23492611896E+04  0.00000000000E+00 0.  1.
        -11    1    3    3    0    0  0.22071658618E+01 -0.51190034123E+02 -0.94668108517E+02  0.10764451656E+03  0.00000000000E+00 0. -1.
         22    1    1    2    0    0 -0.11080223292E+03  0.77775486659E+03  0.11916091595E+03  0.79459366422E+03  0.00000000000E+00 0. -1.
<mgrwt>
<rscale>  0 0.23878061E+04</rscale>
<asrwt>0</asrwt>
<pdfrwt beam="1">  1        2 0.41988075E+00 0.23878061E+04</pdfrwt>
<pdfrwt beam="2">  1       -2 0.80349921E-01 0.23878061E+04</pdfrwt>
<totfact> 0.31430916E+00</totfact>
</mgrwt>
</event>
<event>
 6    1  0.1719556E-004  0.3106440E+04  0.7818608E-02  0.8213973E-01
         -2   -1    0    0    0  501 -0.00000000000E+00  0.00000000000E+00  0.11673179049E+04  0.11673179049E+04  0.00000000000E+00 0. -1.
          2   -1    0    0  501    0  0.00000000000E+00 -0.00000000000E+00 -0.20666965660E+04  0.20666965660E+04  0.00000000000E+00 0.  1.
         23    2    1    2    0    0  0.78434852081E+03  0.41700399257E+03  0.87461723603E+03  0.12500395781E+04  0.92459209607E+02 0.  0.
         13    1    3    3    0    0  0.12636326128E+03  0.10732712893E+03  0.16973894134E+03  0.23727219520E+03  0.00000000000E+00 0. -1.
        -13    1    3    3    0    0  0.65798525953E+03  0.30967686364E+03  0.70487829469E+03  0.10127673829E+04  0.00000000000E+00 0.  1.
         22    1    1    2    0    0 -0.78434852081E+03 -0.41700399257E+03 -0.17739958971E+04  0.19839748927E+04  0.00000000000E+00 0.  1.
<mgrwt>
<rscale>  0 0.31064397E+04</rscale>
<asrwt>0</asrwt>
<pdfrwt beam="1">  1        2 0.31795332E+00 0.31064397E+04</pdfrwt>
<pdfrwt beam="2">  1       -2 0.17958737E+00 0.31064397E+04</pdfrwt>
<totfact> 0.94997147E-01</totfact>
</mgrwt>
</event>
<event>
 6    1  0.1963279E-004  0.4079577E+04  0.7818608E-02  0.7988683E-01
          1   -1    0    0  501    0  0.00000000000E+00  0.00000000000E+00  0.32701754388E+04  0.32701754388E+04  0.00000000000E+00 0.  1.
         -1   -1    0    0    0  501 -0.00000000000E+00 -0.00000000000E+00 -0.12723283443E+04  0.12723283443E+04  0.00000000000E+00 0. -1.
         23    2    1    2    0    0 -0.55067676830E+03  0.16050353338E+04  0.22577596237E+04  0.28258390375E+04  0.92219422390E+02 0.  0.
         13    1    3    3    0    0 -0.33395996097E+03  0.11042004278E+04  0.15208134131E+04  0.19088376772E+04  0.00000000000E+00 0. -1.
        -13    1    3    3    0    0 -0.21671680734E+03  0.50083490603E+03  0.73694621055E+03  0.91700136037E+03  0.00000000000E+00 0.  1.
         22    1    1    2    0    0  0.55067676830E+03 -0.16050353338E+04 -0.25991252910E+03  0.17166647456E+04  0.00000000000E+00 0. -1.
<mgrwt>
<rscale>  0 0.40795769E+04</rscale>
<asrwt>0</asrwt>
<pdfrwt beam="1">  1        1 0.50310391E+00 0.40795769E+04</pdfrwt>
<pdfrwt beam="2">  1       -1 0.19574282E+00 0.40795769E+04</pdfrwt>
<totfact> 0.47085516E-02</totfact>
</mgrwt>
</event>
<event>
 6    1  0.1719556E-004  0.2370771E+04  0.7818608E-02  0.8450528E-01
          1   -1    0    0  501    0  0.00000000000E+00  0.00000000000E+00  0.78624621521E+03  0.78624621521E+03  0.00000000000E+00 0.  1.
         -1   -1    0    0    0  501 -0.00000000000E+00 -0.00000000000E+00 -0.17871488508E+04  0.17871488508E+04  0.00000000000E+00 0. -1.
         23    2    1    2    0    0 -0.91901105271E+03 -0.50527613363E+03  0.94286051806E+02  0.10570430135E+04  0.92546132009E+02 0.  0.
         11    1    3    3    0    0 -0.48355687471E+03 -0.22665391131E+03  0.16795106579E+02  0.53430452197E+03  0.00000000000E+00 0. -1.
        -11    1    3    3    0    0 -0.43545417799E+03 -0.27862222232E+03  0.77490945227E+02  0.52273849150E+03  0.00000000000E+00 0.  1.
         22    1    1    2    0    0  0.91901105271E+03  0.50527613363E+03 -0.10951886874E+04  0.15163520525E+04  0.00000000000E+00 0. -1.
<mgrwt>
<rscale>  0 0.23707712E+04</rscale>
<asrwt>0</asrwt>
<pdfrwt beam="1">  1        1 0.12096096E+00 0.23707712E+04</pdfrwt>
<pdfrwt beam="2">  1       -1 0.27494597E+00 0.23707712E+04</pdfrwt>
<totfact> 0.98014818E-01</totfact>
</mgrwt>
</event>
<event>
 6    1  0.1719556E-004  0.2716569E+04  0.7818608E-02  0.8329649E-01
         -2   -1    0    0    0  501 -0.00000000000E+00  0.00000000000E+00  0.80942523946E+03  0.80942523946E+03  0.00000000000E+00 0. -1.
          2   -1    0    0  501    0  0.00000000000E+00 -0.00000000000E+00 -0.22793167079E+04  0.22793167079E+04  0.00000000000E+00 0.  1.
         23    2    1    2    0    0  0.82435813099E+02  0.82897530921E+03 -0.19536046864E+04  0.21254277703E+04  0.82922913341E+02 0.  0.
         11    1    3    3    0    0  0.41926199141E+02  0.18775754796E+03 -0.38664453781E+03  0.43186190108E+03  0.00000000000E+00 0.  1.
        -11    1    3    3    0    0  0.40509613959E+02  0.64121776125E+03 -0.15669601486E+04  0.16935658692E+04  0.00000000000E+00 0. -1.
         22    1    1    2    0    0 -0.82435813099E+02 -0.82897530921E+03  0.48371321792E+03  0.96331417707E+03  0.00000000000E+00 0. -1.
<mgrwt>
<rscale>  0 0.27165688E+04</rscale>
<asrwt>0</asrwt>
<pdfrwt beam="1">  1        2 0.35066411E+00 0.27165688E+04</pdfrwt>
<pdfrwt beam="2">  1       -2 0.12452696E+00 0.27165688E+04</pdfrwt>
<totfact> 0.19750993E+00</totfact>
</mgrwt>
</event>
<event>
 6    1  0.1719556E-004  0.2212484E+04  0.7818608E-02  0.8513250E-01
         -2   -1    0    0    0  501 -0.00000000000E+00  0.00000000000E+00  0.68381317489E+03  0.68381317489E+03  0.00000000000E+00 0. -1.
          2   -1    0    0  501    0  0.00000000000E+00 -0.00000000000E+00 -0.17896285180E+04  0.17896285180E+04  0.00000000000E+00 0.  1.
         23    2    1    2    0    0 -0.42273797403E+03 -0.10428546410E+03  0.58083004412E+03  0.73150153462E+03  0.90266839358E+02 0.  0.
         11    1    3    3    0    0 -0.27244272366E+03 -0.36360752025E+02  0.30906298192E+03  0.41360254926E+03  0.00000000000E+00 0. -1.
        -11    1    3    3    0    0 -0.15029525037E+03 -0.67924712072E+02  0.27176706220E+03  0.31789898536E+03  0.00000000000E+00 0.  1.
         22    1    1    2    0    0  0.42273797403E+03  0.10428546410E+03 -0.16866453872E+04  0.17419401582E+04  0.00000000000E+00 0.  1.
<mgrwt>
<rscale>  0 0.22124842E+04</rscale>
<asrwt>0</asrwt>
<pdfrwt beam="1">  1        2 0.27532746E+00 0.22124842E+04</pdfrwt>
<pdfrwt beam="2">  1       -2 0.10520203E+00 0.22124842E+04</pdfrwt>
<totfact> 0.58421391E+00</totfact>
</mgrwt>
</event>
<event>
 6    1  0.1719556E-004  0.1061256E+04  0.7818608E-02  0.9243800E-01
         -2   -1    0    0    0  501 -0.00000000000E+00  0.00000000000E+00  0.11072301131E+03  0.11072301131E+03  0.00000000000E+00 0. -1.
          2   -1    0    0  501    0  0.00000000000E+00 -0.00000000000E+00 -0.25429767410E+04  0.25429767410E+04  0.00000000000E+00 0.  1.
         23    2    1    2    0    0 -0.53433435567E+02  0.43491167066E+03 -0.49268147904E+03  0.66524713563E+03  0.88404854878E+02 0.  0.
         13    1    3    3    0    0  0.17555634244E+02  0.33708588817E+02 -0.27789102627E+02  0.47081880576E+02  0.00000000000E+00 0. -1.
        -13    1    3    3    0    0 -0.70989069811E+02  0.40120308184E+03 -0.46489237641E+03  0.61816525506E+03  0.00000000000E+00 0.  1.
         22    1    1    2    0    0  0.53433435567E+02 -0.43491167066E+03 -0.19395722506E+04  0.19884526166E+04  0.00000000000E+00 0.  1.
<mgrwt>
<rscale>  0 0.10612559E+04</rscale>
<asrwt>0</asrwt>
<pdfrwt beam="1">  1        2 0.39122715E+00 0.10612559E+04</pdfrwt>
<pdfrwt beam="2">  1       -2 0.17034311E-01 0.10612559E+04</pdfrwt>
<totfact> 0.93419452E+01</totfact>
</mgrwt>
</event>
<event>
 6    1  0.1719556E-004  0.1806955E+04  0.7818608E-02  0.8702609E-01
          2   -1    0    0  501    0  0.00000000000E+00  0.00000000000E+00  0.16004834649E+04  0.16004834649E+04  0.00000000000E+00 0.  1.
         -2   -1    0    0    0  501 -0.00000000000E+00 -0.00000000000E+00 -0.51001586475E+03  0.51001586475E+03  0.00000000000E+00 0. -1.
         23    2    1    2    0    0  0.42702408521E+03 -0.35137275520E+03 -0.28447526544E+03  0.62851408475E+03  0.91057100951E+02 0.  0.
         11    1    3    3    0    0  0.17182172928E+03 -0.10062810916E+03 -0.13613349729E+03  0.24120748764E+03  0.00000000000E+00 0.  1.
        -11    1    3    3    0    0  0.25520235593E+03 -0.25074464604E+03 -0.14834176814E+03  0.38730659711E+03  0.00000000000E+00 0. -1.
         22    1    1    2    0    0 -0.42702408521E+03  0.35137275520E+03  0.13749428656E+04  0.14819852449E+04  0.00000000000E+00 0.  1.
<mgrwt>
<rscale>  0 0.18069554E+04</rscale>
<asrwt>0</asrwt>
<pdfrwt beam="1">  1        2 0.24622822E+00 0.18069554E+04</pdfrwt>
<pdfrwt beam="2">  1       -2 0.78463980E-01 0.18069554E+04</pdfrwt>
<totfact> 0.15182144E+01</totfact>
</mgrwt>
</event>
<event>
 6    1  0.1719556E-004  0.6243647E+04  0.7818608E-02  0.7660905E-01
          2   -1    0    0  501    0  0.00000000000E+00  0.00000000000E+00  0.37831088436E+04  0.37831088436E+04  0.00000000000E+00 0.  1.
         -2   -1    0    0    0  501 -0.00000000000E+00 -0.00000000000E+00 -0.25761304740E+04  0.25761304740E+04  0.00000000000E+00 0. -1.
         23    2    1    2    0    0  0.17044505672E+04  0.16587366281E+04 -0.14550614327E+04  0.27895033545E+04  0.86984220139E+02 0.  0.
         11    1    3    3    0    0  0.95237451071E+03  0.98414844678E+03 -0.85221512636E+03  0.16130207672E+04  0.00000000000E+00 0.  1.
        -11    1    3    3    0    0  0.75207605645E+03  0.67458818130E+03 -0.60284630632E+03  0.11764825872E+04  0.00000000000E+00 0. -1.
         22    1    1    2    0    0 -0.17044505672E+04 -0.16587366281E+04  0.26620398023E+04  0.35697359631E+04  0.00000000000E+00 0.  1.
<mgrwt>
<rscale>  0 0.62436470E+04</rscale>
<asrwt>0</asrwt>
<pdfrwt beam="1">  1        2 0.58201674E+00 0.62436470E+04</pdfrwt>
<pdfrwt beam="2">  1       -2 0.39632777E+00 0.62436470E+04</pdfrwt>
<totfact> 0.26144039E-03</totfact>
</mgrwt>
</event>
<event>
 6    1  0.1719556E-004  0.3700512E+04  0.7818608E-02  0.8067848E-01
         -1   -1    0    0    0  501 -0.00000000000E+00  0.00000000000E+00  0.25472022206E+04  0.25472022206E+04  0.00000000000E+00 0. -1.
          1   -1    0    0  501    0  0.00000000000E+00 -0.00000000000E+00 -0.13440030528E+04  0.13440030528E+04  0.00000000000E+00 0.  1.
         23    2    1    2    0    0 -0.17718646080E+04  0.41104608050E+03  0.25172946762E+03  0.18384613392E+04  0.90051659120E+02 0.  0.
         11    1    3    3    0    0 -0.10853808410E+04  0.26322657283E+03  0.19729573245E+03  0.11341364136E+04  0.00000000000E+00 0. -1.
        -11    1    3    3    0    0 -0.68648376700E+03  0.14781950767E+03  0.54433735170E+02  0.70432492554E+03  0.00000000000E+00 0.  1.
         22    1    1    2    0    0  0.17718646080E+04 -0.41104608050E+03  0.95146970010E+03  0.20527439342E+04  0.00000000000E+00 0. -1.
<mgrwt>
<rscale>  0 0.37005122E+04</rscale>
<asrwt>0</asrwt>
<pdfrwt beam="1">  1        1 0.20676970E+00 0.37005122E+04</pdfrwt>
<pdfrwt beam="2">  1       -1 0.39187726E+00 0.37005122E+04</pdfrwt>
<totfact> 0.54831326E-02</totfact>
</mgrwt>
</event>
<event>
 6    1  0.1719556E-004  0.1342420E+04  0.7818608E-02  0.8996586E-01
         -1   -1    0    0    0  501 -0.00000000000E+00  0.00000000000E+00  0.34225451710E+03  0.34225451710E+03  0.00000000000E+00 0. -1.
          1   -1    0    0  501    0  0.00000000000E+00 -0.00000000000E+00 -0.13163393525E+04  0.13163393525E+04  0.00000000000E+00 0.  1.
         23    2    1    2    0    0 -0.22466578573E+03  0.60210985897E+03 -0.71499184733E+03  0.96567239210E+03  0.91097912033E+02 0.  0.
         11    1    3    3    0    0 -0.82962426854E+02  0.19056799265E+03 -0.17212499015E+03  0.26986281020E+03  0.00000000000E+00 0. -1.
        -11    1    3    3    0    0 -0.14170335887E+03  0.41154186631E+03 -0.54286685718E+03  0.69580958190E+03  0.00000000000E+00 0.  1.
         22    1    1    2    0    0  0.22466578573E+03 -0.60210985897E+03 -0.25909298812E+03  0.69292147754E+03  0.00000000000E+00 0.  1.
<mgrwt>
<rscale>  0 0.13424203E+04</rscale>
<asrwt>0</asrwt>
<pdfrwt beam="1">  1        1 0.20251375E+00 0.13424203E+04</pdfrwt>
<pdfrwt beam="2">  1       -1 0.52654541E-01 0.13424203E+04</pdfrwt>
<totfact> 0.31344726E+01</totfact>
</mgrwt>
</event>
<event>
 6    1  0.1719556E-004  0.2190439E+04  0.7818608E-02  0.8522418E-01
          2   -1    0    0  501    0  0.00000000000E+00  0.00000000000E+00  0.19478524083E+04  0.19478524083E+04  0.00000000000E+00 0.  1.
         -2   -1    0    0    0  501 -0.00000000000E+00 -0.00000000000E+00 -0.61580941039E+03  0.61580941039E+03  0.00000000000E+00 0. -1.
         23    2    1    2    0    0 -0.73278004099E+03  0.17087254296E+03 -0.26110762770E+03  0.80176144401E+03  0.92088030982E+02 0.  0.
         13    1    3    3    0    0 -0.50989097355E+03  0.75189716427E+02 -0.18327587334E+03  0.54702133789E+03  0.00000000000E+00 0.  1.
        -13    1    3    3    0    0 -0.22288906744E+03  0.95682826534E+02 -0.77831754360E+02  0.25474010612E+03  0.00000000000E+00 0. -1.
         22    1    1    2    0    0  0.73278004099E+03 -0.17087254296E+03  0.15931506256E+04  0.17619003747E+04  0.00000000000E+00 0.  1.
<mgrwt>
<rscale>  0 0.21904391E+04</rscale>
<asrwt>0</asrwt>
<pdfrwt beam="1">  1        2 0.29966960E+00 0.21904391E+04</pdfrwt>
<pdfrwt beam="2">  1       -2 0.94739910E-01 0.21904391E+04</pdfrwt>
<totfact> 0.61282973E+00</totfact>
</mgrwt>
</event>
<event>
 6    1  0.1719556E-004  0.2713306E+04  0.7818608E-02  0.8330700E-01
         -1   -1    0    0    0  501 -0.00000000000E+00  0.00000000000E+00  0.59896309165E+03  0.59896309165E+03  0.00000000000E+00 0. -1.
          1   -1    0    0  501    0  0.00000000000E+00 -0.00000000000E+00 -0.30728233704E+04  0.30728233704E+04  0.00000000000E+00 0.  1.
         23    2    1    2    0    0  0.85960658490E+03 -0.18155973033E+03  0.15802319406E+03  0.89713368540E+03  0.89387376866E+02 0.  0.
         13    1    3    3    0    0  0.59236408320E+03 -0.14358176074E+03  0.14693997139E+03  0.62697869523E+03  0.00000000000E+00 0.  1.
        -13    1    3    3    0    0  0.26724250170E+03 -0.37977969587E+02  0.11083222666E+02  0.27015499017E+03  0.00000000000E+00 0. -1.
         22    1    1    2    0    0 -0.85960658490E+03  0.18155973033E+03 -0.26318834729E+04  0.27746527767E+04  0.00000000000E+00 0.  1.
<mgrwt>
<rscale>  0 0.27133063E+04</rscale>
<asrwt>0</asrwt>
<pdfrwt beam="1">  1        1 0.47274205E+00 0.27133063E+04</pdfrwt>
<pdfrwt beam="2">  1       -1 0.92148169E-01 0.27133063E+04</pdfrwt>
<totfact> 0.52819562E-01</totfact>
</mgrwt>
</event>
<event>
 6    1  0.1719556E-004  0.1546863E+04  0.7818608E-02  0.8853874E-01
         -2   -1    0    0    0  501 -0.00000000000E+00  0.00000000000E+00  0.26847254960E+03  0.26847254960E+03  0.00000000000E+00 0. -1.
          2   -1    0    0  501    0  0.00000000000E+00 -0.00000000000E+00 -0.22281467931E+04  0.22281467931E+04  0.00000000000E+00 0.  1.
         23    2    1    2    0    0  0.25984545559E+03  0.96579700798E+02 -0.21439997282E+04  0.21637181806E+04  0.89967945074E+02 0.  0.
         13    1    3    3    0    0  0.16707837210E+03  0.10192274725E+03 -0.13061044497E+04  0.13206862847E+04  0.00000000000E+00 0. -1.
        -13    1    3    3    0    0  0.92767083484E+02 -0.53430464519E+01 -0.83789527844E+03  0.84303189593E+03  0.00000000000E+00 0.  1.
         22    1    1    2    0    0 -0.25984545559E+03 -0.96579700798E+02  0.18432548473E+03  0.33290116208E+03  0.00000000000E+00 0. -1.
<mgrwt>
<rscale>  0 0.15468630E+04</rscale>
<asrwt>0</asrwt>
<pdfrwt beam="1">  1        2 0.34279181E+00 0.15468630E+04</pdfrwt>
<pdfrwt beam="2">  1       -2 0.41303470E-01 0.15468630E+04</pdfrwt>
<totfact> 0.26644770E+01</totfact>
</mgrwt>
</event>
<event>
 6    1  0.2083204E-004  0.4845639E+04  0.7818608E-02  0.7852770E-01
          1   -1    0    0  501    0  0.00000000000E+00  0.00000000000E+00  0.26670268445E+04  0.26670268445E+04  0.00000000000E+00 0.  1.
         -1   -1    0    0    0  501 -0.00000000000E+00 -0.00000000000E+00 -0.22009735284E+04  0.22009735284E+04  0.00000000000E+00 0. -1.
         23    2    1    2    0    0 -0.19548795219E+02 -0.40125552560E+03  0.26326280088E+04  0.26644954258E+04  0.86124846318E+02 0.  0.
         11    1    3    3    0    0 -0.20383325433E+02 -0.56907720062E+02  0.58500303069E+03  0.58811777263E+03  0.00000000000E+00 0. -1.
        -11    1    3    3    0    0  0.83453021384E+00 -0.34434780553E+03  0.20476249781E+04  0.20763776532E+04  0.00000000000E+00 0.  1.
         22    1    1    2    0    0  0.19548795219E+02  0.40125552560E+03 -0.21665746928E+04  0.22035049471E+04  0.00000000000E+00 0. -1.
<mgrwt>
<rscale>  0 0.48456395E+04</rscale>
<asrwt>0</asrwt>
<pdfrwt beam="1">  1        1 0.41031182E+00 0.48456395E+04</pdfrwt>
<pdfrwt beam="2">  1       -1 0.33861131E+00 0.48456395E+04</pdfrwt>
<totfact> 0.13984143E-02</totfact>
</mgrwt>
</event>
<event>
 6    1  0.1719556E-004  0.3495922E+04  0.7818608E-02  0.8114757E-01
         -2   -1    0    0    0  501 -0.00000000000E+00  0.00000000000E+00  0.16084795119E+04  0.16084795119E+04  0.00000000000E+00 0. -1.
          2   -1    0    0  501    0  0.00000000000E+00 -0.00000000000E+00 -0.18995378866E+04  0.18995378866E+04  0.00000000000E+00 0.  1.
         23    2    1    2    0    0 -0.23468424917E+02 -0.16124780560E+04 -0.81901696439E+03  0.18111448280E+04  0.93917794570E+02 0.  0.
         11    1    3    3    0    0 -0.50193429148E+02 -0.10809283582E+04 -0.57975706443E+03  0.12276171022E+04  0.00000000000E+00 0. -1.
        -11    1    3    3    0    0  0.26725004230E+02 -0.53154969779E+03 -0.23925989996E+03  0.58352772582E+03  0.00000000000E+00 0.  1.
         22    1    1    2    0    0  0.23468424917E+02  0.16124780560E+04  0.52795858966E+03  0.16968725705E+04  0.00000000000E+00 0. -1.
<mgrwt>
<rscale>  0 0.34959221E+04</rscale>
<asrwt>0</asrwt>
<pdfrwt beam="1">  1        2 0.29223660E+00 0.34959221E+04</pdfrwt>
<pdfrwt beam="2">  1       -2 0.24745839E+00 0.34959221E+04</pdfrwt>
<totfact> 0.41609986E-01</totfact>
</mgrwt>
</event>
<event>
 6    1  0.1719556E-004  0.3485649E+04  0.7818608E-02  0.8117199E-01
         -1   -1    0    0    0  501 -0.00000000000E+00  0.00000000000E+00  0.68234945443E+03  0.68234945443E+03  0.00000000000E+00 0. -1.
          1   -1    0    0  501    0  0.00000000000E+00 -0.00000000000E+00 -0.44514400942E+04  0.44514400942E+04  0.00000000000E+00 0.  1.
         23    2    1    2    0    0 -0.98173762610E+03  0.14366271444E+04 -0.19963692563E+04  0.26497912753E+04  0.90538811821E+02 0.  0.
         11    1    3    3    0    0 -0.27314656690E+03  0.36656700238E+03 -0.47180998746E+03  0.65695135171E+03  0.00000000000E+00 0.  1.
        -11    1    3    3    0    0 -0.70859105920E+03  0.10700601420E+04 -0.15245592689E+04  0.19928399236E+04  0.00000000000E+00 0. -1.
         22    1    1    2    0    0  0.98173762610E+03 -0.14366271444E+04 -0.17727213834E+04  0.24839982733E+04  0.00000000000E+00 0.  1.
<mgrwt>
<rscale>  0 0.34856493E+04</rscale>
<asrwt>0</asrwt>
<pdfrwt beam="1">  1        1 0.68483694E+00 0.34856493E+04</pdfrwt>
<pdfrwt beam="2">  1       -1 0.10497684E+00 0.34856493E+04</pdfrwt>
<totfact> 0.25025637E-02</totfact>
</mgrwt>
</event>
<event>
 6    1  0.1719556E-004  0.6265789E+03  0.7818608E-02  0.9851748E-01
         -2   -1    0    0    0  501 -0.00000000000E+00  0.00000000000E+00  0.31324473444E+03  0.31324473444E+03  0.00000000000E+00 0. -1.
          2   -1    0    0  501    0  0.00000000000E+00 -0.00000000000E+00 -0.31333421868E+03  0.31333421868E+03  0.00000000000E+00 0.  1.
         23    2    1    2    0    0  0.19028108278E+03  0.14037166196E+03  0.19497309757E+03  0.32004917517E+03  0.92227283389E+02 0.  0.
         13    1    3    3    0    0  0.15387702809E+03  0.80263344158E+02  0.95008386576E+02  0.19785585083E+03  0.00000000000E+00 0.  1.
        -13    1    3    3    0    0  0.36404054694E+02  0.60108317798E+02  0.99964710998E+02  0.12219332433E+03  0.00000000000E+00 0. -1.
         22    1    1    2    0    0 -0.19028108278E+03 -0.14037166196E+03 -0.19506258182E+03  0.30652977795E+03  0.00000000000E+00 0.  1.
<mgrwt>
<rscale>  0 0.62657895E+03</rscale>
<asrwt>0</asrwt>
<pdfrwt beam="1">  1        2 0.48205264E-01 0.62657895E+03</pdfrwt>
<pdfrwt beam="2">  1       -2 0.48191498E-01 0.62657895E+03</pdfrwt>
<totfact> 0.43047301E+02</totfact>
</mgrwt>
</event>
<event>
 6    1  0.1719556E-004  0.1541584E+04  0.7818608E-02  0.8857261E-01
          2   -1    0    0  501    0  0.00000000000E+00  0.00000000000E+00  0.13131057982E+04  0.13131057982E+04  0.00000000000E+00 0.  1.
         -2   -1    0    0    0  501 -0.00000000000E+00 -0.00000000000E+00 -0.45245419022E+03  0.45245419022E+03  0.00000000000E+00 0. -1.
         23    2    1    2    0    0 -0.36747592240E+03  0.12930430648E+03  0.11898853100E+04  0.12555080423E+04  0.93355428630E+02 0.  0.
         13    1    3    3    0    0 -0.19616523044E+03  0.11593946070E+03  0.71949062985E+03  0.75471154929E+03  0.00000000000E+00 0.  1.
        -13    1    3    3    0    0 -0.17131069196E+03  0.13364845786E+02  0.47039468016E+03  0.50079649300E+03  0.00000000000E+00 0. -1.
         22    1    1    2    0    0  0.36747592240E+03 -0.12930430648E+03 -0.32923370202E+03  0.51005194614E+03  0.00000000000E+00 0. -1.
<mgrwt>
<rscale>  0 0.15415839E+04</rscale>
<asrwt>0</asrwt>
<pdfrwt beam="1">  1        2 0.20201628E+00 0.15415839E+04</pdfrwt>
<pdfrwt beam="2">  1       -2 0.69608337E-01 0.15415839E+04</pdfrwt>
<totfact> 0.29442064E+01</totfact>
</mgrwt>
</event>
<event>
 6    1  0.1719556E-004  0.2341479E+04  0.7818608E-02  0.8461744E-01
          1   -1    0    0  501    0  0.00000000000E+00  0.00000000000E+00  0.15478921809E+04  0.15478921809E+04  0.00000000000E+00 0.  1.
         -1   -1    0    0    0  501 -0.00000000000E+00 -0.00000000000E+00 -0.88548206493E+03  0.88548206493E+03  0.00000000000E+00 0. -1.
         23    2    1    2    0    0 -0.92255823017E+03 -0.71756952747E+03  0.35908673831E+03  0.12258872744E+04  0.88524623804E+02 0.  0.
         11    1    3    3    0    0 -0.75608985844E+03 -0.54290337077E+03  0.28279928970E+03  0.97282649135E+03  0.00000000000E+00 0.  1.
        -11    1    3    3    0    0 -0.16646837173E+03 -0.17466615670E+03  0.76287448609E+02  0.25306078301E+03  0.00000000000E+00 0. -1.
         22    1    1    2    0    0  0.92255823017E+03  0.71756952747E+03  0.30332337764E+03  0.12074869715E+04  0.00000000000E+00 0. -1.
<mgrwt>
<rscale>  0 0.23414788E+04</rscale>
<asrwt>0</asrwt>
<pdfrwt beam="1">  1        1 0.23813726E+00 0.23414788E+04</pdfrwt>
<pdfrwt beam="2">  1       -1 0.13622801E+00 0.23414788E+04</pdfrwt>
<totfact> 0.24566928E+00</totfact>
</mgrwt>
</event>
<event>
 6    1  0.1719556E-004  0.1533646E+04  0.7818608E-02  0.8862382E-01
          1   -1    0    0  501    0  0.00000000000E+00  0.00000000000E+00  0.14713923429E+04  0.14713923429E+04  0.00000000000E+00 0.  1.
         -1   -1    0    0    0  501 -0.00000000000E+00 -0.00000000000E+00 -0.39963355665E+03  0.39963355665E+03  0.00000000000E+00 0. -1.
         23    2    1    2    0    0  0.30691497364E+03 -0.23001459447E+03  0.13440572893E+04  0.14006537177E+04  0.90759711258E+02 0.  0.
         13    1    3    3    0    0  0.21817297897E+03 -0.12250140958E+03  0.75736703859E+03  0.79762828137E+03  0.00000000000E+00 0.  1.
        -13    1    3    3    0    0  0.88741994665E+02 -0.10751318489E+03  0.58669025072E+03  0.60302543630E+03  0.00000000000E+00 0. -1.
         22    1    1    2    0    0 -0.30691497364E+03  0.23001459447E+03 -0.27229850306E+03  0.47037218187E+03  0.00000000000E+00 0. -1.
<mgrwt>
<rscale>  0 0.15336463E+04</rscale>
<asrwt>0</asrwt>
<pdfrwt beam="1">  1        1 0.22636805E+00 0.15336463E+04</pdfrwt>
<pdfrwt beam="2">  1       -1 0.61482086E-01 0.15336463E+04</pdfrwt>
<totfact> 0.17725368E+01</totfact>
</mgrwt>
</event>
<event>
 6    1  0.1719556E-004  0.1249720E+04  0.7818608E-02  0.9070416E-01
         -2   -1    0    0    0  501 -0.00000000000E+00  0.00000000000E+00  0.16888106489E+03  0.16888106489E+03  0.00000000000E+00 0.  1.
          2   -1    0    0  501    0  0.00000000000E+00 -0.00000000000E+00 -0.23119822944E+04  0.23119822944E+04  0.00000000000E+00 0. -1.
         23    2    1    2    0    0  0.42851668744E+03 -0.21828918701E+03 -0.18587745095E+04  0.19221877788E+04  0.92121979501E+02 0.  0.
         13    1    3    3    0    0  0.17723415672E+03 -0.49907602074E+02 -0.81002803548E+03  0.83069135864E+03  0.00000000000E+00 0.  1.
        -13    1    3    3    0    0  0.25128253072E+03 -0.16838158494E+03 -0.10487464740E+04  0.10914964201E+04  0.00000000000E+00 0. -1.
         22    1    1    2    0    0 -0.42851668744E+03  0.21828918701E+03 -0.28432672004E+03  0.55867558056E+03  0.00000000000E+00 0.  1.
<mgrwt>
<rscale>  0 0.12497200E+04</rscale>
<asrwt>0</asrwt>
<pdfrwt beam="1">  1        2 0.35568958E+00 0.12497200E+04</pdfrwt>
<pdfrwt beam="2">  1       -2 0.25981702E-01 0.12497200E+04</pdfrwt>
<totfact> 0.58912595E+01</totfact>
</mgrwt>
</event>
<event>
 6    1  0.1719556E-004  0.2521407E+04  0.7818608E-02  0.8395399E-01
          1   -1    0    0  501    0  0.00000000000E+00  0.00000000000E+00  0.27827170345E+04  0.27827170345E+04  0.00000000000E+00 0.  1.
         -1   -1    0    0    0  501 -0.00000000000E+00 -0.00000000000E+00 -0.57115874343E+03  0.57115874343E+03  0.00000000000E+00 0. -1.
         23    2    1    2    0    0  0.59217119439E+03  0.96912000590E+03  0.38476985479E+03  0.12028257320E+04  0.94242193572E+02 0.  0.
         11    1    3    3    0    0  0.57853812546E+03  0.91271459300E+03  0.37580223055E+03  0.11441073408E+04  0.00000000000E+00 0.  1.
        -11    1    3    3    0    0  0.13633068929E+02  0.56405412898E+02  0.89676242450E+01  0.58718391133E+02  0.00000000000E+00 0. -1.
         22    1    1    2    0    0 -0.59217119439E+03 -0.96912000590E+03  0.18267884363E+04  0.21510500460E+04  0.00000000000E+00 0.  1.
<mgrwt>
<rscale>  0 0.25214069E+04</rscale>
<asrwt>0</asrwt>
<pdfrwt beam="1">  1        1 0.42811031E+00 0.25214069E+04</pdfrwt>
<pdfrwt beam="2">  1       -1 0.87870577E-01 0.25214069E+04</pdfrwt>
<totfact> 0.96786073E-01</totfact>
</mgrwt>
</event>
<event>
 6    1  0.1719556E-004  0.1694051E+04  0.7818608E-02  0.8764765E-01
          1   -1    0    0  501    0  0.00000000000E+00  0.00000000000E+00  0.68494756526E+03  0.68494756526E+03  0.00000000000E+00 0. -1.
         -1   -1    0    0    0  501 -0.00000000000E+00 -0.00000000000E+00 -0.10474555936E+04  0.10474555936E+04  0.00000000000E+00 0.  1.
         23    2    1    2    0    0  0.43706533623E+03  0.60806989459E+03 -0.58125026359E+03  0.95226005000E+03  0.90400382019E+02 0.  0.
         11    1    3    3    0    0  0.21418466947E+03  0.35673100707E+03 -0.28473810088E+03  0.50419031142E+03  0.00000000000E+00 0. -1.
        -11    1    3    3    0    0  0.22288066676E+03  0.25133888752E+03 -0.29651216271E+03  0.44806973858E+03  0.00000000000E+00 0.  1.
         22    1    1    2    0    0 -0.43706533623E+03 -0.60806989459E+03  0.21874223524E+03  0.78014310887E+03  0.00000000000E+00 0. -1.
<mgrwt>
<rscale>  0 0.16940510E+04</rscale>
<asrwt>0</asrwt>
<pdfrwt beam="1">  1        1 0.10537655E+00 0.16940510E+04</pdfrwt>
<pdfrwt beam="2">  1       -1 0.16114701E+00 0.16940510E+04</pdfrwt>
<totfact> 0.76794769E+00</totfact>
</mgrwt>
</event>
<event>
 6    1  0.1719556E-004  0.2614285E+04  0.7818608E-02  0.8363365E-01
          1   -1    0    0  501    0  0.00000000000E+00  0.00000000000E+00  0.15101593194E+04  0.15101593194E+04  0.00000000000E+00 0.  1.
         -1   -1    0    0    0  501 -0.00000000000E+00 -0.00000000000E+00 -0.11314178999E+04  0.11314178999E+04  0.00000000000E+00 0. -1.
         23    2    1    2    0    0  0.12675210692E+04  0.30518465884E+02 -0.12503464276E+03  0.12772710372E+04  0.90810808008E+02 0.  0.
         13    1    3    3    0    0  0.66277836662E+03  0.46904026862E+02 -0.98764866810E+02  0.67173629491E+03  0.00000000000E+00 0. -1.
        -13    1    3    3    0    0  0.60474270258E+03 -0.16385560978E+02 -0.26269775953E+02  0.60553474224E+03  0.00000000000E+00 0.  1.
         22    1    1    2    0    0 -0.12675210692E+04 -0.30518465884E+02  0.50377606225E+03  0.13643061821E+04  0.00000000000E+00 0.  1.
<mgrwt>
<rscale>  0 0.26142848E+04</rscale>
<asrwt>0</asrwt>
<pdfrwt beam="1">  1        1 0.23233220E+00 0.26142848E+04</pdfrwt>
<pdfrwt beam="2">  1       -1 0.17406429E+00 0.26142848E+04</pdfrwt>
<totfact> 0.13009692E+00</totfact>
</mgrwt>
</event>
<event>
 6    1  0.1719556E-004  0.5866291E+03  0.7818608E-02  0.9933541E-01
          2   -1    0    0  501    0  0.00000000000E+00  0.00000000000E+00  0.23592447227E+04  0.23592447227E+04  0.00000000000E+00 0.  1.
         -2   -1    0    0    0  501 -0.00000000000E+00 -0.00000000000E+00 -0.36466509360E+02  0.36466509360E+02  0.00000000000E+00 0. -1.
         23    2    1    2    0    0  0.25151529480E+03  0.84597100757E+02  0.16290017318E+04  0.16529175734E+04  0.89851262356E+02 0.  0.
         11    1    3    3    0    0  0.74287330222E+02  0.20215406767E+02  0.74868274340E+03  0.75263079951E+03  0.00000000000E+00 0.  1.
        -11    1    3    3    0    0  0.17722796457E+03  0.64381693991E+02  0.88031898842E+03  0.90028677394E+03  0.00000000000E+00 0. -1.
         22    1    1    2    0    0 -0.25151529480E+03 -0.84597100757E+02  0.69377648153E+03  0.74279365863E+03  0.00000000000E+00 0. -1.
<mgrwt>
<rscale>  0 0.58662908E+03</rscale>
<asrwt>0</asrwt>
<pdfrwt beam="1">  1        2 0.36296061E+00 0.58662908E+03</pdfrwt>
<pdfrwt beam="2">  1       -2 0.56102341E-02 0.58662908E+03</pdfrwt>
<totfact> 0.75740266E+02</totfact>
</mgrwt>
</event>
<event>
 6    1  0.1719556E-004  0.3512199E+04  0.7818608E-02  0.8110905E-01
         -2   -1    0    0    0  501 -0.00000000000E+00  0.00000000000E+00  0.12972127698E+04  0.12972127698E+04  0.00000000000E+00 0. -1.
          2   -1    0    0  501    0  0.00000000000E+00 -0.00000000000E+00 -0.23773164181E+04  0.23773164181E+04  0.00000000000E+00 0.  1.
         23    2    1    2    0    0  0.42668118131E+03  0.12265791619E+04  0.69472987186E+03  0.14753049394E+04  0.85567508309E+02 0.  0.
         11    1    3    3    0    0  0.19572288271E+03  0.44334983894E+03  0.24380623429E+03  0.54250161878E+03  0.00000000000E+00 0.  1.
        -11    1    3    3    0    0  0.23095829860E+03  0.78322932298E+03  0.45092363758E+03  0.93280332064E+03  0.00000000000E+00 0. -1.
         22    1    1    2    0    0 -0.42668118131E+03 -0.12265791619E+04 -0.17748335201E+04  0.21992242485E+04  0.00000000000E+00 0.  1.
<mgrwt>
<rscale>  0 0.35121989E+04</rscale>
<asrwt>0</asrwt>
<pdfrwt beam="1">  1        2 0.36574098E+00 0.35121989E+04</pdfrwt>
<pdfrwt beam="2">  1       -2 0.19957120E+00 0.35121989E+04</pdfrwt>
<totfact> 0.45011796E-01</totfact>
</mgrwt>
</event>
<event>
 6    1  0.1719556E-004  0.2581713E+04  0.7818608E-02  0.8374439E-01
         -2   -1    0    0    0  501 -0.00000000000E+00  0.00000000000E+00  0.82635738057E+03  0.82635738057E+03  0.00000000000E+00 0. -1.
          2   -1    0    0  501    0  0.00000000000E+00 -0.00000000000E+00 -0.20164527806E+04  0.20164527806E+04  0.00000000000E+00 0.  1.
         23    2    1    2    0    0 -0.88343420235E+03 -0.83745707174E+03 -0.10631077929E+04  0.16189162976E+04  0.94347562227E+02 0.  0.
         11    1    3    3    0    0 -0.46180049239E+03 -0.39606521466E+03 -0.48269042678E+03  0.77660633344E+03  0.00000000000E+00 0. -1.
        -11    1    3    3    0    0 -0.42163370997E+03 -0.44139185708E+03 -0.58041736608E+03  0.84230996416E+03  0.00000000000E+00 0.  1.
         22    1    1    2    0    0  0.88343420235E+03  0.83745707174E+03 -0.12698760715E+03  0.12238938636E+04  0.00000000000E+00 0. -1.
<mgrwt>
<rscale>  0 0.25817131E+04</rscale>
<asrwt>0</asrwt>
<pdfrwt beam="1">  1        2 0.31022350E+00 0.25817131E+04</pdfrwt>
<pdfrwt beam="2">  1       -2 0.12713191E+00 0.25817131E+04</pdfrwt>
<totfact> 0.26629935E+00</totfact>
</mgrwt>
</event>
<event>
 6    1  0.1719556E-004  0.3013200E+04  0.7818608E-02  0.8239972E-01
         -4   -1    0    0    0  501 -0.00000000000E+00  0.00000000000E+00  0.11655045884E+04  0.11655045884E+04  0.00000000000E+00 0. -1.
          4   -1    0    0  501    0  0.00000000000E+00 -0.00000000000E+00 -0.19475195567E+04  0.19475195567E+04  0.00000000000E+00 0.  1.
         23    2    1    2    0    0 -0.12328572149E+04 -0.19720353266E+03  0.47723721891E+03  0.13397384330E+04  0.91200657580E+02 0.  0.
         13    1    3    3    0    0 -0.65302784848E+03 -0.74827154298E+02  0.28827923098E+03  0.71773908137E+03  0.00000000000E+00 0. -1.
        -13    1    3    3    0    0 -0.57982936644E+03 -0.12237637836E+03  0.18895798793E+03  0.62199935158E+03  0.00000000000E+00 0.  1.
         22    1    1    2    0    0  0.12328572149E+04  0.19720353266E+03 -0.12592521872E+04  0.17732857121E+04  0.00000000000E+00 0.  1.
<mgrwt>
<rscale>  0 0.30131996E+04</rscale>
<asrwt>0</asrwt>
<pdfrwt beam="1">  1        4 0.29961839E+00 0.30131996E+04</pdfrwt>
<pdfrwt beam="2">  1       -4 0.17930840E+00 0.30131996E+04</pdfrwt>
<totfact> 0.95788603E-03</totfact>
</mgrwt>
</event>
<event>
 6    1  0.1719556E-004  0.1328424E+04  0.7818608E-02  0.9007323E-01
         -1   -1    0    0    0  501 -0.00000000000E+00  0.00000000000E+00  0.42952545347E+03  0.42952545347E+03  0.00000000000E+00 0.  1.
          1   -1    0    0  501    0  0.00000000000E+00 -0.00000000000E+00 -0.10271280183E+04  0.10271280183E+04  0.00000000000E+00 0. -1.
         23    2    1    2    0    0  0.40127731225E+03  0.42099167356E+03  0.44200192606E+02  0.59053093424E+03  0.92280316070E+02 0.  0.
         13    1    3    3    0    0  0.17432101978E+03  0.24794467956E+03  0.33376583472E+02  0.30492356154E+03  0.00000000000E+00 0. -1.
        -13    1    3    3    0    0  0.22695629247E+03  0.17304699400E+03  0.10823609134E+02  0.28560737270E+03  0.00000000000E+00 0.  1.
         22    1    1    2    0    0 -0.40127731225E+03 -0.42099167356E+03 -0.64180275740E+03  0.86612253748E+03  0.00000000000E+00 0. -1.
<mgrwt>
<rscale>  0 0.13284241E+04</rscale>
<asrwt>0</asrwt>
<pdfrwt beam="1">  1        1 0.15801969E+00 0.13284241E+04</pdfrwt>
<pdfrwt beam="2">  1       -1 0.66080840E-01 0.13284241E+04</pdfrwt>
<totfact> 0.32799485E+01</totfact>
</mgrwt>
</event>
<event>
 6    1  0.1719556E-004  0.9368747E+03  0.7818608E-02  0.9380625E-01
         -2   -1    0    0    0  501 -0.00000000000E+00  0.00000000000E+00  0.85134497745E+03  0.85134497745E+03  0.00000000000E+00 0. -1.
          2   -1    0    0  501    0  0.00000000000E+00 -0.00000000000E+00 -0.25774928776E+03  0.25774928776E+03  0.00000000000E+00 0.  1.
         23    2    1    2    0    0 -0.19948432030E+03  0.41880005737E+03  0.28816498416E+03  0.55368864948E+03  0.91348674690E+02 0.  0.
         13    1    3    3    0    0 -0.15732763687E+03  0.28754176656E+03  0.24503893781E+03  0.40923872480E+03  0.00000000000E+00 0.  1.
        -13    1    3    3    0    0 -0.42156683432E+02  0.13125829081E+03  0.43126046355E+02  0.14444992468E+03  0.00000000000E+00 0. -1.
         22    1    1    2    0    0  0.19948432030E+03 -0.41880005737E+03  0.30543070553E+03  0.55540561573E+03  0.00000000000E+00 0.  1.
<mgrwt>
<rscale>  0 0.93687472E+03</rscale>
<asrwt>0</asrwt>
<pdfrwt beam="1">  1        2 0.39653737E-01 0.93687472E+03</pdfrwt>
<pdfrwt beam="2">  1       -2 0.13097615E+00 0.93687472E+03</pdfrwt>
<totfact> 0.55474273E+01</totfact>
</mgrwt>
</event>
<event>
 6    1  0.1719556E-004  0.2084067E+04  0.7818608E-02  0.8568295E-01
         -2   -1    0    0    0  501 -0.00000000000E+00  0.00000000000E+00  0.36640254039E+03  0.36640254039E+03  0.00000000000E+00 0. -1.
          2   -1    0    0  501    0  0.00000000000E+00 -0.00000000000E+00 -0.29635000432E+04  0.29635000432E+04  0.00000000000E+00 0.  1.
         23    2    1    2    0    0  0.50516052720E+03 -0.44801184060E+03 -0.37514380953E+02  0.68275930729E+03  0.94080685382E+02 0.  0.
         11    1    3    3    0    0  0.35796677294E+03 -0.28205264190E+03 -0.60538891105E+02  0.45973781731E+03  0.00000000000E+00 0.  1.
        -11    1    3    3    0    0  0.14719375426E+03 -0.16595919870E+03  0.23024510152E+02  0.22302148998E+03  0.00000000000E+00 0. -1.
         22    1    1    2    0    0 -0.50516052720E+03  0.44801184060E+03 -0.25595831218E+04  0.26471432763E+04  0.00000000000E+00 0.  1.
<mgrwt>
<rscale>  0 0.20840671E+04</rscale>
<asrwt>0</asrwt>
<pdfrwt beam="1">  1        2 0.45592312E+00 0.20840671E+04</pdfrwt>
<pdfrwt beam="2">  1       -2 0.56369618E-01 0.20840671E+04</pdfrwt>
<totfact> 0.50097310E+00</totfact>
</mgrwt>
</event>
<event>
 6    1  0.1719556E-004  0.1140700E+04  0.7818608E-02  0.9166406E-01
         -2   -1    0    0    0  501 -0.00000000000E+00  0.00000000000E+00  0.43027704967E+03  0.43027704967E+03  0.00000000000E+00 0. -1.
          2   -1    0    0  501    0  0.00000000000E+00 -0.00000000000E+00 -0.75602266569E+03  0.75602266569E+03  0.00000000000E+00 0.  1.
         23    2    1    2    0    0 -0.37302663153E+03  0.36249609833E+03 -0.39699130384E+03  0.66129663235E+03  0.95701888627E+02 0.  0.
         13    1    3    3    0    0 -0.14940169666E+03  0.83531349388E+02 -0.13658293112E+03  0.21898230607E+03  0.00000000000E+00 0.  1.
        -13    1    3    3    0    0 -0.22362493487E+03  0.27896474894E+03 -0.26040837272E+03  0.44231432628E+03  0.00000000000E+00 0. -1.
         22    1    1    2    0    0  0.37302663153E+03 -0.36249609833E+03  0.71245687829E+02  0.52500308301E+03  0.00000000000E+00 0. -1.
<mgrwt>
<rscale>  0 0.11407001E+04</rscale>
<asrwt>0</asrwt>
<pdfrwt beam="1">  1        2 0.11631118E+00 0.11407001E+04</pdfrwt>
<pdfrwt beam="2">  1       -2 0.66196469E-01 0.11407001E+04</pdfrwt>
<totfact> 0.77186987E+01</totfact>
</mgrwt>
</event>
<event>
 6    1  0.1719556E-004  0.2933660E+03  0.7818608E-02  0.1088605E+00
         -2   -1    0    0    0  501 -0.00000000000E+00  0.00000000000E+00  0.50027225027E+02  0.50027225027E+02  0.00000000000E+00 0. -1.
          2   -1    0    0  501    0  0.00000000000E+00 -0.00000000000E+00 -0.43008396367E+03  0.43008396367E+03  0.00000000000E+00 0.  1.
         23    2    1    2    0    0 -0.97449022104E+02  0.64768526369E+02 -0.10682543269E+03  0.18287959470E+03  0.91334545331E+02 0.  0.
         13    1    3    3    0    0 -0.21017823221E+02  0.68730120054E+02 -0.53583171416E+02  0.89647836308E+02  0.00000000000E+00 0.  1.
        -13    1    3    3    0    0 -0.76431198882E+02 -0.39615936853E+01 -0.53242261270E+02  0.93231758389E+02  0.00000000000E+00 0. -1.
         22    1    1    2    0    0  0.97449022104E+02 -0.64768526369E+02 -0.27323130596E+03  0.29723159400E+03  0.00000000000E+00 0.  1.
<mgrwt>
<rscale>  0 0.29336603E+03</rscale>
<asrwt>0</asrwt>
<pdfrwt beam="1">  1        2 0.66166765E-01 0.29336603E+03</pdfrwt>
<pdfrwt beam="2">  1       -2 0.76964960E-02 0.29336603E+03</pdfrwt>
<totfact> 0.73812018E+03</totfact>
</mgrwt>
</event>
<event>
 6    1  0.1719556E-004  0.2456711E+04  0.7818608E-02  0.8418572E-01
         -2   -1    0    0    0  501 -0.00000000000E+00  0.00000000000E+00  0.12240170764E+04  0.12240170764E+04  0.00000000000E+00 0. -1.
          2   -1    0    0  501    0  0.00000000000E+00 -0.00000000000E+00 -0.12327095290E+04  0.12327095290E+04  0.00000000000E+00 0.  1.
         23    2    1    2    0    0  0.52951637339E+03  0.10401992973E+04 -0.38174832214E+03  0.12313397891E+04  0.89798257039E+02 0.  0.
         13    1    3    3    0    0  0.15528494804E+03  0.36462440582E+03 -0.95159565988E+02  0.40757786422E+03  0.00000000000E+00 0.  1.
        -13    1    3    3    0    0  0.37423142534E+03  0.67557489147E+03 -0.28658875615E+03  0.82376192486E+03  0.00000000000E+00 0. -1.
         22    1    1    2    0    0 -0.52951637339E+03 -0.10401992973E+04  0.37305586962E+03  0.12253868163E+04  0.00000000000E+00 0. -1.
<mgrwt>
<rscale>  0 0.24567112E+04</rscale>
<asrwt>0</asrwt>
<pdfrwt beam="1">  1        2 0.18964762E+00 0.24567112E+04</pdfrwt>
<pdfrwt beam="2">  1       -2 0.18831032E+00 0.24567112E+04</pdfrwt>
<totfact> 0.25791165E+00</totfact>
</mgrwt>
</event>
<event>
 6    1  0.1719556E-004  0.2597910E+04  0.7818608E-02  0.8368911E-01
          2   -1    0    0  501    0  0.00000000000E+00  0.00000000000E+00  0.16933244976E+04  0.16933244976E+04  0.00000000000E+00 0.  1.
         -2   -1    0    0    0  501 -0.00000000000E+00 -0.00000000000E+00 -0.99643312606E+03  0.99643312606E+03  0.00000000000E+00 0. -1.
         23    2    1    2    0    0 -0.47822997322E+03 -0.39333863880E+03 -0.83151549570E+03  0.10406831123E+04  0.90466174147E+02 0.  0.
         13    1    3    3    0    0 -0.31885023431E+03 -0.20840412846E+03 -0.53102117701E+03  0.65351453168E+03  0.00000000000E+00 0. -1.
        -13    1    3    3    0    0 -0.15937973891E+03 -0.18493451034E+03 -0.30049431869E+03  0.38716858067E+03  0.00000000000E+00 0.  1.
         22    1    1    2    0    0  0.47822997322E+03  0.39333863880E+03  0.15284068673E+04  0.16490745113E+04  0.00000000000E+00 0.  1.
<mgrwt>
<rscale>  0 0.25979104E+04</rscale>
<asrwt>0</asrwt>
<pdfrwt beam="1">  1        2 0.26051146E+00 0.25979104E+04</pdfrwt>
<pdfrwt beam="2">  1       -2 0.15329740E+00 0.25979104E+04</pdfrwt>
<totfact> 0.24748205E+00</totfact>
</mgrwt>
</event>
<event>
 6    1  0.1719556E-004  0.1812045E+04  0.7818608E-02  0.8699920E-01
         -1   -1    0    0    0  501 -0.00000000000E+00  0.00000000000E+00  0.13768335177E+04  0.13768335177E+04  0.00000000000E+00 0. -1.
          1   -1    0    0  501    0  0.00000000000E+00 -0.00000000000E+00 -0.59620609060E+03  0.59620609060E+03  0.00000000000E+00 0.  1.
         23    2    1    2    0    0  0.84981975345E+02  0.23966703852E+03 -0.55244543676E+03  0.61593036956E+03  0.97529657348E+02 0.  0.
         13    1    3    3    0    0  0.34712934160E+02  0.21130366746E+03 -0.41938724052E+03  0.47089264720E+03  0.00000000000E+00 0. -1.
        -13    1    3    3    0    0  0.50269041184E+02  0.28363371062E+02 -0.13305819624E+03  0.14503772236E+03  0.00000000000E+00 0.  1.
         22    1    1    2    0    0 -0.84981975345E+02 -0.23966703852E+03  0.13330728639E+04  0.13571092387E+04  0.00000000000E+00 0. -1.
<mgrwt>
<rscale>  0 0.18120447E+04</rscale>
<asrwt>0</asrwt>
<pdfrwt beam="1">  1        1 0.91724015E-01 0.18120447E+04</pdfrwt>
<pdfrwt beam="2">  1       -1 0.21182054E+00 0.18120447E+04</pdfrwt>
<totfact> 0.40704416E+00</totfact>
</mgrwt>
</event>
<event>
 6    1  0.1719556E-004  0.3163938E+04  0.7818608E-02  0.8198406E-01
          2   -1    0    0  501    0  0.00000000000E+00  0.00000000000E+00  0.15257369781E+04  0.15257369781E+04  0.00000000000E+00 0.  1.
         -2   -1    0    0    0  501 -0.00000000000E+00 -0.00000000000E+00 -0.16402735448E+04  0.16402735448E+04  0.00000000000E+00 0. -1.
         23    2    1    2    0    0  0.15106820562E+04  0.45659032097E+03 -0.14640119002E+03  0.15875142921E+04  0.90184937568E+02 0.  0.
         13    1    3    3    0    0  0.26335762723E+03  0.82640365280E+02  0.85630999903E+01  0.27615212560E+03  0.00000000000E+00 0. -1.
        -13    1    3    3    0    0  0.12473244290E+04  0.37394995569E+03 -0.15496429001E+03  0.13113621665E+04  0.00000000000E+00 0.  1.
         22    1    1    2    0    0 -0.15106820562E+04 -0.45659032097E+03  0.31864623315E+02  0.15784962307E+04  0.00000000000E+00 0.  1.
<mgrwt>
<rscale>  0 0.31639381E+04</rscale>
<asrwt>0</asrwt>
<pdfrwt beam="1">  1        2 0.23472877E+00 0.31639381E+04</pdfrwt>
<pdfrwt beam="2">  1       -2 0.25234977E+00 0.31639381E+04</pdfrwt>
<totfact> 0.64447555E-01</totfact>
</mgrwt>
</event>
<event>
 6    1  0.1719556E-004  0.4760358E+04  0.7818608E-02  0.7866576E-01
          2   -1    0    0  501    0  0.00000000000E+00  0.00000000000E+00  0.36055415798E+04  0.36055415798E+04  0.00000000000E+00 0.  1.
         -2   -1    0    0    0  501 -0.00000000000E+00 -0.00000000000E+00 -0.15712626274E+04  0.15712626274E+04  0.00000000000E+00 0. -1.
         23    2    1    2    0    0 -0.48897223506E+03  0.13045984703E+04 -0.10801239611E+04  0.17649752954E+04  0.86017478918E+02 0.  0.
         11    1    3    3    0    0 -0.18298105772E+03  0.57927076906E+03 -0.43487073722E+03  0.74709386924E+03  0.00000000000E+00 0. -1.
        -11    1    3    3    0    0 -0.30599117734E+03  0.72532770124E+03 -0.64525322390E+03  0.10178814262E+04  0.00000000000E+00 0.  1.
         22    1    1    2    0    0  0.48897223506E+03 -0.13045984703E+04  0.31144029135E+04  0.34118289117E+04  0.00000000000E+00 0.  1.
<mgrwt>
<rscale>  0 0.47603583E+04</rscale>
<asrwt>0</asrwt>
<pdfrwt beam="1">  1        2 0.55469870E+00 0.47603583E+04</pdfrwt>
<pdfrwt beam="2">  1       -2 0.24173271E+00 0.47603583E+04</pdfrwt>
<totfact> 0.36595089E-02</totfact>
</mgrwt>
</event>
<event>
 6    1  0.1719556E-004  0.2469270E+04  0.7818608E-02  0.8414016E-01
          2   -1    0    0  501    0  0.00000000000E+00  0.00000000000E+00  0.99171246480E+03  0.99171246480E+03  0.00000000000E+00 0.  1.
         -2   -1    0    0    0  501 -0.00000000000E+00 -0.00000000000E+00 -0.15370626183E+04  0.15370626183E+04  0.00000000000E+00 0. -1.
         23    2    1    2    0    0 -0.62640476974E+03  0.79912297532E+03 -0.98921681522E+03  0.14206243358E+04  0.92968439438E+02 0.  0.
         11    1    3    3    0    0 -0.12557028489E+03  0.13171835730E+03 -0.13581579545E+03  0.22707609383E+03  0.00000000000E+00 0.  1.
        -11    1    3    3    0    0 -0.50083448485E+03  0.66740461802E+03 -0.85340101977E+03  0.11935482420E+04  0.00000000000E+00 0. -1.
         22    1    1    2    0    0  0.62640476974E+03 -0.79912297532E+03  0.44386666176E+03  0.11081507473E+04  0.00000000000E+00 0.  1.
<mgrwt>
<rscale>  0 0.24692705E+04</rscale>
<asrwt>0</asrwt>
<pdfrwt beam="1">  1        2 0.15257115E+00 0.24692705E+04</pdfrwt>
<pdfrwt beam="2">  1       -2 0.23647117E+00 0.24692705E+04</pdfrwt>
<totfact> 0.17760588E+00</totfact>
</mgrwt>
</event>
<event>
 6    1  0.1719556E-004  0.3628320E+04  0.7818608E-02  0.8084035E-01
         -1   -1    0    0    0  501 -0.00000000000E+00  0.00000000000E+00  0.22315448249E+04  0.22315448249E+04  0.00000000000E+00 0.  1.
          1   -1    0    0  501    0  0.00000000000E+00 -0.00000000000E+00 -0.14748425797E+04  0.14748425797E+04  0.00000000000E+00 0. -1.
         23    2    1    2    0    0 -0.10754263153E+04  0.13360098912E+04  0.97901463304E+03  0.19769692982E+04  0.92053058555E+02 0.  0.
         13    1    3    3    0    0 -0.93632902755E+03  0.12089361856E+04  0.87012423901E+03  0.17593620833E+04  0.00000000000E+00 0. -1.
        -13    1    3    3    0    0 -0.13909728774E+03  0.12707370554E+03  0.10889039403E+03  0.21760721497E+03  0.00000000000E+00 0.  1.
         22    1    1    2    0    0  0.10754263153E+04 -0.13360098912E+04 -0.22231238787E+03  0.17294181064E+04  0.00000000000E+00 0. -1.
<mgrwt>
<rscale>  0 0.36283205E+04</rscale>
<asrwt>0</asrwt>
<pdfrwt beam="1">  1        1 0.22689886E+00 0.36283205E+04</pdfrwt>
<pdfrwt beam="2">  1       -1 0.34331459E+00 0.36283205E+04</pdfrwt>
<totfact> 0.94535577E-02</totfact>
</mgrwt>
</event>
<event>
 6    1  0.1719556E-004  0.1583625E+04  0.7818608E-02  0.8830671E-01
          1   -1    0    0  501    0  0.00000000000E+00  0.00000000000E+00  0.40598425825E+03  0.40598425825E+03  0.00000000000E+00 0.  1.
         -1   -1    0    0    0  501 -0.00000000000E+00 -0.00000000000E+00 -0.15443135466E+04  0.15443135466E+04  0.00000000000E+00 0. -1.
         23    2    1    2    0    0  0.31760371471E+03 -0.17110405016E+03 -0.14354866730E+04  0.14829101425E+04  0.90839346847E+02 0.  0.
         13    1    3    3    0    0  0.18883564013E+03 -0.92174037985E+02 -0.10039989605E+04  0.10257528284E+04  0.00000000000E+00 0.  1.
        -13    1    3    3    0    0  0.12876807458E+03 -0.78930012172E+02 -0.43148771251E+03  0.45715731417E+03  0.00000000000E+00 0. -1.
         22    1    1    2    0    0 -0.31760371471E+03  0.17110405016E+03  0.29715738468E+03  0.46738766227E+03  0.00000000000E+00 0.  1.
<mgrwt>
<rscale>  0 0.15836249E+04</rscale>
<asrwt>0</asrwt>
<pdfrwt beam="1">  1        1 0.62459116E-01 0.15836249E+04</pdfrwt>
<pdfrwt beam="2">  1       -1 0.23758670E+00 0.15836249E+04</pdfrwt>
<totfact> 0.47532685E+00</totfact>
</mgrwt>
</event>
<event>
 6    1  0.1719556E-004  0.1955678E+04  0.7818608E-02  0.8627628E-01
          2   -1    0    0  501    0  0.00000000000E+00  0.00000000000E+00  0.35443490845E+04  0.35443490845E+04  0.00000000000E+00 0. -1.
         -2   -1    0    0    0  501 -0.00000000000E+00 -0.00000000000E+00 -0.26977284142E+03  0.26977284142E+03  0.00000000000E+00 0.  1.
         23    2    1    2    0    0  0.75872231356E+02  0.72746244861E+03  0.29005345109E+04  0.29926199922E+04  0.87839394467E+02 0.  0.
         11    1    3    3    0    0  0.77192106629E+02  0.37664698632E+03  0.16075384052E+04  0.16528766736E+04  0.00000000000E+00 0. -1.
        -11    1    3    3    0    0 -0.13198752728E+01  0.35081546229E+03  0.12929961057E+04  0.13397433187E+04  0.00000000000E+00 0.  1.
         22    1    1    2    0    0 -0.75872231356E+02 -0.72746244861E+03  0.37404173210E+03  0.82150193364E+03  0.00000000000E+00 0.  1.
<mgrwt>
<rscale>  0 0.19556780E+04</rscale>
<asrwt>0</asrwt>
<pdfrwt beam="1">  1        2 0.54528444E+00 0.19556780E+04</pdfrwt>
<pdfrwt beam="2">  1       -2 0.41503516E-01 0.19556780E+04</pdfrwt>
<totfact> 0.39052502E+00</totfact>
</mgrwt>
</event>
<event>
 6    1  0.1719556E-004  0.1990571E+04  0.7818608E-02  0.8611042E-01
          2   -1    0    0  501    0  0.00000000000E+00  0.00000000000E+00  0.18571424026E+04  0.18571424026E+04  0.00000000000E+00 0.  1.
         -2   -1    0    0    0  501 -0.00000000000E+00 -0.00000000000E+00 -0.53339636822E+03  0.53339636822E+03  0.00000000000E+00 0. -1.
         23    2    1    2    0    0 -0.96283352571E+03 -0.20684979175E+03  0.81829186310E+03  0.12835974201E+04  0.90473914277E+02 0.  0.
         11    1    3    3    0    0 -0.43736579886E+03 -0.13363491616E+03  0.40878343103E+03  0.61339304391E+03  0.00000000000E+00 0.  1.
        -11    1    3    3    0    0 -0.52546772685E+03 -0.73214875593E+02  0.40950843207E+03  0.67020437622E+03  0.00000000000E+00 0. -1.
         22    1    1    2    0    0  0.96283352571E+03  0.20684979175E+03  0.50545417124E+03  0.11069413507E+04  0.00000000000E+00 0.  1.
<mgrwt>
<rscale>  0 0.19905708E+04</rscale>
<asrwt>0</asrwt>
<pdfrwt beam="1">  1        2 0.28571421E+00 0.19905708E+04</pdfrwt>
<pdfrwt beam="2">  1       -2 0.82060981E-01 0.19905708E+04</pdfrwt>
<totfact> 0.97327628E+00</totfact>
</mgrwt>
</event>
<event>
 6    1  0.1719556E-004  0.2588471E+04  0.7818608E-02  0.8372128E-01
          2   -1    0    0  501    0  0.00000000000E+00  0.00000000000E+00  0.24341139198E+04  0.24341139198E+04  0.00000000000E+00 0.  1.
         -2   -1    0    0    0  501 -0.00000000000E+00 -0.00000000000E+00 -0.68815403538E+03  0.68815403538E+03  0.00000000000E+00 0. -1.
         23    2    1    2    0    0 -0.68761660339E+03  0.96909787257E+03  0.26074850417E+03  0.12202111411E+04  0.94647591818E+02 0.  0.
         11    1    3    3    0    0 -0.24776894811E+03  0.34015339445E+03  0.46538879746E+02  0.42339065971E+03  0.00000000000E+00 0.  1.
        -11    1    3    3    0    0 -0.43984765528E+03  0.62894447812E+03  0.21420962443E+03  0.79682048142E+03  0.00000000000E+00 0. -1.
         22    1    1    2    0    0  0.68761660339E+03 -0.96909787257E+03  0.14852113803E+04  0.19020568141E+04  0.00000000000E+00 0.  1.
<mgrwt>
<rscale>  0 0.25884708E+04</rscale>
<asrwt>0</asrwt>
<pdfrwt beam="1">  1        2 0.37447906E+00 0.25884708E+04</pdfrwt>
<pdfrwt beam="2">  1       -2 0.10586985E+00 0.25884708E+04</pdfrwt>
<totfact> 0.24241793E+00</totfact>
</mgrwt>
</event>
<event>
 6    1  0.1719556E-004  0.1844655E+04  0.7818608E-02  0.8682907E-01
         -2   -1    0    0    0  501 -0.00000000000E+00  0.00000000000E+00  0.77250723401E+03  0.77250723401E+03  0.00000000000E+00 0. -1.
          2   -1    0    0  501    0  0.00000000000E+00 -0.00000000000E+00 -0.11012036538E+04  0.11012036538E+04  0.00000000000E+00 0.  1.
         23    2    1    2    0    0 -0.36222483121E+03 -0.70679502288E+03  0.30716034505E+03  0.85632214296E+03  0.90410741827E+02 0.  0.
         11    1    3    3    0    0 -0.27569496298E+03 -0.52620173600E+03  0.27051443009E+03  0.65274346911E+03  0.00000000000E+00 0. -1.
        -11    1    3    3    0    0 -0.86529868224E+02 -0.18059328688E+03  0.36645914963E+02  0.20357867385E+03  0.00000000000E+00 0.  1.
         22    1    1    2    0    0  0.36222483121E+03  0.70679502288E+03 -0.63585676481E+03  0.10173887448E+04  0.00000000000E+00 0.  1.
<mgrwt>
<rscale>  0 0.18446548E+04</rscale>
<asrwt>0</asrwt>
<pdfrwt beam="1">  1        2 0.16941595E+00 0.18446548E+04</pdfrwt>
<pdfrwt beam="2">  1       -2 0.11884727E+00 0.18446548E+04</pdfrwt>
<totfact> 0.11129085E+01</totfact>
</mgrwt>
</event>
<event>
 6    1  0.1719556E-004  0.2180097E+04  0.7818608E-02  0.8526758E-01
         -2   -1    0    0    0  501 -0.00000000000E+00  0.00000000000E+00  0.79412302510E+03  0.79412302510E+03  0.00000000000E+00 0. -1.
          2   -1    0    0  501    0  0.00000000000E+00 -0.00000000000E+00 -0.14962488565E+04  0.14962488565E+04  0.00000000000E+00 0.  1.
         23    2    1    2    0    0  0.97850994273E+01  0.10881852793E+04 -0.35703095979E+03  0.11487355907E+04  0.88765988644E+02 0.  0.
         11    1    3    3    0    0 -0.18927341711E+02  0.78149150594E+02 -0.39409364060E+02  0.89546814452E+02  0.00000000000E+00 0.  1.
        -11    1    3    3    0    0  0.28712441139E+02  0.10100361287E+04 -0.31762159574E+03  0.10591887762E+04  0.00000000000E+00 0. -1.
         22    1    1    2    0    0 -0.97850994273E+01 -0.10881852793E+04 -0.34509487160E+03  0.11416362909E+04  0.00000000000E+00 0. -1.
<mgrwt>
<rscale>  0 0.21800969E+04</rscale>
<asrwt>0</asrwt>
<pdfrwt beam="1">  1        2 0.23019213E+00 0.21800969E+04</pdfrwt>
<pdfrwt beam="2">  1       -2 0.12217277E+00 0.21800969E+04</pdfrwt>
<totfact> 0.59309798E+00</totfact>
</mgrwt>
</event>
<event>
 6    1  0.1719556E-004  0.2422719E+04  0.7818608E-02  0.8431047E-01
          2   -1    0    0  501    0  0.00000000000E+00  0.00000000000E+00  0.77175484154E+03  0.77175484154E+03  0.00000000000E+00 0.  1.
         -2   -1    0    0    0  501 -0.00000000000E+00 -0.00000000000E+00 -0.19013707210E+04  0.19013707210E+04  0.00000000000E+00 0. -1.
         23    2    1    2    0    0 -0.75270935789E+02 -0.92903259024E+03  0.28492260667E+03  0.97911068768E+03  0.93325127558E+02 0.  0.
         13    1    3    3    0    0 -0.40385292749E+02 -0.33012637453E+03  0.57456826984E+02  0.33751397304E+03  0.00000000000E+00 0. -1.
        -13    1    3    3    0    0 -0.34885643040E+02 -0.59890621571E+03  0.22746577969E+03  0.64159671464E+03  0.00000000000E+00 0.  1.
         22    1    1    2    0    0  0.75270935789E+02  0.92903259024E+03 -0.14145384861E+04  0.16940148748E+04  0.00000000000E+00 0. -1.
<mgrwt>
<rscale>  0 0.24227192E+04</rscale>
<asrwt>0</asrwt>
<pdfrwt beam="1">  1        2 0.11873152E+00 0.24227192E+04</pdfrwt>
<pdfrwt beam="2">  1       -2 0.29251857E+00 0.24227192E+04</pdfrwt>
<totfact> 0.11452812E+00</totfact>
</mgrwt>
</event>
<event>
 6    1  0.1719556E-004  0.2030866E+04  0.7818608E-02  0.8592324E-01
         -2   -1    0    0    0  501 -0.00000000000E+00  0.00000000000E+00  0.42553109435E+03  0.42553109435E+03  0.00000000000E+00 0. -1.
          2   -1    0    0  501    0  0.00000000000E+00 -0.00000000000E+00 -0.24230995024E+04  0.24230995024E+04  0.00000000000E+00 0.  1.
         23    2    1    2    0    0  0.54654990967E+03  0.80667296900E+03 -0.13916272954E+04  0.17011974986E+04  0.89489202551E+02 0.  0.
         11    1    3    3    0    0  0.34380614063E+03  0.46441530293E+03 -0.75953397265E+03  0.95434589722E+03  0.00000000000E+00 0. -1.
        -11    1    3    3    0    0  0.20274376904E+03  0.34225766607E+03 -0.63209332270E+03  0.74685160137E+03  0.00000000000E+00 0.  1.
         22    1    1    2    0    0 -0.54654990967E+03 -0.80667296900E+03 -0.60594111267E+03  0.11474330981E+04  0.00000000000E+00 0. -1.
<mgrwt>
<rscale>  0 0.20308660E+04</rscale>
<asrwt>0</asrwt>
<pdfrwt beam="1">  1        2 0.37278453E+00 0.20308660E+04</pdfrwt>
<pdfrwt beam="2">  1       -2 0.65466323E-01 0.20308660E+04</pdfrwt>
<totfact> 0.76845234E+00</totfact>
</mgrwt>
</event>
<event>
 6    1  0.1719556E-004  0.5535738E+04  0.7818608E-02  0.7750791E-01
          1   -1    0    0  501    0  0.00000000000E+00  0.00000000000E+00  0.47911589557E+04  0.47911589557E+04  0.00000000000E+00 0.  1.
         -1   -1    0    0    0  501 -0.00000000000E+00 -0.00000000000E+00 -0.15990076476E+04  0.15990076476E+04  0.00000000000E+00 0. -1.
         23    2    1    2    0    0 -0.27408911281E+04  0.17770166890E+03  0.12086304489E+04  0.30021853373E+04  0.90924024346E+02 0.  0.
         13    1    3    3    0    0 -0.19718197924E+04  0.11593219019E+03  0.82615198996E+03  0.21410372899E+04  0.00000000000E+00 0.  1.
        -13    1    3    3    0    0 -0.76907133576E+03  0.61769478715E+02  0.38247845892E+03  0.86114804739E+03  0.00000000000E+00 0. -1.
         22    1    1    2    0    0  0.27408911281E+04 -0.17770166890E+03  0.19835208592E+04  0.33879812660E+04  0.00000000000E+00 0. -1.
<mgrwt>
<rscale>  0 0.55357384E+04</rscale>
<asrwt>0</asrwt>
<pdfrwt beam="1">  1        1 0.73710137E+00 0.55357384E+04</pdfrwt>
<pdfrwt beam="2">  1       -1 0.24600118E+00 0.55357384E+04</pdfrwt>
<totfact> 0.78581231E-04</totfact>
</mgrwt>
</event>
<event>
 6    1  0.1719556E-004  0.4665131E+04  0.7818608E-02  0.7882348E-01
          2   -1    0    0  501    0  0.00000000000E+00  0.00000000000E+00  0.24831760001E+04  0.24831760001E+04  0.00000000000E+00 0.  1.
         -2   -1    0    0    0  501 -0.00000000000E+00 -0.00000000000E+00 -0.21910902441E+04  0.21910902441E+04  0.00000000000E+00 0. -1.
         23    2    1    2    0    0 -0.21997026657E+04 -0.21927202142E+03 -0.59691927413E+03  0.22915992553E+04  0.91337233179E+02 0.  0.
         11    1    3    3    0    0 -0.55447373583E+03 -0.40667319897E+02 -0.11213190429E+03  0.56715828354E+03  0.00000000000E+00 0.  1.
        -11    1    3    3    0    0 -0.16452289299E+04 -0.17860470153E+03 -0.48478736985E+03  0.17244409717E+04  0.00000000000E+00 0. -1.
         22    1    1    2    0    0  0.21997026657E+04  0.21927202142E+03  0.88900503012E+03  0.23826669890E+04  0.00000000000E+00 0.  1.
<mgrwt>
<rscale>  0 0.46651314E+04</rscale>
<asrwt>0</asrwt>
<pdfrwt beam="1">  1        2 0.38202708E+00 0.46651314E+04</pdfrwt>
<pdfrwt beam="2">  1       -2 0.33709081E+00 0.46651314E+04</pdfrwt>
<totfact> 0.49910976E-02</totfact>
</mgrwt>
</event>
<event>
 6    1  0.1719556E-004  0.3882480E+04  0.7818608E-02  0.8028683E-01
          2   -1    0    0  501    0  0.00000000000E+00  0.00000000000E+00  0.11816575280E+04  0.11816575280E+04  0.00000000000E+00 0.  1.
         -2   -1    0    0    0  501 -0.00000000000E+00 -0.00000000000E+00 -0.31890899629E+04  0.31890899629E+04  0.00000000000E+00 0. -1.
         23    2    1    2    0    0  0.46757611152E+02 -0.16472020998E+04  0.14871164679E+03  0.16570013102E+04  0.89873000772E+02 0.  0.
         13    1    3    3    0    0  0.53255511927E+02 -0.46485485958E+03  0.48206854163E+02  0.47037228959E+03  0.00000000000E+00 0.  1.
        -13    1    3    3    0    0 -0.64979007749E+01 -0.11823472402E+04  0.10050479262E+03  0.11866290206E+04  0.00000000000E+00 0. -1.
         22    1    1    2    0    0 -0.46757611152E+02  0.16472020998E+04 -0.21561440818E+04  0.27137461807E+04  0.00000000000E+00 0. -1.
<mgrwt>
<rscale>  0 0.38824797E+04</rscale>
<asrwt>0</asrwt>
<pdfrwt beam="1">  1        2 0.18179347E+00 0.38824797E+04</pdfrwt>
<pdfrwt beam="2">  1       -2 0.49062922E+00 0.38824797E+04</pdfrwt>
<totfact> 0.29231278E-02</totfact>
</mgrwt>
</event>
<event>
 6    1  0.1719556E-004  0.8755198E+03  0.7818608E-02  0.9456711E-01
          4   -1    0    0  501    0  0.00000000000E+00  0.00000000000E+00  0.31520605370E+03  0.31520605370E+03  0.00000000000E+00 0.  1.
         -4   -1    0    0    0  501 -0.00000000000E+00 -0.00000000000E+00 -0.60796337963E+03  0.60796337963E+03  0.00000000000E+00 0. -1.
         23    2    1    2    0    0 -0.36610950843E+02 -0.41976068723E+03 -0.25350925690E+03  0.49999121178E+03  0.90470283862E+02 0.  0.
         13    1    3    3    0    0 -0.18973417491E+02 -0.22873775928E+03 -0.18986058468E+03  0.29787244704E+03  0.00000000000E+00 0.  1.
        -13    1    3    3    0    0 -0.17637533353E+02 -0.19102292795E+03 -0.63648672217E+02  0.20211876474E+03  0.00000000000E+00 0. -1.
         22    1    1    2    0    0  0.36610950843E+02  0.41976068723E+03 -0.39248069038E+02  0.42317822154E+03  0.00000000000E+00 0.  1.
<mgrwt>
<rscale>  0 0.87551982E+03</rscale>
<asrwt>0</asrwt>
<pdfrwt beam="1">  1        4 0.48493239E-01 0.87551982E+03</pdfrwt>
<pdfrwt beam="2">  1       -4 0.93532827E-01 0.87551982E+03</pdfrwt>
<totfact> 0.79113610E+00</totfact>
</mgrwt>
</event>
<event>
 6    1  0.1719556E-004  0.1308564E+04  0.7818608E-02  0.9022801E-01
         -2   -1    0    0    0  501 -0.00000000000E+00  0.00000000000E+00  0.97301980896E+02  0.97301980896E+02  0.00000000000E+00 0. -1.
          2   -1    0    0  501    0  0.00000000000E+00 -0.00000000000E+00 -0.43995521131E+04  0.43995521131E+04  0.00000000000E+00 0.  1.
         23    2    1    2    0    0  0.22106502988E+03 -0.61674929935E+02 -0.42553872158E+04  0.42626113196E+04  0.94134800170E+02 0.  0.
         13    1    3    3    0    0  0.11384950500E+03  0.13356508081E+02 -0.22952492781E+04  0.22981099527E+04  0.00000000000E+00 0.  1.
        -13    1    3    3    0    0  0.10721552488E+03 -0.75031438016E+02 -0.19601379378E+04  0.19645013669E+04  0.00000000000E+00 0. -1.
         22    1    1    2    0    0 -0.22106502988E+03  0.61674929935E+02 -0.46862916315E+02  0.23424277437E+03  0.00000000000E+00 0. -1.
<mgrwt>
<rscale>  0 0.13085643E+04</rscale>
<asrwt>0</asrwt>
<pdfrwt beam="1">  1        2 0.67685420E+00 0.13085643E+04</pdfrwt>
<pdfrwt beam="2">  1       -2 0.14969535E-01 0.13085643E+04</pdfrwt>
<totfact> 0.55467796E+00</totfact>
</mgrwt>
</event>
<event>
 6    1  0.1719556E-004  0.1750292E+04  0.7818608E-02  0.8733190E-01
          2   -1    0    0  501    0  0.00000000000E+00  0.00000000000E+00  0.17865936183E+04  0.17865936183E+04  0.00000000000E+00 0.  1.
         -2   -1    0    0    0  501 -0.00000000000E+00 -0.00000000000E+00 -0.42868180710E+03  0.42868180710E+03  0.00000000000E+00 0. -1.
         23    2    1    2    0    0  0.16929219755E+03 -0.83181608914E+03  0.93759338022E+03  0.12680450217E+04  0.90988878890E+02 0.  0.
         11    1    3    3    0    0  0.15938780984E+03 -0.59557906040E+03  0.65355709988E+03  0.89847413648E+03  0.00000000000E+00 0.  1.
        -11    1    3    3    0    0  0.99043877084E+01 -0.23623702874E+03  0.28403628034E+03  0.36957088521E+03  0.00000000000E+00 0. -1.
         22    1    1    2    0    0 -0.16929219755E+03  0.83181608914E+03  0.42031843096E+03  0.94723040371E+03  0.00000000000E+00 0.  1.
<mgrwt>
<rscale>  0 0.17502916E+04</rscale>
<asrwt>0</asrwt>
<pdfrwt beam="1">  1        2 0.27486055E+00 0.17502916E+04</pdfrwt>
<pdfrwt beam="2">  1       -2 0.65951048E-01 0.17502916E+04</pdfrwt>
<totfact> 0.17601516E+01</totfact>
</mgrwt>
</event>
<event>
 6    1  0.1719556E-004  0.2126881E+04  0.7818608E-02  0.8549494E-01
         -2   -1    0    0    0  501 -0.00000000000E+00  0.00000000000E+00  0.21438019919E+04  0.21438019919E+04  0.00000000000E+00 0. -1.
          2   -1    0    0  501    0  0.00000000000E+00 -0.00000000000E+00 -0.52752338273E+03  0.52752338273E+03  0.00000000000E+00 0.  1.
         23    2    1    2    0    0 -0.16333354209E+03  0.83792422677E+03  0.16019537738E+04  0.18175103732E+04  0.91067050699E+02 0.  0.
         13    1    3    3    0    0 -0.15439053954E+03  0.58133493374E+03  0.11447142325E+04  0.12931192590E+04  0.00000000000E+00 0. -1.
        -13    1    3    3    0    0 -0.89430025570E+01  0.25658929303E+03  0.45723954125E+03  0.52439111423E+03  0.00000000000E+00 0.  1.
         22    1    1    2    0    0  0.16333354209E+03 -0.83792422677E+03  0.14324835449E+02  0.85381500144E+03  0.00000000000E+00 0.  1.
<mgrwt>
<rscale>  0 0.21268810E+04</rscale>
<asrwt>0</asrwt>
<pdfrwt beam="1">  1        2 0.81157445E-01 0.21268810E+04</pdfrwt>
<pdfrwt beam="2">  1       -2 0.32981569E+00 0.21268810E+04</pdfrwt>
<totfact> 0.11083938E+00</totfact>
</mgrwt>
</event>
<event>
 6    1  0.1719556E-004  0.7951546E+03  0.7818608E-02  0.9567057E-01
          1   -1    0    0  501    0  0.00000000000E+00  0.00000000000E+00  0.20656827605E+03  0.20656827605E+03  0.00000000000E+00 0.  1.
         -1   -1    0    0    0  501 -0.00000000000E+00 -0.00000000000E+00 -0.76520801987E+03  0.76520801987E+03  0.00000000000E+00 0. -1.
         23    2    1    2    0    0  0.24779690794E+03 -0.25083933681E+03 -0.49490265611E+03  0.61346623909E+03  0.84193271723E+02 0.  0.
         11    1    3    3    0    0  0.11663620930E+03 -0.71889445287E+02 -0.23218532773E+03  0.26959622415E+03  0.00000000000E+00 0. -1.
        -11    1    3    3    0    0  0.13116069864E+03 -0.17894989152E+03 -0.26271732838E+03  0.34387001494E+03  0.00000000000E+00 0.  1.
         22    1    1    2    0    0 -0.24779690794E+03  0.25083933681E+03 -0.63737087715E+02  0.35831005683E+03  0.00000000000E+00 0.  1.
<mgrwt>
<rscale>  0 0.79515458E+03</rscale>
<asrwt>0</asrwt>
<pdfrwt beam="1">  1        1 0.31779735E-01 0.79515458E+03</pdfrwt>
<pdfrwt beam="2">  1       -1 0.11772431E+00 0.79515458E+03</pdfrwt>
<totfact> 0.93745796E+01</totfact>
</mgrwt>
</event>
<event>
 6    1  0.1719556E-004  0.9187932E+03  0.7818608E-02  0.9402389E-01
         -1   -1    0    0    0  501 -0.00000000000E+00  0.00000000000E+00  0.36849756008E+03  0.36849756008E+03  0.00000000000E+00 0. -1.
          1   -1    0    0  501    0  0.00000000000E+00 -0.00000000000E+00 -0.57271818563E+03  0.57271818563E+03  0.00000000000E+00 0.  1.
         23    2    1    2    0    0 -0.18791606176E+02 -0.10122113957E+03 -0.55794143870E+03  0.57281751388E+03  0.78882264340E+02 0.  0.
         11    1    3    3    0    0 -0.16537164863E+02 -0.45547805412E+02 -0.43676257571E+03  0.43944240571E+03  0.00000000000E+00 0. -1.
        -11    1    3    3    0    0 -0.22544413136E+01 -0.55673334158E+02 -0.12117886299E+03  0.13337510817E+03  0.00000000000E+00 0.  1.
         22    1    1    2    0    0  0.18791606176E+02  0.10122113957E+03  0.35372081315E+03  0.36839823183E+03  0.00000000000E+00 0. -1.
<mgrwt>
<rscale>  0 0.91879324E+03</rscale>
<asrwt>0</asrwt>
<pdfrwt beam="1">  1        1 0.88110490E-01 0.91879324E+03</pdfrwt>
<pdfrwt beam="2">  1       -1 0.56691932E-01 0.91879324E+03</pdfrwt>
<totfact> 0.11614193E+02</totfact>
</mgrwt>
</event>
<event>
 6    1  0.2056557E-004  0.3309562E+04  0.7818608E-02  0.8160466E-01
          2   -1    0    0  501    0  0.00000000000E+00  0.00000000000E+00  0.21868844031E+04  0.21868844031E+04  0.00000000000E+00 0.  1.
         -2   -1    0    0    0  501 -0.00000000000E+00 -0.00000000000E+00 -0.12521470254E+04  0.12521470254E+04  0.00000000000E+00 0. -1.
         23    2    1    2    0    0  0.88848391870E+03 -0.13881477128E+04  0.32885502241E+03  0.16830555817E+04  0.90403090471E+02 0.  0.
         11    1    3    3    0    0  0.31258883623E+03 -0.56745176683E+03  0.11739458261E+03  0.65840320188E+03  0.00000000000E+00 0. -1.
        -11    1    3    3    0    0  0.57589508248E+03 -0.82069594599E+03  0.21146043981E+03  0.10246523798E+04  0.00000000000E+00 0.  1.
         22    1    1    2    0    0 -0.88848391870E+03  0.13881477128E+04  0.60588235530E+03  0.17559758469E+04  0.00000000000E+00 0.  1.
<mgrwt>
<rscale>  0 0.33095624E+04</rscale>
<asrwt>0</asrwt>
<pdfrwt beam="1">  1        2 0.33644375E+00 0.33095624E+04</pdfrwt>
<pdfrwt beam="2">  1       -2 0.19263800E+00 0.33095624E+04</pdfrwt>
<totfact> 0.65234619E-01</totfact>
</mgrwt>
</event>
<event>
 6    1  0.1719556E-004  0.2498852E+04  0.7818608E-02  0.8403395E-01
          2   -1    0    0  501    0  0.00000000000E+00  0.00000000000E+00  0.26305931769E+04  0.26305931769E+04  0.00000000000E+00 0.  1.
         -2   -1    0    0    0  501 -0.00000000000E+00 -0.00000000000E+00 -0.59342719431E+03  0.59342719431E+03  0.00000000000E+00 0. -1.
         23    2    1    2    0    0  0.66007932221E+03  0.10501550357E+04  0.84501739062E+03  0.15036283880E+04  0.91179098940E+02 0.  0.
         13    1    3    3    0    0  0.39681447003E+02  0.97218855312E+02  0.50925675383E+02  0.11670281692E+03  0.00000000000E+00 0.  1.
        -13    1    3    3    0    0  0.62039787521E+03  0.95293618038E+03  0.79409171524E+03  0.13869255711E+04  0.00000000000E+00 0. -1.
         22    1    1    2    0    0 -0.66007932221E+03 -0.10501550357E+04  0.11921485919E+04  0.17203919832E+04  0.00000000000E+00 0.  1.
<mgrwt>
<rscale>  0 0.24988522E+04</rscale>
<asrwt>0</asrwt>
<pdfrwt beam="1">  1        2 0.40470664E+00 0.24988522E+04</pdfrwt>
<pdfrwt beam="2">  1       -2 0.91296493E-01 0.24988522E+04</pdfrwt>
<totfact> 0.26621266E+00</totfact>
</mgrwt>
</event>
<event>
 6    1  0.1719556E-004  0.1214344E+04  0.7818608E-02  0.9100393E-01
          2   -1    0    0  501    0  0.00000000000E+00  0.00000000000E+00  0.31460696203E+04  0.31460696203E+04  0.00000000000E+00 0.  1.
         -2   -1    0    0    0  501 -0.00000000000E+00 -0.00000000000E+00 -0.11718041765E+03  0.11718041765E+03  0.00000000000E+00 0. -1.
         23    2    1    2    0    0 -0.37045237046E+03  0.46002933279E+03  0.11862016525E+04  0.13282153216E+04  0.90662199781E+02 0.  0.
         13    1    3    3    0    0 -0.27972564520E+03  0.34257411131E+03  0.79392842373E+03  0.90880459964E+03  0.00000000000E+00 0.  1.
        -13    1    3    3    0    0 -0.90726725265E+02  0.11745522148E+03  0.39227322873E+03  0.41941072198E+03  0.00000000000E+00 0. -1.
         22    1    1    2    0    0  0.37045237046E+03 -0.46002933279E+03  0.18426875502E+04  0.19350347163E+04  0.00000000000E+00 0. -1.
<mgrwt>
<rscale>  0 0.12143439E+04</rscale>
<asrwt>0</asrwt>
<pdfrwt beam="1">  1        2 0.48401065E+00 0.12143439E+04</pdfrwt>
<pdfrwt beam="2">  1       -2 0.18027759E-01 0.12143439E+04</pdfrwt>
<totfact> 0.36114092E+01</totfact>
</mgrwt>
</event>
<event>
 6    1  0.1719556E-004  0.1037199E+04  0.7818608E-02  0.9268661E-01
          2   -1    0    0  501    0  0.00000000000E+00  0.00000000000E+00  0.12163916062E+04  0.12163916062E+04  0.00000000000E+00 0. -1.
         -2   -1    0    0    0  501 -0.00000000000E+00 -0.00000000000E+00 -0.22110116924E+03  0.22110116924E+03  0.00000000000E+00 0.  1.
         23    2    1    2    0    0 -0.32916846235E+02 -0.29826956546E+03  0.10808281224E+04  0.11254592066E+04  0.91764606920E+02 0.  0.
         11    1    3    3    0    0 -0.60430173819E+02 -0.23148383565E+03  0.76801752407E+03  0.80441748449E+03  0.00000000000E+00 0.  1.
        -11    1    3    3    0    0  0.27513327584E+02 -0.66785729804E+02  0.31281059837E+03  0.32104172214E+03  0.00000000000E+00 0. -1.
         22    1    1    2    0    0  0.32916846235E+02  0.29826956546E+03 -0.85537685469E+02  0.31203356883E+03  0.00000000000E+00 0.  1.
<mgrwt>
<rscale>  0 0.10371993E+04</rscale>
<asrwt>0</asrwt>
<pdfrwt beam="1">  1        2 0.18713717E+00 0.10371993E+04</pdfrwt>
<pdfrwt beam="2">  1       -2 0.34015565E-01 0.10371993E+04</pdfrwt>
<totfact> 0.14909981E+02</totfact>
</mgrwt>
</event>
<event>
 6    1  0.1719556E-004  0.1843831E+04  0.7818608E-02  0.8683332E-01
          1   -1    0    0  501    0  0.00000000000E+00  0.00000000000E+00  0.55944040286E+03  0.55944040286E+03  0.00000000000E+00 0.  1.
         -1   -1    0    0    0  501 -0.00000000000E+00 -0.00000000000E+00 -0.15192469093E+04  0.15192469093E+04  0.00000000000E+00 0. -1.
         23    2    1    2    0    0  0.62878972510E+03 -0.15127749650E+03 -0.12181519190E+04  0.13822652048E+04  0.92204118031E+02 0.  0.
         11    1    3    3    0    0  0.38934980733E+03 -0.13740823995E+03 -0.74307663111E+03  0.85008068828E+03  0.00000000000E+00 0.  1.
        -11    1    3    3    0    0  0.23943991776E+03 -0.13869256551E+02 -0.47507528787E+03  0.53218451653E+03  0.00000000000E+00 0. -1.
         22    1    1    2    0    0 -0.62878972510E+03  0.15127749650E+03  0.25834541258E+03  0.69642210730E+03  0.00000000000E+00 0.  1.
<mgrwt>
<rscale>  0 0.18438309E+04</rscale>
<asrwt>0</asrwt>
<pdfrwt beam="1">  1        1 0.86067757E-01 0.18438309E+04</pdfrwt>
<pdfrwt beam="2">  1       -1 0.23373029E+00 0.18438309E+04</pdfrwt>
<totfact> 0.31739484E+00</totfact>
</mgrwt>
</event>
<event>
 6    1  0.1719556E-004  0.3405093E+04  0.7818608E-02  0.8136657E-01
          2   -1    0    0  501    0  0.00000000000E+00  0.00000000000E+00  0.25692628078E+04  0.25692628078E+04  0.00000000000E+00 0.  1.
         -2   -1    0    0    0  501 -0.00000000000E+00 -0.00000000000E+00 -0.11282087212E+04  0.11282087212E+04  0.00000000000E+00 0. -1.
         23    2    1    2    0    0  0.63367646107E+03  0.74547839500E+03  0.22323587512E+04  0.24391206373E+04  0.92736153831E+02 0.  0.
         11    1    3    3    0    0  0.24778745522E+02  0.64142707401E+02  0.14236588911E+03  0.15810224390E+03  0.00000000000E+00 0. -1.
        -11    1    3    3    0    0  0.60889771555E+03  0.68133568759E+03  0.20899928621E+04  0.22810183934E+04  0.00000000000E+00 0.  1.
         22    1    1    2    0    0 -0.63367646107E+03 -0.74547839500E+03 -0.79130466461E+03  0.12583508918E+04  0.00000000000E+00 0. -1.
<mgrwt>
<rscale>  0 0.34050931E+04</rscale>
<asrwt>0</asrwt>
<pdfrwt beam="1">  1        2 0.39527120E+00 0.34050931E+04</pdfrwt>
<pdfrwt beam="2">  1       -2 0.17357057E+00 0.34050931E+04</pdfrwt>
<totfact> 0.52812511E-01</totfact>
</mgrwt>
</event>
<event>
 6    1  0.1719556E-004  0.2161447E+04  0.7818608E-02  0.8534648E-01
         -1   -1    0    0    0  501 -0.00000000000E+00  0.00000000000E+00  0.51755064239E+03  0.51755064239E+03  0.00000000000E+00 0.  1.
          1   -1    0    0  501    0  0.00000000000E+00 -0.00000000000E+00 -0.22567127496E+04  0.22567127496E+04  0.00000000000E+00 0. -1.
         23    2    1    2    0    0  0.29281162498E+03 -0.58129491515E+03 -0.19753948255E+04  0.20818413217E+04  0.90753215035E+02 0.  0.
         13    1    3    3    0    0  0.18485530532E+03 -0.27707485697E+03 -0.93797308371E+03  0.99535695408E+03  0.00000000000E+00 0. -1.
        -13    1    3    3    0    0  0.10795631966E+03 -0.30422005819E+03 -0.10374217418E+04  0.10864843676E+04  0.00000000000E+00 0.  1.
         22    1    1    2    0    0 -0.29281162498E+03  0.58129491515E+03  0.23623271836E+03  0.69242207022E+03  0.00000000000E+00 0.  1.
<mgrwt>
<rscale>  0 0.21614469E+04</rscale>
<asrwt>0</asrwt>
<pdfrwt beam="1">  1        1 0.34718658E+00 0.21614469E+04</pdfrwt>
<pdfrwt beam="2">  1       -1 0.79623176E-01 0.21614469E+04</pdfrwt>
<totfact> 0.28719040E+00</totfact>
</mgrwt>
</event>
<event>
 6    1  0.1719556E-004  0.2351704E+04  0.7818608E-02  0.8457809E-01
         -1   -1    0    0    0  501 -0.00000000000E+00  0.00000000000E+00  0.14265293029E+04  0.14265293029E+04  0.00000000000E+00 0. -1.
          1   -1    0    0  501    0  0.00000000000E+00 -0.00000000000E+00 -0.96922545417E+03  0.96922545417E+03  0.00000000000E+00 0.  1.
         23    2    1    2    0    0  0.98857494013E+03 -0.55551976904E+03 -0.80993943515E+02  0.11405069173E+04  0.91177758110E+02 0.  0.
         11    1    3    3    0    0  0.86800227106E+03 -0.46123898871E+03 -0.49120115565E+02  0.98416570405E+03  0.00000000000E+00 0. -1.
        -11    1    3    3    0    0  0.12057266907E+03 -0.94280780331E+02 -0.31873827950E+02  0.15634121330E+03  0.00000000000E+00 0.  1.
         22    1    1    2    0    0 -0.98857494013E+03  0.55551976904E+03  0.53829779226E+03  0.12552478397E+04  0.00000000000E+00 0. -1.
<mgrwt>
<rscale>  0 0.23517045E+04</rscale>
<asrwt>0</asrwt>
<pdfrwt beam="1">  1        1 0.14911161E+00 0.23517045E+04</pdfrwt>
<pdfrwt beam="2">  1       -1 0.21946605E+00 0.23517045E+04</pdfrwt>
<totfact> 0.15975350E+00</totfact>
</mgrwt>
</event>
<event>
 6    1  0.1719556E-004  0.1322638E+04  0.7818608E-02  0.9011803E-01
         -2   -1    0    0    0  501 -0.00000000000E+00  0.00000000000E+00  0.24849495256E+03  0.24849495256E+03  0.00000000000E+00 0. -1.
          2   -1    0    0  501    0  0.00000000000E+00 -0.00000000000E+00 -0.17599676096E+04  0.17599676096E+04  0.00000000000E+00 0.  1.
         23    2    1    2    0    0  0.60891012785E+03 -0.19654090887E+03 -0.52471007771E+03  0.83240973145E+03  0.90473325962E+02 0.  0.
         11    1    3    3    0    0  0.46691541730E+03 -0.14669242329E+03 -0.44798103636E+03  0.66348751526E+03  0.00000000000E+00 0.  1.
        -11    1    3    3    0    0  0.14199471055E+03 -0.49848485574E+02 -0.76729041351E+02  0.16892221620E+03  0.00000000000E+00 0. -1.
         22    1    1    2    0    0 -0.60891012785E+03  0.19654090887E+03 -0.98676257935E+03  0.11760528307E+04  0.00000000000E+00 0.  1.
<mgrwt>
<rscale>  0 0.13226384E+04</rscale>
<asrwt>0</asrwt>
<pdfrwt beam="1">  1        2 0.27076424E+00 0.13226384E+04</pdfrwt>
<pdfrwt beam="2">  1       -2 0.38229994E-01 0.13226384E+04</pdfrwt>
<totfact> 0.57422155E+01</totfact>
</mgrwt>
</event>
<event>
 6    1  0.1719556E-004  0.4348409E+04  0.7818608E-02  0.7937727E-01
          2   -1    0    0  501    0  0.00000000000E+00  0.00000000000E+00  0.19815158996E+04  0.19815158996E+04  0.00000000000E+00 0.  1.
         -2   -1    0    0    0  501 -0.00000000000E+00 -0.00000000000E+00 -0.23856305329E+04  0.23856305329E+04  0.00000000000E+00 0. -1.
         23    2    1    2    0    0  0.90325324998E+03 -0.63243472120E+03 -0.20830288035E+04  0.23585168247E+04  0.88048316197E+02 0.  0.
         11    1    3    3    0    0  0.53978867171E+03 -0.40761788229E+03 -0.12001358009E+04  0.13776247997E+04  0.00000000000E+00 0.  1.
        -11    1    3    3    0    0  0.36346457827E+03 -0.22481683891E+03 -0.88289300263E+03  0.98089202505E+03  0.00000000000E+00 0. -1.
         22    1    1    2    0    0 -0.90325324998E+03  0.63243472120E+03  0.16789141702E+04  0.20086296078E+04  0.00000000000E+00 0.  1.
<mgrwt>
<rscale>  0 0.43484088E+04</rscale>
<asrwt>0</asrwt>
<pdfrwt beam="1">  1        2 0.30484860E+00 0.43484088E+04</pdfrwt>
<pdfrwt beam="2">  1       -2 0.36702008E+00 0.43484088E+04</pdfrwt>
<totfact> 0.63649324E-02</totfact>
</mgrwt>
</event>
<event>
 6    1  0.1719556E-004  0.3231530E+04  0.7818608E-02  0.8180540E-01
          2   -1    0    0  501    0  0.00000000000E+00  0.00000000000E+00  0.15900675311E+04  0.15900675311E+04  0.00000000000E+00 0.  1.
         -2   -1    0    0    0  501 -0.00000000000E+00 -0.00000000000E+00 -0.16418772867E+04  0.16418772867E+04  0.00000000000E+00 0. -1.
         23    2    1    2    0    0 -0.12505228209E+04 -0.67797600736E+03  0.73771966498E+03  0.16050411642E+04  0.92021966946E+02 0.  0.
         13    1    3    3    0    0 -0.24695177870E+03 -0.17642980217E+03  0.15238339526E+03  0.33960764898E+03  0.00000000000E+00 0.  1.
        -13    1    3    3    0    0 -0.10035710422E+04 -0.50154620520E+03  0.58533626972E+03  0.12654335152E+04  0.00000000000E+00 0. -1.
         22    1    1    2    0    0  0.12505228209E+04  0.67797600736E+03 -0.78952942064E+03  0.16269036536E+04  0.00000000000E+00 0. -1.
<mgrwt>
<rscale>  0 0.32315295E+04</rscale>
<asrwt>0</asrwt>
<pdfrwt beam="1">  1        2 0.24462578E+00 0.32315295E+04</pdfrwt>
<pdfrwt beam="2">  1       -2 0.25259650E+00 0.32315295E+04</pdfrwt>
<totfact> 0.58765650E-01</totfact>
</mgrwt>
</event>
<event>
 6    1  0.1719556E-004  0.2519202E+04  0.7818608E-02  0.8396177E-01
          1   -1    0    0  501    0  0.00000000000E+00  0.00000000000E+00  0.10714181858E+04  0.10714181858E+04  0.00000000000E+00 0. -1.
         -1   -1    0    0    0  501 -0.00000000000E+00 -0.00000000000E+00 -0.14808359213E+04  0.14808359213E+04  0.00000000000E+00 0.  1.
         23    2    1    2    0    0 -0.96408072339E+03  0.12775613776E+03 -0.10133917254E+04  0.14074581199E+04  0.90566540989E+02 0.  0.
         11    1    3    3    0    0 -0.70619279579E+03  0.53106830709E+02 -0.72811869315E+03  0.10157191697E+04  0.00000000000E+00 0.  1.
        -11    1    3    3    0    0 -0.25788792760E+03  0.74649307055E+02 -0.28527303221E+03  0.39173895026E+03  0.00000000000E+00 0. -1.
         22    1    1    2    0    0  0.96408072339E+03 -0.12775613776E+03  0.60397398983E+03  0.11447959872E+04  0.00000000000E+00 0. -1.
<mgrwt>
<rscale>  0 0.25192019E+04</rscale>
<asrwt>0</asrwt>
<pdfrwt beam="1">  1        1 0.16483357E+00 0.25192019E+04</pdfrwt>
<pdfrwt beam="2">  1       -1 0.22782091E+00 0.25192019E+04</pdfrwt>
<totfact> 0.11535031E+00</totfact>
</mgrwt>
</event>
<event>
 6    1  0.1719556E-004  0.2989822E+04  0.7818608E-02  0.8246643E-01
         -2   -1    0    0    0  501 -0.00000000000E+00  0.00000000000E+00  0.90443309144E+03  0.90443309144E+03  0.00000000000E+00 0. -1.
          2   -1    0    0  501    0  0.00000000000E+00 -0.00000000000E+00 -0.24708939829E+04  0.24708939829E+04  0.00000000000E+00 0.  1.
         23    2    1    2    0    0  0.93665934695E+03  0.23263051027E+03  0.50295458571E+03  0.10919243276E+04  0.88812923941E+02 0.  0.
         11    1    3    3    0    0  0.99597961931E+02  0.21178630535E+01  0.34767216492E+02  0.10551302624E+03  0.00000000000E+00 0. -1.
        -11    1    3    3    0    0  0.83706138501E+03  0.23051264721E+03  0.46818736922E+03  0.98641130139E+03  0.00000000000E+00 0.  1.
         22    1    1    2    0    0 -0.93665934695E+03 -0.23263051027E+03 -0.20694154772E+04  0.22834027467E+04  0.00000000000E+00 0.  1.
<mgrwt>
<rscale>  0 0.29898216E+04</rscale>
<asrwt>0</asrwt>
<pdfrwt beam="1">  1        2 0.38013753E+00 0.29898216E+04</pdfrwt>
<pdfrwt beam="2">  1       -2 0.13914355E+00 0.29898216E+04</pdfrwt>
<totfact> 0.11312288E+00</totfact>
</mgrwt>
</event>
<event>
 6    1  0.1719556E-004  0.1686112E+04  0.7818608E-02  0.8769325E-01
         -2   -1    0    0    0  501 -0.00000000000E+00  0.00000000000E+00  0.57230370168E+03  0.57230370168E+03  0.00000000000E+00 0. -1.
          2   -1    0    0  501    0  0.00000000000E+00 -0.00000000000E+00 -0.12418997682E+04  0.12418997682E+04  0.00000000000E+00 0.  1.
         23    2    1    2    0    0 -0.59774553328E+03  0.12066472109E+03  0.28680356678E+03  0.67993720659E+03  0.90546239702E+02 0.  0.
         11    1    3    3    0    0 -0.26539396403E+03  0.48190876427E+02  0.77931693144E+02  0.28076621149E+03  0.00000000000E+00 0.  1.
        -11    1    3    3    0    0 -0.33235156924E+03  0.72473844661E+02  0.20887187363E+03  0.39917099511E+03  0.00000000000E+00 0. -1.
         22    1    1    2    0    0  0.59774553328E+03 -0.12066472109E+03 -0.95639963328E+03  0.11342662633E+04  0.00000000000E+00 0.  1.
<mgrwt>
<rscale>  0 0.16861125E+04</rscale>
<asrwt>0</asrwt>
<pdfrwt beam="1">  1        2 0.19106150E+00 0.16861125E+04</pdfrwt>
<pdfrwt beam="2">  1       -2 0.88046725E-01 0.16861125E+04</pdfrwt>
<totfact> 0.18939720E+01</totfact>
</mgrwt>
</event>
<event>
 6    1  0.1719556E-004  0.1810753E+04  0.7818608E-02  0.8700602E-01
          2   -1    0    0  501    0  0.00000000000E+00  0.00000000000E+00  0.35830133069E+04  0.35830133069E+04  0.00000000000E+00 0. -1.
         -2   -1    0    0    0  501 -0.00000000000E+00 -0.00000000000E+00 -0.22877571123E+03  0.22877571123E+03  0.00000000000E+00 0.  1.
         23    2    1    2    0    0 -0.11988015446E+03 -0.78354445804E+03  0.77063191044E+03  0.11093213484E+04  0.91690476439E+02 0.  0.
         11    1    3    3    0    0 -0.80822045302E+02 -0.28484681396E+03  0.25267150804E+03  0.38924645330E+03  0.00000000000E+00 0.  1.
        -11    1    3    3    0    0 -0.39058109157E+02 -0.49869764408E+03  0.51796040239E+03  0.72007489510E+03  0.00000000000E+00 0. -1.
         22    1    1    2    0    0  0.11988015446E+03  0.78354445804E+03  0.25836056853E+04  0.27024676698E+04  0.00000000000E+00 0. -1.
<mgrwt>
<rscale>  0 0.18107528E+04</rscale>
<asrwt>0</asrwt>
<pdfrwt beam="1">  1        2 0.55123278E+00 0.18107528E+04</pdfrwt>
<pdfrwt beam="2">  1       -2 0.35196266E-01 0.18107528E+04</pdfrwt>
<totfact> 0.51220028E+00</totfact>
</mgrwt>
</event>
<event>
 6    1  0.1891631E-004  0.2679990E+04  0.7818608E-02  0.8341527E-01
         -2   -1    0    0    0  501 -0.00000000000E+00  0.00000000000E+00  0.17071523087E+04  0.17071523087E+04  0.00000000000E+00 0. -1.
          2   -1    0    0  501    0  0.00000000000E+00 -0.00000000000E+00 -0.10518021499E+04  0.10518021499E+04  0.00000000000E+00 0.  1.
         23    2    1    2    0    0  0.28939395974E+03 -0.60919530283E+03 -0.86203142055E+03  0.10984380817E+04  0.92737631478E+02 0.  0.
         13    1    3    3    0    0  0.18104372426E+03 -0.35419596248E+03 -0.43554691060E+03  0.58985822132E+03  0.00000000000E+00 0. -1.
        -13    1    3    3    0    0  0.10835023548E+03 -0.25499934035E+03 -0.42648450995E+03  0.50857986033E+03  0.00000000000E+00 0.  1.
         22    1    1    2    0    0 -0.28939395974E+03  0.60919530283E+03  0.15173815793E+04  0.16605163770E+04  0.00000000000E+00 0. -1.
<mgrwt>
<rscale>  0 0.26799899E+04</rscale>
<asrwt>0</asrwt>
<pdfrwt beam="1">  1        2 0.16181572E+00 0.26799899E+04</pdfrwt>
<pdfrwt beam="2">  1       -2 0.26263882E+00 0.26799899E+04</pdfrwt>
<totfact> 0.11028266E+00</totfact>
</mgrwt>
</event>
<event>
 6    1  0.1719556E-004  0.3569428E+04  0.7818608E-02  0.8097531E-01
          1   -1    0    0  501    0  0.00000000000E+00  0.00000000000E+00  0.18709998709E+04  0.18709998709E+04  0.00000000000E+00 0. -1.
         -1   -1    0    0    0  501 -0.00000000000E+00 -0.00000000000E+00 -0.17024071856E+04  0.17024071856E+04  0.00000000000E+00 0.  1.
         23    2    1    2    0    0 -0.59426168549E+02 -0.37189220713E+03  0.18296209324E+04  0.18702188341E+04  0.91490153328E+02 0.  0.
         11    1    3    3    0    0  0.14256851436E+02 -0.13786209818E+03  0.54273834418E+03  0.56015544822E+03  0.00000000000E+00 0. -1.
        -11    1    3    3    0    0 -0.73683019985E+02 -0.23403010895E+03  0.12868825882E+04  0.13100633859E+04  0.00000000000E+00 0.  1.
         22    1    1    2    0    0  0.59426168549E+02  0.37189220713E+03 -0.16610282470E+04  0.17031882223E+04  0.00000000000E+00 0.  1.
<mgrwt>
<rscale>  0 0.35694278E+04</rscale>
<asrwt>0</asrwt>
<pdfrwt beam="1">  1        1 0.28784613E+00 0.35694278E+04</pdfrwt>
<pdfrwt beam="2">  1       -1 0.26190880E+00 0.35694278E+04</pdfrwt>
<totfact> 0.17244088E-01</totfact>
</mgrwt>
</event>
<event>
 6    1  0.1842396E-004  0.3214641E+04  0.7818608E-02  0.8184961E-01
         -2   -1    0    0    0  501 -0.00000000000E+00  0.00000000000E+00  0.11468376302E+04  0.11468376302E+04  0.00000000000E+00 0. -1.
          2   -1    0    0  501    0  0.00000000000E+00 -0.00000000000E+00 -0.22526983984E+04  0.22526983984E+04  0.00000000000E+00 0.  1.
         23    2    1    2    0    0 -0.76470728358E+03  0.33616924035E+03 -0.20039492163E+04  0.21730166245E+04  0.91661339438E+02 0.  0.
         11    1    3    3    0    0 -0.29699134399E+03  0.13198124291E+03 -0.66675368616E+03  0.74174347647E+03  0.00000000000E+00 0. -1.
        -11    1    3    3    0    0 -0.46771593959E+03  0.20418799744E+03 -0.13371955302E+04  0.14312731481E+04  0.00000000000E+00 0.  1.
         22    1    1    2    0    0  0.76470728358E+03 -0.33616924035E+03  0.89808844815E+03  0.12265194040E+04  0.00000000000E+00 0. -1.
<mgrwt>
<rscale>  0 0.32146411E+04</rscale>
<asrwt>0</asrwt>
<pdfrwt beam="1">  1        2 0.34656898E+00 0.32146411E+04</pdfrwt>
<pdfrwt beam="2">  1       -2 0.17643656E+00 0.32146411E+04</pdfrwt>
<totfact> 0.77857009E-01</totfact>
</mgrwt>
</event>
<event>
 6    1  0.1719556E-004  0.1931990E+04  0.7818608E-02  0.8639095E-01
         -2   -1    0    0    0  501 -0.00000000000E+00  0.00000000000E+00  0.18137848957E+04  0.18137848957E+04  0.00000000000E+00 0. -1.
          2   -1    0    0  501    0  0.00000000000E+00 -0.00000000000E+00 -0.51447477897E+03  0.51447477897E+03  0.00000000000E+00 0.  1.
         23    2    1    2    0    0  0.90676887933E+03 -0.16567528806E+03  0.31243823049E+03  0.97785446829E+03  0.94358951212E+02 0.  0.
         11    1    3    3    0    0  0.34540956884E+03 -0.10407348182E+03  0.14531035450E+03  0.38891407662E+03  0.00000000000E+00 0. -1.
        -11    1    3    3    0    0  0.56135931049E+03 -0.61601806245E+02  0.16712787599E+03  0.58894039167E+03  0.00000000000E+00 0.  1.
         22    1    1    2    0    0 -0.90676887933E+03  0.16567528806E+03  0.98687188626E+03  0.13504052064E+04  0.00000000000E+00 0. -1.
<mgrwt>
<rscale>  0 0.19319903E+04</rscale>
<asrwt>0</asrwt>
<pdfrwt beam="1">  1        2 0.79149967E-01 0.19319903E+04</pdfrwt>
<pdfrwt beam="2">  1       -2 0.27904383E+00 0.19319903E+04</pdfrwt>
<totfact> 0.23761785E+00</totfact>
</mgrwt>
</event>
<event>
 6    1  0.1719556E-004  0.1366534E+04  0.7818608E-02  0.8978405E-01
         -2   -1    0    0    0  501 -0.00000000000E+00  0.00000000000E+00  0.84752795550E+03  0.84752795550E+03  0.00000000000E+00 0. -1.
          2   -1    0    0  501    0  0.00000000000E+00 -0.00000000000E+00 -0.55084190521E+03  0.55084190521E+03  0.00000000000E+00 0.  1.
         23    2    1    2    0    0  0.33408127889E+03  0.38813686834E+03 -0.30911172845E+03  0.60511613196E+03  0.91405377448E+02 0.  0.
         11    1    3    3    0    0  0.13094105085E+03  0.18630428190E+03 -0.91322030496E+02  0.24534579170E+03  0.00000000000E+00 0.  1.
        -11    1    3    3    0    0  0.20314022804E+03  0.20183258644E+03 -0.21778969795E+03  0.35977034026E+03  0.00000000000E+00 0. -1.
         22    1    1    2    0    0 -0.33408127889E+03 -0.38813686834E+03  0.60579777873E+03  0.79325372876E+03  0.00000000000E+00 0. -1.
<mgrwt>
<rscale>  0 0.13665342E+04</rscale>
<asrwt>0</asrwt>
<pdfrwt beam="1">  1        2 0.84744909E-01 0.13665342E+04</pdfrwt>
<pdfrwt beam="2">  1       -2 0.13038892E+00 0.13665342E+04</pdfrwt>
<totfact> 0.23097487E+01</totfact>
</mgrwt>
</event>
<event>
 6    1  0.1719556E-004  0.2881174E+04  0.7818608E-02  0.8278501E-01
          2   -1    0    0  501    0  0.00000000000E+00  0.00000000000E+00  0.24148142071E+04  0.24148142071E+04  0.00000000000E+00 0.  1.
         -2   -1    0    0    0  501 -0.00000000000E+00 -0.00000000000E+00 -0.85939990851E+03  0.85939990851E+03  0.00000000000E+00 0. -1.
         23    2    1    2    0    0 -0.93390761151E+02  0.99071120716E+03  0.19599661765E+04  0.22000201144E+04  0.91600000781E+02 0.  0.
         13    1    3    3    0    0 -0.49744157689E+02  0.42649906371E+03  0.94432631825E+03  0.10373659566E+04  0.00000000000E+00 0. -1.
        -13    1    3    3    0    0 -0.43646603462E+02  0.56421214346E+03  0.10156398583E+04  0.11626541578E+04  0.00000000000E+00 0.  1.
         22    1    1    2    0    0  0.93390761151E+02 -0.99071120716E+03 -0.40455187799E+03  0.10741940012E+04  0.00000000000E+00 0. -1.
<mgrwt>
<rscale>  0 0.28811741E+04</rscale>
<asrwt>0</asrwt>
<pdfrwt beam="1">  1        2 0.37150988E+00 0.28811741E+04</pdfrwt>
<pdfrwt beam="2">  1       -2 0.13221537E+00 0.28811741E+04</pdfrwt>
<totfact> 0.14017863E+00</totfact>
</mgrwt>
</event>
<event>
 6    1  0.1719556E-004  0.2387051E+04  0.7818608E-02  0.8444367E-01
         -2   -1    0    0    0  501 -0.00000000000E+00  0.00000000000E+00  0.72303621467E+03  0.72303621467E+03  0.00000000000E+00 0. -1.
          2   -1    0    0  501    0  0.00000000000E+00 -0.00000000000E+00 -0.19701683746E+04  0.19701683746E+04  0.00000000000E+00 0.  1.
         23    2    1    2    0    0 -0.10073214679E+04  0.42579529189E+03 -0.11592619402E+04  0.15960631463E+04  0.86782202028E+02 0.  0.
         13    1    3    3    0    0 -0.78296305863E+03  0.31162548373E+03 -0.93755211164E+03  0.12606131664E+04  0.00000000000E+00 0.  1.
        -13    1    3    3    0    0 -0.22435840929E+03  0.11416980816E+03 -0.22170982858E+03  0.33544997988E+03  0.00000000000E+00 0. -1.
         22    1    1    2    0    0  0.10073214679E+04 -0.42579529189E+03 -0.87870219676E+02  0.10971414429E+04  0.00000000000E+00 0. -1.
<mgrwt>
<rscale>  0 0.23870510E+04</rscale>
<asrwt>0</asrwt>
<pdfrwt beam="1">  1        2 0.30310282E+00 0.23870510E+04</pdfrwt>
<pdfrwt beam="2">  1       -2 0.11123634E+00 0.23870510E+04</pdfrwt>
<totfact> 0.39955445E+00</totfact>
</mgrwt>
</event>
<event>
 6    1  0.1719556E-004  0.1323828E+04  0.7818608E-02  0.9010880E-01
          1   -1    0    0  501    0  0.00000000000E+00  0.00000000000E+00  0.58539460279E+03  0.58539460279E+03  0.00000000000E+00 0.  1.
         -1   -1    0    0    0  501 -0.00000000000E+00 -0.00000000000E+00 -0.74843508649E+03  0.74843508649E+03  0.00000000000E+00 0. -1.
         23    2    1    2    0    0  0.19256355801E+03 -0.10982236672E+03  0.54314549116E+03  0.59366733737E+03  0.91061554921E+02 0.  0.
         13    1    3    3    0    0  0.10242263814E+03 -0.80201750937E+02  0.20782739565E+03  0.24518349055E+03  0.00000000000E+00 0.  1.
        -13    1    3    3    0    0  0.90140919875E+02 -0.29620615779E+02  0.33531809551E+03  0.34848384682E+03  0.00000000000E+00 0. -1.
         22    1    1    2    0    0 -0.19256355801E+03  0.10982236672E+03 -0.70618597486E+03  0.74016235191E+03  0.00000000000E+00 0. -1.
<mgrwt>
<rscale>  0 0.13238276E+04</rscale>
<asrwt>0</asrwt>
<pdfrwt beam="1">  1        1 0.90060708E-01 0.13238276E+04</pdfrwt>
<pdfrwt beam="2">  1       -1 0.11514386E+00 0.13238276E+04</pdfrwt>
<totfact> 0.23829589E+01</totfact>
</mgrwt>
</event>
<event>
 6    1  0.1719556E-004  0.2379388E+04  0.7818608E-02  0.8447261E-01
          2   -1    0    0  501    0  0.00000000000E+00  0.00000000000E+00  0.21790012988E+04  0.21790012988E+04  0.00000000000E+00 0.  1.
         -2   -1    0    0    0  501 -0.00000000000E+00 -0.00000000000E+00 -0.64955059004E+03  0.64955059004E+03  0.00000000000E+00 0. -1.
         23    2    1    2    0    0  0.25206291377E+03  0.51040289223E+03  0.20053627949E+04  0.20865686419E+04  0.90785092771E+02 0.  0.
         11    1    3    3    0    0  0.22237306120E+02  0.10850471500E+03  0.31287170136E+03  0.33189828634E+03  0.00000000000E+00 0. -1.
        -11    1    3    3    0    0  0.22982560765E+03  0.40189817723E+03  0.16924910936E+04  0.17546703555E+04  0.00000000000E+00 0.  1.
         22    1    1    2    0    0 -0.25206291377E+03 -0.51040289223E+03 -0.47591208622E+03  0.74198324692E+03  0.00000000000E+00 0. -1.
<mgrwt>
<rscale>  0 0.23793878E+04</rscale>
<asrwt>0</asrwt>
<pdfrwt beam="1">  1        2 0.33523097E+00 0.23793878E+04</pdfrwt>
<pdfrwt beam="2">  1       -2 0.99930861E-01 0.23793878E+04</pdfrwt>
<totfact> 0.39540009E+00</totfact>
</mgrwt>
</event>
<event>
 6    1  0.1719556E-004  0.2231630E+04  0.7818608E-02  0.8505377E-01
         -1   -1    0    0    0  501 -0.00000000000E+00  0.00000000000E+00  0.17514617634E+04  0.17514617634E+04  0.00000000000E+00 0. -1.
          1   -1    0    0  501    0  0.00000000000E+00 -0.00000000000E+00 -0.71085954716E+03  0.71085954716E+03  0.00000000000E+00 0.  1.
         23    2    1    2    0    0 -0.34417157371E+03  0.71791156038E+03 -0.33849070931E+03  0.86991797661E+03  0.91270176177E+02 0.  0.
         13    1    3    3    0    0 -0.91744356485E+02  0.21357673988E+03 -0.55780897890E+02  0.23904719060E+03  0.00000000000E+00 0.  1.
        -13    1    3    3    0    0 -0.25242721722E+03  0.50433482050E+03 -0.28270981142E+03  0.63087078601E+03  0.00000000000E+00 0. -1.
         22    1    1    2    0    0  0.34417157371E+03 -0.71791156038E+03  0.13790929255E+04  0.15924033339E+04  0.00000000000E+00 0. -1.
<mgrwt>
<rscale>  0 0.22316302E+04</rscale>
<asrwt>0</asrwt>
<pdfrwt beam="1">  1        1 0.10936301E+00 0.22316302E+04</pdfrwt>
<pdfrwt beam="2">  1       -1 0.26945566E+00 0.22316302E+04</pdfrwt>
<totfact> 0.12604092E+00</totfact>
</mgrwt>
</event>
<event>
 6    1  0.1719556E-004  0.2097664E+04  0.7818608E-02  0.8562273E-01
         -1   -1    0    0    0  501 -0.00000000000E+00  0.00000000000E+00  0.25619099159E+03  0.25619099159E+03  0.00000000000E+00 0. -1.
          1   -1    0    0  501    0  0.00000000000E+00 -0.00000000000E+00 -0.42938630251E+04  0.42938630251E+04  0.00000000000E+00 0.  1.
         23    2    1    2    0    0 -0.67170311803E+03 -0.60815830924E+03 -0.31601385696E+04  0.32886632810E+04  0.88254113808E+02 0.  0.
         11    1    3    3    0    0 -0.43211342710E+03 -0.42448802380E+03 -0.19848060005E+04  0.20751787768E+04  0.00000000000E+00 0.  1.
        -11    1    3    3    0    0 -0.23958969092E+03 -0.18367028545E+03 -0.11753325692E+04  0.12134845042E+04  0.00000000000E+00 0. -1.
         22    1    1    2    0    0  0.67170311803E+03  0.60815830924E+03 -0.87753346388E+03  0.12613907357E+04  0.00000000000E+00 0. -1.
<mgrwt>
<rscale>  0 0.20976644E+04</rscale>
<asrwt>0</asrwt>
<pdfrwt beam="1">  1        1 0.66059428E+00 0.20976644E+04</pdfrwt>
<pdfrwt beam="2">  1       -1 0.39414001E-01 0.20976644E+04</pdfrwt>
<totfact> 0.29970410E-01</totfact>
</mgrwt>
</event>
<event>
 6    1  0.1719556E-004  0.3314915E+04  0.7818608E-02  0.8159111E-01
          1   -1    0    0  501    0  0.00000000000E+00  0.00000000000E+00  0.12215058706E+04  0.12215058706E+04  0.00000000000E+00 0. -1.
         -1   -1    0    0    0  501 -0.00000000000E+00 -0.00000000000E+00 -0.22489989016E+04  0.22489989016E+04  0.00000000000E+00 0.  1.
         23    2    1    2    0    0  0.65329204234E+03 -0.97483412201E+02 -0.21041956855E+04  0.22073412379E+04  0.91773357148E+02 0.  0.
         13    1    3    3    0    0  0.48755280834E+03 -0.34214939230E+02 -0.15879166658E+04  0.16614324363E+04  0.00000000000E+00 0. -1.
        -13    1    3    3    0    0  0.16573923400E+03 -0.63268472971E+02 -0.51627901974E+03  0.54590880152E+03  0.00000000000E+00 0.  1.
         22    1    1    2    0    0 -0.65329204234E+03  0.97483412201E+02  0.10767026545E+04  0.12631635343E+04  0.00000000000E+00 0. -1.
<mgrwt>
<rscale>  0 0.33149150E+04</rscale>
<asrwt>0</asrwt>
<pdfrwt beam="1">  1        1 0.18792398E+00 0.33149150E+04</pdfrwt>
<pdfrwt beam="2">  1       -1 0.34599983E+00 0.33149150E+04</pdfrwt>
<totfact> 0.14097524E-01</totfact>
</mgrwt>
</event>
<event>
 6    1  0.1719556E-004  0.7425209E+03  0.7818608E-02  0.9647158E-01
         -2   -1    0    0    0  501 -0.00000000000E+00  0.00000000000E+00  0.14800605002E+03  0.14800605002E+03  0.00000000000E+00 0. -1.
          2   -1    0    0  501    0  0.00000000000E+00 -0.00000000000E+00 -0.93127483496E+03  0.93127483496E+03  0.00000000000E+00 0.  1.
         23    2    1    2    0    0 -0.84514947901E+02  0.35079062969E+03 -0.30820821723E+03  0.48272461329E+03  0.88509348714E+02 0.  0.
         11    1    3    3    0    0 -0.67218890488E+02  0.27189166583E+03 -0.28287509595E+03  0.39807257768E+03  0.00000000000E+00 0. -1.
        -11    1    3    3    0    0 -0.17296057413E+02  0.78898963854E+02 -0.25333121277E+02  0.84652035610E+02  0.00000000000E+00 0.  1.
         22    1    1    2    0    0  0.84514947901E+02 -0.35079062969E+03 -0.47506056771E+03  0.59655627169E+03  0.00000000000E+00 0. -1.
<mgrwt>
<rscale>  0 0.74252087E+03</rscale>
<asrwt>0</asrwt>
<pdfrwt beam="1">  1        2 0.14327305E+00 0.74252087E+03</pdfrwt>
<pdfrwt beam="2">  1       -2 0.22770162E-01 0.74252087E+03</pdfrwt>
<totfact> 0.47650744E+02</totfact>
</mgrwt>
</event>
<event>
 6    1  0.1719556E-004  0.3415640E+04  0.7818608E-02  0.8134078E-01
         -1   -1    0    0    0  501 -0.00000000000E+00  0.00000000000E+00  0.17358098228E+04  0.17358098228E+04  0.00000000000E+00 0. -1.
          1   -1    0    0  501    0  0.00000000000E+00 -0.00000000000E+00 -0.16802813017E+04  0.16802813017E+04  0.00000000000E+00 0.  1.
         23    2    1    2    0    0 -0.14806431426E+04 -0.84333789962E+03 -0.67113215919E+02  0.17077106269E+04  0.90821103000E+02 0.  0.
         11    1    3    3    0    0 -0.25914953287E+03 -0.18820991112E+03 -0.93552185778E+01  0.32041999180E+03  0.00000000000E+00 0.  1.
        -11    1    3    3    0    0 -0.12214936098E+04 -0.65512798850E+03 -0.57757997341E+02  0.13872906351E+04  0.00000000000E+00 0. -1.
         22    1    1    2    0    0  0.14806431426E+04  0.84333789962E+03  0.12264173705E+03  0.17083804976E+04  0.00000000000E+00 0.  1.
<mgrwt>
<rscale>  0 0.34156398E+04</rscale>
<asrwt>0</asrwt>
<pdfrwt beam="1">  1        1 0.25850482E+00 0.34156398E+04</pdfrwt>
<pdfrwt beam="2">  1       -1 0.26704767E+00 0.34156398E+04</pdfrwt>
<totfact> 0.21811403E-01</totfact>
</mgrwt>
</event>
<event>
 6    1  0.1719556E-004  0.1958447E+04  0.7818608E-02  0.8626298E-01
          1   -1    0    0  501    0  0.00000000000E+00  0.00000000000E+00  0.12796864206E+04  0.12796864206E+04  0.00000000000E+00 0. -1.
         -1   -1    0    0    0  501 -0.00000000000E+00 -0.00000000000E+00 -0.74930731959E+03  0.74930731959E+03  0.00000000000E+00 0.  1.
         23    2    1    2    0    0  0.16260030998E+02  0.21013532155E+03  0.12543093633E+04  0.12750068260E+04  0.89045974201E+02 0.  0.
         11    1    3    3    0    0 -0.12016268928E+02  0.35739542210E+01  0.19338986018E+03  0.19379577366E+03  0.00000000000E+00 0. -1.
        -11    1    3    3    0    0  0.28276299926E+02  0.20656136733E+03  0.10609195031E+04  0.10812110524E+04  0.00000000000E+00 0.  1.
         22    1    1    2    0    0 -0.16260030998E+02 -0.21013532155E+03 -0.72393026233E+03  0.75398691414E+03  0.00000000000E+00 0.  1.
<mgrwt>
<rscale>  0 0.19584467E+04</rscale>
<asrwt>0</asrwt>
<pdfrwt beam="1">  1        1 0.19687483E+00 0.19584467E+04</pdfrwt>
<pdfrwt beam="2">  1       -1 0.11527805E+00 0.19584467E+04</pdfrwt>
<totfact> 0.59432935E+00</totfact>
</mgrwt>
</event>
<event>
 6    1  0.1719556E-004  0.5323399E+04  0.7818608E-02  0.7780468E-01
         -2   -1    0    0    0  501 -0.00000000000E+00  0.00000000000E+00  0.16631565586E+04  0.16631565586E+04  0.00000000000E+00 0. -1.
          2   -1    0    0  501    0  0.00000000000E+00 -0.00000000000E+00 -0.42597571374E+04  0.42597571374E+04  0.00000000000E+00 0.  1.
         23    2    1    2    0    0 -0.33058390175E+03 -0.26290096992E+04 -0.10272721396E+04  0.28433407606E+04  0.91219065434E+02 0.  0.
         13    1    3    3    0    0 -0.14252711291E+03 -0.14270575183E+04 -0.52691337533E+03  0.15278890155E+04  0.00000000000E+00 0.  1.
        -13    1    3    3    0    0 -0.18805678883E+03 -0.12019521808E+04 -0.50035876425E+03  0.13154517451E+04  0.00000000000E+00 0. -1.
         22    1    1    2    0    0  0.33058390175E+03  0.26290096992E+04 -0.15693284392E+04  0.30795729354E+04  0.00000000000E+00 0. -1.
<mgrwt>
<rscale>  0 0.53233985E+04</rscale>
<asrwt>0</asrwt>
<pdfrwt beam="1">  1        2 0.65534725E+00 0.53233985E+04</pdfrwt>
<pdfrwt beam="2">  1       -2 0.25587024E+00 0.53233985E+04</pdfrwt>
<totfact> 0.85845612E-03</totfact>
</mgrwt>
</event>
<event>
 6    1  0.1719556E-004  0.2246383E+04  0.7818608E-02  0.8499367E-01
         -1   -1    0    0    0  501 -0.00000000000E+00  0.00000000000E+00  0.47745840540E+03  0.47745840540E+03  0.00000000000E+00 0. -1.
          1   -1    0    0  501    0  0.00000000000E+00 -0.00000000000E+00 -0.26422381133E+04  0.26422381133E+04  0.00000000000E+00 0.  1.
         23    2    1    2    0    0 -0.72651352161E+03 -0.34194485192E+02  0.10099674201E+03  0.74004652744E+03  0.92072585394E+02 0.  0.
         13    1    3    3    0    0 -0.59206335444E+03 -0.14571734831E+02  0.47937646632E+02  0.59417957646E+03  0.00000000000E+00 0.  1.
        -13    1    3    3    0    0 -0.13445016717E+03 -0.19622750361E+02  0.53059095380E+02  0.14586695097E+03  0.00000000000E+00 0. -1.
         22    1    1    2    0    0  0.72651352161E+03  0.34194485192E+02 -0.22657764499E+04  0.23796499912E+04  0.00000000000E+00 0.  1.
<mgrwt>
<rscale>  0 0.22463827E+04</rscale>
<asrwt>0</asrwt>
<pdfrwt beam="1">  1        1 0.40649818E+00 0.22463827E+04</pdfrwt>
<pdfrwt beam="2">  1       -1 0.73455138E-01 0.22463827E+04</pdfrwt>
<totfact> 0.18277617E+00</totfact>
</mgrwt>
</event>
<event>
 6    1  0.1719556E-004  0.1627042E+04  0.7818608E-02  0.8804105E-01
         -2   -1    0    0    0  501 -0.00000000000E+00  0.00000000000E+00  0.81072574702E+03  0.81072574702E+03  0.00000000000E+00 0. -1.
          2   -1    0    0  501    0  0.00000000000E+00 -0.00000000000E+00 -0.81632610817E+03  0.81632610817E+03  0.00000000000E+00 0.  1.
         23    2    1    2    0    0  0.21600542127E+03 -0.73410146444E+03 -0.27131514925E+03  0.81701009656E+03  0.91270397999E+02 0.  0.
         13    1    3    3    0    0  0.24127211031E+02 -0.22560322881E+03 -0.70281379705E+02  0.23752560177E+03  0.00000000000E+00 0. -1.
        -13    1    3    3    0    0  0.19187821023E+03 -0.50849823563E+03 -0.20103376954E+03  0.57948449479E+03  0.00000000000E+00 0.  1.
         22    1    1    2    0    0 -0.21600542127E+03  0.73410146444E+03  0.26571478810E+03  0.81004175863E+03  0.00000000000E+00 0. -1.
<mgrwt>
<rscale>  0 0.16270422E+04</rscale>
<asrwt>0</asrwt>
<pdfrwt beam="1">  1        2 0.12558863E+00 0.16270422E+04</pdfrwt>
<pdfrwt beam="2">  1       -2 0.12472704E+00 0.16270422E+04</pdfrwt>
<totfact> 0.15466517E+01</totfact>
</mgrwt>
</event>
<event>
 6    1  0.1719556E-004  0.1474028E+04  0.7818608E-02  0.8901910E-01
          1   -1    0    0  501    0  0.00000000000E+00  0.00000000000E+00  0.23223674590E+04  0.23223674590E+04  0.00000000000E+00 0.  1.
         -1   -1    0    0    0  501 -0.00000000000E+00 -0.00000000000E+00 -0.23389491214E+03  0.23389491214E+03  0.00000000000E+00 0. -1.
         23    2    1    2    0    0  0.71831019277E+03 -0.88800399411E+02  0.12603386418E+04  0.14564165598E+04  0.94024782619E+02 0.  0.
         11    1    3    3    0    0  0.38500672062E+03 -0.94737425145E+02  0.68044956325E+03  0.78753854685E+03  0.00000000000E+00 0. -1.
        -11    1    3    3    0    0  0.33330347215E+03  0.59370257343E+01  0.57988907856E+03  0.66887801299E+03  0.00000000000E+00 0.  1.
         22    1    1    2    0    0 -0.71831019277E+03  0.88800399411E+02  0.82813390509E+03  0.10998458113E+04  0.00000000000E+00 0. -1.
<mgrwt>
<rscale>  0 0.14740284E+04</rscale>
<asrwt>0</asrwt>
<pdfrwt beam="1">  1        1 0.35728729E+00 0.14740284E+04</pdfrwt>
<pdfrwt beam="2">  1       -1 0.35983834E-01 0.14740284E+04</pdfrwt>
<totfact> 0.12881222E+01</totfact>
</mgrwt>
</event>
<event>
 6    1  0.1719556E-004  0.1297205E+04  0.7818608E-02  0.9031785E-01
          1   -1    0    0  501    0  0.00000000000E+00  0.00000000000E+00  0.55873034894E+03  0.55873034894E+03  0.00000000000E+00 0. -1.
         -1   -1    0    0    0  501 -0.00000000000E+00 -0.00000000000E+00 -0.75293072124E+03  0.75293072124E+03  0.00000000000E+00 0.  1.
         23    2    1    2    0    0  0.43140131925E+03  0.15733555914E+03 -0.55621632769E+03  0.72692426752E+03  0.90447283555E+02 0.  0.
         11    1    3    3    0    0  0.62173993823E+02  0.62611605780E+01 -0.38741450919E+02  0.73523517727E+02  0.00000000000E+00 0. -1.
        -11    1    3    3    0    0  0.36922732543E+03  0.15107439856E+03 -0.51747487677E+03  0.65340074979E+03  0.00000000000E+00 0.  1.
         22    1    1    2    0    0 -0.43140131925E+03 -0.15733555914E+03  0.36201595539E+03  0.58473680265E+03  0.00000000000E+00 0. -1.
<mgrwt>
<rscale>  0 0.12972051E+04</rscale>
<asrwt>0</asrwt>
<pdfrwt beam="1">  1        1 0.85958515E-01 0.12972051E+04</pdfrwt>
<pdfrwt beam="2">  1       -1 0.11583550E+00 0.12972051E+04</pdfrwt>
<totfact> 0.25157460E+01</totfact>
</mgrwt>
</event>
<event>
 6    1  0.1719556E-004  0.2072183E+04  0.7818608E-02  0.8573597E-01
         -1   -1    0    0    0  501 -0.00000000000E+00  0.00000000000E+00  0.51695395226E+03  0.51695395226E+03  0.00000000000E+00 0.  1.
          1   -1    0    0  501    0  0.00000000000E+00 -0.00000000000E+00 -0.20765587952E+04  0.20765587952E+04  0.00000000000E+00 0. -1.
         23    2    1    2    0    0 -0.79517114198E+02  0.91813591949E+03 -0.19425506146E+03  0.94624939149E+03  0.91413039985E+02 0.  0.
         11    1    3    3    0    0 -0.11341563468E+02  0.22759154921E+03 -0.87923902002E+02  0.24424814610E+03  0.00000000000E+00 0.  1.
        -11    1    3    3    0    0 -0.68175550729E+02  0.69054437029E+03 -0.10633115946E+03  0.70200124539E+03  0.00000000000E+00 0. -1.
         22    1    1    2    0    0  0.79517114198E+02 -0.91813591949E+03 -0.13653497815E+04  0.16472633560E+04  0.00000000000E+00 0. -1.
<mgrwt>
<rscale>  0 0.20721827E+04</rscale>
<asrwt>0</asrwt>
<pdfrwt beam="1">  1        1 0.31947058E+00 0.20721827E+04</pdfrwt>
<pdfrwt beam="2">  1       -1 0.79531379E-01 0.20721827E+04</pdfrwt>
<totfact> 0.38493799E+00</totfact>
</mgrwt>
</event>
<event>
 6    1  0.1719556E-004  0.6121358E+03  0.7818608E-02  0.9880543E-01
          4   -1    0    0  501    0  0.00000000000E+00  0.00000000000E+00  0.34628088672E+03  0.34628088672E+03  0.00000000000E+00 0. -1.
         -4   -1    0    0    0  501 -0.00000000000E+00 -0.00000000000E+00 -0.27052474013E+03  0.27052474013E+03  0.00000000000E+00 0.  1.
         23    2    1    2    0    0 -0.47355143150E+02 -0.28080956122E+03 -0.57322787928E+02  0.30247057938E+03  0.84297272317E+02 0.  0.
         11    1    3    3    0    0 -0.24388344463E+02 -0.56662685262E+02  0.19043238270E+02  0.64560794377E+02  0.00000000000E+00 0. -1.
        -11    1    3    3    0    0 -0.22966798687E+02 -0.22414687596E+03 -0.76366026198E+02  0.23790978500E+03  0.00000000000E+00 0.  1.
         22    1    1    2    0    0  0.47355143150E+02  0.28080956122E+03  0.13307893452E+03  0.31433504747E+03  0.00000000000E+00 0. -1.
<mgrwt>
<rscale>  0 0.61213576E+03</rscale>
<asrwt>0</asrwt>
<pdfrwt beam="1">  1        4 0.53273983E-01 0.61213576E+03</pdfrwt>
<pdfrwt beam="2">  1       -4 0.41619191E-01 0.61213576E+03</pdfrwt>
<totfact> 0.37499303E+01</totfact>
</mgrwt>
</event>
<event>
 6    1  0.1719556E-004  0.1878167E+04  0.7818608E-02  0.8665801E-01
          2   -1    0    0  501    0  0.00000000000E+00  0.00000000000E+00  0.58756526499E+03  0.58756526499E+03  0.00000000000E+00 0.  1.
         -2   -1    0    0    0  501 -0.00000000000E+00 -0.00000000000E+00 -0.15009017322E+04  0.15009017322E+04  0.00000000000E+00 0. -1.
         23    2    1    2    0    0 -0.30753567930E+03 -0.83218609129E+03 -0.12386130119E+03  0.90087156004E+03  0.95478066480E+02 0.  0.
         13    1    3    3    0    0 -0.18978284719E+03 -0.51179191320E+03 -0.29132366947E+02  0.54662344106E+03  0.00000000000E+00 0. -1.
        -13    1    3    3    0    0 -0.11775283211E+03 -0.32039417808E+03 -0.94728934239E+02  0.35424811898E+03  0.00000000000E+00 0.  1.
         22    1    1    2    0    0  0.30753567930E+03  0.83218609129E+03 -0.78947516604E+03  0.11875954372E+04  0.00000000000E+00 0. -1.
<mgrwt>
<rscale>  0 0.18781669E+04</rscale>
<asrwt>0</asrwt>
<pdfrwt beam="1">  1        2 0.90394657E-01 0.18781669E+04</pdfrwt>
<pdfrwt beam="2">  1       -2 0.23090796E+00 0.18781669E+04</pdfrwt>
<totfact> 0.40252928E+00</totfact>
</mgrwt>
</event>
<event>
 6    1  0.1719556E-004  0.3739079E+04  0.7818608E-02  0.8059356E-01
         -2   -1    0    0    0  501 -0.00000000000E+00  0.00000000000E+00  0.99175315891E+03  0.99175315891E+03  0.00000000000E+00 0. -1.
          2   -1    0    0  501    0  0.00000000000E+00 -0.00000000000E+00 -0.35242412986E+04  0.35242412986E+04  0.00000000000E+00 0.  1.
         23    2    1    2    0    0  0.58086818855E+03 -0.10943748535E+04  0.42220886893E+03  0.13120439920E+04  0.90193877932E+02 0.  0.
         11    1    3    3    0    0  0.15127592221E+03 -0.35945612894E+03  0.10837168053E+03  0.40476849483E+03  0.00000000000E+00 0. -1.
        -11    1    3    3    0    0  0.42959226635E+03 -0.73491872456E+03  0.31383718840E+03  0.90727549721E+03  0.00000000000E+00 0.  1.
         22    1    1    2    0    0 -0.58086818855E+03  0.10943748535E+04 -0.29546970086E+04  0.32039504655E+04  0.00000000000E+00 0.  1.
<mgrwt>
<rscale>  0 0.37390787E+04</rscale>
<asrwt>0</asrwt>
<pdfrwt beam="1">  1        2 0.54219097E+00 0.37390787E+04</pdfrwt>
<pdfrwt beam="2">  1       -2 0.15257741E+00 0.37390787E+04</pdfrwt>
<totfact> 0.18004147E-01</totfact>
</mgrwt>
</event>
<event>
 6    1  0.1719556E-004  0.1204864E+04  0.7818608E-02  0.9108609E-01
          1   -1    0    0  501    0  0.00000000000E+00  0.00000000000E+00  0.80956331138E+03  0.80956331138E+03  0.00000000000E+00 0.  1.
         -1   -1    0    0    0  501 -0.00000000000E+00 -0.00000000000E+00 -0.44829664159E+03  0.44829664159E+03  0.00000000000E+00 0. -1.
         23    2    1    2    0    0 -0.53053501045E+03 -0.47968178092E+02  0.46506982694E+03  0.71514138976E+03  0.10662513776E+03 0.  0.
         11    1    3    3    0    0 -0.26482691428E+03 -0.65762953210E+02  0.19152299370E+03  0.33337534051E+03  0.00000000000E+00 0. -1.
        -11    1    3    3    0    0 -0.26570809617E+03  0.17794775118E+02  0.27354683323E+03  0.38176604926E+03  0.00000000000E+00 0.  1.
         22    1    1    2    0    0  0.53053501045E+03  0.47968178092E+02 -0.10380315715E+03  0.54271856321E+03  0.00000000000E+00 0. -1.
<mgrwt>
<rscale>  0 0.12048643E+04</rscale>
<asrwt>0</asrwt>
<pdfrwt beam="1">  1        1 0.12454820E+00 0.12048643E+04</pdfrwt>
<pdfrwt beam="2">  1       -1 0.68968714E-01 0.12048643E+04</pdfrwt>
<totfact> 0.45658742E+01</totfact>
</mgrwt>
</event>
<event>
 6    1  0.1719556E-004  0.2657236E+04  0.7818608E-02  0.8349015E-01
          2   -1    0    0  501    0  0.00000000000E+00  0.00000000000E+00  0.16951262321E+04  0.16951262321E+04  0.00000000000E+00 0.  1.
         -2   -1    0    0    0  501 -0.00000000000E+00 -0.00000000000E+00 -0.10413534133E+04  0.10413534133E+04  0.00000000000E+00 0. -1.
         23    2    1    2    0    0  0.50267830151E+03 -0.12217089359E+04  0.45720974806E+03  0.14008542339E+04  0.89964615447E+02 0.  0.
         13    1    3    3    0    0  0.15579749513E+03 -0.44300967146E+03  0.12514225648E+03  0.48599486916E+03  0.00000000000E+00 0. -1.
        -13    1    3    3    0    0  0.34688080638E+03 -0.77869926448E+03  0.33206749158E+03  0.91485936476E+03  0.00000000000E+00 0.  1.
         22    1    1    2    0    0 -0.50267830151E+03  0.12217089359E+04  0.19656307082E+03  0.13356254115E+04  0.00000000000E+00 0. -1.
<mgrwt>
<rscale>  0 0.26572358E+04</rscale>
<asrwt>0</asrwt>
<pdfrwt beam="1">  1        2 0.26078865E+00 0.26572358E+04</pdfrwt>
<pdfrwt beam="2">  1       -2 0.16020822E+00 0.26572358E+04</pdfrwt>
<totfact> 0.21810525E+00</totfact>
</mgrwt>
</event>
<event>
 6    1  0.1719556E-004  0.7052676E+03  0.7818608E-02  0.9708266E-01
         -2   -1    0    0    0  501 -0.00000000000E+00  0.00000000000E+00  0.72098649834E+02  0.72098649834E+02  0.00000000000E+00 0. -1.
          2   -1    0    0  501    0  0.00000000000E+00 -0.00000000000E+00 -0.17247282704E+04  0.17247282704E+04  0.00000000000E+00 0.  1.
         23    2    1    2    0    0 -0.22823305603E+03 -0.14991694018E+03 -0.29579492287E+03  0.41278724823E+03  0.91286686263E+02 0.  0.
         13    1    3    3    0    0 -0.66511973475E+01  0.85088995415E+01 -0.16772268513E+00  0.10801292907E+02  0.00000000000E+00 0. -1.
        -13    1    3    3    0    0 -0.22158185868E+03 -0.15842583972E+03 -0.29562720019E+03  0.40198595532E+03  0.00000000000E+00 0.  1.
         22    1    1    2    0    0  0.22823305603E+03  0.14991694018E+03 -0.13568346977E+04  0.13840396720E+04  0.00000000000E+00 0.  1.
<mgrwt>
<rscale>  0 0.70526755E+03</rscale>
<asrwt>0</asrwt>
<pdfrwt beam="1">  1        2 0.26534281E+00 0.70526755E+03</pdfrwt>
<pdfrwt beam="2">  1       -2 0.11092100E-01 0.70526755E+03</pdfrwt>
<totfact> 0.56133595E+02</totfact>
</mgrwt>
</event>
<event>
 6    1  0.1719556E-004  0.1700374E+04  0.7818608E-02  0.8761151E-01
          2   -1    0    0  501    0  0.00000000000E+00  0.00000000000E+00  0.12110840954E+04  0.12110840954E+04  0.00000000000E+00 0.  1.
         -2   -1    0    0    0  501 -0.00000000000E+00 -0.00000000000E+00 -0.59683578403E+03  0.59683578403E+03  0.00000000000E+00 0. -1.
         23    2    1    2    0    0 -0.44793423424E+03 -0.40853931227E+03 -0.32194814532E+03  0.69256645859E+03  0.91914326478E+02 0.  0.
         13    1    3    3    0    0 -0.19400132752E+03 -0.21299041426E+03 -0.11032219809E+03  0.30850027397E+03  0.00000000000E+00 0. -1.
        -13    1    3    3    0    0 -0.25393290673E+03 -0.19554889801E+03 -0.21162594723E+03  0.38406618462E+03  0.00000000000E+00 0.  1.
         22    1    1    2    0    0  0.44793423424E+03  0.40853931227E+03  0.93619645666E+03  0.11153534208E+04  0.00000000000E+00 0.  1.
<mgrwt>
<rscale>  0 0.17003745E+04</rscale>
<asrwt>0</asrwt>
<pdfrwt beam="1">  1        2 0.18632063E+00 0.17003745E+04</pdfrwt>
<pdfrwt beam="2">  1       -2 0.91820890E-01 0.17003745E+04</pdfrwt>
<totfact> 0.17911069E+01</totfact>
</mgrwt>
</event>
<event>
 6    1  0.1719556E-004  0.3511625E+04  0.7818608E-02  0.8111041E-01
          2   -1    0    0  501    0  0.00000000000E+00  0.00000000000E+00  0.38881067263E+04  0.38881067263E+04  0.00000000000E+00 0.  1.
         -2   -1    0    0    0  501 -0.00000000000E+00 -0.00000000000E+00 -0.79289920216E+03  0.79289920216E+03  0.00000000000E+00 0. -1.
         23    2    1    2    0    0  0.98058842979E+03 -0.98123328541E+02 -0.38653748690E+03  0.10624799609E+04  0.90942741385E+02 0.  0.
         13    1    3    3    0    0  0.58696564150E+03 -0.61119704390E+02 -0.18335225468E+03  0.61796628700E+03  0.00000000000E+00 0. -1.
        -13    1    3    3    0    0  0.39362278829E+03 -0.37003624151E+02 -0.20318523222E+03  0.44451367387E+03  0.00000000000E+00 0.  1.
         22    1    1    2    0    0 -0.98058842979E+03  0.98123328541E+02  0.34817450110E+04  0.36185259676E+04  0.00000000000E+00 0.  1.
<mgrwt>
<rscale>  0 0.35116245E+04</rscale>
<asrwt>0</asrwt>
<pdfrwt beam="1">  1        2 0.59817025E+00 0.35116245E+04</pdfrwt>
<pdfrwt beam="2">  1       -2 0.12198449E+00 0.35116245E+04</pdfrwt>
<totfact> 0.17531558E-01</totfact>
</mgrwt>
</event>
<event>
 6    1  0.1719556E-004  0.2814645E+04  0.7818608E-02  0.8298736E-01
          4   -1    0    0  501    0  0.00000000000E+00  0.00000000000E+00  0.15631477015E+04  0.15631477015E+04  0.00000000000E+00 0.  1.
         -4   -1    0    0    0  501 -0.00000000000E+00 -0.00000000000E+00 -0.12670306605E+04  0.12670306605E+04  0.00000000000E+00 0. -1.
         23    2    1    2    0    0  0.86984585685E+03 -0.10782551590E+04  0.38854382286E+03  0.14417228486E+04  0.91282348701E+02 0.  0.
         13    1    3    3    0    0  0.63600055973E+02 -0.45589708888E+02  0.22417278827E+02  0.81399773134E+02  0.00000000000E+00 0.  1.
        -13    1    3    3    0    0  0.80624580087E+03 -0.10326654501E+04  0.36612654403E+03  0.13603230754E+04  0.00000000000E+00 0. -1.
         22    1    1    2    0    0 -0.86984585685E+03  0.10782551590E+04 -0.92426781897E+02  0.13884555134E+04  0.00000000000E+00 0. -1.
<mgrwt>
<rscale>  0 0.28146446E+04</rscale>
<asrwt>0</asrwt>
<pdfrwt beam="1">  1        4 0.24048426E+00 0.28146446E+04</pdfrwt>
<pdfrwt beam="2">  1       -4 0.19492779E+00 0.28146446E+04</pdfrwt>
<totfact> 0.17796559E-02</totfact>
</mgrwt>
</event>
<event>
 6    1  0.1719556E-004  0.3670992E+04  0.7818608E-02  0.8074421E-01
          1   -1    0    0  501    0  0.00000000000E+00  0.00000000000E+00  0.19883250412E+04  0.19883250412E+04  0.00000000000E+00 0.  1.
         -1   -1    0    0    0  501 -0.00000000000E+00 -0.00000000000E+00 -0.16944134459E+04  0.16944134459E+04  0.00000000000E+00 0. -1.
         23    2    1    2    0    0 -0.58674273240E+03 -0.11831014462E+04 -0.11301054568E+04  0.17406209235E+04  0.92880514395E+02 0.  0.
         11    1    3    3    0    0 -0.22302737829E+03 -0.55368101661E+03 -0.51135155524E+03  0.78599255255E+03  0.00000000000E+00 0.  1.
        -11    1    3    3    0    0 -0.36371535411E+03 -0.62942042957E+03 -0.61875390160E+03  0.95462837100E+03  0.00000000000E+00 0. -1.
         22    1    1    2    0    0  0.58674273240E+03  0.11831014462E+04  0.14240170521E+04  0.19421175636E+04  0.00000000000E+00 0.  1.
<mgrwt>
<rscale>  0 0.36709915E+04</rscale>
<asrwt>0</asrwt>
<pdfrwt beam="1">  1        1 0.30589616E+00 0.36709915E+04</pdfrwt>
<pdfrwt beam="2">  1       -1 0.26067899E+00 0.36709915E+04</pdfrwt>
<totfact> 0.14498391E-01</totfact>
</mgrwt>
</event>
<event>
 6    1  0.1719556E-004  0.2812762E+04  0.7818608E-02  0.8299317E-01
         -2   -1    0    0    0  501 -0.00000000000E+00  0.00000000000E+00  0.59230022058E+03  0.59230022058E+03  0.00000000000E+00 0. -1.
          2   -1    0    0  501    0  0.00000000000E+00 -0.00000000000E+00 -0.33393667086E+04  0.33393667086E+04  0.00000000000E+00 0.  1.
         23    2    1    2    0    0  0.34376079213E+03  0.56393082682E+03 -0.31083220330E+04  0.31788754385E+04  0.85986820092E+02 0.  0.
         13    1    3    3    0    0  0.29308656191E+03  0.46168867573E+03 -0.24078391824E+04  0.24691589042E+04  0.00000000000E+00 0. -1.
        -13    1    3    3    0    0  0.50674230220E+02  0.10224215108E+03 -0.70048285062E+03  0.70971653432E+03  0.00000000000E+00 0.  1.
         22    1    1    2    0    0 -0.34376079213E+03 -0.56393082682E+03  0.36125554497E+03  0.75279149066E+03  0.00000000000E+00 0. -1.
<mgrwt>
<rscale>  0 0.28127621E+04</rscale>
<asrwt>0</asrwt>
<pdfrwt beam="1">  1        2 0.51374872E+00 0.28127621E+04</pdfrwt>
<pdfrwt beam="2">  1       -2 0.91123111E-01 0.28127621E+04</pdfrwt>
<totfact> 0.93531682E-01</totfact>
</mgrwt>
</event>
<event>
 6    1  0.1719556E-004  0.1962098E+04  0.7818608E-02  0.8624549E-01
         -1   -1    0    0    0  501 -0.00000000000E+00  0.00000000000E+00  0.42784892713E+03  0.42784892713E+03  0.00000000000E+00 0.  1.
          1   -1    0    0  501    0  0.00000000000E+00 -0.00000000000E+00 -0.22495249730E+04  0.22495249730E+04  0.00000000000E+00 0. -1.
         23    2    1    2    0    0  0.11063989514E+03  0.97088850708E+03 -0.83151584198E+03  0.12862294400E+04  0.90010540015E+02 0.  0.
         11    1    3    3    0    0  0.64973626787E+02  0.65653572739E+03 -0.50633489212E+03  0.83164641315E+03  0.00000000000E+00 0.  1.
        -11    1    3    3    0    0  0.45666268356E+02  0.31435277969E+03 -0.32518094987E+03  0.45458302687E+03  0.00000000000E+00 0. -1.
         22    1    1    2    0    0 -0.11063989514E+03 -0.97088850708E+03 -0.99016020391E+03  0.13911444601E+04  0.00000000000E+00 0. -1.
<mgrwt>
<rscale>  0 0.19620977E+04</rscale>
<asrwt>0</asrwt>
<pdfrwt beam="1">  1        1 0.34608076E+00 0.19620977E+04</pdfrwt>
<pdfrwt beam="2">  1       -1 0.65822913E-01 0.19620977E+04</pdfrwt>
<totfact> 0.43884446E+00</totfact>
</mgrwt>
</event>
<event>
 6    1  0.1719556E-004  0.3860837E+04  0.7818608E-02  0.8033224E-01
         -2   -1    0    0    0  501 -0.00000000000E+00  0.00000000000E+00  0.18073915457E+04  0.18073915457E+04  0.00000000000E+00 0. -1.
          2   -1    0    0  501    0  0.00000000000E+00 -0.00000000000E+00 -0.20618195943E+04  0.20618195943E+04  0.00000000000E+00 0.  1.
         23    2    1    2    0    0  0.63661167279E+03 -0.57879423328E+03  0.16033909910E+04  0.18218301861E+04  0.89024550135E+02 0.  0.
         11    1    3    3    0    0  0.27143781294E+03 -0.20568801897E+03  0.56836481989E+03  0.66258932675E+03  0.00000000000E+00 0.  1.
        -11    1    3    3    0    0  0.36517385985E+03 -0.37310621430E+03  0.10350261711E+04  0.11592408593E+04  0.00000000000E+00 0. -1.
         22    1    1    2    0    0 -0.63661167279E+03  0.57879423328E+03 -0.18578190396E+04  0.20473809538E+04  0.00000000000E+00 0.  1.
<mgrwt>
<rscale>  0 0.38608369E+04</rscale>
<asrwt>0</asrwt>
<pdfrwt beam="1">  1        2 0.31720301E+00 0.38608369E+04</pdfrwt>
<pdfrwt beam="2">  1       -2 0.27806024E+00 0.38608369E+04</pdfrwt>
<totfact> 0.21310005E-01</totfact>
</mgrwt>
</event>
<event>
 6    1  0.1719556E-004  0.1041633E+04  0.7818608E-02  0.9264025E-01
         -2   -1    0    0    0  501 -0.00000000000E+00  0.00000000000E+00  0.14898029307E+03  0.14898029307E+03  0.00000000000E+00 0. -1.
          2   -1    0    0  501    0  0.00000000000E+00 -0.00000000000E+00 -0.18207098642E+04  0.18207098642E+04  0.00000000000E+00 0.  1.
         23    2    1    2    0    0 -0.25935194269E+03  0.80204123249E+02 -0.16738656581E+04  0.16982114391E+04  0.91649980261E+02 0.  0.
         13    1    3    3    0    0 -0.16475124719E+03  0.95649378009E+02 -0.11405612942E+04  0.11563614672E+04  0.00000000000E+00 0. -1.
        -13    1    3    3    0    0 -0.94600695507E+02 -0.15445254760E+02 -0.53330436386E+03  0.54184997185E+03  0.00000000000E+00 0.  1.
         22    1    1    2    0    0  0.25935194269E+03 -0.80204123249E+02  0.21360869612E+01  0.27147871819E+03  0.00000000000E+00 0. -1.
<mgrwt>
<rscale>  0 0.10416331E+04</rscale>
<asrwt>0</asrwt>
<pdfrwt beam="1">  1        2 0.28010921E+00 0.10416331E+04</pdfrwt>
<pdfrwt beam="2">  1       -2 0.22920045E-01 0.10416331E+04</pdfrwt>
<totfact> 0.14062636E+02</totfact>
</mgrwt>
</event>
<event>
 6    1  0.1719556E-004  0.2341380E+04  0.7818608E-02  0.8461782E-01
          1   -1    0    0  501    0  0.00000000000E+00  0.00000000000E+00  0.88654388562E+03  0.88654388562E+03  0.00000000000E+00 0.  1.
         -1   -1    0    0    0  501 -0.00000000000E+00 -0.00000000000E+00 -0.15459080026E+04  0.15459080026E+04  0.00000000000E+00 0. -1.
         23    2    1    2    0    0 -0.67692237817E+03  0.78745132168E+03  0.22718030604E+03  0.10670711706E+04  0.93415746060E+02 0.  0.
         11    1    3    3    0    0 -0.90929346607E+02  0.81510011948E+02  0.53462776885E+02  0.13330527609E+03  0.00000000000E+00 0. -1.
        -11    1    3    3    0    0 -0.58599303156E+03  0.70594130973E+03  0.17371752915E+03  0.93376589451E+03  0.00000000000E+00 0.  1.
         22    1    1    2    0    0  0.67692237817E+03 -0.78745132168E+03 -0.88654442307E+03  0.13653807177E+04  0.00000000000E+00 0. -1.
<mgrwt>
<rscale>  0 0.23413802E+04</rscale>
<asrwt>0</asrwt>
<pdfrwt beam="1">  1        1 0.13639137E+00 0.23413802E+04</pdfrwt>
<pdfrwt beam="2">  1       -1 0.23783200E+00 0.23413802E+04</pdfrwt>
<totfact> 0.14085449E+00</totfact>
</mgrwt>
</event>
<event>
 6    1  0.3328044E-004  0.2909576E+04  0.7818608E-02  0.8270034E-01
          2   -1    0    0  501    0  0.00000000000E+00  0.00000000000E+00  0.21800791104E+04  0.21800791104E+04  0.00000000000E+00 0.  1.
         -2   -1    0    0    0  501 -0.00000000000E+00 -0.00000000000E+00 -0.97079414420E+03  0.97079414420E+03  0.00000000000E+00 0. -1.
         23    2    1    2    0    0  0.39766348809E+01  0.78563951398E+03  0.19293743756E+04  0.20851462647E+04  0.90023353021E+02 0.  0.
         13    1    3    3    0    0  0.35806294975E+02  0.28016081124E+03  0.76076302182E+03  0.81150018255E+03  0.00000000000E+00 0. -1.
        -13    1    3    3    0    0 -0.31829660094E+02  0.50547870273E+03  0.11686113538E+04  0.12736460821E+04  0.00000000000E+00 0.  1.
         22    1    1    2    0    0 -0.39766348809E+01 -0.78563951398E+03 -0.72008940943E+03  0.10657269900E+04  0.00000000000E+00 0. -1.
<mgrwt>
<rscale>  0 0.29095759E+04</rscale>
<asrwt>0</asrwt>
<pdfrwt beam="1">  1        2 0.33539678E+00 0.29095759E+04</pdfrwt>
<pdfrwt beam="2">  1       -2 0.14935295E+00 0.29095759E+04</pdfrwt>
<totfact> 0.13849011E+00</totfact>
</mgrwt>
</event>
<event>
 6    1  0.1719556E-004  0.9172781E+03  0.7818608E-02  0.9404237E-01
         -1   -1    0    0    0  501 -0.00000000000E+00  0.00000000000E+00  0.64703850071E+03  0.64703850071E+03  0.00000000000E+00 0. -1.
          1   -1    0    0  501    0  0.00000000000E+00 -0.00000000000E+00 -0.32509619814E+03  0.32509619814E+03  0.00000000000E+00 0.  1.
         23    2    1    2    0    0 -0.13415558537E+03  0.20668090441E+03  0.56660633775E+03  0.62489528945E+03  0.93470120741E+02 0.  0.
         11    1    3    3    0    0 -0.48342050586E+02  0.12918384911E+03  0.22152601204E+03  0.26095822412E+03  0.00000000000E+00 0. -1.
        -11    1    3    3    0    0 -0.85813534780E+02  0.77497055297E+02  0.34508032571E+03  0.36393706533E+03  0.00000000000E+00 0.  1.
         22    1    1    2    0    0  0.13415558537E+03 -0.20668090441E+03 -0.24466403518E+03  0.34723940940E+03  0.00000000000E+00 0.  1.
<mgrwt>
<rscale>  0 0.91727805E+03</rscale>
<asrwt>0</asrwt>
<pdfrwt beam="1">  1        1 0.50014800E-01 0.91727805E+03</pdfrwt>
<pdfrwt beam="2">  1       -1 0.99544385E-01 0.91727805E+03</pdfrwt>
<totfact> 0.76592598E+01</totfact>
</mgrwt>
</event>
<event>
 6    1  0.1719556E-004  0.6877274E+03  0.7818608E-02  0.9738453E-01
          2   -1    0    0  501    0  0.00000000000E+00  0.00000000000E+00  0.38036210800E+03  0.38036210800E+03  0.00000000000E+00 0.  1.
         -2   -1    0    0    0  501 -0.00000000000E+00 -0.00000000000E+00 -0.31086759781E+03  0.31086759781E+03  0.00000000000E+00 0. -1.
         23    2    1    2    0    0 -0.19325096818E+02 -0.68508557206E+02 -0.29688717952E+03  0.31799730590E+03  0.88957334825E+02 0.  0.
         11    1    3    3    0    0 -0.19080620723E+02 -0.56000429757E+01 -0.65703792987E+01  0.20942789991E+02  0.00000000000E+00 0.  1.
        -11    1    3    3    0    0 -0.24447609541E+00 -0.62908514230E+02 -0.29031680023E+03  0.29705451591E+03  0.00000000000E+00 0. -1.
         22    1    1    2    0    0  0.19325096818E+02  0.68508557206E+02  0.36638168972E+03  0.37323239991E+03  0.00000000000E+00 0.  1.
<mgrwt>
<rscale>  0 0.68772743E+03</rscale>
<asrwt>0</asrwt>
<pdfrwt beam="1">  1        2 0.58517248E-01 0.68772743E+03</pdfrwt>
<pdfrwt beam="2">  1       -2 0.47825784E-01 0.68772743E+03</pdfrwt>
<totfact> 0.35181965E+02</totfact>
</mgrwt>
</event>
<event>
 6    1  0.1719556E-004  0.1750655E+04  0.7818608E-02  0.8732990E-01
         -2   -1    0    0    0  501 -0.00000000000E+00  0.00000000000E+00  0.23786463622E+04  0.23786463622E+04  0.00000000000E+00 0. -1.
          2   -1    0    0  501    0  0.00000000000E+00 -0.00000000000E+00 -0.32211529666E+03  0.32211529666E+03  0.00000000000E+00 0.  1.
         23    2    1    2    0    0  0.43907017763E+03 -0.37091619051E+03  0.20446685445E+04  0.21258684856E+04  0.91027028796E+02 0.  0.
         13    1    3    3    0    0  0.20212646525E+03 -0.20406624005E+03  0.11556998023E+04  0.11908569063E+04  0.00000000000E+00 0.  1.
        -13    1    3    3    0    0  0.23694371238E+03 -0.16684995045E+03  0.88896874220E+03  0.93501157929E+03  0.00000000000E+00 0. -1.
         22    1    1    2    0    0 -0.43907017763E+03  0.37091619051E+03  0.11862521053E+02  0.57489317327E+03  0.00000000000E+00 0.  1.
<mgrwt>
<rscale>  0 0.17506552E+04</rscale>
<asrwt>0</asrwt>
<pdfrwt beam="1">  1        2 0.49556201E-01 0.17506552E+04</pdfrwt>
<pdfrwt beam="2">  1       -2 0.36594558E+00 0.17506552E+04</pdfrwt>
<totfact> 0.11900846E+00</totfact>
</mgrwt>
</event>
<event>
 6    1  0.1719556E-004  0.1593768E+04  0.7818608E-02  0.8824386E-01
          1   -1    0    0  501    0  0.00000000000E+00  0.00000000000E+00  0.72275921414E+03  0.72275921414E+03  0.00000000000E+00 0.  1.
         -1   -1    0    0    0  501 -0.00000000000E+00 -0.00000000000E+00 -0.87861084360E+03  0.87861084360E+03  0.00000000000E+00 0. -1.
         23    2    1    2    0    0  0.14151830890E+03  0.57904511967E+03 -0.60565523127E+03  0.85461443334E+03  0.90702194755E+02 0.  0.
         11    1    3    3    0    0  0.52261786736E+02  0.13389935127E+03 -0.19638539547E+03  0.24336711811E+03  0.00000000000E+00 0. -1.
        -11    1    3    3    0    0  0.89256522161E+02  0.44514576841E+03 -0.40926983580E+03  0.61124731523E+03  0.00000000000E+00 0.  1.
         22    1    1    2    0    0 -0.14151830890E+03 -0.57904511967E+03  0.44980360181E+03  0.74675562440E+03  0.00000000000E+00 0.  1.
<mgrwt>
<rscale>  0 0.15937680E+04</rscale>
<asrwt>0</asrwt>
<pdfrwt beam="1">  1        1 0.11119373E+00 0.15937680E+04</pdfrwt>
<pdfrwt beam="2">  1       -1 0.13517090E+00 0.15937680E+04</pdfrwt>
<totfact> 0.11436487E+01</totfact>
</mgrwt>
</event>
<event>
 6    1  0.1719556E-004  0.3256441E+04  0.7818608E-02  0.8174068E-01
         -2   -1    0    0    0  501 -0.00000000000E+00  0.00000000000E+00  0.18407411646E+04  0.18407411646E+04  0.00000000000E+00 0. -1.
          2   -1    0    0  501    0  0.00000000000E+00 -0.00000000000E+00 -0.14402359718E+04  0.14402359718E+04  0.00000000000E+00 0.  1.
         23    2    1    2    0    0 -0.11747521139E+04 -0.11125931574E+04  0.37223711020E+03  0.16627357615E+04  0.90684525517E+02 0.  0.
         13    1    3    3    0    0 -0.10662717603E+04 -0.97872250078E+03  0.31562921857E+03  0.14813693004E+04  0.00000000000E+00 0. -1.
        -13    1    3    3    0    0 -0.10848035359E+03 -0.13387065662E+03  0.56607891634E+02  0.18136646111E+03  0.00000000000E+00 0.  1.
         22    1    1    2    0    0  0.11747521139E+04  0.11125931574E+04  0.28268082591E+02  0.16182413749E+04  0.00000000000E+00 0. -1.
<mgrwt>
<rscale>  0 0.32564408E+04</rscale>
<asrwt>0</asrwt>
<pdfrwt beam="1">  1        2 0.22157476E+00 0.32564408E+04</pdfrwt>
<pdfrwt beam="2">  1       -2 0.28319095E+00 0.32564408E+04</pdfrwt>
<totfact> 0.46318786E-01</totfact>
</mgrwt>
</event>
<event>
 6    1  0.1719556E-004  0.1383327E+04  0.7818608E-02  0.8965976E-01
         -1   -1    0    0    0  501 -0.00000000000E+00  0.00000000000E+00  0.28934106951E+03  0.28934106951E+03  0.00000000000E+00 0. -1.
          1   -1    0    0  501    0  0.00000000000E+00 -0.00000000000E+00 -0.16534064873E+04  0.16534064873E+04  0.00000000000E+00 0.  1.
         23    2    1    2    0    0  0.31285955098E+03 -0.15004993011E+03  0.15091213551E+03  0.38854259376E+03  0.88288132578E+02 0.  0.
         13    1    3    3    0    0  0.34049484997E+02 -0.52428471251E+02  0.30148267707E+02  0.69404827440E+02  0.00000000000E+00 0.  1.
        -13    1    3    3    0    0  0.27881006599E+03 -0.97621458862E+02  0.12076386780E+03  0.31913776632E+03  0.00000000000E+00 0. -1.
         22    1    1    2    0    0 -0.31285955098E+03  0.15004993011E+03 -0.15149775533E+04  0.15542049630E+04  0.00000000000E+00 0.  1.
<mgrwt>
<rscale>  0 0.13833270E+04</rscale>
<asrwt>0</asrwt>
<pdfrwt beam="1">  1        1 0.25437023E+00 0.13833270E+04</pdfrwt>
<pdfrwt beam="2">  1       -1 0.44514011E-01 0.13833270E+04</pdfrwt>
<totfact> 0.25027289E+01</totfact>
</mgrwt>
</event>
<event>
 6    1  0.1719556E-004  0.2594414E+04  0.7818608E-02  0.8370101E-01
         -2   -1    0    0    0  501 -0.00000000000E+00  0.00000000000E+00  0.23055649140E+04  0.23055649140E+04  0.00000000000E+00 0. -1.
          2   -1    0    0  501    0  0.00000000000E+00 -0.00000000000E+00 -0.72986297213E+03  0.72986297213E+03  0.00000000000E+00 0.  1.
         23    2    1    2    0    0  0.73863027819E+03  0.53821223269E+03  0.18631937001E+04  0.20773576349E+04  0.93149791627E+02 0.  0.
         11    1    3    3    0    0  0.40653758602E+03  0.35293193979E+03  0.10965100470E+04  0.12215433050E+04  0.00000000000E+00 0.  1.
        -11    1    3    3    0    0  0.33209269217E+03  0.18528029289E+03  0.76668365314E+03  0.85581432982E+03  0.00000000000E+00 0. -1.
         22    1    1    2    0    0 -0.73863027819E+03 -0.53821223269E+03 -0.28749175826E+03  0.95807025126E+03  0.00000000000E+00 0.  1.
<mgrwt>
<rscale>  0 0.25944144E+04</rscale>
<asrwt>0</asrwt>
<pdfrwt beam="1">  1        2 0.11228661E+00 0.25944144E+04</pdfrwt>
<pdfrwt beam="2">  1       -2 0.35470229E+00 0.25944144E+04</pdfrwt>
<totfact> 0.49959535E-01</totfact>
</mgrwt>
</event>
<event>
 6    1  0.1719556E-004  0.3296737E+04  0.7818608E-02  0.8163726E-01
          2   -1    0    0  501    0  0.00000000000E+00  0.00000000000E+00  0.18252396702E+04  0.18252396702E+04  0.00000000000E+00 0.  1.
         -2   -1    0    0    0  501 -0.00000000000E+00 -0.00000000000E+00 -0.14886370718E+04  0.14886370718E+04  0.00000000000E+00 0. -1.
         23    2    1    2    0    0 -0.15440040994E+04  0.54478819867E+03 -0.11927202239E+02  0.16398947044E+04  0.91485205984E+02 0.  0.
         11    1    3    3    0    0 -0.75030678530E+03  0.31189523423E+03 -0.16621179244E+02  0.81272084556E+03  0.00000000000E+00 0. -1.
        -11    1    3    3    0    0 -0.79369731409E+03  0.23289296444E+03  0.46939770050E+01  0.82717385881E+03  0.00000000000E+00 0.  1.
         22    1    1    2    0    0  0.15440040994E+04 -0.54478819867E+03  0.34852980062E+03  0.16739820376E+04  0.00000000000E+00 0. -1.
<mgrwt>
<rscale>  0 0.32967374E+04</rscale>
<asrwt>0</asrwt>
<pdfrwt beam="1">  1        2 0.28080610E+00 0.32967374E+04</pdfrwt>
<pdfrwt beam="2">  1       -2 0.22902109E+00 0.32967374E+04</pdfrwt>
<totfact> 0.60530755E-01</totfact>
</mgrwt>
</event>
<event>
 6    1  0.1719556E-004  0.2955851E+04  0.7818608E-02  0.8256451E-01
         -2   -1    0    0    0  501 -0.00000000000E+00  0.00000000000E+00  0.24035791412E+04  0.24035791412E+04  0.00000000000E+00 0. -1.
          2   -1    0    0  501    0  0.00000000000E+00 -0.00000000000E+00 -0.90875489137E+03  0.90875489137E+03  0.00000000000E+00 0.  1.
         23    2    1    2    0    0 -0.10413499399E+04  0.24596619102E+03  0.18884113699E+04  0.21722375957E+04  0.87233054767E+02 0.  0.
         11    1    3    3    0    0 -0.59003751708E+03  0.18075758677E+03  0.11169652143E+04  0.12760990818E+04  0.00000000000E+00 0.  1.
        -11    1    3    3    0    0 -0.45131242278E+03  0.65208604251E+02  0.77144615562E+03  0.89613851387E+03  0.00000000000E+00 0. -1.
         22    1    1    2    0    0  0.10413499399E+04 -0.24596619102E+03 -0.39358712004E+03  0.11400964369E+04  0.00000000000E+00 0.  1.
<mgrwt>
<rscale>  0 0.29558514E+04</rscale>
<asrwt>0</asrwt>
<pdfrwt beam="1">  1        2 0.13980845E+00 0.29558514E+04</pdfrwt>
<pdfrwt beam="2">  1       -2 0.36978140E+00 0.29558514E+04</pdfrwt>
<totfact> 0.28933429E-01</totfact>
</mgrwt>
</event>
<event>
 6    1  0.1719556E-004  0.2461679E+04  0.7818608E-02  0.8416766E-01
         -2   -1    0    0    0  501 -0.00000000000E+00  0.00000000000E+00  0.85747228129E+03  0.85747228129E+03  0.00000000000E+00 0. -1.
          2   -1    0    0  501    0  0.00000000000E+00 -0.00000000000E+00 -0.17667812099E+04  0.17667812099E+04  0.00000000000E+00 0.  1.
         23    2    1    2    0    0  0.88875941284E+03 -0.17840262505E+03 -0.13404251634E+04  0.16204696507E+04  0.86379856279E+02 0.  0.
         11    1    3    3    0    0  0.45071795212E+03 -0.11761629627E+03 -0.74801735226E+03  0.88119817567E+03  0.00000000000E+00 0. -1.
        -11    1    3    3    0    0  0.43804146072E+03 -0.60786328779E+02 -0.59240781113E+03  0.73927147501E+03  0.00000000000E+00 0.  1.
         22    1    1    2    0    0 -0.88875941284E+03  0.17840262505E+03  0.43111623479E+03  0.10037838405E+04  0.00000000000E+00 0. -1.
<mgrwt>
<rscale>  0 0.24616790E+04</rscale>
<asrwt>0</asrwt>
<pdfrwt beam="1">  1        2 0.27181249E+00 0.24616790E+04</pdfrwt>
<pdfrwt beam="2">  1       -2 0.13191881E+00 0.24616790E+04</pdfrwt>
<totfact> 0.33710098E+00</totfact>
</mgrwt>
</event>
<event>
 6    1  0.1719556E-004  0.3358629E+04  0.7818608E-02  0.8148135E-01
          2   -1    0    0  501    0  0.00000000000E+00  0.00000000000E+00  0.41711767689E+04  0.41711767689E+04  0.00000000000E+00 0.  1.
         -2   -1    0    0    0  501 -0.00000000000E+00 -0.00000000000E+00 -0.67609139771E+03  0.67609139771E+03  0.00000000000E+00 0. -1.
         23    2    1    2    0    0  0.89351750256E+02  0.14269838313E+04  0.30166957797E+04  0.33395801381E+04  0.89863684910E+02 0.  0.
         13    1    3    3    0    0  0.90680689730E+02  0.88372657698E+03  0.19312074070E+04  0.21257369779E+04  0.00000000000E+00 0.  1.
        -13    1    3    3    0    0 -0.13289394738E+01  0.54325725428E+03  0.10854883728E+04  0.12138431603E+04  0.00000000000E+00 0. -1.
         22    1    1    2    0    0 -0.89351750256E+02 -0.14269838313E+04  0.47838959149E+03  0.15076880285E+04  0.00000000000E+00 0. -1.
<mgrwt>
<rscale>  0 0.33586287E+04</rscale>
<asrwt>0</asrwt>
<pdfrwt beam="1">  1        2 0.64171949E+00 0.33586287E+04</pdfrwt>
<pdfrwt beam="2">  1       -2 0.10401406E+00 0.33586287E+04</pdfrwt>
<totfact> 0.15349698E-01</totfact>
</mgrwt>
</event>
<event>
 6    1  0.1719556E-004  0.1312795E+04  0.7818608E-02  0.9019480E-01
          2   -1    0    0  501    0  0.00000000000E+00  0.00000000000E+00  0.34149199645E+04  0.34149199645E+04  0.00000000000E+00 0.  1.
         -2   -1    0    0    0  501 -0.00000000000E+00 -0.00000000000E+00 -0.12616913068E+03  0.12616913068E+03  0.00000000000E+00 0. -1.
         23    2    1    2    0    0  0.51404536295E+03  0.19959489531E+03  0.70659142478E+03  0.90070503767E+03  0.88979581424E+02 0.  0.
         11    1    3    3    0    0  0.16022467872E+03  0.10713865662E+03  0.25287010952E+03  0.31795271929E+03  0.00000000000E+00 0. -1.
        -11    1    3    3    0    0  0.35382068423E+03  0.92456238692E+02  0.45372131526E+03  0.58275231838E+03  0.00000000000E+00 0.  1.
         22    1    1    2    0    0 -0.51404536295E+03 -0.19959489531E+03  0.25821594090E+04  0.26403840575E+04  0.00000000000E+00 0. -1.
<mgrwt>
<rscale>  0 0.13127947E+04</rscale>
<asrwt>0</asrwt>
<pdfrwt beam="1">  1        2 0.52537223E+00 0.13127947E+04</pdfrwt>
<pdfrwt beam="2">  1       -2 0.19410638E-01 0.13127947E+04</pdfrwt>
<totfact> 0.20930147E+01</totfact>
</mgrwt>
</event>
<event>
 6    1  0.1719556E-004  0.1715855E+04  0.7818608E-02  0.8752373E-01
          2   -1    0    0  501    0  0.00000000000E+00  0.00000000000E+00  0.34088535056E+04  0.34088535056E+04  0.00000000000E+00 0.  1.
         -2   -1    0    0    0  501 -0.00000000000E+00 -0.00000000000E+00 -0.21591990856E+03  0.21591990856E+03  0.00000000000E+00 0. -1.
         23    2    1    2    0    0  0.71971529772E+03 -0.36381436470E+03  0.22032850970E+04  0.23481547728E+04  0.94945335531E+02 0.  0.
         11    1    3    3    0    0  0.32046080049E+03 -0.14509617652E+03  0.10911329264E+04  0.11464375640E+04  0.00000000000E+00 0.  1.
        -11    1    3    3    0    0  0.39925449723E+03 -0.21871818818E+03  0.11121521706E+04  0.12017172089E+04  0.00000000000E+00 0. -1.
         22    1    1    2    0    0 -0.71971529772E+03  0.36381436470E+03  0.98964849998E+03  0.12766186413E+04  0.00000000000E+00 0. -1.
<mgrwt>
<rscale>  0 0.17158547E+04</rscale>
<asrwt>0</asrwt>
<pdfrwt beam="1">  1        2 0.52443896E+00 0.17158547E+04</pdfrwt>
<pdfrwt beam="2">  1       -2 0.33218450E-01 0.17158547E+04</pdfrwt>
<totfact> 0.76278272E+00</totfact>
</mgrwt>
</event>
<event>
 6    1  0.1719556E-004  0.2610208E+04  0.7818608E-02  0.8364742E-01
         -1   -1    0    0    0  501 -0.00000000000E+00  0.00000000000E+00  0.10534539125E+04  0.10534539125E+04  0.00000000000E+00 0.  1.
          1   -1    0    0  501    0  0.00000000000E+00 -0.00000000000E+00 -0.16168684573E+04  0.16168684573E+04  0.00000000000E+00 0. -1.
         23    2    1    2    0    0 -0.18171796034E+03 -0.10720142330E+04  0.45352460827E+03  0.11815641040E+04  0.90405910052E+02 0.  0.
         13    1    3    3    0    0 -0.10244414950E+03 -0.38637802631E+03  0.14058238766E+03  0.42372891181E+03  0.00000000000E+00 0. -1.
        -13    1    3    3    0    0 -0.79273810845E+02 -0.68563620669E+03  0.31294222061E+03  0.75783519215E+03  0.00000000000E+00 0.  1.
         22    1    1    2    0    0  0.18171796034E+03  0.10720142330E+04 -0.10169391531E+04  0.14887582658E+04  0.00000000000E+00 0. -1.
<mgrwt>
<rscale>  0 0.26102080E+04</rscale>
<asrwt>0</asrwt>
<pdfrwt beam="1">  1        1 0.24874899E+00 0.26102080E+04</pdfrwt>
<pdfrwt beam="2">  1       -1 0.16206983E+00 0.26102080E+04</pdfrwt>
<totfact> 0.13478051E+00</totfact>
</mgrwt>
</event>
<event>
 6    1  0.1719556E-004  0.4156790E+04  0.7818608E-02  0.7973643E-01
          2   -1    0    0  501    0  0.00000000000E+00  0.00000000000E+00  0.17318306572E+04  0.17318306572E+04  0.00000000000E+00 0.  1.
         -2   -1    0    0    0  501 -0.00000000000E+00 -0.00000000000E+00 -0.24943121594E+04  0.24943121594E+04  0.00000000000E+00 0. -1.
         23    2    1    2    0    0 -0.17539107805E+04 -0.10583752358E+04 -0.73095100451E+03  0.21773979965E+04  0.10203675097E+03 0.  0.
         13    1    3    3    0    0 -0.11105060554E+04 -0.72316149756E+03 -0.49123892872E+03  0.14133300873E+04  0.00000000000E+00 0. -1.
        -13    1    3    3    0    0 -0.64340472514E+03 -0.33521373821E+03 -0.23971207579E+03  0.76406790922E+03  0.00000000000E+00 0.  1.
         22    1    1    2    0    0  0.17539107805E+04  0.10583752358E+04 -0.31530497659E+02  0.20487448201E+04  0.00000000000E+00 0.  1.
<mgrwt>
<rscale>  0 0.41567902E+04</rscale>
<asrwt>0</asrwt>
<pdfrwt beam="1">  1        2 0.26643549E+00 0.41567902E+04</pdfrwt>
<pdfrwt beam="2">  1       -2 0.38374033E+00 0.41567902E+04</pdfrwt>
<totfact> 0.69433107E-02</totfact>
</mgrwt>
</event>
<event>
 6    1  0.1719556E-004  0.2518391E+04  0.7818608E-02  0.8396463E-01
          2   -1    0    0  501    0  0.00000000000E+00  0.00000000000E+00  0.39563696108E+04  0.39563696108E+04  0.00000000000E+00 0.  1.
         -2   -1    0    0    0  501 -0.00000000000E+00 -0.00000000000E+00 -0.40076463416E+03  0.40076463416E+03  0.00000000000E+00 0. -1.
         23    2    1    2    0    0  0.46865617789E+03 -0.43540814088E+03  0.36532729835E+04  0.37100191843E+04  0.92843923011E+02 0.  0.
         13    1    3    3    0    0  0.44352820078E+03 -0.37586904637E+03  0.32464305070E+04  0.32980760818E+04  0.00000000000E+00 0. -1.
        -13    1    3    3    0    0  0.25127977103E+02 -0.59539094510E+02  0.40684247648E+03  0.41194310247E+03  0.00000000000E+00 0.  1.
         22    1    1    2    0    0 -0.46865617789E+03  0.43540814088E+03 -0.97668006789E+02  0.64711506068E+03  0.00000000000E+00 0. -1.
<mgrwt>
<rscale>  0 0.25183908E+04</rscale>
<asrwt>0</asrwt>
<pdfrwt beam="1">  1        2 0.60867222E+00 0.25183908E+04</pdfrwt>
<pdfrwt beam="2">  1       -2 0.61656100E-01 0.25183908E+04</pdfrwt>
<totfact> 0.80991531E-01</totfact>
</mgrwt>
</event>
<event>
 6    1  0.1719556E-004  0.2045623E+04  0.7818608E-02  0.8585582E-01
         -2   -1    0    0    0  501 -0.00000000000E+00  0.00000000000E+00  0.70118173446E+03  0.70118173446E+03  0.00000000000E+00 0. -1.
          2   -1    0    0  501    0  0.00000000000E+00 -0.00000000000E+00 -0.14919724827E+04  0.14919724827E+04  0.00000000000E+00 0.  1.
         23    2    1    2    0    0  0.36666101950E+03 -0.54720844121E+03  0.43989091956E+03  0.79728361113E+03  0.90993154186E+02 0.  0.
         11    1    3    3    0    0  0.27492160375E+03 -0.45542300764E+03  0.32119680685E+03  0.62141724536E+03  0.00000000000E+00 0. -1.
        -11    1    3    3    0    0  0.91739415751E+02 -0.91785433572E+02  0.11869411270E+03  0.17586636577E+03  0.00000000000E+00 0.  1.
         22    1    1    2    0    0 -0.36666101950E+03  0.54720844121E+03 -0.12306816678E+04  0.13958706061E+04  0.00000000000E+00 0.  1.
<mgrwt>
<rscale>  0 0.20456235E+04</rscale>
<asrwt>0</asrwt>
<pdfrwt beam="1">  1        2 0.22953423E+00 0.20456235E+04</pdfrwt>
<pdfrwt beam="2">  1       -2 0.10787411E+00 0.20456235E+04</pdfrwt>
<totfact> 0.81792934E+00</totfact>
</mgrwt>
</event>
<event>
 6    1  0.1719556E-004  0.2203287E+04  0.7818608E-02  0.8517061E-01
         -2   -1    0    0    0  501 -0.00000000000E+00  0.00000000000E+00  0.17686735035E+04  0.17686735035E+04  0.00000000000E+00 0. -1.
          2   -1    0    0  501    0  0.00000000000E+00 -0.00000000000E+00 -0.68617466063E+03  0.68617466063E+03  0.00000000000E+00 0.  1.
         23    2    1    2    0    0 -0.44376419732E+03 -0.52268642831E+03  0.15001836629E+04  0.16519855520E+04  0.91528554582E+02 0.  0.
         13    1    3    3    0    0 -0.39345169197E+03 -0.49305579207E+03  0.13286997631E+04  0.14708335420E+04  0.00000000000E+00 0. -1.
        -13    1    3    3    0    0 -0.50312505343E+02 -0.29630636238E+02  0.17148389983E+03  0.18115200992E+03  0.00000000000E+00 0.  1.
         22    1    1    2    0    0  0.44376419732E+03  0.52268642831E+03 -0.41768482002E+03  0.80286261218E+03  0.00000000000E+00 0.  1.
<mgrwt>
<rscale>  0 0.22032875E+04</rscale>
<asrwt>0</asrwt>
<pdfrwt beam="1">  1        2 0.10556533E+00 0.22032875E+04</pdfrwt>
<pdfrwt beam="2">  1       -2 0.27210361E+00 0.22032875E+04</pdfrwt>
<totfact> 0.18068883E+00</totfact>
</mgrwt>
</event>
<event>
 6    1  0.1719556E-004  0.3305789E+04  0.7818608E-02  0.8161424E-01
         -1   -1    0    0    0  501 -0.00000000000E+00  0.00000000000E+00  0.12003242328E+04  0.12003242328E+04  0.00000000000E+00 0. -1.
          1   -1    0    0  501    0  0.00000000000E+00 -0.00000000000E+00 -0.22761020935E+04  0.22761020935E+04  0.00000000000E+00 0.  1.
         23    2    1    2    0    0 -0.93202287150E+03  0.12507049375E+04  0.32714826716E+02  0.15628732145E+04  0.92590230850E+02 0.  0.
         11    1    3    3    0    0 -0.51418866064E+03  0.61254740883E+03  0.16791394685E+02  0.79992890793E+03  0.00000000000E+00 0.  1.
        -11    1    3    3    0    0 -0.41783421086E+03  0.63815752868E+03  0.15923432031E+02  0.76294430653E+03  0.00000000000E+00 0. -1.
         22    1    1    2    0    0  0.93202287150E+03 -0.12507049375E+04 -0.11084926874E+04  0.19135531118E+04  0.00000000000E+00 0.  1.
<mgrwt>
<rscale>  0 0.33057892E+04</rscale>
<asrwt>0</asrwt>
<pdfrwt beam="1">  1        1 0.35016955E+00 0.33057892E+04</pdfrwt>
<pdfrwt beam="2">  1       -1 0.18466527E+00 0.33057892E+04</pdfrwt>
<totfact> 0.30883529E-01</totfact>
</mgrwt>
</event>
<event>
 6    1  0.1719556E-004  0.2306971E+04  0.7818608E-02  0.8475178E-01
          2   -1    0    0  501    0  0.00000000000E+00  0.00000000000E+00  0.17322948760E+04  0.17322948760E+04  0.00000000000E+00 0.  1.
         -2   -1    0    0    0  501 -0.00000000000E+00 -0.00000000000E+00 -0.76807299219E+03  0.76807299219E+03  0.00000000000E+00 0. -1.
         23    2    1    2    0    0 -0.19823333089E+03  0.46945201529E+03  0.16022365125E+04  0.16838237392E+04  0.91754534205E+02 0.  0.
         13    1    3    3    0    0 -0.43208842573E+02  0.11435442864E+03  0.26995723248E+03  0.29634582297E+03  0.00000000000E+00 0. -1.
        -13    1    3    3    0    0 -0.15502448832E+03  0.35509758664E+03  0.13322792801E+04  0.13874779162E+04  0.00000000000E+00 0.  1.
         22    1    1    2    0    0  0.19823333089E+03 -0.46945201529E+03 -0.63801462871E+03  0.81654412899E+03  0.00000000000E+00 0. -1.
<mgrwt>
<rscale>  0 0.23069711E+04</rscale>
<asrwt>0</asrwt>
<pdfrwt beam="1">  1        2 0.26650690E+00 0.23069711E+04</pdfrwt>
<pdfrwt beam="2">  1       -2 0.11816508E+00 0.23069711E+04</pdfrwt>
<totfact> 0.47041479E+00</totfact>
</mgrwt>
</event>
<event>
 6    1  0.1719556E-004  0.1130654E+04  0.7818608E-02  0.9175819E-01
         -2   -1    0    0    0  501 -0.00000000000E+00  0.00000000000E+00  0.31921025036E+03  0.31921025036E+03  0.00000000000E+00 0.  1.
          2   -1    0    0  501    0  0.00000000000E+00 -0.00000000000E+00 -0.10012044572E+04  0.10012044572E+04  0.00000000000E+00 0. -1.
         23    2    1    2    0    0  0.39564721152E+03 -0.36779491947E+03 -0.52248630134E+03  0.75716290714E+03  0.92162433119E+02 0.  0.
         13    1    3    3    0    0  0.34547747132E+02 -0.59068247718E+02 -0.36564590631E+02  0.77585913724E+02  0.00000000000E+00 0.  1.
        -13    1    3    3    0    0  0.36109946439E+03 -0.30872667176E+03 -0.48592171071E+03  0.67957699341E+03  0.00000000000E+00 0. -1.
         22    1    1    2    0    0 -0.39564721152E+03  0.36779491947E+03 -0.15950790552E+03  0.56325180044E+03  0.00000000000E+00 0.  1.
<mgrwt>
<rscale>  0 0.11306542E+04</rscale>
<asrwt>0</asrwt>
<pdfrwt beam="1">  1        2 0.15403146E+00 0.11306542E+04</pdfrwt>
<pdfrwt beam="2">  1       -2 0.49109269E-01 0.11306542E+04</pdfrwt>
<totfact> 0.97795805E+01</totfact>
</mgrwt>
</event>
<event>
 6    1  0.1719556E-004  0.9137044E+03  0.7818608E-02  0.9408611E-01
          1   -1    0    0  501    0  0.00000000000E+00  0.00000000000E+00  0.66423376910E+03  0.66423376910E+03  0.00000000000E+00 0. -1.
         -1   -1    0    0    0  501 -0.00000000000E+00 -0.00000000000E+00 -0.31421756565E+03  0.31421756565E+03  0.00000000000E+00 0.  1.
         23    2    1    2    0    0  0.24010774994E+02  0.31934455291E+03  0.51588886630E+03  0.61779748260E+03  0.11390762198E+03 0.  0.
         11    1    3    3    0    0  0.62506143670E+02  0.14645777490E+03  0.20010258317E+03  0.25573021257E+03  0.00000000000E+00 0. -1.
        -11    1    3    3    0    0 -0.38495368676E+02  0.17288677801E+03  0.31578628313E+03  0.36206727004E+03  0.00000000000E+00 0.  1.
         22    1    1    2    0    0 -0.24010774994E+02 -0.31934455291E+03 -0.16587266284E+03  0.36065385215E+03  0.00000000000E+00 0.  1.
<mgrwt>
<rscale>  0 0.91370437E+03</rscale>
<asrwt>0</asrwt>
<pdfrwt beam="1">  1        1 0.10218981E+00 0.91370437E+03</pdfrwt>
<pdfrwt beam="2">  1       -1 0.48341164E-01 0.91370437E+03</pdfrwt>
<totfact> 0.12705753E+02</totfact>
</mgrwt>
</event>
<event>
 6    1  0.1719556E-004  0.1303170E+04  0.7818608E-02  0.9027055E-01
          1   -1    0    0  501    0  0.00000000000E+00  0.00000000000E+00  0.10901412807E+04  0.10901412807E+04  0.00000000000E+00 0. -1.
         -1   -1    0    0    0  501 -0.00000000000E+00 -0.00000000000E+00 -0.38945666213E+03  0.38945666213E+03  0.00000000000E+00 0.  1.
         23    2    1    2    0    0  0.16332271704E+03  0.20689456984E+02  0.10641856936E+04  0.10805548435E+04  0.89471872187E+02 0.  0.
         13    1    3    3    0    0  0.11127744336E+03  0.44280832310E+02  0.53221075579E+03  0.54551970642E+03  0.00000000000E+00 0. -1.
        -13    1    3    3    0    0  0.52045273671E+02 -0.23591375326E+02  0.53197493781E+03  0.53503513712E+03  0.00000000000E+00 0.  1.
         22    1    1    2    0    0 -0.16332271704E+03 -0.20689456984E+02 -0.36350107504E+03  0.39904309928E+03  0.00000000000E+00 0.  1.
<mgrwt>
<rscale>  0 0.13031697E+04</rscale>
<asrwt>0</asrwt>
<pdfrwt beam="1">  1        1 0.16771404E+00 0.13031697E+04</pdfrwt>
<pdfrwt beam="2">  1       -1 0.59916410E-01 0.13031697E+04</pdfrwt>
<totfact> 0.35782390E+01</totfact>
</mgrwt>
</event>
<event>
 6    1  0.1719556E-004  0.1752319E+04  0.7818608E-02  0.8732075E-01
          2   -1    0    0  501    0  0.00000000000E+00  0.00000000000E+00  0.28941182013E+04  0.28941182013E+04  0.00000000000E+00 0.  1.
         -2   -1    0    0    0  501 -0.00000000000E+00 -0.00000000000E+00 -0.26524680569E+03  0.26524680569E+03  0.00000000000E+00 0. -1.
         23    2    1    2    0    0 -0.75616149510E+03  0.16832452862E+03  0.20469181967E+04  0.21904569209E+04  0.90078103511E+02 0.  0.
         11    1    3    3    0    0 -0.32572259811E+03  0.96318037507E+02  0.78989680495E+03  0.85983099370E+03  0.00000000000E+00 0. -1.
        -11    1    3    3    0    0 -0.43043889700E+03  0.72006491110E+02  0.12570213917E+04  0.13306259272E+04  0.00000000000E+00 0.  1.
         22    1    1    2    0    0  0.75616149510E+03 -0.16832452862E+03  0.58195319896E+03  0.96890808614E+03  0.00000000000E+00 0. -1.
<mgrwt>
<rscale>  0 0.17523192E+04</rscale>
<asrwt>0</asrwt>
<pdfrwt beam="1">  1        2 0.44524893E+00 0.17523192E+04</pdfrwt>
<pdfrwt beam="2">  1       -2 0.40807203E-01 0.17523192E+04</pdfrwt>
<totfact> 0.10956327E+01</totfact>
</mgrwt>
</event>
<event>
 6    1  0.1719556E-004  0.1201729E+04  0.7818608E-02  0.9111345E-01
         -2   -1    0    0    0  501 -0.00000000000E+00  0.00000000000E+00  0.42251852191E+03  0.42251852191E+03  0.00000000000E+00 0. -1.
          2   -1    0    0  501    0  0.00000000000E+00 -0.00000000000E+00 -0.85449048251E+03  0.85449048251E+03  0.00000000000E+00 0.  1.
         23    2    1    2    0    0 -0.24409540543E+03 -0.13103691601E+02  0.35897343133E+03  0.44915099323E+03  0.11454438717E+03 0.  0.
         11    1    3    3    0    0 -0.10581012923E+03 -0.57817995948E+02  0.12471906028E+03  0.17347492067E+03  0.00000000000E+00 0. -1.
        -11    1    3    3    0    0 -0.13828527619E+03  0.44714304347E+02  0.23425437105E+03  0.27567607256E+03  0.00000000000E+00 0.  1.
         22    1    1    2    0    0  0.24409540543E+03  0.13103691601E+02 -0.79094539193E+03  0.82785801120E+03  0.00000000000E+00 0.  1.
<mgrwt>
<rscale>  0 0.12017288E+04</rscale>
<asrwt>0</asrwt>
<pdfrwt beam="1">  1        2 0.13146007E+00 0.12017288E+04</pdfrwt>
<pdfrwt beam="2">  1       -2 0.65002850E-01 0.12017288E+04</pdfrwt>
<totfact> 0.67889554E+01</totfact>
</mgrwt>
</event>
<event>
 6    1  0.1719556E-004  0.4142221E+04  0.7818608E-02  0.7976455E-01
         -2   -1    0    0    0  501 -0.00000000000E+00  0.00000000000E+00  0.13949906954E+04  0.13949906954E+04  0.00000000000E+00 0. -1.
          2   -1    0    0  501    0  0.00000000000E+00 -0.00000000000E+00 -0.30749294988E+04  0.30749294988E+04  0.00000000000E+00 0.  1.
         23    2    1    2    0    0  0.17877144202E+04  0.54739672221E+03  0.11860654079E+03  0.18756319729E+04  0.91442696522E+02 0.  0.
         11    1    3    3    0    0  0.47005147092E+03  0.11756815703E+03 -0.43993974456E+00  0.48453157834E+03  0.00000000000E+00 0. -1.
        -11    1    3    3    0    0  0.13176629493E+04  0.42982856518E+03  0.11904648053E+03  0.13911003946E+04  0.00000000000E+00 0.  1.
         22    1    1    2    0    0 -0.17877144202E+04 -0.54739672221E+03 -0.17985453442E+04  0.25942882213E+04  0.00000000000E+00 0. -1.
<mgrwt>
<rscale>  0 0.41422207E+04</rscale>
<asrwt>0</asrwt>
<pdfrwt beam="1">  1        2 0.47306607E+00 0.41422207E+04</pdfrwt>
<pdfrwt beam="2">  1       -2 0.21461396E+00 0.41422207E+04</pdfrwt>
<totfact> 0.13014301E-01</totfact>
</mgrwt>
</event>
<event>
 6    1  0.1719556E-004  0.1657641E+04  0.7818608E-02  0.8785899E-01
         -1   -1    0    0    0  501 -0.00000000000E+00  0.00000000000E+00  0.68258245068E+03  0.68258245068E+03  0.00000000000E+00 0. -1.
          1   -1    0    0  501    0  0.00000000000E+00 -0.00000000000E+00 -0.10063891341E+04  0.10063891341E+04  0.00000000000E+00 0.  1.
         23    2    1    2    0    0 -0.43272859934E+03 -0.52944775838E+03 -0.63510453599E+03  0.93765585717E+03  0.90949245712E+02 0.  0.
         13    1    3    3    0    0 -0.12945742794E+03 -0.97790414829E+02 -0.15298313278E+03  0.22299334025E+03  0.00000000000E+00 0.  1.
        -13    1    3    3    0    0 -0.30327117140E+03 -0.43165734355E+03 -0.48212140322E+03  0.71466251691E+03  0.00000000000E+00 0. -1.
         22    1    1    2    0    0  0.43272859934E+03  0.52944775838E+03  0.31129785258E+03  0.75131572762E+03  0.00000000000E+00 0. -1.
<mgrwt>
<rscale>  0 0.16576412E+04</rscale>
<asrwt>0</asrwt>
<pdfrwt beam="1">  1        1 0.15482910E+00 0.16576412E+04</pdfrwt>
<pdfrwt beam="2">  1       -1 0.10501269E+00 0.16576412E+04</pdfrwt>
<totfact> 0.12160542E+01</totfact>
</mgrwt>
</event>
<event>
 6    1  0.1719556E-004  0.3390852E+04  0.7818608E-02  0.8140155E-01
          2   -1    0    0  501    0  0.00000000000E+00  0.00000000000E+00  0.32958288996E+04  0.32958288996E+04  0.00000000000E+00 0.  1.
         -2   -1    0    0    0  501 -0.00000000000E+00 -0.00000000000E+00 -0.87215369000E+03  0.87215369000E+03  0.00000000000E+00 0. -1.
         23    2    1    2    0    0  0.80011129766E+03  0.79020302016E+03  0.27703091707E+04  0.29912268780E+04  0.90699681515E+02 0.  0.
         13    1    3    3    0    0  0.26016560751E+03  0.30128444782E+03  0.10590365767E+04  0.11313783331E+04  0.00000000000E+00 0. -1.
        -13    1    3    3    0    0  0.53994569014E+03  0.48891857234E+03  0.17112725941E+04  0.18598485449E+04  0.00000000000E+00 0.  1.
         22    1    1    2    0    0 -0.80011129766E+03 -0.79020302016E+03 -0.34663396119E+03  0.11767557116E+04  0.00000000000E+00 0. -1.
<mgrwt>
<rscale>  0 0.33908520E+04</rscale>
<asrwt>0</asrwt>
<pdfrwt beam="1">  1        2 0.50705059E+00 0.33908520E+04</pdfrwt>
<pdfrwt beam="2">  1       -2 0.13417749E+00 0.33908520E+04</pdfrwt>
<totfact> 0.37198864E-01</totfact>
</mgrwt>
</event>
<event>
 6    1  0.1719556E-004  0.3172196E+04  0.7818608E-02  0.8196199E-01
         -2   -1    0    0    0  501 -0.00000000000E+00  0.00000000000E+00  0.83590785398E+03  0.83590785398E+03  0.00000000000E+00 0.  1.
          2   -1    0    0  501    0  0.00000000000E+00 -0.00000000000E+00 -0.30095497168E+04  0.30095497168E+04  0.00000000000E+00 0. -1.
         23    2    1    2    0    0  0.10239164997E+03 -0.13120124685E+04 -0.17604625080E+02  0.13195206480E+04  0.94678668463E+02 0.  0.
         11    1    3    3    0    0  0.45128728406E+02 -0.91027597113E+03 -0.47443780809E+02  0.91262799545E+03  0.00000000000E+00 0.  1.
        -11    1    3    3    0    0  0.57262921562E+02 -0.40173649734E+03  0.29839155729E+02  0.40689265254E+03  0.00000000000E+00 0. -1.
         22    1    1    2    0    0 -0.10239164997E+03  0.13120124685E+04 -0.21560372377E+04  0.25259369228E+04  0.00000000000E+00 0. -1.
<mgrwt>
<rscale>  0 0.31721956E+04</rscale>
<asrwt>0</asrwt>
<pdfrwt beam="1">  1        2 0.46300766E+00 0.31721956E+04</pdfrwt>
<pdfrwt beam="2">  1       -2 0.12860121E+00 0.31721956E+04</pdfrwt>
<totfact> 0.64647674E-01</totfact>
</mgrwt>
</event>
<event>
 6    1  0.1719556E-004  0.1723970E+04  0.7818608E-02  0.8747810E-01
          2   -1    0    0  501    0  0.00000000000E+00  0.00000000000E+00  0.16601192890E+04  0.16601192890E+04  0.00000000000E+00 0.  1.
         -2   -1    0    0    0  501 -0.00000000000E+00 -0.00000000000E+00 -0.44756930808E+03  0.44756930808E+03  0.00000000000E+00 0. -1.
         23    2    1    2    0    0 -0.48919600266E+03 -0.26549039793E+03 -0.19266214515E+03  0.59625914134E+03  0.92781361561E+02 0.  0.
         11    1    3    3    0    0 -0.20988943986E+03 -0.11457026659E+03 -0.13167896938E+03  0.27298218610E+03  0.00000000000E+00 0.  1.
        -11    1    3    3    0    0 -0.27930656280E+03 -0.15092013134E+03 -0.60983175777E+02  0.32327695524E+03  0.00000000000E+00 0. -1.
         22    1    1    2    0    0  0.48919600266E+03  0.26549039793E+03  0.14052121261E+04  0.15114294558E+04  0.00000000000E+00 0.  1.
<mgrwt>
<rscale>  0 0.17239703E+04</rscale>
<asrwt>0</asrwt>
<pdfrwt beam="1">  1        2 0.25540296E+00 0.17239703E+04</pdfrwt>
<pdfrwt beam="2">  1       -2 0.68856817E-01 0.17239703E+04</pdfrwt>
<totfact> 0.18888424E+01</totfact>
</mgrwt>
</event>
<event>
 6    1  0.1719556E-004  0.1519015E+04  0.7818608E-02  0.8871906E-01
         -2   -1    0    0    0  501 -0.00000000000E+00  0.00000000000E+00  0.89244632870E+03  0.89244632870E+03  0.00000000000E+00 0. -1.
          2   -1    0    0  501    0  0.00000000000E+00 -0.00000000000E+00 -0.64637105781E+03  0.64637105781E+03  0.00000000000E+00 0.  1.
         23    2    1    2    0    0  0.62988385022E+03 -0.40021095090E+03 -0.16914371387E+01  0.75248996640E+03  0.96518488270E+02 0.  0.
         13    1    3    3    0    0  0.35400357945E+03 -0.27434756687E+03 -0.23405146589E+02  0.44847845277E+03  0.00000000000E+00 0.  1.
        -13    1    3    3    0    0  0.27588027077E+03 -0.12586338403E+03  0.21713709451E+02  0.30401151363E+03  0.00000000000E+00 0. -1.
         22    1    1    2    0    0 -0.62988385022E+03  0.40021095090E+03  0.24776670803E+03  0.78632742010E+03  0.00000000000E+00 0. -1.
<mgrwt>
<rscale>  0 0.15190148E+04</rscale>
<asrwt>0</asrwt>
<pdfrwt beam="1">  1        2 0.99441701E-01 0.15190148E+04</pdfrwt>
<pdfrwt beam="2">  1       -2 0.13729944E+00 0.15190148E+04</pdfrwt>
<totfact> 0.16494048E+01</totfact>
</mgrwt>
</event>
<event>
 6    1  0.1719556E-004  0.3712637E+04  0.7818608E-02  0.8065167E-01
         -2   -1    0    0    0  501 -0.00000000000E+00  0.00000000000E+00  0.17855457730E+04  0.17855457730E+04  0.00000000000E+00 0. -1.
          2   -1    0    0  501    0  0.00000000000E+00 -0.00000000000E+00 -0.19298964672E+04  0.19298964672E+04  0.00000000000E+00 0.  1.
         23    2    1    2    0    0  0.51078454315E+03 -0.22244529145E+03 -0.18431070911E+04  0.19276625968E+04  0.91959668339E+02 0.  0.
         13    1    3    3    0    0  0.57744903314E+02  0.45385661225E+01 -0.18495954463E+03  0.19381719632E+03  0.00000000000E+00 0. -1.
        -13    1    3    3    0    0  0.45303963984E+03 -0.22698385758E+03 -0.16581475465E+04  0.17338454005E+04  0.00000000000E+00 0.  1.
         22    1    1    2    0    0 -0.51078454315E+03  0.22244529145E+03  0.16987563969E+04  0.17877796434E+04  0.00000000000E+00 0. -1.
<mgrwt>
<rscale>  0 0.37126371E+04</rscale>
<asrwt>0</asrwt>
<pdfrwt beam="1">  1        2 0.29690715E+00 0.37126371E+04</pdfrwt>
<pdfrwt beam="2">  1       -2 0.27469935E+00 0.37126371E+04</pdfrwt>
<totfact> 0.26778376E-01</totfact>
</mgrwt>
</event>
<event>
 6    1  0.1719556E-004  0.3366803E+04  0.7818608E-02  0.8146102E-01
          2   -1    0    0  501    0  0.00000000000E+00  0.00000000000E+00  0.18557847842E+04  0.18557847842E+04  0.00000000000E+00 0.  1.
         -2   -1    0    0    0  501 -0.00000000000E+00 -0.00000000000E+00 -0.15270312573E+04  0.15270312573E+04  0.00000000000E+00 0. -1.
         23    2    1    2    0    0  0.15229093814E+04  0.60586460496E+02 -0.55087203589E+03  0.16230817338E+04  0.89502018612E+02 0.  0.
         13    1    3    3    0    0  0.14085842425E+04  0.52655220671E+02 -0.48372498498E+03  0.14902590384E+04  0.00000000000E+00 0.  1.
        -13    1    3    3    0    0  0.11432513896E+03  0.79312398246E+01 -0.67147050914E+02  0.13282269539E+03  0.00000000000E+00 0. -1.
         22    1    1    2    0    0 -0.15229093814E+04 -0.60586460496E+02  0.87962556273E+03  0.17597343077E+04  0.00000000000E+00 0.  1.
<mgrwt>
<rscale>  0 0.33668035E+04</rscale>
<asrwt>0</asrwt>
<pdfrwt beam="1">  1        2 0.28550535E+00 0.33668035E+04</pdfrwt>
<pdfrwt beam="2">  1       -2 0.23492789E+00 0.33668035E+04</pdfrwt>
<totfact> 0.53165321E-01</totfact>
</mgrwt>
</event>
<event>
 6    1  0.1719556E-004  0.3374308E+04  0.7818608E-02  0.8144241E-01
          2   -1    0    0  501    0  0.00000000000E+00  0.00000000000E+00  0.22817623839E+04  0.22817623839E+04  0.00000000000E+00 0.  1.
         -2   -1    0    0    0  501 -0.00000000000E+00 -0.00000000000E+00 -0.12474952962E+04  0.12474952962E+04  0.00000000000E+00 0. -1.
         23    2    1    2    0    0 -0.61282980933E+03  0.33898527699E+03  0.21215169376E+04  0.22359736319E+04  0.90953685169E+02 0.  0.
         11    1    3    3    0    0 -0.47978359899E+03  0.26697592963E+03  0.15343715918E+04  0.16296516899E+04  0.00000000000E+00 0. -1.
        -11    1    3    3    0    0 -0.13304621034E+03  0.72009347355E+02  0.58714534586E+03  0.60632194201E+03  0.00000000000E+00 0.  1.
         22    1    1    2    0    0  0.61282980933E+03 -0.33898527699E+03 -0.10872498499E+04  0.12932840482E+04  0.00000000000E+00 0. -1.
<mgrwt>
<rscale>  0 0.33743075E+04</rscale>
<asrwt>0</asrwt>
<pdfrwt beam="1">  1        2 0.35104037E+00 0.33743075E+04</pdfrwt>
<pdfrwt beam="2">  1       -2 0.19192235E+00 0.33743075E+04</pdfrwt>
<totfact> 0.57996992E-01</totfact>
</mgrwt>
</event>
<event>
 6    1  0.1719556E-004  0.4138556E+04  0.7818608E-02  0.7977164E-01
          2   -1    0    0  501    0  0.00000000000E+00  0.00000000000E+00  0.36065975845E+04  0.36065975845E+04  0.00000000000E+00 0.  1.
         -2   -1    0    0    0  501 -0.00000000000E+00 -0.00000000000E+00 -0.11872440765E+04  0.11872440765E+04  0.00000000000E+00 0. -1.
         23    2    1    2    0    0  0.16106501342E+04 -0.12974783582E+04  0.12255731435E+04  0.24057973768E+04  0.90485044443E+02 0.  0.
         11    1    3    3    0    0  0.56558898393E+03 -0.43563211612E+03  0.46990887106E+03  0.85468157020E+03  0.00000000000E+00 0. -1.
        -11    1    3    3    0    0  0.10450611503E+04 -0.86184624204E+03  0.75566427246E+03  0.15511158066E+04  0.00000000000E+00 0.  1.
         22    1    1    2    0    0 -0.16106501342E+04  0.12974783582E+04  0.11937803645E+04  0.23880442842E+04  0.00000000000E+00 0.  1.
<mgrwt>
<rscale>  0 0.41385561E+04</rscale>
<asrwt>0</asrwt>
<pdfrwt beam="1">  1        2 0.55486116E+00 0.41385561E+04</pdfrwt>
<pdfrwt beam="2">  1       -2 0.18265294E+00 0.41385561E+04</pdfrwt>
<totfact> 0.92415908E-02</totfact>
</mgrwt>
</event>
<event>
 6    1  0.1719556E-004  0.3113284E+04  0.7818608E-02  0.8212102E-01
          2   -1    0    0  501    0  0.00000000000E+00  0.00000000000E+00  0.20925356448E+04  0.20925356448E+04  0.00000000000E+00 0.  1.
         -2   -1    0    0    0  501 -0.00000000000E+00 -0.00000000000E+00 -0.11579894026E+04  0.11579894026E+04  0.00000000000E+00 0. -1.
         23    2    1    2    0    0 -0.14533400348E+03 -0.59310939922E+03  0.19611370192E+04  0.20560421653E+04  0.91379675957E+02 0.  0.
         11    1    3    3    0    0 -0.50065159120E+02 -0.31972240334E+03  0.91306582574E+03  0.96871984469E+03  0.00000000000E+00 0. -1.
        -11    1    3    3    0    0 -0.95268844362E+02 -0.27338699587E+03  0.10480711935E+04  0.10873223206E+04  0.00000000000E+00 0.  1.
         22    1    1    2    0    0  0.14533400348E+03  0.59310939922E+03 -0.10265907771E+04  0.11944828821E+04  0.00000000000E+00 0. -1.
<mgrwt>
<rscale>  0 0.31132839E+04</rscale>
<asrwt>0</asrwt>
<pdfrwt beam="1">  1        2 0.32192856E+00 0.31132839E+04</pdfrwt>
<pdfrwt beam="2">  1       -2 0.17815222E+00 0.31132839E+04</pdfrwt>
<totfact> 0.93969637E-01</totfact>
</mgrwt>
</event>
<event>
 6    1  0.1719556E-004  0.2113179E+04  0.7818608E-02  0.8555460E-01
          1   -1    0    0  501    0  0.00000000000E+00  0.00000000000E+00  0.13140626505E+04  0.13140626505E+04  0.00000000000E+00 0. -1.
         -1   -1    0    0    0  501 -0.00000000000E+00 -0.00000000000E+00 -0.84956485914E+03  0.84956485914E+03  0.00000000000E+00 0.  1.
         23    2    1    2    0    0  0.93294713382E+03  0.39629484874E+03 -0.65340305110E+02  0.10198756266E+04  0.91853015831E+02 0.  0.
         13    1    3    3    0    0  0.78357837792E+03  0.35078102874E+03 -0.84019477124E+02  0.86261328357E+03  0.00000000000E+00 0. -1.
        -13    1    3    3    0    0  0.14936875590E+03  0.45513820003E+02  0.18679172015E+02  0.15726234298E+03  0.00000000000E+00 0.  1.
         22    1    1    2    0    0 -0.93294713382E+03 -0.39629484874E+03  0.52983809651E+03  0.11437518831E+04  0.00000000000E+00 0. -1.
<mgrwt>
<rscale>  0 0.21131791E+04</rscale>
<asrwt>0</asrwt>
<pdfrwt beam="1">  1        1 0.20216348E+00 0.21131791E+04</pdfrwt>
<pdfrwt beam="2">  1       -1 0.13070229E+00 0.21131791E+04</pdfrwt>
<totfact> 0.40622083E+00</totfact>
</mgrwt>
</event>
<event>
 6    1  0.1719556E-004  0.8305437E+03  0.7818608E-02  0.9516829E-01
          2   -1    0    0  501    0  0.00000000000E+00  0.00000000000E+00  0.19642139865E+04  0.19642139865E+04  0.00000000000E+00 0.  1.
         -2   -1    0    0    0  501 -0.00000000000E+00 -0.00000000000E+00 -0.87796290823E+02  0.87796290823E+02  0.00000000000E+00 0. -1.
         23    2    1    2    0    0 -0.25391233560E+03 -0.56908944325E+02  0.17329892211E+04  0.17548876942E+04  0.93107875740E+02 0.  0.
         11    1    3    3    0    0 -0.13858902018E+03 -0.74073172411E+02  0.87292151343E+03  0.88695305400E+03  0.00000000000E+00 0. -1.
        -11    1    3    3    0    0 -0.11532331542E+03  0.17164228086E+02  0.86006770767E+03  0.86793464016E+03  0.00000000000E+00 0.  1.
         22    1    1    2    0    0  0.25391233560E+03  0.56908944325E+02  0.14342847460E+03  0.29712258319E+03  0.00000000000E+00 0. -1.
<mgrwt>
<rscale>  0 0.83054368E+03</rscale>
<asrwt>0</asrwt>
<pdfrwt beam="1">  1        2 0.30218674E+00 0.83054368E+03</pdfrwt>
<pdfrwt beam="2">  1       -2 0.13507123E-01 0.83054368E+03</pdfrwt>
<totfact> 0.29719808E+02</totfact>
</mgrwt>
</event>
<event>
 6    1  0.1719556E-004  0.1347716E+04  0.7818608E-02  0.8992559E-01
         -2   -1    0    0    0  501 -0.00000000000E+00  0.00000000000E+00  0.23327311819E+03  0.23327311819E+03  0.00000000000E+00 0.  1.
          2   -1    0    0  501    0  0.00000000000E+00 -0.00000000000E+00 -0.19465802987E+04  0.19465802987E+04  0.00000000000E+00 0. -1.
         23    2    1    2    0    0 -0.23832462712E+03  0.56780710755E+03 -0.12903407272E+04  0.14327897249E+04  0.93293430638E+02 0.  0.
         13    1    3    3    0    0 -0.11439855393E+03  0.24400747781E+03 -0.66944287362E+03  0.72165118958E+03  0.00000000000E+00 0.  1.
        -13    1    3    3    0    0 -0.12392607319E+03  0.32379962973E+03 -0.62089785361E+03  0.71113853535E+03  0.00000000000E+00 0. -1.
         22    1    1    2    0    0  0.23832462712E+03 -0.56780710755E+03 -0.42296645331E+03  0.74706369200E+03  0.00000000000E+00 0.  1.
<mgrwt>
<rscale>  0 0.13477164E+04</rscale>
<asrwt>0</asrwt>
<pdfrwt beam="1">  1        2 0.29947390E+00 0.13477164E+04</pdfrwt>
<pdfrwt beam="2">  1       -2 0.35888171E-01 0.13477164E+04</pdfrwt>
<totfact> 0.51055273E+01</totfact>
</mgrwt>
</event>
<event>
 6    1  0.1719556E-004  0.2354063E+04  0.7818608E-02  0.8456905E-01
         -2   -1    0    0    0  501 -0.00000000000E+00  0.00000000000E+00  0.23196266440E+04  0.23196266440E+04  0.00000000000E+00 0. -1.
          2   -1    0    0  501    0  0.00000000000E+00 -0.00000000000E+00 -0.59725243304E+03  0.59725243304E+03  0.00000000000E+00 0.  1.
         23    2    1    2    0    0  0.36505672544E+03  0.83430187248E+03  0.17829644494E+04  0.20041922720E+04  0.92186809699E+02 0.  0.
         11    1    3    3    0    0  0.11137965260E+03  0.22766549267E+03  0.58720568717E+03  0.63956823139E+03  0.00000000000E+00 0. -1.
        -11    1    3    3    0    0  0.25367707284E+03  0.60663637981E+03  0.11957587623E+04  0.13646240406E+04  0.00000000000E+00 0.  1.
         22    1    1    2    0    0 -0.36505672544E+03 -0.83430187248E+03 -0.60590238437E+02  0.91268680510E+03  0.00000000000E+00 0.  1.
<mgrwt>
<rscale>  0 0.23540626E+04</rscale>
<asrwt>0</asrwt>
<pdfrwt beam="1">  1        2 0.91884991E-01 0.23540626E+04</pdfrwt>
<pdfrwt beam="2">  1       -2 0.35686563E+00 0.23540626E+04</pdfrwt>
<totfact> 0.63433839E-01</totfact>
</mgrwt>
</event>
<event>
 6    1  0.1719556E-004  0.3969260E+04  0.7818608E-02  0.8010777E-01
         -2   -1    0    0    0  501 -0.00000000000E+00  0.00000000000E+00  0.23890302201E+04  0.23890302201E+04  0.00000000000E+00 0.  1.
          2   -1    0    0  501    0  0.00000000000E+00 -0.00000000000E+00 -0.16486838315E+04  0.16486838315E+04  0.00000000000E+00 0. -1.
         23    2    1    2    0    0 -0.17916186172E+03  0.56480254204E+03  0.22959948701E+04  0.23730389835E+04  0.92847666651E+02 0.  0.
         11    1    3    3    0    0 -0.16026389822E+02  0.49988446808E+02  0.11906981386E+03  0.13012805446E+03  0.00000000000E+00 0. -1.
        -11    1    3    3    0    0 -0.16313547190E+03  0.51481409523E+03  0.21769250563E+04  0.22429109290E+04  0.00000000000E+00 0.  1.
         22    1    1    2    0    0  0.17916186172E+03 -0.56480254204E+03 -0.15556484816E+04  0.16646750681E+04  0.00000000000E+00 0. -1.
<mgrwt>
<rscale>  0 0.39692596E+04</rscale>
<asrwt>0</asrwt>
<pdfrwt beam="1">  1        2 0.25364367E+00 0.39692596E+04</pdfrwt>
<pdfrwt beam="2">  1       -2 0.36754311E+00 0.39692596E+04</pdfrwt>
<totfact> 0.99679842E-02</totfact>
</mgrwt>
</event>
<event>
 6    1  0.1719556E-004  0.1878202E+04  0.7818608E-02  0.8665783E-01
         -2   -1    0    0    0  501 -0.00000000000E+00  0.00000000000E+00  0.16330124216E+04  0.16330124216E+04  0.00000000000E+00 0. -1.
          2   -1    0    0  501    0  0.00000000000E+00 -0.00000000000E+00 -0.54005137562E+03  0.54005137562E+03  0.00000000000E+00 0.  1.
         23    2    1    2    0    0  0.67615033706E+03  0.20538676847E+03  0.12588516344E+04  0.14471969428E+04  0.10153103380E+03 0.  0.
         11    1    3    3    0    0  0.29058150274E+03  0.59558952134E+02  0.44331462334E+03  0.53339735075E+03  0.00000000000E+00 0. -1.
        -11    1    3    3    0    0  0.38556883432E+03  0.14582781634E+03  0.81553701106E+03  0.91379959205E+03  0.00000000000E+00 0.  1.
         22    1    1    2    0    0 -0.67615033706E+03 -0.20538676847E+03 -0.16589058845E+03  0.72586685440E+03  0.00000000000E+00 0.  1.
<mgrwt>
<rscale>  0 0.18782019E+04</rscale>
<asrwt>0</asrwt>
<pdfrwt beam="1">  1        2 0.83084828E-01 0.18782019E+04</pdfrwt>
<pdfrwt beam="2">  1       -2 0.25123268E+00 0.18782019E+04</pdfrwt>
<totfact> 0.33325644E+00</totfact>
</mgrwt>
</event>
<event>
 6    1  0.1719556E-004  0.1037359E+04  0.7818608E-02  0.9268493E-01
          2   -1    0    0  501    0  0.00000000000E+00  0.00000000000E+00  0.95278900061E+03  0.95278900061E+03  0.00000000000E+00 0.  1.
         -2   -1    0    0    0  501 -0.00000000000E+00 -0.00000000000E+00 -0.28235874754E+03  0.28235874754E+03  0.00000000000E+00 0. -1.
         23    2    1    2    0    0 -0.11963678109E+03 -0.23506185497E+03  0.86406890897E+03  0.90794297418E+03  0.90434118896E+02 0.  0.
         11    1    3    3    0    0 -0.12188118432E+03 -0.14971990232E+03  0.62106999989E+03  0.65038374596E+03  0.00000000000E+00 0.  1.
        -11    1    3    3    0    0  0.22444032348E+01 -0.85341952642E+02  0.24299890908E+03  0.25755922822E+03  0.00000000000E+00 0. -1.
         22    1    1    2    0    0  0.11963678109E+03  0.23506185497E+03 -0.19363865590E+03  0.32720477397E+03  0.00000000000E+00 0. -1.
<mgrwt>
<rscale>  0 0.10373588E+04</rscale>
<asrwt>0</asrwt>
<pdfrwt beam="1">  1        2 0.14658292E+00 0.10373588E+04</pdfrwt>
<pdfrwt beam="2">  1       -2 0.43439808E-01 0.10373588E+04</pdfrwt>
<totfact> 0.13528728E+02</totfact>
</mgrwt>
</event>
<event>
 6    1  0.1719556E-004  0.2849403E+04  0.7818608E-02  0.8288093E-01
          2   -1    0    0  501    0  0.00000000000E+00  0.00000000000E+00  0.11249825836E+04  0.11249825836E+04  0.00000000000E+00 0.  1.
         -2   -1    0    0    0  501 -0.00000000000E+00 -0.00000000000E+00 -0.18042722161E+04  0.18042722161E+04  0.00000000000E+00 0. -1.
         23    2    1    2    0    0 -0.19445188358E+03  0.13458965447E+04 -0.77166039844E+03  0.15662502500E+04  0.91820644582E+02 0.  0.
         13    1    3    3    0    0 -0.16012927336E+02  0.22407316060E+03 -0.93797613775E+02  0.24344031608E+03  0.00000000000E+00 0. -1.
        -13    1    3    3    0    0 -0.17843895624E+03  0.11218233842E+04 -0.67786278466E+03  0.13228099339E+04  0.00000000000E+00 0.  1.
         22    1    1    2    0    0  0.19445188358E+03 -0.13458965447E+04  0.92370765874E+02  0.13630045497E+04  0.00000000000E+00 0.  1.
<mgrwt>
<rscale>  0 0.28494033E+04</rscale>
<asrwt>0</asrwt>
<pdfrwt beam="1">  1        2 0.17307425E+00 0.28494033E+04</pdfrwt>
<pdfrwt beam="2">  1       -2 0.27758034E+00 0.28494033E+04</pdfrwt>
<totfact> 0.79398211E-01</totfact>
</mgrwt>
</event>
<event>
 6    1  0.1719556E-004  0.1904449E+04  0.7818608E-02  0.8652645E-01
          2   -1    0    0  501    0  0.00000000000E+00  0.00000000000E+00  0.79593897782E+03  0.79593897782E+03  0.00000000000E+00 0.  1.
         -2   -1    0    0    0  501 -0.00000000000E+00 -0.00000000000E+00 -0.11391969838E+04  0.11391969838E+04  0.00000000000E+00 0. -1.
         23    2    1    2    0    0 -0.45507729030E+03 -0.60038831737E+03  0.41585032708E+03  0.86564686251E+03  0.94082539603E+02 0.  0.
         13    1    3    3    0    0 -0.23179268727E+03 -0.37487664326E+03  0.26483963937E+03  0.51419877685E+03  0.00000000000E+00 0. -1.
        -13    1    3    3    0    0 -0.22328460303E+03 -0.22551167411E+03  0.15101068771E+03  0.35144808566E+03  0.00000000000E+00 0.  1.
         22    1    1    2    0    0  0.45507729030E+03  0.60038831737E+03 -0.75910833303E+03  0.10694890991E+04  0.00000000000E+00 0. -1.
<mgrwt>
<rscale>  0 0.19044488E+04</rscale>
<asrwt>0</asrwt>
<pdfrwt beam="1">  1        2 0.12245215E+00 0.19044488E+04</pdfrwt>
<pdfrwt beam="2">  1       -2 0.17526107E+00 0.19044488E+04</pdfrwt>
<totfact> 0.63492494E+00</totfact>
</mgrwt>
</event>
<event>
 6    1  0.1719556E-004  0.1266653E+04  0.7818608E-02  0.9056436E-01
          2   -1    0    0  501    0  0.00000000000E+00  0.00000000000E+00  0.11893245377E+04  0.11893245377E+04  0.00000000000E+00 0.  1.
         -2   -1    0    0    0  501 -0.00000000000E+00 -0.00000000000E+00 -0.33725245932E+03  0.33725245932E+03  0.00000000000E+00 0. -1.
         23    2    1    2    0    0  0.28578971764E+03  0.55993705825E+03  0.36938170949E+03  0.73398929581E+03  0.84215005516E+02 0.  0.
         13    1    3    3    0    0  0.12755217093E+03  0.30833193748E+03  0.23295409535E+03  0.40694686449E+03  0.00000000000E+00 0.  1.
        -13    1    3    3    0    0  0.15823754671E+03  0.25160512077E+03  0.13642761415E+03  0.32704243133E+03  0.00000000000E+00 0. -1.
         22    1    1    2    0    0 -0.28578971764E+03 -0.55993705825E+03  0.48269036890E+03  0.79258770123E+03  0.00000000000E+00 0.  1.
<mgrwt>
<rscale>  0 0.12666533E+04</rscale>
<asrwt>0</asrwt>
<pdfrwt beam="1">  1        2 0.18297300E+00 0.12666533E+04</pdfrwt>
<pdfrwt beam="2">  1       -2 0.51884994E-01 0.12666533E+04</pdfrwt>
<totfact> 0.66225514E+01</totfact>
</mgrwt>
</event>
<event>
 6    1  0.1719556E-004  0.3412100E+04  0.7818608E-02  0.8134943E-01
         -1   -1    0    0    0  501 -0.00000000000E+00  0.00000000000E+00  0.15191089590E+04  0.15191089590E+04  0.00000000000E+00 0. -1.
          1   -1    0    0  501    0  0.00000000000E+00 -0.00000000000E+00 -0.19159963238E+04  0.19159963238E+04  0.00000000000E+00 0.  1.
         23    2    1    2    0    0  0.16026689531E+04 -0.17076986300E+03 -0.75908622689E+03  0.17831675918E+04  0.75925233894E+02 0.  0.
         13    1    3    3    0    0  0.44564602652E+03 -0.50828891696E+02 -0.24904862845E+03  0.51303915690E+03  0.00000000000E+00 0. -1.
        -13    1    3    3    0    0  0.11570229266E+04 -0.11994097131E+03 -0.51003759844E+03  0.12701284349E+04  0.00000000000E+00 0.  1.
         22    1    1    2    0    0 -0.16026689531E+04  0.17076986300E+03  0.36219886207E+03  0.16519376910E+04  0.00000000000E+00 0. -1.
<mgrwt>
<rscale>  0 0.34121003E+04</rscale>
<asrwt>0</asrwt>
<pdfrwt beam="1">  1        1 0.29476867E+00 0.34121003E+04</pdfrwt>
<pdfrwt beam="2">  1       -1 0.23370907E+00 0.34121003E+04</pdfrwt>
<totfact> 0.24913091E-01</totfact>
</mgrwt>
</event>
<event>
 6    1  0.1719556E-004  0.5581211E+04  0.7818608E-02  0.7744612E-01
          2   -1    0    0  501    0  0.00000000000E+00  0.00000000000E+00  0.22548670071E+04  0.22548670071E+04  0.00000000000E+00 0.  1.
         -2   -1    0    0    0  501 -0.00000000000E+00 -0.00000000000E+00 -0.34536317046E+04  0.34536317046E+04  0.00000000000E+00 0. -1.
         23    2    1    2    0    0 -0.19824166958E+04 -0.17583980369E+04 -0.14921666323E+04  0.30424108835E+04  0.88108532988E+02 0.  0.
         13    1    3    3    0    0 -0.74663652394E+03 -0.68876260272E+03 -0.52851108509E+03  0.11450694253E+04  0.00000000000E+00 0.  1.
        -13    1    3    3    0    0 -0.12357801719E+04 -0.10696354342E+04 -0.96365554723E+03  0.18973414582E+04  0.00000000000E+00 0. -1.
         22    1    1    2    0    0  0.19824166958E+04  0.17583980369E+04  0.29340193490E+03  0.26660878282E+04  0.00000000000E+00 0. -1.
<mgrwt>
<rscale>  0 0.55812114E+04</rscale>
<asrwt>0</asrwt>
<pdfrwt beam="1">  1        2 0.34690262E+00 0.55812114E+04</pdfrwt>
<pdfrwt beam="2">  1       -2 0.53132795E+00 0.55812114E+04</pdfrwt>
<totfact> 0.36456492E-03</totfact>
</mgrwt>
</event>
<event>
 6    1  0.2951488E-004  0.4414368E+04  0.7818608E-02  0.7925802E-01
          1   -1    0    0  501    0  0.00000000000E+00  0.00000000000E+00  0.27085475095E+04  0.27085475095E+04  0.00000000000E+00 0.  1.
         -1   -1    0    0    0  501 -0.00000000000E+00 -0.00000000000E+00 -0.17986247125E+04  0.17986247125E+04  0.00000000000E+00 0. -1.
         23    2    1    2    0    0 -0.45112157874E+03 -0.76856390026E+03  0.25158095360E+04  0.26705793531E+04  0.92170017830E+02 0.  0.
         11    1    3    3    0    0 -0.24260937666E+03 -0.32356114630E+03  0.11171835981E+04  0.11881289142E+04  0.00000000000E+00 0. -1.
        -11    1    3    3    0    0 -0.20851220208E+03 -0.44500275395E+03  0.13986259380E+04  0.14824504389E+04  0.00000000000E+00 0.  1.
         22    1    1    2    0    0  0.45112157874E+03  0.76856390026E+03 -0.16058867390E+04  0.18365928689E+04  0.00000000000E+00 0. -1.
<mgrwt>
<rscale>  0 0.44143677E+04</rscale>
<asrwt>0</asrwt>
<pdfrwt beam="1">  1        1 0.41669962E+00 0.44143677E+04</pdfrwt>
<pdfrwt beam="2">  1       -1 0.27671150E+00 0.44143677E+04</pdfrwt>
<totfact> 0.34231790E-02</totfact>
</mgrwt>
</event>
<event>
 6    1  0.1719556E-004  0.2666963E+04  0.7818608E-02  0.8345805E-01
          2   -1    0    0  501    0  0.00000000000E+00  0.00000000000E+00  0.12303474012E+04  0.12303474012E+04  0.00000000000E+00 0.  1.
         -2   -1    0    0    0  501 -0.00000000000E+00 -0.00000000000E+00 -0.14452609873E+04  0.14452609873E+04  0.00000000000E+00 0. -1.
         23    2    1    2    0    0  0.95495085230E+03 -0.57036052322E+02 -0.10373147962E+04  0.14140506245E+04  0.91284942644E+02 0.  0.
         11    1    3    3    0    0  0.37909166796E+03 -0.10495309243E+02 -0.34873178012E+03  0.51520335665E+03  0.00000000000E+00 0.  1.
        -11    1    3    3    0    0  0.57585918434E+03 -0.46540743079E+02 -0.68858301607E+03  0.89884726788E+03  0.00000000000E+00 0. -1.
         22    1    1    2    0    0 -0.95495085230E+03  0.57036052322E+02  0.82240121003E+03  0.12615577640E+04  0.00000000000E+00 0.  1.
<mgrwt>
<rscale>  0 0.26669631E+04</rscale>
<asrwt>0</asrwt>
<pdfrwt beam="1">  1        2 0.18928421E+00 0.26669631E+04</pdfrwt>
<pdfrwt beam="2">  1       -2 0.22234785E+00 0.26669631E+04</pdfrwt>
<totfact> 0.15264561E+00</totfact>
</mgrwt>
</event>
<event>
 6    1  0.1719556E-004  0.3263090E+04  0.7818608E-02  0.8172351E-01
         -2   -1    0    0    0  501 -0.00000000000E+00  0.00000000000E+00  0.24249258712E+04  0.24249258712E+04  0.00000000000E+00 0. -1.
          2   -1    0    0  501    0  0.00000000000E+00 -0.00000000000E+00 -0.10977404125E+04  0.10977404125E+04  0.00000000000E+00 0.  1.
         23    2    1    2    0    0 -0.11881305293E+04  0.10881012144E+04  0.39513025378E+03  0.16613910992E+04  0.92054655794E+02 0.  0.
         11    1    3    3    0    0 -0.85611954589E+03  0.75796521649E+03  0.31833730346E+03  0.11869248439E+04  0.00000000000E+00 0. -1.
        -11    1    3    3    0    0 -0.33201098339E+03  0.33013599794E+03  0.76792950321E+02  0.47446625533E+03  0.00000000000E+00 0.  1.
         22    1    1    2    0    0  0.11881305293E+04 -0.10881012144E+04  0.93205520487E+03  0.18612751845E+04  0.00000000000E+00 0.  1.
<mgrwt>
<rscale>  0 0.32630900E+04</rscale>
<asrwt>0</asrwt>
<pdfrwt beam="1">  1        2 0.16888314E+00 0.32630900E+04</pdfrwt>
<pdfrwt beam="2">  1       -2 0.37306552E+00 0.32630900E+04</pdfrwt>
<totfact> 0.20303706E-01</totfact>
</mgrwt>
</event>
<event>
 6    1  0.1719556E-004  0.2173601E+04  0.7818608E-02  0.8529497E-01
          2   -1    0    0  501    0  0.00000000000E+00  0.00000000000E+00  0.36280281271E+04  0.36280281271E+04  0.00000000000E+00 0.  1.
         -2   -1    0    0    0  501 -0.00000000000E+00 -0.00000000000E+00 -0.32555860545E+03  0.32555860545E+03  0.00000000000E+00 0. -1.
         23    2    1    2    0    0 -0.71590248719E+03 -0.15536759667E+02  0.31361430314E+04  0.32184525520E+04  0.10141969204E+03 0.  0.
         11    1    3    3    0    0 -0.44759265285E+03  0.36408600187E+02  0.20246085419E+04  0.20738140025E+04  0.00000000000E+00 0. -1.
        -11    1    3    3    0    0 -0.26830983434E+03 -0.51945359855E+02  0.11115344895E+04  0.11446385495E+04  0.00000000000E+00 0.  1.
         22    1    1    2    0    0  0.71590248719E+03  0.15536759667E+02  0.16632649025E+03  0.73513418056E+03  0.00000000000E+00 0. -1.
<mgrwt>
<rscale>  0 0.21736014E+04</rscale>
<asrwt>0</asrwt>
<pdfrwt beam="1">  1        2 0.55815815E+00 0.21736014E+04</pdfrwt>
<pdfrwt beam="2">  1       -2 0.50085942E-01 0.21736014E+04</pdfrwt>
<totfact> 0.22868144E+00</totfact>
</mgrwt>
</event>
<event>
 6    1  0.1719556E-004  0.5175406E+04  0.7818608E-02  0.7802004E-01
         -2   -1    0    0    0  501 -0.00000000000E+00  0.00000000000E+00  0.17888422183E+04  0.17888422183E+04  0.00000000000E+00 0. -1.
          2   -1    0    0  501    0  0.00000000000E+00 -0.00000000000E+00 -0.37433195214E+04  0.37433195214E+04  0.00000000000E+00 0.  1.
         23    2    1    2    0    0 -0.30243882608E+03 -0.19446106147E+04  0.81701338861E+03  0.21330235636E+04  0.96431112088E+02 0.  0.
         13    1    3    3    0    0 -0.19629529185E+02 -0.15855962801E+03  0.39042022034E+02  0.16447113283E+03  0.00000000000E+00 0.  1.
        -13    1    3    3    0    0 -0.28280929689E+03 -0.17860509867E+04  0.77797136658E+03  0.19685524308E+04  0.00000000000E+00 0. -1.
         22    1    1    2    0    0  0.30243882608E+03  0.19446106147E+04 -0.27714906917E+04  0.33991381762E+04  0.00000000000E+00 0.  1.
<mgrwt>
<rscale>  0 0.51754065E+04</rscale>
<asrwt>0</asrwt>
<pdfrwt beam="1">  1        2 0.57589531E+00 0.51754065E+04</pdfrwt>
<pdfrwt beam="2">  1       -2 0.27520650E+00 0.51754065E+04</pdfrwt>
<totfact> 0.17472445E-02</totfact>
</mgrwt>
</event>
<event>
 6    1  0.1719556E-004  0.3227172E+04  0.7818608E-02  0.8181678E-01
         -2   -1    0    0    0  501 -0.00000000000E+00  0.00000000000E+00  0.32970798611E+04  0.32970798611E+04  0.00000000000E+00 0. -1.
          2   -1    0    0  501    0  0.00000000000E+00 -0.00000000000E+00 -0.78968668574E+03  0.78968668574E+03  0.00000000000E+00 0.  1.
         23    2    1    2    0    0  0.14865925243E+04 -0.21610417065E+03  0.19961916352E+04  0.24999504388E+04  0.91174590706E+02 0.  0.
         11    1    3    3    0    0  0.98570699511E+03 -0.13688537946E+03  0.13920443184E+04  0.17111818348E+04  0.00000000000E+00 0. -1.
        -11    1    3    3    0    0  0.50088552922E+03 -0.79218791193E+02  0.60414731680E+03  0.78876860400E+03  0.00000000000E+00 0.  1.
         22    1    1    2    0    0 -0.14865925243E+04  0.21610417065E+03  0.51120154010E+03  0.15868161080E+04  0.00000000000E+00 0.  1.
<mgrwt>
<rscale>  0 0.32271722E+04</rscale>
<asrwt>0</asrwt>
<pdfrwt beam="1">  1        2 0.12149026E+00 0.32271722E+04</pdfrwt>
<pdfrwt beam="2">  1       -2 0.50724305E+00 0.32271722E+04</pdfrwt>
<totfact> 0.43715468E-02</totfact>
</mgrwt>
</event>
<event>
 6    1  0.1719556E-004  0.5233289E+04  0.7818608E-02  0.7793494E-01
          3   -1    0    0  501    0  0.00000000000E+00  0.00000000000E+00  0.25513584908E+04  0.25513584908E+04  0.00000000000E+00 0.  1.
         -3   -1    0    0    0  501 -0.00000000000E+00 -0.00000000000E+00 -0.26836012233E+04  0.26836012233E+04  0.00000000000E+00 0. -1.
         23    2    1    2    0    0 -0.62142100248E+03  0.22015695731E+04 -0.13351657366E+04  0.26503714681E+04  0.93427659386E+02 0.  0.
         13    1    3    3    0    0 -0.41118755470E+03  0.14855463474E+04 -0.84935500999E+03  0.17599224666E+04  0.00000000000E+00 0.  1.
        -13    1    3    3    0    0 -0.21023344777E+03  0.71602322562E+03 -0.48581072661E+03  0.89044900150E+03  0.00000000000E+00 0. -1.
         22    1    1    2    0    0  0.62142100248E+03 -0.22015695731E+04  0.12029230041E+04  0.25845882460E+04  0.00000000000E+00 0.  1.
<mgrwt>
<rscale>  0 0.52332891E+04</rscale>
<asrwt>0</asrwt>
<pdfrwt beam="1">  1        3 0.39251669E+00 0.52332891E+04</pdfrwt>
<pdfrwt beam="2">  1       -3 0.41286172E+00 0.52332891E+04</pdfrwt>
<totfact> 0.20045445E-04</totfact>
</mgrwt>
</event>
<event>
 6    1  0.1719556E-004  0.4824651E+04  0.7818608E-02  0.7856141E-01
         -2   -1    0    0    0  501 -0.00000000000E+00  0.00000000000E+00  0.27468676204E+04  0.27468676204E+04  0.00000000000E+00 0. -1.
          2   -1    0    0  501    0  0.00000000000E+00 -0.00000000000E+00 -0.21185272740E+04  0.21185272740E+04  0.00000000000E+00 0.  1.
         23    2    1    2    0    0  0.20729521807E+04 -0.11912971766E+04 -0.26983151863E+01  0.23926374257E+04  0.91579820865E+02 0.  0.
         11    1    3    3    0    0  0.89136559127E+03 -0.54813952587E+03 -0.34286707996E+02  0.10469790521E+04  0.00000000000E+00 0.  1.
        -11    1    3    3    0    0  0.11815865894E+04 -0.64315765072E+03  0.31588392809E+02  0.13456583736E+04  0.00000000000E+00 0. -1.
         22    1    1    2    0    0 -0.20729521807E+04  0.11912971766E+04  0.63103866164E+03  0.24727574687E+04  0.00000000000E+00 0.  1.
<mgrwt>
<rscale>  0 0.48246509E+04</rscale>
<asrwt>0</asrwt>
<pdfrwt beam="1">  1        2 0.32592727E+00 0.48246509E+04</pdfrwt>
<pdfrwt beam="2">  1       -2 0.42259502E+00 0.48246509E+04</pdfrwt>
<totfact> 0.22347627E-02</totfact>
</mgrwt>
</event>
<event>
 6    1  0.1719556E-004  0.1094221E+04  0.7818608E-02  0.9210843E-01
          1   -1    0    0  501    0  0.00000000000E+00  0.00000000000E+00  0.98549643983E+03  0.98549643983E+03  0.00000000000E+00 0. -1.
         -1   -1    0    0    0  501 -0.00000000000E+00 -0.00000000000E+00 -0.30373505466E+03  0.30373505466E+03  0.00000000000E+00 0.  1.
         23    2    1    2    0    0 -0.30920759349E+03 -0.27192421821E+03 -0.74257192937E+02  0.42835043026E+03  0.91748809688E+02 0.  0.
         11    1    3    3    0    0 -0.30761612593E+03 -0.24966064831E+03 -0.57261873008E+02  0.40029619327E+03  0.00000000000E+00 0.  1.
        -11    1    3    3    0    0 -0.15914675643E+01 -0.22263569897E+02 -0.16995319929E+02  0.28054236989E+02  0.00000000000E+00 0. -1.
         22    1    1    2    0    0  0.30920759349E+03  0.27192421821E+03  0.75601857811E+03  0.86088106424E+03  0.00000000000E+00 0. -1.
<mgrwt>
<rscale>  0 0.10942208E+04</rscale>
<asrwt>0</asrwt>
<pdfrwt beam="1">  1        1 0.15161484E+00 0.10942208E+04</pdfrwt>
<pdfrwt beam="2">  1       -1 0.46728470E-01 0.10942208E+04</pdfrwt>
<totfact> 0.70619338E+01</totfact>
</mgrwt>
</event>
<event>
 6    1  0.1719556E-004  0.4110569E+04  0.7818608E-02  0.7982605E-01
          1   -1    0    0  501    0  0.00000000000E+00  0.00000000000E+00  0.18140703802E+04  0.18140703802E+04  0.00000000000E+00 0.  1.
         -1   -1    0    0    0  501 -0.00000000000E+00 -0.00000000000E+00 -0.23285728228E+04  0.23285728228E+04  0.00000000000E+00 0. -1.
         23    2    1    2    0    0 -0.62744754534E+03 -0.10421819359E+04 -0.19256952579E+04  0.22795010260E+04  0.89381718649E+02 0.  0.
         13    1    3    3    0    0 -0.32450027439E+03 -0.52305757501E+03 -0.10563404155E+04  0.12225975332E+04  0.00000000000E+00 0.  1.
        -13    1    3    3    0    0 -0.30294727095E+03 -0.51912436092E+03 -0.86935484247E+03  0.10569034929E+04  0.00000000000E+00 0. -1.
         22    1    1    2    0    0  0.62744754534E+03  0.10421819359E+04  0.14111928153E+04  0.18631421770E+04  0.00000000000E+00 0.  1.
<mgrwt>
<rscale>  0 0.41105693E+04</rscale>
<asrwt>0</asrwt>
<pdfrwt beam="1">  1        1 0.27908775E+00 0.41105693E+04</pdfrwt>
<pdfrwt beam="2">  1       -1 0.35824197E+00 0.41105693E+04</pdfrwt>
<totfact> 0.42318954E-02</totfact>
</mgrwt>
</event>
<event>
 6    1  0.1719556E-004  0.2644294E+04  0.7818608E-02  0.8353309E-01
          3   -1    0    0  501    0  0.00000000000E+00  0.00000000000E+00  0.20433472219E+04  0.20433472219E+04  0.00000000000E+00 0.  1.
         -3   -1    0    0    0  501 -0.00000000000E+00 -0.00000000000E+00 -0.85549454622E+03  0.85549454622E+03  0.00000000000E+00 0. -1.
         23    2    1    2    0    0  0.30493452932E+03 -0.90269272488E+02  0.19997230971E+04  0.20269087489E+04  0.91285280243E+02 0.  0.
         11    1    3    3    0    0  0.79115927828E+02 -0.41598681589E+02  0.35685730066E+03  0.36788165676E+03  0.00000000000E+00 0. -1.
        -11    1    3    3    0    0  0.22581860149E+03 -0.48670590899E+02  0.16428657965E+04  0.16590270921E+04  0.00000000000E+00 0.  1.
         22    1    1    2    0    0 -0.30493452932E+03  0.90269272488E+02 -0.81187042148E+03  0.87193301921E+03  0.00000000000E+00 0. -1.
<mgrwt>
<rscale>  0 0.26442938E+04</rscale>
<asrwt>0</asrwt>
<pdfrwt beam="1">  1        3 0.31436111E+00 0.26442938E+04</pdfrwt>
<pdfrwt beam="2">  1       -3 0.13161455E+00 0.26442938E+04</pdfrwt>
<totfact> 0.33282888E-02</totfact>
</mgrwt>
</event>
<event>
 6    1  0.1719556E-004  0.4670303E+04  0.7818608E-02  0.7881482E-01
          2   -1    0    0  501    0  0.00000000000E+00  0.00000000000E+00  0.43371760226E+04  0.43371760226E+04  0.00000000000E+00 0.  1.
         -2   -1    0    0    0  501 -0.00000000000E+00 -0.00000000000E+00 -0.12572539118E+04  0.12572539118E+04  0.00000000000E+00 0. -1.
         23    2    1    2    0    0  0.15747094213E+03  0.19571594445E+04  0.28411171704E+02  0.19657953151E+04  0.90960636131E+02 0.  0.
         13    1    3    3    0    0  0.15669117444E+03  0.15421696657E+04  0.40323514019E+02  0.15506338664E+04  0.00000000000E+00 0.  1.
        -13    1    3    3    0    0  0.77976768890E+00  0.41498977887E+03 -0.11912342315E+02  0.41516144872E+03  0.00000000000E+00 0. -1.
         22    1    1    2    0    0 -0.15747094213E+03 -0.19571594445E+04  0.30515109391E+04  0.36286346193E+04  0.00000000000E+00 0.  1.
<mgrwt>
<rscale>  0 0.46703026E+04</rscale>
<asrwt>0</asrwt>
<pdfrwt beam="1">  1        2 0.66725784E+00 0.46703026E+04</pdfrwt>
<pdfrwt beam="2">  1       -2 0.19342368E+00 0.46703026E+04</pdfrwt>
<totfact> 0.19144662E-02</totfact>
</mgrwt>
</event>
<event>
 6    1  0.1719556E-004  0.2108964E+04  0.7818608E-02  0.8557305E-01
         -1   -1    0    0    0  501 -0.00000000000E+00  0.00000000000E+00  0.54432309673E+03  0.54432309673E+03  0.00000000000E+00 0. -1.
          1   -1    0    0  501    0  0.00000000000E+00 -0.00000000000E+00 -0.20427799595E+04  0.20427799595E+04  0.00000000000E+00 0.  1.
         23    2    1    2    0    0  0.28134891676E+03 -0.66053742297E+03  0.19340730174E+03  0.74920445967E+03  0.91837018277E+02 0.  0.
         11    1    3    3    0    0  0.15918787635E+03 -0.37304942911E+03  0.61925772268E+02  0.41029435508E+03  0.00000000000E+00 0.  1.
        -11    1    3    3    0    0  0.12216104041E+03 -0.28748799386E+03  0.13148152947E+03  0.33891010459E+03  0.00000000000E+00 0. -1.
         22    1    1    2    0    0 -0.28134891676E+03  0.66053742297E+03 -0.16918641645E+04  0.18378985965E+04  0.00000000000E+00 0.  1.
<mgrwt>
<rscale>  0 0.21089640E+04</rscale>
<asrwt>0</asrwt>
<pdfrwt beam="1">  1        1 0.31427385E+00 0.21089640E+04</pdfrwt>
<pdfrwt beam="2">  1       -1 0.83742013E-01 0.21089640E+04</pdfrwt>
<totfact> 0.36213869E+00</totfact>
</mgrwt>
</event>
<event>
 6    1  0.1719556E-004  0.3079192E+04  0.7818608E-02  0.8221472E-01
         -1   -1    0    0    0  501 -0.00000000000E+00  0.00000000000E+00  0.82724434368E+03  0.82724434368E+03  0.00000000000E+00 0. -1.
          1   -1    0    0  501    0  0.00000000000E+00 -0.00000000000E+00 -0.28653629001E+04  0.28653629001E+04  0.00000000000E+00 0.  1.
         23    2    1    2    0    0 -0.12792280644E+04 -0.79232612904E+02 -0.22908892914E+01  0.12869271865E+04  0.11607793707E+03 0.  0.
         13    1    3    3    0    0 -0.64175912935E+03 -0.56262323691E+02  0.54497904285E+02  0.64652165527E+03  0.00000000000E+00 0.  1.
        -13    1    3    3    0    0 -0.63746893506E+03 -0.22970289213E+02 -0.56788793577E+02  0.64040553123E+03  0.00000000000E+00 0. -1.
         22    1    1    2    0    0  0.12792280644E+04  0.79232612904E+02 -0.20358276672E+04  0.24056800573E+04  0.00000000000E+00 0. -1.
<mgrwt>
<rscale>  0 0.30791916E+04</rscale>
<asrwt>0</asrwt>
<pdfrwt beam="1">  1        1 0.44082506E+00 0.30791916E+04</pdfrwt>
<pdfrwt beam="2">  1       -1 0.12726836E+00 0.30791916E+04</pdfrwt>
<totfact> 0.33816863E-01</totfact>
</mgrwt>
</event>
<event>
 6    1  0.2703550E-004  0.4253996E+04  0.7818608E-02  0.7955180E-01
         -2   -1    0    0    0  501 -0.00000000000E+00  0.00000000000E+00  0.15370931569E+04  0.15370931569E+04  0.00000000000E+00 0. -1.
          2   -1    0    0  501    0  0.00000000000E+00 -0.00000000000E+00 -0.29432961417E+04  0.29432961417E+04  0.00000000000E+00 0.  1.
         23    2    1    2    0    0 -0.35769369913E+01 -0.37369655318E+03 -0.29077088295E+04  0.29330749445E+04  0.92174206682E+02 0.  0.
         11    1    3    3    0    0  0.23606699610E+02 -0.18282081402E+03 -0.17156925992E+04  0.17255671013E+04  0.00000000000E+00 0.  1.
        -11    1    3    3    0    0 -0.27183636601E+02 -0.19087573916E+03 -0.11920162304E+04  0.12075078432E+04  0.00000000000E+00 0. -1.
         22    1    1    2    0    0  0.35769369913E+01  0.37369655318E+03  0.15015058448E+04  0.15473143540E+04  0.00000000000E+00 0. -1.
<mgrwt>
<rscale>  0 0.42539959E+04</rscale>
<asrwt>0</asrwt>
<pdfrwt beam="1">  1        2 0.45281478E+00 0.42539959E+04</pdfrwt>
<pdfrwt beam="2">  1       -2 0.23647587E+00 0.42539959E+04</pdfrwt>
<totfact> 0.11368131E-01</totfact>
</mgrwt>
</event>
<event>
 6    1  0.1719556E-004  0.2816004E+04  0.7818608E-02  0.8298317E-01
          2   -1    0    0  501    0  0.00000000000E+00  0.00000000000E+00  0.14354911601E+04  0.14354911601E+04  0.00000000000E+00 0.  1.
         -2   -1    0    0    0  501 -0.00000000000E+00 -0.00000000000E+00 -0.13810392390E+04  0.13810392390E+04  0.00000000000E+00 0. -1.
         23    2    1    2    0    0 -0.79938195263E+03 -0.55986757396E+03 -0.98577158281E+03  0.13901615321E+04  0.91325053118E+02 0.  0.
         11    1    3    3    0    0 -0.25753553132E+03 -0.23363434603E+03 -0.34677366895E+03  0.49108200437E+03  0.00000000000E+00 0. -1.
        -11    1    3    3    0    0 -0.54184642132E+03 -0.32623322794E+03 -0.63899791386E+03  0.89907952775E+03  0.00000000000E+00 0.  1.
         22    1    1    2    0    0  0.79938195263E+03  0.55986757396E+03  0.10402235039E+04  0.14263688669E+04  0.00000000000E+00 0.  1.
<mgrwt>
<rscale>  0 0.28160040E+04</rscale>
<asrwt>0</asrwt>
<pdfrwt beam="1">  1        2 0.22084480E+00 0.28160040E+04</pdfrwt>
<pdfrwt beam="2">  1       -2 0.21246757E+00 0.28160040E+04</pdfrwt>
<totfact> 0.13250428E+00</totfact>
</mgrwt>
</event>
<event>
 6    1  0.1719556E-004  0.3078855E+04  0.7818608E-02  0.8221565E-01
         -2   -1    0    0    0  501 -0.00000000000E+00  0.00000000000E+00  0.82503534802E+03  0.82503534802E+03  0.00000000000E+00 0. -1.
          2   -1    0    0  501    0  0.00000000000E+00 -0.00000000000E+00 -0.28724062207E+04  0.28724062207E+04  0.00000000000E+00 0.  1.
         23    2    1    2    0    0  0.13376574538E+04 -0.74001263572E+03 -0.12292363160E+04  0.19635758538E+04  0.87533126876E+02 0.  0.
         11    1    3    3    0    0  0.69915982867E+03 -0.35846237768E+03 -0.58517734180E+03  0.97966946650E+03  0.00000000000E+00 0. -1.
        -11    1    3    3    0    0  0.63849762510E+03 -0.38155025804E+03 -0.64405897422E+03  0.98390638729E+03  0.00000000000E+00 0.  1.
         22    1    1    2    0    0 -0.13376574538E+04  0.74001263572E+03 -0.81813455666E+03  0.17338657149E+04  0.00000000000E+00 0.  1.
<mgrwt>
<rscale>  0 0.30788548E+04</rscale>
<asrwt>0</asrwt>
<pdfrwt beam="1">  1        2 0.44190866E+00 0.30788548E+04</pdfrwt>
<pdfrwt beam="2">  1       -2 0.12692851E+00 0.30788548E+04</pdfrwt>
<totfact> 0.81927059E-01</totfact>
</mgrwt>
</event>
<event>
 6    1  0.1719556E-004  0.2886337E+04  0.7818608E-02  0.8276954E-01
          2   -1    0    0  501    0  0.00000000000E+00  0.00000000000E+00  0.22989467911E+04  0.22989467911E+04  0.00000000000E+00 0.  1.
         -2   -1    0    0    0  501 -0.00000000000E+00 -0.00000000000E+00 -0.90595196422E+03  0.90595196422E+03  0.00000000000E+00 0. -1.
         23    2    1    2    0    0  0.31769669794E+03 -0.11714594729E+04  0.15612128043E+04  0.19795229859E+04  0.88754395960E+02 0.  0.
         13    1    3    3    0    0  0.30343988198E+03 -0.10224223699E+04  0.13446985013E+04  0.17162859097E+04  0.00000000000E+00 0.  1.
        -13    1    3    3    0    0  0.14256815961E+02 -0.14903710299E+03  0.21651430302E+03  0.26323707619E+03  0.00000000000E+00 0. -1.
         22    1    1    2    0    0 -0.31769669794E+03  0.11714594729E+04 -0.16821797742E+03  0.12253757695E+04  0.00000000000E+00 0. -1.
<mgrwt>
<rscale>  0 0.28863370E+04</rscale>
<asrwt>0</asrwt>
<pdfrwt beam="1">  1        2 0.35368412E+00 0.28863370E+04</pdfrwt>
<pdfrwt beam="2">  1       -2 0.13937723E+00 0.28863370E+04</pdfrwt>
<totfact> 0.14251205E+00</totfact>
</mgrwt>
</event>
<event>
 6    1  0.1719556E-004  0.1236571E+04  0.7818608E-02  0.9081435E-01
          1   -1    0    0  501    0  0.00000000000E+00  0.00000000000E+00  0.14609614086E+03  0.14609614086E+03  0.00000000000E+00 0. -1.
         -1   -1    0    0    0  501 -0.00000000000E+00 -0.00000000000E+00 -0.26166108337E+04  0.26166108337E+04  0.00000000000E+00 0.  1.
         23    2    1    2    0    0 -0.55165111160E+03 -0.18419896997E+03 -0.16881949801E+04  0.17878878414E+04  0.91062797544E+02 0.  0.
         11    1    3    3    0    0 -0.46218837624E+03 -0.14021253958E+03 -0.14847051920E+04  0.15612902224E+04  0.00000000000E+00 0.  1.
        -11    1    3    3    0    0 -0.89462735352E+02 -0.43986430392E+02 -0.20348978814E+03  0.22659761904E+03  0.00000000000E+00 0. -1.
         22    1    1    2    0    0  0.55165111160E+03  0.18419896997E+03 -0.78231971272E+03  0.97481913316E+03  0.00000000000E+00 0.  1.
<mgrwt>
<rscale>  0 0.12365707E+04</rscale>
<asrwt>0</asrwt>
<pdfrwt beam="1">  1        1 0.22476331E-01 0.12365707E+04</pdfrwt>
<pdfrwt beam="2">  1       -1 0.40255549E+00 0.12365707E+04</pdfrwt>
<totfact> 0.15460430E+00</totfact>
</mgrwt>
</event>
<event>
 6    1  0.1719556E-004  0.4511289E+04  0.7818608E-02  0.7908663E-01
          2   -1    0    0  501    0  0.00000000000E+00  0.00000000000E+00  0.13374155117E+04  0.13374155117E+04  0.00000000000E+00 0.  1.
         -2   -1    0    0    0  501 -0.00000000000E+00 -0.00000000000E+00 -0.38043016915E+04  0.38043016915E+04  0.00000000000E+00 0. -1.
         23    2    1    2    0    0  0.44081364979E+03 -0.11342939093E+04 -0.33973301192E+04  0.36098342864E+04  0.90068254419E+02 0.  0.
         13    1    3    3    0    0  0.66236062948E+02 -0.19409973058E+03 -0.67483453681E+03  0.70531097646E+03  0.00000000000E+00 0. -1.
        -13    1    3    3    0    0  0.37457758684E+03 -0.94019417869E+03 -0.27224955824E+04  0.29045233100E+04  0.00000000000E+00 0.  1.
         22    1    1    2    0    0 -0.44081364979E+03  0.11342939093E+04  0.93044393935E+03  0.15318829168E+04  0.00000000000E+00 0.  1.
<mgrwt>
<rscale>  0 0.45112890E+04</rscale>
<asrwt>0</asrwt>
<pdfrwt beam="1">  1        2 0.20575623E+00 0.45112890E+04</pdfrwt>
<pdfrwt beam="2">  1       -2 0.58527718E+00 0.45112890E+04</pdfrwt>
<totfact> 0.69771739E-03</totfact>
</mgrwt>
</event>
<event>
 6    1  0.1719556E-004  0.4381240E+04  0.7818608E-02  0.7931764E-01
         -1   -1    0    0    0  501 -0.00000000000E+00  0.00000000000E+00  0.27114630748E+04  0.27114630748E+04  0.00000000000E+00 0. -1.
          1   -1    0    0  501    0  0.00000000000E+00 -0.00000000000E+00 -0.17698253171E+04  0.17698253171E+04  0.00000000000E+00 0.  1.
         23    2    1    2    0    0  0.45013827677E+02 -0.21888108476E+04  0.43030956529E+03  0.22330945186E+04  0.92874300241E+02 0.  0.
         11    1    3    3    0    0 -0.13283343598E+02 -0.60268857094E+03  0.15176438192E+03  0.62164490537E+03  0.00000000000E+00 0. -1.
        -11    1    3    3    0    0  0.58297171276E+02 -0.15861222767E+04  0.27854518337E+03  0.16114496132E+04  0.00000000000E+00 0.  1.
         22    1    1    2    0    0 -0.45013827677E+02  0.21888108476E+04  0.51132819244E+03  0.22481938733E+04  0.00000000000E+00 0. -1.
<mgrwt>
<rscale>  0 0.43812400E+04</rscale>
<asrwt>0</asrwt>
<pdfrwt beam="1">  1        1 0.27228082E+00 0.43812400E+04</pdfrwt>
<pdfrwt beam="2">  1       -1 0.41714817E+00 0.43812400E+04</pdfrwt>
<totfact> 0.17675937E-02</totfact>
</mgrwt>
</event>
<event>
 6    1  0.1719556E-004  0.1563021E+04  0.7818608E-02  0.8843593E-01
         -4   -1    0    0    0  501 -0.00000000000E+00  0.00000000000E+00  0.17947717361E+04  0.17947717361E+04  0.00000000000E+00 0. -1.
          4   -1    0    0  501    0  0.00000000000E+00 -0.00000000000E+00 -0.34029880403E+03  0.34029880403E+03  0.00000000000E+00 0.  1.
         23    2    1    2    0    0  0.20938844806E+03 -0.47269914104E+03 -0.65833862662E+02  0.52926209881E+03  0.92175222493E+02 0.  0.
         11    1    3    3    0    0  0.68631035425E+02 -0.18262971009E+03 -0.68671462638E+02  0.20683229876E+03  0.00000000000E+00 0.  1.
        -11    1    3    3    0    0  0.14075741264E+03 -0.29006943095E+03  0.28375999765E+01  0.32242980004E+03  0.00000000000E+00 0. -1.
         22    1    1    2    0    0 -0.20938844806E+03  0.47269914104E+03  0.15203067947E+04  0.16058084413E+04  0.00000000000E+00 0. -1.
<mgrwt>
<rscale>  0 0.15630210E+04</rscale>
<asrwt>0</asrwt>
<pdfrwt beam="1">  1        4 0.52353663E-01 0.15630210E+04</pdfrwt>
<pdfrwt beam="2">  1       -4 0.27611872E+00 0.15630210E+04</pdfrwt>
<totfact> 0.29420432E-01</totfact>
</mgrwt>
</event>
<event>
 6    1  0.1719556E-004  0.2374460E+04  0.7818608E-02  0.8449128E-01
          1   -1    0    0  501    0  0.00000000000E+00  0.00000000000E+00  0.16513221131E+04  0.16513221131E+04  0.00000000000E+00 0.  1.
         -1   -1    0    0    0  501 -0.00000000000E+00 -0.00000000000E+00 -0.85356768006E+03  0.85356768006E+03  0.00000000000E+00 0. -1.
         23    2    1    2    0    0 -0.87557873005E+03 -0.78006933109E+03  0.58253193489E+03  0.13126368848E+04  0.92335595701E+02 0.  0.
         11    1    3    3    0    0 -0.46673408818E+03 -0.46439353386E+03  0.29508871524E+03  0.72151189403E+03  0.00000000000E+00 0. -1.
        -11    1    3    3    0    0 -0.40884464187E+03 -0.31567579723E+03  0.28744321965E+03  0.59112499073E+03  0.00000000000E+00 0.  1.
         22    1    1    2    0    0  0.87557873005E+03  0.78006933109E+03  0.21522249812E+03  0.11922529084E+04  0.00000000000E+00 0. -1.
<mgrwt>
<rscale>  0 0.23744601E+04</rscale>
<asrwt>0</asrwt>
<pdfrwt beam="1">  1        1 0.25404956E+00 0.23744601E+04</pdfrwt>
<pdfrwt beam="2">  1       -1 0.13131810E+00 0.23744601E+04</pdfrwt>
<totfact> 0.22844129E+00</totfact>
</mgrwt>
</event>
<event>
 6    1  0.1719556E-004  0.1783808E+04  0.7818608E-02  0.8714958E-01
          2   -1    0    0  501    0  0.00000000000E+00  0.00000000000E+00  0.39121486596E+03  0.39121486596E+03  0.00000000000E+00 0.  1.
         -2   -1    0    0    0  501 -0.00000000000E+00 -0.00000000000E+00 -0.20333904925E+04  0.20333904925E+04  0.00000000000E+00 0. -1.
         23    2    1    2    0    0  0.46364306896E+03  0.68599238616E+03 -0.12650336269E+04  0.15147776071E+04  0.93223776544E+02 0.  0.
         11    1    3    3    0    0  0.10317008504E+03  0.19088047925E+03 -0.39726456773E+03  0.45265722195E+03  0.00000000000E+00 0. -1.
        -11    1    3    3    0    0  0.36047298392E+03  0.49511190691E+03 -0.86776905912E+03  0.10621203851E+04  0.00000000000E+00 0.  1.
         22    1    1    2    0    0 -0.46364306896E+03 -0.68599238616E+03 -0.37714199965E+03  0.90982775137E+03  0.00000000000E+00 0.  1.
<mgrwt>
<rscale>  0 0.17838078E+04</rscale>
<asrwt>0</asrwt>
<pdfrwt beam="1">  1        2 0.60186903E-01 0.17838078E+04</pdfrwt>
<pdfrwt beam="2">  1       -2 0.31282930E+00 0.17838078E+04</pdfrwt>
<totfact> 0.20481845E+00</totfact>
</mgrwt>
</event>
<event>
 6    1  0.1719556E-004  0.1154326E+04  0.7818608E-02  0.9153802E-01
         -2   -1    0    0    0  501 -0.00000000000E+00  0.00000000000E+00  0.20216904758E+03  0.20216904758E+03  0.00000000000E+00 0. -1.
          2   -1    0    0  501    0  0.00000000000E+00 -0.00000000000E+00 -0.16477153209E+04  0.16477153209E+04  0.00000000000E+00 0.  1.
         23    2    1    2    0    0 -0.39003789371E+03  0.21017361390E+03 -0.13111855937E+04  0.13868991649E+04  0.89325952771E+02 0.  0.
         13    1    3    3    0    0 -0.20494561198E+03  0.11395281429E+03 -0.82889853154E+03  0.86142946510E+03  0.00000000000E+00 0. -1.
        -13    1    3    3    0    0 -0.18509228173E+03  0.96220799605E+02 -0.48228706219E+03  0.52546969979E+03  0.00000000000E+00 0.  1.
         22    1    1    2    0    0  0.39003789371E+03 -0.21017361390E+03 -0.13436067955E+03  0.46298520356E+03  0.00000000000E+00 0.  1.
<mgrwt>
<rscale>  0 0.11543258E+04</rscale>
<asrwt>0</asrwt>
<pdfrwt beam="1">  1        2 0.25349466E+00 0.11543258E+04</pdfrwt>
<pdfrwt beam="2">  1       -2 0.31102931E-01 0.11543258E+04</pdfrwt>
<totfact> 0.99434986E+01</totfact>
</mgrwt>
</event>
<event>
 6    1  0.1719556E-004  0.1587551E+04  0.7818608E-02  0.8828232E-01
          1   -1    0    0  501    0  0.00000000000E+00  0.00000000000E+00  0.15076977152E+04  0.15076977152E+04  0.00000000000E+00 0.  1.
         -1   -1    0    0    0  501 -0.00000000000E+00 -0.00000000000E+00 -0.41790853085E+03  0.41790853085E+03  0.00000000000E+00 0. -1.
         23    2    1    2    0    0  0.47415118569E+03  0.49369707731E+03  0.10278891469E+04  0.12383015351E+04  0.90985946400E+02 0.  0.
         13    1    3    3    0    0  0.26022918263E+03  0.30860800785E+03  0.53804411626E+03  0.67264374006E+03  0.00000000000E+00 0. -1.
        -13    1    3    3    0    0  0.21392200306E+03  0.18508906945E+03  0.48984503065E+03  0.56565779503E+03  0.00000000000E+00 0.  1.
         22    1    1    2    0    0 -0.47415118569E+03 -0.49369707731E+03  0.61900037413E+02  0.68730471093E+03  0.00000000000E+00 0. -1.
<mgrwt>
<rscale>  0 0.15875512E+04</rscale>
<asrwt>0</asrwt>
<pdfrwt beam="1">  1        1 0.23195349E+00 0.15875512E+04</pdfrwt>
<pdfrwt beam="2">  1       -1 0.64293621E-01 0.15875512E+04</pdfrwt>
<totfact> 0.15224990E+01</totfact>
</mgrwt>
</event>
<event>
 6    1  0.1719556E-004  0.2599089E+04  0.7818608E-02  0.8368511E-01
          2   -1    0    0  501    0  0.00000000000E+00  0.00000000000E+00  0.30741182701E+04  0.30741182701E+04  0.00000000000E+00 0.  1.
         -2   -1    0    0    0  501 -0.00000000000E+00 -0.00000000000E+00 -0.54936601310E+03  0.54936601310E+03  0.00000000000E+00 0. -1.
         23    2    1    2    0    0  0.40747070955E+03  0.50022719711E+03  0.28340709640E+04  0.29079860718E+04  0.90361147819E+02 0.  0.
         11    1    3    3    0    0  0.22828271174E+03  0.34843304213E+03  0.17899029952E+04  0.18377353764E+04  0.00000000000E+00 0. -1.
        -11    1    3    3    0    0  0.17918799782E+03  0.15179415498E+03  0.10441679688E+04  0.10702506955E+04  0.00000000000E+00 0.  1.
         22    1    1    2    0    0 -0.40747070955E+03 -0.50022719711E+03 -0.30931870706E+03  0.71549821133E+03  0.00000000000E+00 0. -1.
<mgrwt>
<rscale>  0 0.25990891E+04</rscale>
<asrwt>0</asrwt>
<pdfrwt beam="1">  1        2 0.47294126E+00 0.25990891E+04</pdfrwt>
<pdfrwt beam="2">  1       -2 0.84517850E-01 0.25990891E+04</pdfrwt>
<totfact> 0.16878966E+00</totfact>
</mgrwt>
</event>
<event>
 6    1  0.1719556E-004  0.2848595E+04  0.7818608E-02  0.8288338E-01
          1   -1    0    0  501    0  0.00000000000E+00  0.00000000000E+00  0.23817989355E+04  0.23817989355E+04  0.00000000000E+00 0.  1.
         -1   -1    0    0    0  501 -0.00000000000E+00 -0.00000000000E+00 -0.85171916840E+03  0.85171916840E+03  0.00000000000E+00 0. -1.
         23    2    1    2    0    0 -0.13786060134E+04  0.11058233622E+03  0.11453497533E+04  0.17979693668E+04  0.89915478850E+02 0.  0.
         13    1    3    3    0    0 -0.28711630668E+03 -0.12421800394E+02  0.22618426397E+03  0.36571764512E+03  0.00000000000E+00 0.  1.
        -13    1    3    3    0    0 -0.10914897067E+04  0.12300413661E+03  0.91916548936E+03  0.14322517217E+04  0.00000000000E+00 0. -1.
         22    1    1    2    0    0  0.13786060134E+04 -0.11058233622E+03  0.38473001381E+03  0.14355487371E+04  0.00000000000E+00 0. -1.
<mgrwt>
<rscale>  0 0.28485953E+04</rscale>
<asrwt>0</asrwt>
<pdfrwt beam="1">  1        1 0.36643060E+00 0.28485953E+04</pdfrwt>
<pdfrwt beam="2">  1       -1 0.13103372E+00 0.28485953E+04</pdfrwt>
<totfact> 0.70052876E-01</totfact>
</mgrwt>
</event>
<event>
 6    1  0.1719556E-004  0.2180462E+04  0.7818608E-02  0.8526605E-01
         -1   -1    0    0    0  501 -0.00000000000E+00  0.00000000000E+00  0.42413769944E+03  0.42413769944E+03  0.00000000000E+00 0. -1.
          1   -1    0    0  501    0  0.00000000000E+00 -0.00000000000E+00 -0.28023999326E+04  0.28023999326E+04  0.00000000000E+00 0.  1.
         23    2    1    2    0    0  0.74945772784E+03 -0.78484029799E+03 -0.13134236188E+04  0.17061618713E+04  0.90805008293E+02 0.  0.
         13    1    3    3    0    0  0.14778964768E+03 -0.15901273425E+03 -0.20862166947E+03  0.30108110301E+03  0.00000000000E+00 0.  1.
        -13    1    3    3    0    0  0.60166808016E+03 -0.62582756374E+03 -0.11048019493E+04  0.14050807683E+04  0.00000000000E+00 0. -1.
         22    1    1    2    0    0 -0.74945772784E+03  0.78484029799E+03 -0.10648386143E+04  0.15203757607E+04  0.00000000000E+00 0. -1.
<mgrwt>
<rscale>  0 0.21804618E+04</rscale>
<asrwt>0</asrwt>
<pdfrwt beam="1">  1        1 0.43113847E+00 0.21804618E+04</pdfrwt>
<pdfrwt beam="2">  1       -1 0.65251951E-01 0.21804618E+04</pdfrwt>
<totfact> 0.18060562E+00</totfact>
</mgrwt>
</event>
<event>
 6    1  0.1719556E-004  0.1087678E+04  0.7818608E-02  0.9217285E-01
          2   -1    0    0  501    0  0.00000000000E+00  0.00000000000E+00  0.14148596648E+04  0.14148596648E+04  0.00000000000E+00 0.  1.
         -2   -1    0    0    0  501 -0.00000000000E+00 -0.00000000000E+00 -0.20903911778E+03  0.20903911778E+03  0.00000000000E+00 0. -1.
         23    2    1    2    0    0  0.20183793522E+03 -0.48814991350E+03  0.43697118522E+03  0.69107606025E+03  0.87254880607E+02 0.  0.
         13    1    3    3    0    0  0.93310552334E+01 -0.11553901722E+03  0.89953874450E+02  0.14672434229E+03  0.00000000000E+00 0. -1.
        -13    1    3    3    0    0  0.19250687999E+03 -0.37261089629E+03  0.34701731076E+03  0.54435171796E+03  0.00000000000E+00 0.  1.
         22    1    1    2    0    0 -0.20183793522E+03  0.48814991350E+03  0.76884936181E+03  0.93282272233E+03  0.00000000000E+00 0.  1.
<mgrwt>
<rscale>  0 0.10876783E+04</rscale>
<asrwt>0</asrwt>
<pdfrwt beam="1">  1        2 0.21767071E+00 0.10876783E+04</pdfrwt>
<pdfrwt beam="2">  1       -2 0.32159865E-01 0.10876783E+04</pdfrwt>
<totfact> 0.12675538E+02</totfact>
</mgrwt>
</event>
<event>
 6    1  0.1719556E-004  0.2997396E+04  0.7818608E-02  0.8244475E-01
          2   -1    0    0  501    0  0.00000000000E+00  0.00000000000E+00  0.97387630821E+03  0.97387630821E+03  0.00000000000E+00 0.  1.
         -2   -1    0    0    0  501 -0.00000000000E+00 -0.00000000000E+00 -0.23063461939E+04  0.23063461939E+04  0.00000000000E+00 0. -1.
         23    2    1    2    0    0 -0.50779031217E+03 -0.12330213035E+04 -0.14122926631E+04  0.19443466801E+04  0.87868711737E+02 0.  0.
         13    1    3    3    0    0 -0.30381360068E+03 -0.80837398092E+03 -0.86635943542E+03  0.12232538037E+04  0.00000000000E+00 0.  1.
        -13    1    3    3    0    0 -0.20397671148E+03 -0.42464732256E+03 -0.54593322764E+03  0.72109287643E+03  0.00000000000E+00 0. -1.
         22    1    1    2    0    0  0.50779031217E+03  0.12330213035E+04  0.79822777345E+02  0.13358758220E+04  0.00000000000E+00 0.  1.
<mgrwt>
<rscale>  0 0.29973961E+04</rscale>
<asrwt>0</asrwt>
<pdfrwt beam="1">  1        2 0.14982712E+00 0.29973961E+04</pdfrwt>
<pdfrwt beam="2">  1       -2 0.35482249E+00 0.29973961E+04</pdfrwt>
<totfact> 0.32512940E-01</totfact>
</mgrwt>
</event>
<event>
 6    1  0.1719556E-004  0.4747595E+04  0.7818608E-02  0.7868668E-01
          1   -1    0    0  501    0  0.00000000000E+00  0.00000000000E+00  0.39116847051E+04  0.39116847051E+04  0.00000000000E+00 0.  1.
         -1   -1    0    0    0  501 -0.00000000000E+00 -0.00000000000E+00 -0.14405341415E+04  0.14405341415E+04  0.00000000000E+00 0. -1.
         23    2    1    2    0    0 -0.44863064592E+03  0.11832393859E+04  0.34990142224E+04  0.37219340243E+04  0.91473778683E+02 0.  0.
         13    1    3    3    0    0 -0.21285372494E+03  0.57788727255E+03  0.15699866114E+04  0.16864514129E+04  0.00000000000E+00 0. -1.
        -13    1    3    3    0    0 -0.23577692098E+03  0.60535211338E+03  0.19290276110E+04  0.20354826114E+04  0.00000000000E+00 0.  1.
         22    1    1    2    0    0  0.44863064592E+03 -0.11832393859E+04 -0.10278636587E+04  0.16302848223E+04  0.00000000000E+00 0. -1.
<mgrwt>
<rscale>  0 0.47475953E+04</rscale>
<asrwt>0</asrwt>
<pdfrwt beam="1">  1        1 0.60179764E+00 0.47475953E+04</pdfrwt>
<pdfrwt beam="2">  1       -1 0.22162064E+00 0.47475953E+04</pdfrwt>
<totfact> 0.90281121E-03</totfact>
</mgrwt>
</event>
<event>
 6    1  0.1719556E-004  0.3195582E+04  0.7818608E-02  0.8189985E-01
         -1   -1    0    0    0  501 -0.00000000000E+00  0.00000000000E+00  0.16560847926E+04  0.16560847926E+04  0.00000000000E+00 0. -1.
          1   -1    0    0  501    0  0.00000000000E+00 -0.00000000000E+00 -0.15415493706E+04  0.15415493706E+04  0.00000000000E+00 0.  1.
         23    2    1    2    0    0 -0.20016858548E+02 -0.41314283256E+03  0.16002852700E+04  0.16553824699E+04  0.91052192265E+02 0.  0.
         13    1    3    3    0    0  0.12094973338E+02 -0.13459039683E+03  0.38048448572E+03  0.40376887841E+03  0.00000000000E+00 0. -1.
        -13    1    3    3    0    0 -0.32111831886E+02 -0.27855243573E+03  0.12198007842E+04  0.12516135915E+04  0.00000000000E+00 0.  1.
         22    1    1    2    0    0  0.20016858548E+02  0.41314283256E+03 -0.14857498479E+04  0.15422516933E+04  0.00000000000E+00 0.  1.
<mgrwt>
<rscale>  0 0.31955822E+04</rscale>
<asrwt>0</asrwt>
<pdfrwt beam="1">  1        1 0.23716144E+00 0.31955822E+04</pdfrwt>
<pdfrwt beam="2">  1       -1 0.25478227E+00 0.31955822E+04</pdfrwt>
<totfact> 0.33247454E-01</totfact>
</mgrwt>
</event>
<event>
 6    1  0.3006521E-004  0.3512816E+04  0.7818608E-02  0.8110759E-01
         -2   -1    0    0    0  501 -0.00000000000E+00  0.00000000000E+00  0.16617621121E+04  0.16617621121E+04  0.00000000000E+00 0. -1.
          2   -1    0    0  501    0  0.00000000000E+00 -0.00000000000E+00 -0.18564444702E+04  0.18564444702E+04  0.00000000000E+00 0.  1.
         23    2    1    2    0    0 -0.49920392844E+03 -0.11204889253E+04 -0.13547667903E+04  0.18298654190E+04  0.91183342421E+02 0.  0.
         13    1    3    3    0    0 -0.10964490677E+03 -0.34497743513E+03 -0.38352189362E+03  0.52737129161E+03  0.00000000000E+00 0. -1.
        -13    1    3    3    0    0 -0.38955902167E+03 -0.77551149017E+03 -0.97124489665E+03  0.13024941274E+04  0.00000000000E+00 0.  1.
         22    1    1    2    0    0  0.49920392844E+03  0.11204889253E+04  0.11600844322E+04  0.16883411633E+04  0.00000000000E+00 0. -1.
<mgrwt>
<rscale>  0 0.35128160E+04</rscale>
<asrwt>0</asrwt>
<pdfrwt beam="1">  1        2 0.28560684E+00 0.35128160E+04</pdfrwt>
<pdfrwt beam="2">  1       -2 0.25565571E+00 0.35128160E+04</pdfrwt>
<totfact> 0.39093435E-01</totfact>
</mgrwt>
</event>
<event>
 6    1  0.1719556E-004  0.5516168E+04  0.7818608E-02  0.7753468E-01
         -2   -1    0    0    0  501 -0.00000000000E+00  0.00000000000E+00  0.22872443617E+04  0.22872443617E+04  0.00000000000E+00 0. -1.
          2   -1    0    0  501    0  0.00000000000E+00 -0.00000000000E+00 -0.33258484608E+04  0.33258484608E+04  0.00000000000E+00 0.  1.
         23    2    1    2    0    0 -0.17251843023E+04 -0.14268180837E+04 -0.21573389615E+04  0.31103666263E+04  0.90545205131E+02 0.  0.
         13    1    3    3    0    0 -0.13315772742E+04 -0.10919222124E+04 -0.16064118976E+04  0.23549843608E+04  0.00000000000E+00 0.  1.
        -13    1    3    3    0    0 -0.39360702813E+03 -0.33489587137E+03 -0.55092706394E+03  0.75538226551E+03  0.00000000000E+00 0. -1.
         22    1    1    2    0    0  0.17251843023E+04  0.14268180837E+04  0.11187348624E+04  0.25027261962E+04  0.00000000000E+00 0. -1.
<mgrwt>
<rscale>  0 0.55161683E+04</rscale>
<asrwt>0</asrwt>
<pdfrwt beam="1">  1        2 0.51166900E+00 0.55161683E+04</pdfrwt>
<pdfrwt beam="2">  1       -2 0.35188375E+00 0.55161683E+04</pdfrwt>
<totfact> 0.11310448E-02</totfact>
</mgrwt>
</event>
<event>
 6    1  0.1719556E-004  0.6121846E+04  0.7818608E-02  0.7675475E-01
          2   -1    0    0  501    0  0.00000000000E+00  0.00000000000E+00  0.35063938489E+04  0.35063938489E+04  0.00000000000E+00 0.  1.
         -2   -1    0    0    0  501 -0.00000000000E+00 -0.00000000000E+00 -0.26720475156E+04  0.26720475156E+04  0.00000000000E+00 0. -1.
         23    2    1    2    0    0 -0.37700891577E+03  0.16883556308E+04  0.29649628581E+04  0.34339546665E+04  0.91429988832E+02 0.  0.
         11    1    3    3    0    0 -0.28943255516E+03  0.12422367716E+04  0.21077404489E+04  0.24636341451E+04  0.00000000000E+00 0.  1.
        -11    1    3    3    0    0 -0.87576360616E+02  0.44611885922E+03  0.85722240921E+03  0.97032052144E+03  0.00000000000E+00 0. -1.
         22    1    1    2    0    0  0.37700891577E+03 -0.16883556308E+04 -0.21306165249E+04  0.27444866979E+04  0.00000000000E+00 0. -1.
<mgrwt>
<rscale>  0 0.61218464E+04</rscale>
<asrwt>0</asrwt>
<pdfrwt beam="1">  1        2 0.53944521E+00 0.61218464E+04</pdfrwt>
<pdfrwt beam="2">  1       -2 0.41108423E+00 0.61218464E+04</pdfrwt>
<totfact> 0.33673948E-03</totfact>
</mgrwt>
</event>
<event>
 6    1  0.1719556E-004  0.2489142E+04  0.7818608E-02  0.8406864E-01
         -2   -1    0    0    0  501 -0.00000000000E+00  0.00000000000E+00  0.49738626761E+03  0.49738626761E+03  0.00000000000E+00 0. -1.
          2   -1    0    0  501    0  0.00000000000E+00 -0.00000000000E+00 -0.31141924432E+04  0.31141924432E+04  0.00000000000E+00 0.  1.
         23    2    1    2    0    0 -0.10835128240E+04 -0.21960782034E+03 -0.21343274716E+04  0.24053393754E+04  0.89867237589E+02 0.  0.
         13    1    3    3    0    0 -0.64036116490E+03 -0.89538909163E+02 -0.12010627962E+04  0.13640496612E+04  0.00000000000E+00 0.  1.
        -13    1    3    3    0    0 -0.44315165907E+03 -0.13006891118E+03 -0.93326467540E+03  0.10412897142E+04  0.00000000000E+00 0. -1.
         22    1    1    2    0    0  0.10835128240E+04  0.21960782034E+03 -0.48247870396E+03  0.12062393354E+04  0.00000000000E+00 0.  1.
<mgrwt>
<rscale>  0 0.24891417E+04</rscale>
<asrwt>0</asrwt>
<pdfrwt beam="1">  1        2 0.47910653E+00 0.24891417E+04</pdfrwt>
<pdfrwt beam="2">  1       -2 0.76520965E-01 0.24891417E+04</pdfrwt>
<totfact> 0.20096533E+00</totfact>
</mgrwt>
</event>
<event>
 6    1  0.1719556E-004  0.1418835E+04  0.7818608E-02  0.8940297E-01
          2   -1    0    0  501    0  0.00000000000E+00  0.00000000000E+00  0.16960695471E+04  0.16960695471E+04  0.00000000000E+00 0.  1.
         -2   -1    0    0    0  501 -0.00000000000E+00 -0.00000000000E+00 -0.29672897124E+03  0.29672897124E+03  0.00000000000E+00 0. -1.
         23    2    1    2    0    0  0.48458390516E+03 -0.50122595560E+03  0.54276379302E+03  0.88836526794E+03  0.92473209987E+02 0.  0.
         11    1    3    3    0    0  0.17707511885E+03 -0.23480651721E+03  0.26358784841E+03  0.39492816065E+03  0.00000000000E+00 0. -1.
        -11    1    3    3    0    0  0.30750878631E+03 -0.26641943839E+03  0.27917594461E+03  0.49343710730E+03  0.00000000000E+00 0.  1.
         22    1    1    2    0    0 -0.48458390516E+03  0.50122595560E+03  0.85657678286E+03  0.11044332504E+04  0.00000000000E+00 0. -1.
<mgrwt>
<rscale>  0 0.14188347E+04</rscale>
<asrwt>0</asrwt>
<pdfrwt beam="1">  1        2 0.26093377E+00 0.14188347E+04</pdfrwt>
<pdfrwt beam="2">  1       -2 0.45650612E-01 0.14188347E+04</pdfrwt>
<totfact> 0.43587515E+01</totfact>
</mgrwt>
</event>
<event>
 6    1  0.1719556E-004  0.6718664E+03  0.7818608E-02  0.9766592E-01
         -2   -1    0    0    0  501 -0.00000000000E+00  0.00000000000E+00  0.92272436541E+02  0.92272436541E+02  0.00000000000E+00 0. -1.
          2   -1    0    0  501    0  0.00000000000E+00 -0.00000000000E+00 -0.12230210149E+04  0.12230210149E+04  0.00000000000E+00 0.  1.
         23    2    1    2    0    0  0.30470190492E+03  0.47865796039E+02 -0.34940585784E+03  0.47527509914E+03  0.93099844673E+02 0.  0.
         11    1    3    3    0    0  0.74021160006E+02 -0.27998021335E+02 -0.93362551300E+02  0.12239112432E+03  0.00000000000E+00 0. -1.
        -11    1    3    3    0    0  0.23068074491E+03  0.75863817374E+02 -0.25604330654E+03  0.35288397482E+03  0.00000000000E+00 0.  1.
         22    1    1    2    0    0 -0.30470190492E+03 -0.47865796039E+02 -0.78134272051E+03  0.84001835229E+03  0.00000000000E+00 0.  1.
<mgrwt>
<rscale>  0 0.67186644E+03</rscale>
<asrwt>0</asrwt>
<pdfrwt beam="1">  1        2 0.18815707E+00 0.67186644E+03</pdfrwt>
<pdfrwt beam="2">  1       -2 0.14195760E-01 0.67186644E+03</pdfrwt>
<totfact> 0.71315166E+02</totfact>
</mgrwt>
</event>
<event>
 6    1  0.1719556E-004  0.2492407E+04  0.7818608E-02  0.8405696E-01
         -1   -1    0    0    0  501 -0.00000000000E+00  0.00000000000E+00  0.82214976044E+03  0.82214976044E+03  0.00000000000E+00 0. -1.
          1   -1    0    0  501    0  0.00000000000E+00 -0.00000000000E+00 -0.18889781739E+04  0.18889781739E+04  0.00000000000E+00 0.  1.
         23    2    1    2    0    0  0.87996227742E+02 -0.10162446985E+04  0.24123103621E+03  0.10523584666E+04  0.93644573174E+02 0.  0.
         11    1    3    3    0    0  0.95704151744E+02 -0.77749234602E+03  0.15607552923E+03  0.79875728705E+03  0.00000000000E+00 0.  1.
        -11    1    3    3    0    0 -0.77079240014E+01 -0.23875235246E+03  0.85155506983E+02  0.25360117955E+03  0.00000000000E+00 0. -1.
         22    1    1    2    0    0 -0.87996227742E+02  0.10162446985E+04 -0.13080594497E+04  0.16587694678E+04  0.00000000000E+00 0.  1.
<mgrwt>
<rscale>  0 0.24924068E+04</rscale>
<asrwt>0</asrwt>
<pdfrwt beam="1">  1        1 0.29061202E+00 0.24924068E+04</pdfrwt>
<pdfrwt beam="2">  1       -1 0.12648458E+00 0.24924068E+04</pdfrwt>
<totfact> 0.17120186E+00</totfact>
</mgrwt>
</event>
<event>
 6    1  0.1719556E-004  0.1712948E+04  0.7818608E-02  0.8754014E-01
         -2   -1    0    0    0  501 -0.00000000000E+00  0.00000000000E+00  0.42470398087E+03  0.42470398087E+03  0.00000000000E+00 0. -1.
          2   -1    0    0  501    0  0.00000000000E+00 -0.00000000000E+00 -0.17271981809E+04  0.17271981809E+04  0.00000000000E+00 0.  1.
         23    2    1    2    0    0  0.30659566114E+03  0.59202585117E+03  0.17845275522E+02  0.67278355985E+03  0.88452002021E+02 0.  0.
         11    1    3    3    0    0  0.11887378305E+03  0.17389112480E+03 -0.26511406325E+02  0.21230156439E+03  0.00000000000E+00 0.  1.
        -11    1    3    3    0    0  0.18772187810E+03  0.41813472637E+03  0.44356681847E+02  0.46048199545E+03  0.00000000000E+00 0. -1.
         22    1    1    2    0    0 -0.30659566114E+03 -0.59202585117E+03 -0.13203394756E+04  0.14791186020E+04  0.00000000000E+00 0.  1.
<mgrwt>
<rscale>  0 0.17129483E+04</rscale>
<asrwt>0</asrwt>
<pdfrwt beam="1">  1        2 0.26572280E+00 0.17129483E+04</pdfrwt>
<pdfrwt beam="2">  1       -2 0.65339074E-01 0.17129483E+04</pdfrwt>
<totfact> 0.19433901E+01</totfact>
</mgrwt>
</event>
<event>
 6    1  0.1719556E-004  0.2556570E+04  0.7818608E-02  0.8383105E-01
         -1   -1    0    0    0  501 -0.00000000000E+00  0.00000000000E+00  0.49430631145E+03  0.49430631145E+03  0.00000000000E+00 0. -1.
          1   -1    0    0  501    0  0.00000000000E+00 -0.00000000000E+00 -0.33056672715E+04  0.33056672715E+04  0.00000000000E+00 0.  1.
         23    2    1    2    0    0 -0.70911459785E+03  0.10300375354E+03 -0.29779203779E+04  0.30643137936E+04  0.92498444936E+02 0.  0.
         13    1    3    3    0    0 -0.47270764199E+03  0.32872437954E+02 -0.18461448750E+04  0.19059863618E+04  0.00000000000E+00 0.  1.
        -13    1    3    3    0    0 -0.23640695587E+03  0.70131315588E+02 -0.11317755029E+04  0.11583274317E+04  0.00000000000E+00 0. -1.
         22    1    1    2    0    0  0.70911459785E+03 -0.10300375354E+03  0.16655941778E+03  0.73565978943E+03  0.00000000000E+00 0. -1.
<mgrwt>
<rscale>  0 0.25565697E+04</rscale>
<asrwt>0</asrwt>
<pdfrwt beam="1">  1        1 0.50856420E+00 0.25565697E+04</pdfrwt>
<pdfrwt beam="2">  1       -1 0.76047125E-01 0.25565697E+04</pdfrwt>
<totfact> 0.54299347E-01</totfact>
</mgrwt>
</event>
<event>
 6    1  0.1719556E-004  0.2018950E+04  0.7818608E-02  0.8597812E-01
          1   -1    0    0  501    0  0.00000000000E+00  0.00000000000E+00  0.15385757972E+04  0.15385757972E+04  0.00000000000E+00 0.  1.
         -1   -1    0    0    0  501 -0.00000000000E+00 -0.00000000000E+00 -0.66232664660E+03  0.66232664660E+03  0.00000000000E+00 0. -1.
         23    2    1    2    0    0  0.43318857629E+03  0.34087729270E+03  0.13582130638E+04  0.14686873900E+04  0.91925249827E+02 0.  0.
         13    1    3    3    0    0  0.22119957760E+03  0.20204846543E+03  0.62904970785E+03  0.69674699171E+03  0.00000000000E+00 0. -1.
        -13    1    3    3    0    0  0.21198899870E+03  0.13882882727E+03  0.72916335594E+03  0.77194039828E+03  0.00000000000E+00 0.  1.
         22    1    1    2    0    0 -0.43318857629E+03 -0.34087729270E+03 -0.48196391323E+03  0.73221505377E+03  0.00000000000E+00 0. -1.
<mgrwt>
<rscale>  0 0.20189500E+04</rscale>
<asrwt>0</asrwt>
<pdfrwt beam="1">  1        1 0.23670397E+00 0.20189500E+04</pdfrwt>
<pdfrwt beam="2">  1       -1 0.10189641E+00 0.20189500E+04</pdfrwt>
<totfact> 0.51998760E+00</totfact>
</mgrwt>
</event>
<event>
 6    1  0.1719556E-004  0.6805286E+03  0.7818608E-02  0.9751123E-01
          1   -1    0    0  501    0  0.00000000000E+00  0.00000000000E+00  0.24777480321E+03  0.24777480321E+03  0.00000000000E+00 0.  1.
         -1   -1    0    0    0  501 -0.00000000000E+00 -0.00000000000E+00 -0.46727834497E+03  0.46727834497E+03  0.00000000000E+00 0. -1.
         23    2    1    2    0    0 -0.15423849070E+03  0.15257457489E+03 -0.37996858391E+03  0.44520589015E+03  0.82241394381E+02 0.  0.
         13    1    3    3    0    0 -0.11691647449E+03  0.91179884748E+02 -0.31580084080E+03  0.34887448236E+03  0.00000000000E+00 0. -1.
        -13    1    3    3    0    0 -0.37322016206E+02  0.61394690140E+02 -0.64167743108E+02  0.96331407789E+02  0.00000000000E+00 0.  1.
         22    1    1    2    0    0  0.15423849070E+03 -0.15257457489E+03  0.16046504215E+03  0.26984725803E+03  0.00000000000E+00 0.  1.
<mgrwt>
<rscale>  0 0.68052862E+03</rscale>
<asrwt>0</asrwt>
<pdfrwt beam="1">  1        1 0.38119201E-01 0.68052862E+03</pdfrwt>
<pdfrwt beam="2">  1       -1 0.71888976E-01 0.68052862E+03</pdfrwt>
<totfact> 0.22299218E+02</totfact>
</mgrwt>
</event>
<event>
 6    1  0.1719556E-004  0.9241825E+03  0.7818608E-02  0.9395847E-01
         -2   -1    0    0    0  501 -0.00000000000E+00  0.00000000000E+00  0.71727066906E+02  0.71727066906E+02  0.00000000000E+00 0. -1.
          2   -1    0    0  501    0  0.00000000000E+00 -0.00000000000E+00 -0.29769559846E+04  0.29769559846E+04  0.00000000000E+00 0.  1.
         23    2    1    2    0    0  0.33662378833E+03  0.14423093655E+03 -0.23718360396E+04  0.24016698365E+04  0.91069572860E+02 0.  0.
         11    1    3    3    0    0  0.13997475183E+03  0.23099981369E+02 -0.10898562172E+04  0.10990510063E+04  0.00000000000E+00 0.  1.
        -11    1    3    3    0    0  0.19664903650E+03  0.12113095518E+03 -0.12819798224E+04  0.13026188302E+04  0.00000000000E+00 0. -1.
         22    1    1    2    0    0 -0.33662378833E+03 -0.14423093655E+03 -0.53339287809E+03  0.64701321496E+03  0.00000000000E+00 0. -1.
<mgrwt>
<rscale>  0 0.92418250E+03</rscale>
<asrwt>0</asrwt>
<pdfrwt beam="1">  1        2 0.45799313E+00 0.92418250E+03</pdfrwt>
<pdfrwt beam="2">  1       -2 0.11034936E-01 0.92418250E+03</pdfrwt>
<totfact> 0.10872481E+02</totfact>
</mgrwt>
</event>
<event>
 6    1  0.1719556E-004  0.1890888E+04  0.7818608E-02  0.8659406E-01
         -2   -1    0    0    0  501 -0.00000000000E+00  0.00000000000E+00  0.97804593874E+03  0.97804593874E+03  0.00000000000E+00 0. -1.
          2   -1    0    0  501    0  0.00000000000E+00 -0.00000000000E+00 -0.91392842807E+03  0.91392842807E+03  0.00000000000E+00 0.  1.
         23    2    1    2    0    0 -0.47928548100E+01  0.39068487917E+03  0.89102072192E+03  0.97741077304E+03  0.93574815513E+02 0.  0.
         11    1    3    3    0    0 -0.24740305915E+02  0.33419058197E+03  0.81051852749E+03  0.87706083667E+03  0.00000000000E+00 0. -1.
        -11    1    3    3    0    0  0.19947451105E+02  0.56494297206E+02  0.80502194428E+02  0.10034993637E+03  0.00000000000E+00 0.  1.
         22    1    1    2    0    0  0.47928548100E+01 -0.39068487917E+03 -0.82690321124E+03  0.91456359376E+03  0.00000000000E+00 0.  1.
<mgrwt>
<rscale>  0 0.18908876E+04</rscale>
<asrwt>0</asrwt>
<pdfrwt beam="1">  1        2 0.14060437E+00 0.18908876E+04</pdfrwt>
<pdfrwt beam="2">  1       -2 0.15046861E+00 0.18908876E+04</pdfrwt>
<totfact> 0.79894136E+00</totfact>
</mgrwt>
</event>
<event>
 6    1  0.1719556E-004  0.6467471E+03  0.7818608E-02  0.9812902E-01
         -2   -1    0    0    0  501 -0.00000000000E+00  0.00000000000E+00  0.98839453629E+02  0.98839453629E+02  0.00000000000E+00 0. -1.
          2   -1    0    0  501    0  0.00000000000E+00 -0.00000000000E+00 -0.10579828938E+04  0.10579828938E+04  0.00000000000E+00 0.  1.
         23    2    1    2    0    0 -0.30738739035E+03 -0.34461776738E+02 -0.60610493910E+03  0.68744956909E+03  0.97719450704E+02 0.  0.
         11    1    3    3    0    0 -0.10376527014E+03 -0.53147463012E+02 -0.26899635301E+03  0.29317387681E+03  0.00000000000E+00 0. -1.
        -11    1    3    3    0    0 -0.20362212021E+03  0.18685686274E+02 -0.33710858608E+03  0.39427569228E+03  0.00000000000E+00 0.  1.
         22    1    1    2    0    0  0.30738739035E+03  0.34461776738E+02 -0.35303850107E+03  0.46937277833E+03  0.00000000000E+00 0.  1.
<mgrwt>
<rscale>  0 0.64674709E+03</rscale>
<asrwt>0</asrwt>
<pdfrwt beam="1">  1        2 0.16276660E+00 0.64674709E+03</pdfrwt>
<pdfrwt beam="2">  1       -2 0.15206070E-01 0.64674709E+03</pdfrwt>
<totfact> 0.79892684E+02</totfact>
</mgrwt>
</event>
<event>
 6    1  0.1719556E-004  0.3096707E+04  0.7818608E-02  0.8216642E-01
         -2   -1    0    0    0  501 -0.00000000000E+00  0.00000000000E+00  0.12738581404E+04  0.12738581404E+04  0.00000000000E+00 0. -1.
          2   -1    0    0  501    0  0.00000000000E+00 -0.00000000000E+00 -0.18819985809E+04  0.18819985809E+04  0.00000000000E+00 0.  1.
         23    2    1    2    0    0 -0.11626155347E+04 -0.41229162303E+03 -0.12557483036E+04  0.17626391474E+04  0.91289091404E+02 0.  0.
         11    1    3    3    0    0 -0.81274425346E+03 -0.32959045511E+03 -0.87051055651E+03  0.12357069712E+04  0.00000000000E+00 0.  1.
        -11    1    3    3    0    0 -0.34987128120E+03 -0.82701167919E+02 -0.38523774709E+03  0.52693217625E+03  0.00000000000E+00 0. -1.
         22    1    1    2    0    0  0.11626155347E+04  0.41229162303E+03  0.64760786314E+03  0.13932175739E+04  0.00000000000E+00 0. -1.
<mgrwt>
<rscale>  0 0.30967074E+04</rscale>
<asrwt>0</asrwt>
<pdfrwt beam="1">  1        2 0.28953824E+00 0.30967074E+04</pdfrwt>
<pdfrwt beam="2">  1       -2 0.19597818E+00 0.30967074E+04</pdfrwt>
<totfact> 0.93308348E-01</totfact>
</mgrwt>
</event>
<event>
 6    1  0.1719556E-004  0.1387637E+04  0.7818608E-02  0.8962816E-01
          2   -1    0    0  501    0  0.00000000000E+00  0.00000000000E+00  0.13300091035E+04  0.13300091035E+04  0.00000000000E+00 0.  1.
         -2   -1    0    0    0  501 -0.00000000000E+00 -0.00000000000E+00 -0.36194062032E+03  0.36194062032E+03  0.00000000000E+00 0. -1.
         23    2    1    2    0    0 -0.13181626600E+00 -0.26692038397E+03 -0.29051637678E+03  0.40537195373E+03  0.93167306190E+02 0.  0.
         11    1    3    3    0    0  0.28737008718E+02 -0.31905945299E+02 -0.25306021830E+02  0.49841747124E+02  0.00000000000E+00 0. -1.
        -11    1    3    3    0    0 -0.28868824984E+02 -0.23501443867E+03 -0.26521035495E+03  0.35553020661E+03  0.00000000000E+00 0.  1.
         22    1    1    2    0    0  0.13181626600E+00  0.26692038397E+03  0.12585848599E+04  0.12865777700E+04  0.00000000000E+00 0.  1.
<mgrwt>
<rscale>  0 0.13876373E+04</rscale>
<asrwt>0</asrwt>
<pdfrwt beam="1">  1        2 0.20461678E+00 0.13876373E+04</pdfrwt>
<pdfrwt beam="2">  1       -2 0.55683173E-01 0.13876373E+04</pdfrwt>
<totfact> 0.46866189E+01</totfact>
</mgrwt>
</event>
<event>
 6    1  0.1719556E-004  0.2159354E+04  0.7818608E-02  0.8535539E-01
         -2   -1    0    0    0  501 -0.00000000000E+00  0.00000000000E+00  0.79231893410E+03  0.79231893410E+03  0.00000000000E+00 0. -1.
          2   -1    0    0  501    0  0.00000000000E+00 -0.00000000000E+00 -0.14712535219E+04  0.14712535219E+04  0.00000000000E+00 0.  1.
         23    2    1    2    0    0  0.45131874927E+03  0.72844974309E+03 -0.10251822722E+04  0.13393348780E+04  0.92149782530E+02 0.  0.
         11    1    3    3    0    0  0.41573519100E+03  0.65348068089E+03 -0.88159120678E+03  0.11734887325E+04  0.00000000000E+00 0.  1.
        -11    1    3    3    0    0  0.35583558269E+02  0.74969062207E+02 -0.14359106547E+03  0.16584614554E+03  0.00000000000E+00 0. -1.
         22    1    1    2    0    0 -0.45131874927E+03 -0.72844974309E+03  0.34624768444E+03  0.92423757803E+03  0.00000000000E+00 0. -1.
<mgrwt>
<rscale>  0 0.21593536E+04</rscale>
<asrwt>0</asrwt>
<pdfrwt beam="1">  1        2 0.22634669E+00 0.21593536E+04</pdfrwt>
<pdfrwt beam="2">  1       -2 0.12189522E+00 0.21593536E+04</pdfrwt>
<totfact> 0.61729115E+00</totfact>
</mgrwt>
</event>
<event>
 6    1  0.1719556E-004  0.2593948E+04  0.7818608E-02  0.8370260E-01
         -1   -1    0    0    0  501 -0.00000000000E+00  0.00000000000E+00  0.93681184639E+03  0.93681184639E+03  0.00000000000E+00 0. -1.
          1   -1    0    0  501    0  0.00000000000E+00 -0.00000000000E+00 -0.17956021477E+04  0.17956021477E+04  0.00000000000E+00 0.  1.
         23    2    1    2    0    0  0.82290543154E+03  0.66235997447E+03  0.35972757350E+03  0.11197516313E+04  0.92442975448E+02 0.  0.
         13    1    3    3    0    0  0.19039885975E+03  0.12067471759E+03  0.47399110222E+02  0.23034927590E+03  0.00000000000E+00 0. -1.
        -13    1    3    3    0    0  0.63250657179E+03  0.54168525688E+03  0.31232846328E+03  0.88940235544E+03  0.00000000000E+00 0.  1.
         22    1    1    2    0    0 -0.82290543154E+03 -0.66235997447E+03 -0.12185178748E+04  0.16126623628E+04  0.00000000000E+00 0.  1.
<mgrwt>
<rscale>  0 0.25939479E+04</rscale>
<asrwt>0</asrwt>
<pdfrwt beam="1">  1        1 0.27624648E+00 0.25939479E+04</pdfrwt>
<pdfrwt beam="2">  1       -1 0.14412490E+00 0.25939479E+04</pdfrwt>
<totfact> 0.14034870E+00</totfact>
</mgrwt>
</event>
<event>
 6    1  0.1719556E-004  0.5087818E+04  0.7818608E-02  0.7815102E-01
         -1   -1    0    0    0  501 -0.00000000000E+00  0.00000000000E+00  0.23946371802E+04  0.23946371802E+04  0.00000000000E+00 0. -1.
          1   -1    0    0  501    0  0.00000000000E+00 -0.00000000000E+00 -0.27024853846E+04  0.27024853846E+04  0.00000000000E+00 0.  1.
         23    2    1    2    0    0  0.95704033066E+03 -0.86396875114E+03 -0.23499807579E+04  0.26820296963E+04  0.92225440701E+02 0.  0.
         11    1    3    3    0    0  0.41781582832E+03 -0.37645838161E+03 -0.93091729571E+03  0.10876111396E+04  0.00000000000E+00 0.  1.
        -11    1    3    3    0    0  0.53922450234E+03 -0.48751036953E+03 -0.14190634621E+04  0.15944185567E+04  0.00000000000E+00 0. -1.
         22    1    1    2    0    0 -0.95704033066E+03  0.86396875114E+03  0.20421325535E+04  0.24150928685E+04  0.00000000000E+00 0. -1.
<mgrwt>
<rscale>  0 0.50878176E+04</rscale>
<asrwt>0</asrwt>
<pdfrwt beam="1">  1        1 0.41576698E+00 0.50878176E+04</pdfrwt>
<pdfrwt beam="2">  1       -1 0.36840572E+00 0.50878176E+04</pdfrwt>
<totfact> 0.82087042E-03</totfact>
</mgrwt>
</event>
<event>
 6    1  0.1719556E-004  0.9298833E+03  0.7818608E-02  0.9388978E-01
          2   -1    0    0  501    0  0.00000000000E+00  0.00000000000E+00  0.92791838557E+03  0.92791838557E+03  0.00000000000E+00 0.  1.
         -2   -1    0    0    0  501 -0.00000000000E+00 -0.00000000000E+00 -0.23296309710E+03  0.23296309710E+03  0.00000000000E+00 0. -1.
         23    2    1    2    0    0  0.40895766666E+03  0.13917428848E+03  0.15266389493E+03  0.46755918301E+03  0.93217321914E+02 0.  0.
         13    1    3    3    0    0  0.27205575064E+03  0.13735455856E+03  0.11267234397E+03  0.32492408854E+03  0.00000000000E+00 0.  1.
        -13    1    3    3    0    0  0.13690191602E+03  0.18197299176E+01  0.39991550967E+02  0.14263509448E+03  0.00000000000E+00 0. -1.
         22    1    1    2    0    0 -0.40895766666E+03 -0.13917428848E+03  0.54229139354E+03  0.69332229966E+03  0.00000000000E+00 0.  1.
<mgrwt>
<rscale>  0 0.92988331E+03</rscale>
<asrwt>0</asrwt>
<pdfrwt beam="1">  1        2 0.14275667E+00 0.92988331E+03</pdfrwt>
<pdfrwt beam="2">  1       -2 0.35840477E-01 0.92988331E+03</pdfrwt>
<totfact> 0.20563955E+02</totfact>
</mgrwt>
</event>
<event>
 6    1  0.1719556E-004  0.5383976E+04  0.7818608E-02  0.7771859E-01
          2   -1    0    0  501    0  0.00000000000E+00  0.00000000000E+00  0.41317910390E+04  0.41317910390E+04  0.00000000000E+00 0.  1.
         -2   -1    0    0    0  501 -0.00000000000E+00 -0.00000000000E+00 -0.17539126120E+04  0.17539126120E+04  0.00000000000E+00 0. -1.
         23    2    1    2    0    0 -0.23104390153E+04  0.13172400453E+04  0.16397325059E+04  0.31256114096E+04  0.86453527949E+02 0.  0.
         11    1    3    3    0    0 -0.10220472006E+04  0.53759714572E+03  0.69131451260E+03  0.13459223331E+04  0.00000000000E+00 0.  1.
        -11    1    3    3    0    0 -0.12883918147E+04  0.77964289954E+03  0.94841799335E+03  0.17796890765E+04  0.00000000000E+00 0. -1.
         22    1    1    2    0    0  0.23104390153E+04 -0.13172400453E+04  0.73814592100E+03  0.27600922414E+04  0.00000000000E+00 0. -1.
<mgrwt>
<rscale>  0 0.53839764E+04</rscale>
<asrwt>0</asrwt>
<pdfrwt beam="1">  1        2 0.63566016E+00 0.53839764E+04</pdfrwt>
<pdfrwt beam="2">  1       -2 0.26983271E+00 0.53839764E+04</pdfrwt>
<totfact> 0.90728688E-03</totfact>
</mgrwt>
</event>
<event>
 6    1  0.1719556E-004  0.4294019E+03  0.7818608E-02  0.1034049E+00
          2   -1    0    0  501    0  0.00000000000E+00  0.00000000000E+00  0.19656983706E+04  0.19656983706E+04  0.00000000000E+00 0.  1.
         -2   -1    0    0    0  501 -0.00000000000E+00 -0.00000000000E+00 -0.23450446819E+02  0.23450446819E+02  0.00000000000E+00 0. -1.
         23    2    1    2    0    0 -0.13753630548E+03  0.78648461081E+02  0.16190938512E+04  0.16292455382E+04  0.88737303682E+02 0.  0.
         13    1    3    3    0    0 -0.63374705159E+02 -0.78015093580E+01  0.43098634641E+03  0.43569077061E+03  0.00000000000E+00 0.  1.
        -13    1    3    3    0    0 -0.74161600319E+02  0.86449970439E+02  0.11881075047E+04  0.11935547676E+04  0.00000000000E+00 0. -1.
         22    1    1    2    0    0  0.13753630548E+03 -0.78648461081E+02  0.32315407263E+03  0.35990327924E+03  0.00000000000E+00 0. -1.
<mgrwt>
<rscale>  0 0.42940193E+03</rscale>
<asrwt>0</asrwt>
<pdfrwt beam="1">  1        2 0.30241500E+00 0.42940193E+03</pdfrwt>
<pdfrwt beam="2">  1       -2 0.36077626E-02 0.42940193E+03</pdfrwt>
<totfact> 0.24694405E+03</totfact>
</mgrwt>
</event>
<event>
 6    1  0.1719556E-004  0.2244105E+04  0.7818608E-02  0.8500291E-01
          2   -1    0    0  501    0  0.00000000000E+00  0.00000000000E+00  0.32117057361E+04  0.32117057361E+04  0.00000000000E+00 0.  1.
         -2   -1    0    0    0  501 -0.00000000000E+00 -0.00000000000E+00 -0.39200426561E+03  0.39200426561E+03  0.00000000000E+00 0. -1.
         23    2    1    2    0    0  0.41096721969E+03 -0.72332820422E+03  0.20760397989E+03  0.86233241971E+03  0.91760791937E+02 0.  0.
         13    1    3    3    0    0  0.14633516365E+03 -0.33638015131E+03  0.66853661585E+02  0.37287397118E+03  0.00000000000E+00 0. -1.
        -13    1    3    3    0    0  0.26463205604E+03 -0.38694805291E+03  0.14075031831E+03  0.48945844853E+03  0.00000000000E+00 0.  1.
         22    1    1    2    0    0 -0.41096721969E+03  0.72332820422E+03  0.26120974906E+04  0.27413775820E+04  0.00000000000E+00 0.  1.
<mgrwt>
<rscale>  0 0.22441055E+04</rscale>
<asrwt>0</asrwt>
<pdfrwt beam="1">  1        2 0.49410856E+00 0.22441055E+04</pdfrwt>
<pdfrwt beam="2">  1       -2 0.60308351E-01 0.22441055E+04</pdfrwt>
<totfact> 0.29781706E+00</totfact>
</mgrwt>
</event>
<event>
 6    1  0.1719556E-004  0.3013536E+04  0.7818608E-02  0.8239876E-01
          1   -1    0    0  501    0  0.00000000000E+00  0.00000000000E+00  0.12923301020E+04  0.12923301020E+04  0.00000000000E+00 0.  1.
         -1   -1    0    0    0  501 -0.00000000000E+00 -0.00000000000E+00 -0.17567875649E+04  0.17567875649E+04  0.00000000000E+00 0. -1.
         23    2    1    2    0    0 -0.72563596665E+03 -0.20023499381E+03  0.10865790019E+04  0.13250655436E+04  0.92212573844E+02 0.  0.
         11    1    3    3    0    0 -0.54918439320E+03 -0.18314209712E+03  0.87285145742E+03  0.10473844529E+04  0.00000000000E+00 0. -1.
        -11    1    3    3    0    0 -0.17645157344E+03 -0.17092896690E+02  0.21372754446E+03  0.27768109073E+03  0.00000000000E+00 0.  1.
         22    1    1    2    0    0  0.72563596665E+03  0.20023499381E+03 -0.15510364647E+04  0.17240521233E+04  0.00000000000E+00 0. -1.
<mgrwt>
<rscale>  0 0.30135358E+04</rscale>
<asrwt>0</asrwt>
<pdfrwt beam="1">  1        1 0.19882001E+00 0.30135358E+04</pdfrwt>
<pdfrwt beam="2">  1       -1 0.27027501E+00 0.30135358E+04</pdfrwt>
<totfact> 0.40069012E-01</totfact>
</mgrwt>
</event>
<event>
 6    1  0.1838824E-004  0.3054091E+04  0.7818608E-02  0.8228451E-01
          1   -1    0    0  501    0  0.00000000000E+00  0.00000000000E+00  0.20535774662E+04  0.20535774662E+04  0.00000000000E+00 0.  1.
         -1   -1    0    0    0  501 -0.00000000000E+00 -0.00000000000E+00 -0.11355153075E+04  0.11355153075E+04  0.00000000000E+00 0. -1.
         23    2    1    2    0    0 -0.59180187185E+03 -0.66388298187E+03 -0.83503388861E+03  0.12233064627E+04  0.90703017584E+02 0.  0.
         11    1    3    3    0    0 -0.27782357711E+03 -0.24476693186E+03 -0.35100937546E+03  0.51020032594E+03  0.00000000000E+00 0.  1.
        -11    1    3    3    0    0 -0.31397829474E+03 -0.41911605001E+03 -0.48402451315E+03  0.71310613675E+03  0.00000000000E+00 0. -1.
         22    1    1    2    0    0  0.59180187185E+03  0.66388298187E+03  0.17530960473E+04  0.19657863109E+04  0.00000000000E+00 0.  1.
<mgrwt>
<rscale>  0 0.30540915E+04</rscale>
<asrwt>0</asrwt>
<pdfrwt beam="1">  1        1 0.31593499E+00 0.30540915E+04</pdfrwt>
<pdfrwt beam="2">  1       -1 0.17469466E+00 0.30540915E+04</pdfrwt>
<totfact> 0.52779473E-01</totfact>
</mgrwt>
</event>
<event>
 6    1  0.1719556E-004  0.1269823E+04  0.7818608E-02  0.9053844E-01
         -1   -1    0    0    0  501 -0.00000000000E+00  0.00000000000E+00  0.82889571984E+03  0.82889571984E+03  0.00000000000E+00 0. -1.
          1   -1    0    0  501    0  0.00000000000E+00 -0.00000000000E+00 -0.48632468315E+03  0.48632468315E+03  0.00000000000E+00 0.  1.
         23    2    1    2    0    0 -0.70940476485E+02  0.15847574251E+03 -0.45673957546E+03  0.49726895769E+03  0.92294443595E+02 0.  0.
         11    1    3    3    0    0 -0.25926845594E+02 -0.33778202581E+01 -0.93044885558E+02  0.96648650899E+02  0.00000000000E+00 0. -1.
        -11    1    3    3    0    0 -0.45013630891E+02  0.16185356277E+03 -0.36369468990E+03  0.40062030679E+03  0.00000000000E+00 0.  1.
         22    1    1    2    0    0  0.70940476485E+02 -0.15847574251E+03  0.79931061215E+03  0.81795144530E+03  0.00000000000E+00 0. -1.
<mgrwt>
<rscale>  0 0.12698227E+04</rscale>
<asrwt>0</asrwt>
<pdfrwt beam="1">  1        1 0.74819182E-01 0.12698227E+04</pdfrwt>
<pdfrwt beam="2">  1       -1 0.12752242E+00 0.12698227E+04</pdfrwt>
<totfact> 0.24148188E+01</totfact>
</mgrwt>
</event>
<event>
 6    1  0.1719556E-004  0.2162668E+04  0.7818608E-02  0.8534129E-01
         -2   -1    0    0    0  501 -0.00000000000E+00  0.00000000000E+00  0.48866840116E+03  0.48866840116E+03  0.00000000000E+00 0. -1.
          2   -1    0    0  501    0  0.00000000000E+00 -0.00000000000E+00 -0.23927949730E+04  0.23927949730E+04  0.00000000000E+00 0.  1.
         23    2    1    2    0    0  0.49161809826E+03 -0.87758715214E+03 -0.14753705606E+04  0.17879921668E+04  0.91379064532E+02 0.  0.
         13    1    3    3    0    0  0.39469835784E+03 -0.64630074433E+03 -0.10584423597E+04  0.13014575193E+04  0.00000000000E+00 0. -1.
        -13    1    3    3    0    0  0.96919740419E+02 -0.23128640782E+03 -0.41692820086E+03  0.48653464748E+03  0.00000000000E+00 0.  1.
         22    1    1    2    0    0 -0.49161809826E+03  0.87758715214E+03 -0.42875601129E+03  0.10934712074E+04  0.00000000000E+00 0. -1.
<mgrwt>
<rscale>  0 0.21626681E+04</rscale>
<asrwt>0</asrwt>
<pdfrwt beam="1">  1        2 0.36812230E+00 0.21626681E+04</pdfrwt>
<pdfrwt beam="2">  1       -2 0.75179756E-01 0.21626681E+04</pdfrwt>
<totfact> 0.58448934E+00</totfact>
</mgrwt>
</event>
<event>
 6    1  0.1719556E-004  0.3294275E+04  0.7818608E-02  0.8164354E-01
         -1   -1    0    0    0  501 -0.00000000000E+00  0.00000000000E+00  0.10221319214E+04  0.10221319214E+04  0.00000000000E+00 0. -1.
          1   -1    0    0  501    0  0.00000000000E+00 -0.00000000000E+00 -0.26543163037E+04  0.26543163037E+04  0.00000000000E+00 0.  1.
         23    2    1    2    0    0 -0.12543908048E+04 -0.10650972593E+04 -0.87173845975E+03  0.18636585339E+04  0.73257940873E+02 0.  0.
         13    1    3    3    0    0 -0.41397779282E+03 -0.31829827756E+03 -0.30245855670E+03  0.60346713660E+03  0.00000000000E+00 0.  1.
        -13    1    3    3    0    0 -0.84041301201E+03 -0.74679898177E+03 -0.56927990305E+03  0.12601913973E+04  0.00000000000E+00 0. -1.
         22    1    1    2    0    0  0.12543908048E+04  0.10650972593E+04 -0.76044592263E+03  0.18127896911E+04  0.00000000000E+00 0.  1.
<mgrwt>
<rscale>  0 0.32942747E+04</rscale>
<asrwt>0</asrwt>
<pdfrwt beam="1">  1        1 0.40835634E+00 0.32942747E+04</pdfrwt>
<pdfrwt beam="2">  1       -1 0.15725107E+00 0.32942747E+04</pdfrwt>
<totfact> 0.26891592E-01</totfact>
</mgrwt>
</event>
<event>
 6    1  0.1719556E-004  0.4973021E+04  0.7818608E-02  0.7832682E-01
          1   -1    0    0  501    0  0.00000000000E+00  0.00000000000E+00  0.25508907816E+04  0.25508907816E+04  0.00000000000E+00 0.  1.
         -1   -1    0    0    0  501 -0.00000000000E+00 -0.00000000000E+00 -0.24237555217E+04  0.24237555217E+04  0.00000000000E+00 0. -1.
         23    2    1    2    0    0  0.16686823671E+04 -0.54407600980E+03 -0.16970718563E+04  0.24431939240E+04  0.92866130381E+02 0.  0.
         13    1    3    3    0    0  0.53449698876E+03 -0.21581957274E+03 -0.58250469344E+03  0.81949791754E+03  0.00000000000E+00 0. -1.
        -13    1    3    3    0    0  0.11341853783E+04 -0.32825643706E+03 -0.11145671628E+04  0.16236960064E+04  0.00000000000E+00 0.  1.
         22    1    1    2    0    0 -0.16686823671E+04  0.54407600980E+03  0.18242071162E+04  0.25314523794E+04  0.00000000000E+00 0.  1.
<mgrwt>
<rscale>  0 0.49730215E+04</rscale>
<asrwt>0</asrwt>
<pdfrwt beam="1">  1        1 0.39244474E+00 0.49730215E+04</pdfrwt>
<pdfrwt beam="2">  1       -1 0.37288547E+00 0.49730215E+04</pdfrwt>
<totfact> 0.98736943E-03</totfact>
</mgrwt>
</event>
<event>
 6    1  0.1719556E-004  0.4232403E+03  0.7818608E-02  0.1036017E+00
          2   -1    0    0  501    0  0.00000000000E+00  0.00000000000E+00  0.37051209314E+03  0.37051209314E+03  0.00000000000E+00 0. -1.
         -2   -1    0    0    0  501 -0.00000000000E+00 -0.00000000000E+00 -0.12086809744E+03  0.12086809744E+03  0.00000000000E+00 0.  1.
         23    2    1    2    0    0 -0.86650451257E+02  0.18240256459E+03  0.14838025817E+03  0.26547458904E+03  0.87641657557E+02 0.  0.
         13    1    3    3    0    0 -0.46497626644E+02  0.24878998381E+02  0.61982973556E+02  0.81381096422E+02  0.00000000000E+00 0.  1.
        -13    1    3    3    0    0 -0.40152824612E+02  0.15752356621E+03  0.86397284610E+02  0.18409349262E+03  0.00000000000E+00 0. -1.
         22    1    1    2    0    0  0.86650451257E+02 -0.18240256459E+03  0.10126373753E+03  0.22590560154E+03  0.00000000000E+00 0. -1.
<mgrwt>
<rscale>  0 0.42324032E+03</rscale>
<asrwt>0</asrwt>
<pdfrwt beam="1">  1        2 0.57001860E-01 0.42324032E+03</pdfrwt>
<pdfrwt beam="2">  1       -2 0.18595092E-01 0.42324032E+03</pdfrwt>
<totfact> 0.20823284E+03</totfact>
</mgrwt>
</event>
<event>
 6    1  0.1719556E-004  0.1537509E+04  0.7818608E-02  0.8859886E-01
          3   -1    0    0  501    0  0.00000000000E+00  0.00000000000E+00  0.16898738032E+04  0.16898738032E+04  0.00000000000E+00 0.  1.
         -3   -1    0    0    0  501 -0.00000000000E+00 -0.00000000000E+00 -0.34972038561E+03  0.34972038561E+03  0.00000000000E+00 0. -1.
         23    2    1    2    0    0  0.19220578099E+03 -0.18686012371E+03 -0.27977135304E+03  0.39763924711E+03  0.89359905872E+02 0.  0.
         11    1    3    3    0    0  0.30174497494E+02 -0.83750859716E+02 -0.70152068899E+02  0.11334028222E+03  0.00000000000E+00 0.  1.
        -11    1    3    3    0    0  0.16203128350E+03 -0.10310926400E+03 -0.20961928414E+03  0.28429896489E+03  0.00000000000E+00 0. -1.
         22    1    1    2    0    0 -0.19220578099E+03  0.18686012371E+03  0.16199247707E+04  0.16419549417E+04  0.00000000000E+00 0.  1.
<mgrwt>
<rscale>  0 0.15375088E+04</rscale>
<asrwt>0</asrwt>
<pdfrwt beam="1">  1        3 0.25998058E+00 0.15375088E+04</pdfrwt>
<pdfrwt beam="2">  1       -3 0.53803137E-01 0.15375088E+04</pdfrwt>
<totfact> 0.55887794E-01</totfact>
</mgrwt>
</event>
<event>
 6    1  0.1722644E-004  0.3548387E+04  0.7818608E-02  0.8102418E-01
         -1   -1    0    0    0  501 -0.00000000000E+00  0.00000000000E+00  0.22848880901E+04  0.22848880901E+04  0.00000000000E+00 0. -1.
          1   -1    0    0  501    0  0.00000000000E+00 -0.00000000000E+00 -0.13776444219E+04  0.13776444219E+04  0.00000000000E+00 0.  1.
         23    2    1    2    0    0 -0.49740543370E+02 -0.54410779056E+03  0.21949161602E+04  0.22637373675E+04  0.91227790261E+02 0.  0.
         11    1    3    3    0    0 -0.57567486596E+02 -0.20937013755E+03  0.77190472472E+03  0.80186456092E+03  0.00000000000E+00 0.  1.
        -11    1    3    3    0    0  0.78269432265E+01 -0.33473765300E+03  0.14230114354E+04  0.14618728066E+04  0.00000000000E+00 0. -1.
         22    1    1    2    0    0  0.49740543370E+02  0.54410779056E+03 -0.12876724919E+04  0.13987951444E+04  0.00000000000E+00 0.  1.
<mgrwt>
<rscale>  0 0.35483874E+04</rscale>
<asrwt>0</asrwt>
<pdfrwt beam="1">  1        1 0.21194530E+00 0.35483874E+04</pdfrwt>
<pdfrwt beam="2">  1       -1 0.35152125E+00 0.35483874E+04</pdfrwt>
<totfact> 0.98222227E-02</totfact>
</mgrwt>
</event>
<event>
 6    1  0.1719556E-004  0.1703676E+04  0.7818608E-02  0.8759271E-01
         -2   -1    0    0    0  501 -0.00000000000E+00  0.00000000000E+00  0.13834826070E+04  0.13834826070E+04  0.00000000000E+00 0. -1.
          2   -1    0    0  501    0  0.00000000000E+00 -0.00000000000E+00 -0.52449346776E+03  0.52449346776E+03  0.00000000000E+00 0.  1.
         23    2    1    2    0    0  0.44656379781E+03 -0.37200592823E+03 -0.26257459550E+03  0.64476079334E+03  0.94675373099E+02 0.  0.
         13    1    3    3    0    0  0.40482106052E+03 -0.29612078364E+03 -0.21254748969E+03  0.54474218207E+03  0.00000000000E+00 0. -1.
        -13    1    3    3    0    0  0.41742737287E+02 -0.75885144586E+02 -0.50027105810E+02  0.10001861127E+03  0.00000000000E+00 0.  1.
         22    1    1    2    0    0 -0.44656379781E+03  0.37200592823E+03  0.11215637348E+04  0.12632152815E+04  0.00000000000E+00 0. -1.
<mgrwt>
<rscale>  0 0.17036755E+04</rscale>
<asrwt>0</asrwt>
<pdfrwt beam="1">  1        2 0.80691303E-01 0.17036755E+04</pdfrwt>
<pdfrwt beam="2">  1       -2 0.21284348E+00 0.17036755E+04</pdfrwt>
<totfact> 0.60763356E+00</totfact>
</mgrwt>
</event>
<event>
 6    1  0.1719556E-004  0.9996997E+03  0.7818608E-02  0.9308874E-01
          1   -1    0    0  501    0  0.00000000000E+00  0.00000000000E+00  0.23774705491E+03  0.23774705491E+03  0.00000000000E+00 0. -1.
         -1   -1    0    0    0  501 -0.00000000000E+00 -0.00000000000E+00 -0.10509063478E+04  0.10509063478E+04  0.00000000000E+00 0.  1.
         23    2    1    2    0    0 -0.14668180691E+03 -0.26962093866E+03  0.91900695653E+02  0.33296276976E+03  0.90595061375E+02 0.  0.
         13    1    3    3    0    0 -0.26133578540E+02 -0.17533154660E+01  0.53376289967E+01  0.26730662650E+02  0.00000000000E+00 0.  1.
        -13    1    3    3    0    0 -0.12054822837E+03 -0.26786762319E+03  0.86563066656E+02  0.30623210711E+03  0.00000000000E+00 0. -1.
         22    1    1    2    0    0  0.14668180691E+03  0.26962093866E+03 -0.90505998855E+03  0.95569063295E+03  0.00000000000E+00 0.  1.
<mgrwt>
<rscale>  0 0.99969973E+03</rscale>
<asrwt>0</asrwt>
<pdfrwt beam="1">  1        1 0.36576470E-01 0.99969973E+03</pdfrwt>
<pdfrwt beam="2">  1       -1 0.16167790E+00 0.99969973E+03</pdfrwt>
<totfact> 0.33805743E+01</totfact>
</mgrwt>
</event>
<event>
 6    1  0.1719556E-004  0.1081620E+04  0.7818608E-02  0.9223294E-01
         -1   -1    0    0    0  501 -0.00000000000E+00  0.00000000000E+00  0.49511746626E+03  0.49511746626E+03  0.00000000000E+00 0. -1.
          1   -1    0    0  501    0  0.00000000000E+00 -0.00000000000E+00 -0.59071919377E+03  0.59071919377E+03  0.00000000000E+00 0.  1.
         23    2    1    2    0    0  0.45897711410E+03 -0.27559744930E+03 -0.89004103974E+02  0.55043263131E+03  0.91871680943E+02 0.  0.
         13    1    3    3    0    0  0.22902623056E+03 -0.18494595167E+03 -0.27084659336E+02  0.29562069971E+03  0.00000000000E+00 0. -1.
        -13    1    3    3    0    0  0.22995088354E+03 -0.90651497630E+02 -0.61919444638E+02  0.25481193160E+03  0.00000000000E+00 0.  1.
         22    1    1    2    0    0 -0.45897711410E+03  0.27559744930E+03 -0.65976235423E+01  0.53540402872E+03  0.00000000000E+00 0. -1.
<mgrwt>
<rscale>  0 0.10816199E+04</rscale>
<asrwt>0</asrwt>
<pdfrwt beam="1">  1        1 0.90879876E-01 0.10816199E+04</pdfrwt>
<pdfrwt beam="2">  1       -1 0.76171918E-01 0.10816199E+04</pdfrwt>
<totfact> 0.60511846E+01</totfact>
</mgrwt>
</event>
<event>
 6    1  0.1719556E-004  0.3743782E+04  0.7818608E-02  0.8058328E-01
         -3   -1    0    0    0  501 -0.00000000000E+00  0.00000000000E+00  0.17865792302E+04  0.17865792302E+04  0.00000000000E+00 0. -1.
          3   -1    0    0  501    0  0.00000000000E+00 -0.00000000000E+00 -0.19612768457E+04  0.19612768457E+04  0.00000000000E+00 0.  1.
         23    2    1    2    0    0  0.10549304353E+04  0.11382763044E+04 -0.11331891709E+04  0.19237789859E+04  0.90866500036E+02 0.  0.
         11    1    3    3    0    0  0.32094182855E+03  0.33352032461E+03 -0.28836740062E+03  0.54533954741E+03  0.00000000000E+00 0. -1.
        -11    1    3    3    0    0  0.73398860678E+03  0.80475597979E+03 -0.84482177030E+03  0.13784394384E+04  0.00000000000E+00 0.  1.
         22    1    1    2    0    0 -0.10549304353E+04 -0.11382763044E+04  0.95849155543E+03  0.18240770900E+04  0.00000000000E+00 0. -1.
<mgrwt>
<rscale>  0 0.37437823E+04</rscale>
<asrwt>0</asrwt>
<pdfrwt beam="1">  1        3 0.30173490E+00 0.37437823E+04</pdfrwt>
<pdfrwt beam="2">  1       -3 0.27485834E+00 0.37437823E+04</pdfrwt>
<totfact> 0.41374106E-03</totfact>
</mgrwt>
</event>
<event>
 6    1  0.1719556E-004  0.2295778E+04  0.7818608E-02  0.8479588E-01
         -2   -1    0    0    0  501 -0.00000000000E+00  0.00000000000E+00  0.48199514918E+03  0.48199514918E+03  0.00000000000E+00 0. -1.
          2   -1    0    0  501    0  0.00000000000E+00 -0.00000000000E+00 -0.27337384863E+04  0.27337384863E+04  0.00000000000E+00 0.  1.
         23    2    1    2    0    0 -0.18008323278E+03 -0.10798557669E+04 -0.16026170427E+04  0.19429872373E+04  0.91101979713E+02 0.  0.
         11    1    3    3    0    0 -0.89749496814E+02 -0.32618515734E+03 -0.45313421658E+03  0.56549301259E+03  0.00000000000E+00 0. -1.
        -11    1    3    3    0    0 -0.90333735964E+02 -0.75367060956E+03 -0.11494828261E+04  0.13774942247E+04  0.00000000000E+00 0.  1.
         22    1    1    2    0    0  0.18008323278E+03  0.10798557669E+04 -0.64912629447E+03  0.12727463982E+04  0.00000000000E+00 0. -1.
<mgrwt>
<rscale>  0 0.22957776E+04</rscale>
<asrwt>0</asrwt>
<pdfrwt beam="1">  1        2 0.42057515E+00 0.22957776E+04</pdfrwt>
<pdfrwt beam="2">  1       -2 0.74153100E-01 0.22957776E+04</pdfrwt>
<totfact> 0.37657588E+00</totfact>
</mgrwt>
</event>
<event>
 6    1  0.1719556E-004  0.3528021E+04  0.7818608E-02  0.8107181E-01
          2   -1    0    0  501    0  0.00000000000E+00  0.00000000000E+00  0.24863573079E+04  0.24863573079E+04  0.00000000000E+00 0.  1.
         -2   -1    0    0    0  501 -0.00000000000E+00 -0.00000000000E+00 -0.12515232039E+04  0.12515232039E+04  0.00000000000E+00 0. -1.
         23    2    1    2    0    0 -0.94976543684E+03 -0.50026345992E+03  0.20992631663E+04  0.23596368765E+04  0.93072194769E+02 0.  0.
         11    1    3    3    0    0 -0.60204049509E+02 -0.55669955001E+02  0.13436776021E+03  0.15741145591E+03  0.00000000000E+00 0. -1.
        -11    1    3    3    0    0 -0.88956138733E+03 -0.44459350492E+03  0.19648954061E+04  0.22022254206E+04  0.00000000000E+00 0.  1.
         22    1    1    2    0    0  0.94976543684E+03  0.50026345992E+03 -0.86442906234E+03  0.13782436353E+04  0.00000000000E+00 0. -1.
<mgrwt>
<rscale>  0 0.35280215E+04</rscale>
<asrwt>0</asrwt>
<pdfrwt beam="1">  1        2 0.38251651E+00 0.35280215E+04</pdfrwt>
<pdfrwt beam="2">  1       -2 0.19254203E+00 0.35280215E+04</pdfrwt>
<totfact> 0.43312693E-01</totfact>
</mgrwt>
</event>
<event>
 6    1  0.1719556E-004  0.1475638E+04  0.7818608E-02  0.8900817E-01
          2   -1    0    0  501    0  0.00000000000E+00  0.00000000000E+00  0.81637451734E+03  0.81637451734E+03  0.00000000000E+00 0.  1.
         -2   -1    0    0    0  501 -0.00000000000E+00 -0.00000000000E+00 -0.66682209408E+03  0.66682209408E+03  0.00000000000E+00 0. -1.
         23    2    1    2    0    0 -0.20895920474E+03  0.66221842228E+03 -0.16706214382E+03  0.72001775155E+03  0.91206439496E+02 0.  0.
         11    1    3    3    0    0 -0.10785078379E+03  0.47482866743E+03 -0.10343977646E+03  0.49778895360E+03  0.00000000000E+00 0.  1.
        -11    1    3    3    0    0 -0.10110842095E+03  0.18738975485E+03 -0.63622367369E+02  0.22222879795E+03  0.00000000000E+00 0. -1.
         22    1    1    2    0    0  0.20895920474E+03 -0.66221842228E+03  0.31661456709E+03  0.76317885987E+03  0.00000000000E+00 0.  1.
<mgrwt>
<rscale>  0 0.14756376E+04</rscale>
<asrwt>0</asrwt>
<pdfrwt beam="1">  1        2 0.12559608E+00 0.14756376E+04</pdfrwt>
<pdfrwt beam="2">  1       -2 0.10258801E+00 0.14756376E+04</pdfrwt>
<totfact> 0.25224515E+01</totfact>
</mgrwt>
</event>
<event>
 6    1  0.1719556E-004  0.7564252E+03  0.7818608E-02  0.9625324E-01
         -2   -1    0    0    0  501 -0.00000000000E+00  0.00000000000E+00  0.51444028017E+03  0.51444028017E+03  0.00000000000E+00 0. -1.
          2   -1    0    0  501    0  0.00000000000E+00 -0.00000000000E+00 -0.27805900923E+03  0.27805900923E+03  0.00000000000E+00 0.  1.
         23    2    1    2    0    0 -0.34156355239E+03  0.71330495640E+02 -0.16570271191E+02  0.36152576052E+03  0.93126804422E+02 0.  0.
         13    1    3    3    0    0 -0.19779888544E+03  0.18529381565E+02  0.31187714865E+02  0.20109801247E+03  0.00000000000E+00 0. -1.
        -13    1    3    3    0    0 -0.14376466696E+03  0.52801114075E+02 -0.47757986056E+02  0.16042774805E+03  0.00000000000E+00 0.  1.
         22    1    1    2    0    0  0.34156355239E+03 -0.71330495640E+02  0.25295154213E+03  0.43097352888E+03  0.00000000000E+00 0. -1.
<mgrwt>
<rscale>  0 0.75642516E+03</rscale>
<asrwt>0</asrwt>
<pdfrwt beam="1">  1        2 0.42778309E-01 0.75642516E+03</pdfrwt>
<pdfrwt beam="2">  1       -2 0.79144659E-01 0.75642516E+03</pdfrwt>
<totfact> 0.17071234E+02</totfact>
</mgrwt>
</event>
<event>
 6    1  0.1719556E-004  0.2325455E+04  0.7818608E-02  0.8467951E-01
          2   -1    0    0  501    0  0.00000000000E+00  0.00000000000E+00  0.27644548265E+04  0.27644548265E+04  0.00000000000E+00 0.  1.
         -2   -1    0    0    0  501 -0.00000000000E+00 -0.00000000000E+00 -0.48904247037E+03  0.48904247037E+03  0.00000000000E+00 0. -1.
         23    2    1    2    0    0  0.52100456799E+02 -0.10464772557E+04  0.43950773604E+03  0.11396442087E+04  0.88276656797E+02 0.  0.
         11    1    3    3    0    0  0.39002630930E+02 -0.22268735914E+03  0.12014369488E+03  0.25601830513E+03  0.00000000000E+00 0.  1.
        -11    1    3    3    0    0  0.13097825869E+02 -0.82378989654E+03  0.31936404115E+03  0.88362590358E+03  0.00000000000E+00 0. -1.
         22    1    1    2    0    0 -0.52100456799E+02  0.10464772557E+04  0.18359046201E+04  0.21138530882E+04  0.00000000000E+00 0.  1.
<mgrwt>
<rscale>  0 0.23254555E+04</rscale>
<asrwt>0</asrwt>
<pdfrwt beam="1">  1        2 0.42530073E+00 0.23254555E+04</pdfrwt>
<pdfrwt beam="2">  1       -2 0.75237305E-01 0.23254555E+04</pdfrwt>
<totfact> 0.34862894E+00</totfact>
</mgrwt>
</event>
<event>
 6    1  0.1719556E-004  0.2679305E+04  0.7818608E-02  0.8341751E-01
         -1   -1    0    0    0  501 -0.00000000000E+00  0.00000000000E+00  0.42941551099E+03  0.42941551099E+03  0.00000000000E+00 0.  1.
          1   -1    0    0  501    0  0.00000000000E+00 -0.00000000000E+00 -0.41793278775E+04  0.41793278775E+04  0.00000000000E+00 0. -1.
         23    2    1    2    0    0 -0.80178073193E+03 -0.75321185993E+03 -0.31876137366E+04  0.33732838799E+04  0.89344015779E+02 0.  0.
         13    1    3    3    0    0 -0.51355264414E+03 -0.42645587387E+03 -0.19759677821E+04  0.20856772536E+04  0.00000000000E+00 0.  1.
        -13    1    3    3    0    0 -0.28822808779E+03 -0.32675598606E+03 -0.12116459545E+04  0.12876066263E+04  0.00000000000E+00 0. -1.
         22    1    1    2    0    0  0.80178073193E+03  0.75321185993E+03 -0.56229862997E+03  0.12354595086E+04  0.00000000000E+00 0.  1.
<mgrwt>
<rscale>  0 0.26793045E+04</rscale>
<asrwt>0</asrwt>
<pdfrwt beam="1">  1        1 0.64297354E+00 0.26793045E+04</pdfrwt>
<pdfrwt beam="2">  1       -1 0.66063922E-01 0.26793045E+04</pdfrwt>
<totfact> 0.13448475E-01</totfact>
</mgrwt>
</event>
<event>
 6    1  0.2617883E-004  0.4494676E+04  0.7818608E-02  0.7911570E-01
         -2   -1    0    0    0  501 -0.00000000000E+00  0.00000000000E+00  0.17169223983E+04  0.17169223983E+04  0.00000000000E+00 0. -1.
          2   -1    0    0  501    0  0.00000000000E+00 -0.00000000000E+00 -0.29416168386E+04  0.29416168386E+04  0.00000000000E+00 0.  1.
         23    2    1    2    0    0  0.13216860044E+04  0.20743331280E+03 -0.24829541633E+04  0.28219391160E+04  0.91632546696E+02 0.  0.
         13    1    3    3    0    0  0.46749324979E+03  0.92440481063E+02 -0.80200169147E+03  0.93289972358E+03  0.00000000000E+00 0.  1.
        -13    1    3    3    0    0  0.85419275461E+03  0.11499283173E+03 -0.16809524719E+04  0.18890393924E+04  0.00000000000E+00 0. -1.
         22    1    1    2    0    0 -0.13216860044E+04 -0.20743331280E+03  0.12582597231E+04  0.18366001209E+04  0.00000000000E+00 0. -1.
<mgrwt>
<rscale>  0 0.44946759E+04</rscale>
<asrwt>0</asrwt>
<pdfrwt beam="1">  1        2 0.45255644E+00 0.44946759E+04</pdfrwt>
<pdfrwt beam="2">  1       -2 0.26414191E+00 0.44946759E+04</pdfrwt>
<totfact> 0.75511593E-02</totfact>
</mgrwt>
</event>
<event>
 6    1  0.1719556E-004  0.4121240E+04  0.7818608E-02  0.7980525E-01
         -2   -1    0    0    0  501 -0.00000000000E+00  0.00000000000E+00  0.20027170892E+04  0.20027170892E+04  0.00000000000E+00 0. -1.
          2   -1    0    0  501    0  0.00000000000E+00 -0.00000000000E+00 -0.21201971440E+04  0.21201971440E+04  0.00000000000E+00 0.  1.
         23    2    1    2    0    0 -0.89046835389E+03 -0.14311051334E+04  0.11248284816E+04  0.20290359436E+04  0.10369163710E+03 0.  0.
         11    1    3    3    0    0 -0.49864892025E+03 -0.88785102821E+03  0.65191620851E+03  0.12091008795E+04  0.00000000000E+00 0.  1.
        -11    1    3    3    0    0 -0.39181943364E+03 -0.54325410516E+03  0.47291227306E+03  0.81993506411E+03  0.00000000000E+00 0. -1.
         22    1    1    2    0    0  0.89046835389E+03  0.14311051334E+04 -0.12423085364E+04  0.20938782896E+04  0.00000000000E+00 0.  1.
<mgrwt>
<rscale>  0 0.41212401E+04</rscale>
<asrwt>0</asrwt>
<pdfrwt beam="1">  1        2 0.32618418E+00 0.41212401E+04</pdfrwt>
<pdfrwt beam="2">  1       -2 0.30811032E+00 0.41212401E+04</pdfrwt>
<totfact> 0.12676328E-01</totfact>
</mgrwt>
</event>
<event>
 6    1  0.1719556E-004  0.2621036E+04  0.7818608E-02  0.8361091E-01
         -2   -1    0    0    0  501 -0.00000000000E+00  0.00000000000E+00  0.21821068861E+04  0.21821068861E+04  0.00000000000E+00 0. -1.
          2   -1    0    0  501    0  0.00000000000E+00 -0.00000000000E+00 -0.78706357174E+03  0.78706357174E+03  0.00000000000E+00 0.  1.
         23    2    1    2    0    0 -0.26268865481E+03  0.31796769824E+03 -0.70916911998E+03  0.82491796448E+03  0.86371412440E+02 0.  0.
         13    1    3    3    0    0 -0.10069939051E+03  0.15294960987E+03 -0.24025013372E+03  0.30208289783E+03  0.00000000000E+00 0.  1.
        -13    1    3    3    0    0 -0.16198926430E+03  0.16501808837E+03 -0.46891898626E+03  0.52283506665E+03  0.00000000000E+00 0. -1.
         22    1    1    2    0    0  0.26268865481E+03 -0.31796769824E+03  0.21042124343E+04  0.21442524934E+04  0.00000000000E+00 0. -1.
<mgrwt>
<rscale>  0 0.26210356E+04</rscale>
<asrwt>0</asrwt>
<pdfrwt beam="1">  1        2 0.12108670E+00 0.26210356E+04</pdfrwt>
<pdfrwt beam="2">  1       -2 0.33570875E+00 0.26210356E+04</pdfrwt>
<totfact> 0.59463606E-01</totfact>
</mgrwt>
</event>
<event>
 6    1  0.1719556E-004  0.9847405E+03  0.7818608E-02  0.9325441E-01
         -1   -1    0    0    0  501 -0.00000000000E+00  0.00000000000E+00  0.36126289604E+03  0.36126289604E+03  0.00000000000E+00 0. -1.
          1   -1    0    0  501    0  0.00000000000E+00 -0.00000000000E+00 -0.67105828030E+03  0.67105828030E+03  0.00000000000E+00 0.  1.
         23    2    1    2    0    0  0.31792174217E+03  0.36059833151E+03 -0.66756712560E+02  0.49364391974E+03  0.90124746875E+02 0.  0.
         13    1    3    3    0    0  0.28326875435E+03  0.31028823415E+03 -0.87444907456E+02  0.42914634717E+03  0.00000000000E+00 0. -1.
        -13    1    3    3    0    0  0.34652987815E+02  0.50310097353E+02  0.20688194896E+02  0.64497572576E+02  0.00000000000E+00 0.  1.
         22    1    1    2    0    0 -0.31792174217E+03 -0.36059833151E+03 -0.24303867171E+03  0.53867725660E+03  0.00000000000E+00 0.  1.
<mgrwt>
<rscale>  0 0.98474049E+03</rscale>
<asrwt>0</asrwt>
<pdfrwt beam="1">  1        1 0.10323973E+00 0.98474049E+03</pdfrwt>
<pdfrwt beam="2">  1       -1 0.55578908E-01 0.98474049E+03</pdfrwt>
<totfact> 0.95397707E+01</totfact>
</mgrwt>
</event>
<event>
 6    1  0.1719556E-004  0.1778535E+04  0.7818608E-02  0.8717799E-01
          2   -1    0    0  501    0  0.00000000000E+00  0.00000000000E+00  0.12416022577E+04  0.12416022577E+04  0.00000000000E+00 0.  1.
         -2   -1    0    0    0  501 -0.00000000000E+00 -0.00000000000E+00 -0.63691599810E+03  0.63691599810E+03  0.00000000000E+00 0. -1.
         23    2    1    2    0    0  0.34323213211E+03 -0.52236759173E+03  0.96798114078E+03  0.11555664123E+04  0.87578803969E+02 0.  0.
         13    1    3    3    0    0  0.21309960526E+03 -0.24469582893E+03  0.50142417868E+03  0.59725513596E+03  0.00000000000E+00 0. -1.
        -13    1    3    3    0    0  0.13013252685E+03 -0.27767176280E+03  0.46655696209E+03  0.55831127633E+03  0.00000000000E+00 0.  1.
         22    1    1    2    0    0 -0.34323213211E+03  0.52236759173E+03 -0.36329488115E+03  0.72295184354E+03  0.00000000000E+00 0. -1.
<mgrwt>
<rscale>  0 0.17785346E+04</rscale>
<asrwt>0</asrwt>
<pdfrwt beam="1">  1        2 0.19101573E+00 0.17785346E+04</pdfrwt>
<pdfrwt beam="2">  1       -2 0.97987076E-01 0.17785346E+04</pdfrwt>
<totfact> 0.14665802E+01</totfact>
</mgrwt>
</event>
<event>
 6    1  0.1719556E-004  0.5374290E+04  0.7818608E-02  0.7773228E-01
          1   -1    0    0  501    0  0.00000000000E+00  0.00000000000E+00  0.19927337231E+04  0.19927337231E+04  0.00000000000E+00 0.  1.
         -1   -1    0    0    0  501 -0.00000000000E+00 -0.00000000000E+00 -0.36235386377E+04  0.36235386377E+04  0.00000000000E+00 0. -1.
         23    2    1    2    0    0 -0.13828790480E+04  0.21017405235E+04 -0.17998405180E+04  0.30947171414E+04  0.90446697052E+02 0.  0.
         11    1    3    3    0    0 -0.51080142155E+03  0.71617423146E+03 -0.59518144651E+03  0.10621038444E+04  0.00000000000E+00 0.  1.
        -11    1    3    3    0    0 -0.87207762644E+03  0.13855662921E+04 -0.12046590715E+04  0.20326132969E+04  0.00000000000E+00 0. -1.
         22    1    1    2    0    0  0.13828790480E+04 -0.21017405235E+04  0.16903560339E+03  0.25215552195E+04  0.00000000000E+00 0. -1.
<mgrwt>
<rscale>  0 0.53742898E+04</rscale>
<asrwt>0</asrwt>
<pdfrwt beam="1">  1        1 0.30657442E+00 0.53742898E+04</pdfrwt>
<pdfrwt beam="2">  1       -1 0.55746748E+00 0.53742898E+04</pdfrwt>
<totfact> 0.14696852E-03</totfact>
</mgrwt>
</event>
<event>
 6    1  0.1719556E-004  0.2227599E+04  0.7818608E-02  0.8507028E-01
          1   -1    0    0  501    0  0.00000000000E+00  0.00000000000E+00  0.20570948905E+04  0.20570948905E+04  0.00000000000E+00 0.  1.
         -1   -1    0    0    0  501 -0.00000000000E+00 -0.00000000000E+00 -0.60305865963E+03  0.60305865963E+03  0.00000000000E+00 0. -1.
         23    2    1    2    0    0  0.12211057764E+03  0.77260190280E+02  0.20448486848E+04  0.20519270414E+04  0.90101659472E+02 0.  0.
         13    1    3    3    0    0  0.35821914399E+02 -0.15953286856E+02  0.69843940628E+03  0.69953936356E+03  0.00000000000E+00 0.  1.
        -13    1    3    3    0    0  0.86288663238E+02  0.93213477136E+02  0.13464092786E+04  0.13523876778E+04  0.00000000000E+00 0. -1.
         22    1    1    2    0    0 -0.12211057764E+03 -0.77260190280E+02 -0.59081245397E+03  0.60822650875E+03  0.00000000000E+00 0. -1.
<mgrwt>
<rscale>  0 0.22275986E+04</rscale>
<asrwt>0</asrwt>
<pdfrwt beam="1">  1        1 0.31647613E+00 0.22275986E+04</pdfrwt>
<pdfrwt beam="2">  1       -1 0.92778256E-01 0.22275986E+04</pdfrwt>
<totfact> 0.27983358E+00</totfact>
</mgrwt>
</event>
<event>
 6    1  0.1719556E-004  0.3379531E+04  0.7818608E-02  0.8142948E-01
         -2   -1    0    0    0  501 -0.00000000000E+00  0.00000000000E+00  0.12333228184E+04  0.12333228184E+04  0.00000000000E+00 0. -1.
          2   -1    0    0  501    0  0.00000000000E+00 -0.00000000000E+00 -0.23151344585E+04  0.23151344585E+04  0.00000000000E+00 0.  1.
         23    2    1    2    0    0  0.14782954838E+04  0.26275334985E+03 -0.13524275718E+04  0.20228000930E+04  0.90901150555E+02 0.  0.
         11    1    3    3    0    0  0.12512125123E+04  0.25538391616E+03 -0.11470132930E+04  0.17165060995E+04  0.00000000000E+00 0.  1.
        -11    1    3    3    0    0  0.22708297150E+03  0.73694336894E+01 -0.20541427887E+03  0.30629399351E+03  0.00000000000E+00 0. -1.
         22    1    1    2    0    0 -0.14782954838E+04 -0.26275334985E+03  0.27061593174E+03  0.15256571839E+04  0.00000000000E+00 0. -1.
<mgrwt>
<rscale>  0 0.33795314E+04</rscale>
<asrwt>0</asrwt>
<pdfrwt beam="1">  1        2 0.35617453E+00 0.33795314E+04</pdfrwt>
<pdfrwt beam="2">  1       -2 0.18974197E+00 0.33795314E+04</pdfrwt>
<totfact> 0.57396180E-01</totfact>
</mgrwt>
</event>
<event>
 6    1  0.1719556E-004  0.9700355E+03  0.7818608E-02  0.9342034E-01
         -2   -1    0    0    0  501 -0.00000000000E+00  0.00000000000E+00  0.58750727644E+03  0.58750727644E+03  0.00000000000E+00 0. -1.
          2   -1    0    0  501    0  0.00000000000E+00 -0.00000000000E+00 -0.40040731627E+03  0.40040731627E+03  0.00000000000E+00 0.  1.
         23    2    1    2    0    0  0.42722269809E+03 -0.17412193072E+03  0.23187533429E+03  0.52440351986E+03  0.91625326535E+02 0.  0.
         11    1    3    3    0    0  0.21493130317E+03 -0.11294150186E+03  0.16505327511E+03  0.29358786002E+03  0.00000000000E+00 0. -1.
        -11    1    3    3    0    0  0.21229139493E+03 -0.61180428860E+02  0.66822059180E+02  0.23081565984E+03  0.00000000000E+00 0.  1.
         22    1    1    2    0    0 -0.42722269809E+03  0.17412193072E+03 -0.44775374125E+02  0.46351107285E+03  0.00000000000E+00 0. -1.
<mgrwt>
<rscale>  0 0.97003549E+03</rscale>
<asrwt>0</asrwt>
<pdfrwt beam="1">  1        2 0.61601126E-01 0.97003549E+03</pdfrwt>
<pdfrwt beam="2">  1       -2 0.90385735E-01 0.97003549E+03</pdfrwt>
<totfact> 0.83151573E+01</totfact>
</mgrwt>
</event>
<event>
 6    1  0.1719556E-004  0.3804485E+04  0.7818608E-02  0.8045193E-01
          1   -1    0    0  501    0  0.00000000000E+00  0.00000000000E+00  0.37291856610E+04  0.37291856610E+04  0.00000000000E+00 0.  1.
         -1   -1    0    0    0  501 -0.00000000000E+00 -0.00000000000E+00 -0.97032594113E+03  0.97032594113E+03  0.00000000000E+00 0. -1.
         23    2    1    2    0    0  0.77711564252E+03 -0.93844398946E+03  0.31829796929E+04  0.34093706817E+04  0.88672860259E+02 0.  0.
         13    1    3    3    0    0  0.13653289743E+03 -0.11583643407E+03  0.46648158121E+03  0.49966426443E+03  0.00000000000E+00 0. -1.
        -13    1    3    3    0    0  0.64058274509E+03 -0.82260755539E+03  0.27164981117E+04  0.29097064172E+04  0.00000000000E+00 0.  1.
         22    1    1    2    0    0 -0.77711564252E+03  0.93844398946E+03 -0.42411997304E+03  0.12901409205E+04  0.00000000000E+00 0. -1.
<mgrwt>
<rscale>  0 0.38044845E+04</rscale>
<asrwt>0</asrwt>
<pdfrwt beam="1">  1        1 0.57372086E+00 0.38044845E+04</pdfrwt>
<pdfrwt beam="2">  1       -1 0.14928092E+00 0.38044845E+04</pdfrwt>
<totfact> 0.45790619E-02</totfact>
</mgrwt>
</event>
<event>
 6    1  0.1719556E-004  0.4003354E+04  0.7818608E-02  0.8003870E-01
         -2   -1    0    0    0  501 -0.00000000000E+00  0.00000000000E+00  0.17972616067E+04  0.17972616067E+04  0.00000000000E+00 0. -1.
          2   -1    0    0  501    0  0.00000000000E+00 -0.00000000000E+00 -0.22293418473E+04  0.22293418473E+04  0.00000000000E+00 0.  1.
         23    2    1    2    0    0 -0.14371422554E+04  0.12936950204E+04 -0.73269894664E+03  0.20697191257E+04  0.88683960186E+02 0.  0.
         11    1    3    3    0    0 -0.41724084610E+03  0.38547844609E+03 -0.17306543444E+03  0.59383095293E+03  0.00000000000E+00 0. -1.
        -11    1    3    3    0    0 -0.10199014093E+04  0.90821657431E+03 -0.55963351220E+03  0.14758881728E+04  0.00000000000E+00 0.  1.
         22    1    1    2    0    0  0.14371422554E+04 -0.12936950204E+04  0.30061870598E+03  0.19568843283E+04  0.00000000000E+00 0. -1.
<mgrwt>
<rscale>  0 0.40033538E+04</rscale>
<asrwt>0</asrwt>
<pdfrwt beam="1">  1        2 0.34297567E+00 0.40033538E+04</pdfrwt>
<pdfrwt beam="2">  1       -2 0.27650179E+00 0.40033538E+04</pdfrwt>
<totfact> 0.17342435E-01</totfact>
</mgrwt>
</event>
<event>
 6    1  0.1719556E-004  0.3340440E+04  0.7818608E-02  0.8152681E-01
         -3   -1    0    0    0  501 -0.00000000000E+00  0.00000000000E+00  0.19929811108E+04  0.19929811108E+04  0.00000000000E+00 0. -1.
          3   -1    0    0  501    0  0.00000000000E+00 -0.00000000000E+00 -0.13997294960E+04  0.13997294960E+04  0.00000000000E+00 0.  1.
         23    2    1    2    0    0 -0.27324863352E+03  0.71089474784E+03 -0.12114007303E+04  0.14339338852E+04  0.92943528987E+02 0.  0.
         11    1    3    3    0    0 -0.74382927163E+01  0.28683530258E+02 -0.89331763504E+02  0.94118208001E+02  0.00000000000E+00 0.  1.
        -11    1    3    3    0    0 -0.26581034080E+03  0.68221121758E+03 -0.11220689668E+04  0.13398156772E+04  0.00000000000E+00 0. -1.
         22    1    1    2    0    0  0.27324863352E+03 -0.71089474784E+03  0.18046523451E+04  0.19587767215E+04  0.00000000000E+00 0. -1.
<mgrwt>
<rscale>  0 0.33404398E+04</rscale>
<asrwt>0</asrwt>
<pdfrwt beam="1">  1        3 0.21534300E+00 0.33404398E+04</pdfrwt>
<pdfrwt beam="2">  1       -3 0.30661248E+00 0.33404398E+04</pdfrwt>
<totfact> 0.88909910E-03</totfact>
</mgrwt>
</event>
<event>
 6    1  0.1719556E-004  0.3096156E+04  0.7818608E-02  0.8216794E-01
         -2   -1    0    0    0  501 -0.00000000000E+00  0.00000000000E+00  0.12997537645E+04  0.12997537645E+04  0.00000000000E+00 0. -1.
          2   -1    0    0  501    0  0.00000000000E+00 -0.00000000000E+00 -0.18438454786E+04  0.18438454786E+04  0.00000000000E+00 0.  1.
         23    2    1    2    0    0 -0.14153106225E+04 -0.47118529599E+03  0.14275592498E+03  0.15013814071E+04  0.92989968662E+02 0.  0.
         13    1    3    3    0    0 -0.93410225682E+03 -0.33090971168E+03  0.13455897288E+03  0.10000771874E+04  0.00000000000E+00 0. -1.
        -13    1    3    3    0    0 -0.48120836566E+03 -0.14027558431E+03  0.81969520998E+01  0.50130421977E+03  0.00000000000E+00 0.  1.
         22    1    1    2    0    0  0.14153106225E+04  0.47118529599E+03 -0.68684763909E+03  0.16422178359E+04  0.00000000000E+00 0. -1.
<mgrwt>
<rscale>  0 0.30961557E+04</rscale>
<asrwt>0</asrwt>
<pdfrwt beam="1">  1        2 0.28366853E+00 0.30961557E+04</pdfrwt>
<pdfrwt beam="2">  1       -2 0.19996212E+00 0.30961557E+04</pdfrwt>
<totfact> 0.92216622E-01</totfact>
</mgrwt>
</event>
<event>
 6    1  0.1719556E-004  0.2385605E+04  0.7818608E-02  0.8444912E-01
         -2   -1    0    0    0  501 -0.00000000000E+00  0.00000000000E+00  0.55478084506E+03  0.55478084506E+03  0.00000000000E+00 0. -1.
          2   -1    0    0  501    0  0.00000000000E+00 -0.00000000000E+00 -0.25645772032E+04  0.25645772032E+04  0.00000000000E+00 0.  1.
         23    2    1    2    0    0 -0.31927844478E+03 -0.63035789152E+03  0.24742894239E+03  0.75411897914E+03  0.90468538520E+02 0.  0.
         11    1    3    3    0    0 -0.77717588139E+02 -0.19684802886E+03  0.35935466557E+02  0.21466375505E+03  0.00000000000E+00 0.  1.
        -11    1    3    3    0    0 -0.24156085664E+03 -0.43350986266E+03  0.21149347583E+03  0.53945522410E+03  0.00000000000E+00 0. -1.
         22    1    1    2    0    0  0.31927844478E+03  0.63035789152E+03 -0.22572253006E+04  0.23652390691E+04  0.00000000000E+00 0.  1.
<mgrwt>
<rscale>  0 0.23856054E+04</rscale>
<asrwt>0</asrwt>
<pdfrwt beam="1">  1        2 0.39455034E+00 0.23856054E+04</pdfrwt>
<pdfrwt beam="2">  1       -2 0.85350899E-01 0.23856054E+04</pdfrwt>
<totfact> 0.34303005E+00</totfact>
</mgrwt>
</event>
<event>
 6    1  0.1719556E-004  0.5137091E+04  0.7818608E-02  0.7807701E-01
          2   -1    0    0  501    0  0.00000000000E+00  0.00000000000E+00  0.31842078419E+04  0.31842078419E+04  0.00000000000E+00 0.  1.
         -2   -1    0    0    0  501 -0.00000000000E+00 -0.00000000000E+00 -0.20719204453E+04  0.20719204453E+04  0.00000000000E+00 0. -1.
         23    2    1    2    0    0  0.15352061647E+04  0.20576185047E+04  0.60874993274E+03  0.26399857344E+04  0.91084127851E+02 0.  0.
         13    1    3    3    0    0  0.12254063945E+04  0.15856725382E+04  0.49184408289E+03  0.20634652485E+04  0.00000000000E+00 0. -1.
        -13    1    3    3    0    0  0.30979977020E+03  0.47194596649E+03  0.11690584986E+03  0.57652048587E+03  0.00000000000E+00 0.  1.
         22    1    1    2    0    0 -0.15352061647E+04 -0.20576185047E+04  0.50353746385E+03  0.26161425528E+04  0.00000000000E+00 0. -1.
<mgrwt>
<rscale>  0 0.51370907E+04</rscale>
<asrwt>0</asrwt>
<pdfrwt beam="1">  1        2 0.48987813E+00 0.51370907E+04</pdfrwt>
<pdfrwt beam="2">  1       -2 0.31875699E+00 0.51370907E+04</pdfrwt>
<totfact> 0.23284826E-02</totfact>
</mgrwt>
</event>
<event>
 6    1  0.1719556E-004  0.3269663E+04  0.7818608E-02  0.8170658E-01
          2   -1    0    0  501    0  0.00000000000E+00  0.00000000000E+00  0.26187496945E+04  0.26187496945E+04  0.00000000000E+00 0.  1.
         -2   -1    0    0    0  501 -0.00000000000E+00 -0.00000000000E+00 -0.10205916286E+04  0.10205916286E+04  0.00000000000E+00 0. -1.
         23    2    1    2    0    0  0.15912334088E+04 -0.33922695044E+03  0.96238842644E+03  0.18925437619E+04  0.91824408985E+02 0.  0.
         13    1    3    3    0    0  0.10228662129E+04 -0.26187814508E+03  0.61280620401E+03  0.12208058388E+04  0.00000000000E+00 0.  1.
        -13    1    3    3    0    0  0.56836719597E+03 -0.77348805361E+02  0.34958222243E+03  0.67173792314E+03  0.00000000000E+00 0. -1.
         22    1    1    2    0    0 -0.15912334088E+04  0.33922695044E+03  0.63576963943E+03  0.17467975612E+04  0.00000000000E+00 0. -1.
<mgrwt>
<rscale>  0 0.32696630E+04</rscale>
<asrwt>0</asrwt>
<pdfrwt beam="1">  1        2 0.40288457E+00 0.32696630E+04</pdfrwt>
<pdfrwt beam="2">  1       -2 0.15701410E+00 0.32696630E+04</pdfrwt>
<totfact> 0.65839164E-01</totfact>
</mgrwt>
</event>
<event>
 6    1  0.1719556E-004  0.1562656E+04  0.7818608E-02  0.8843824E-01
          1   -1    0    0  501    0  0.00000000000E+00  0.00000000000E+00  0.10697988576E+04  0.10697988576E+04  0.00000000000E+00 0.  1.
         -1   -1    0    0    0  501 -0.00000000000E+00 -0.00000000000E+00 -0.57064330710E+03  0.57064330710E+03  0.00000000000E+00 0. -1.
         23    2    1    2    0    0 -0.22200793245E+03 -0.65072686580E+03  0.63412161607E+03  0.93976476761E+03  0.91184530080E+02 0.  0.
         13    1    3    3    0    0 -0.14046763136E+03 -0.44253461406E+03  0.36985002349E+03  0.59359673178E+03  0.00000000000E+00 0.  1.
        -13    1    3    3    0    0 -0.81540301093E+02 -0.20819225174E+03  0.26427159258E+03  0.34616803583E+03  0.00000000000E+00 0. -1.
         22    1    1    2    0    0  0.22200793245E+03  0.65072686580E+03 -0.13496606556E+03  0.70067739710E+03  0.00000000000E+00 0. -1.
<mgrwt>
<rscale>  0 0.15626561E+04</rscale>
<asrwt>0</asrwt>
<pdfrwt beam="1">  1        1 0.16458444E+00 0.15626561E+04</pdfrwt>
<pdfrwt beam="2">  1       -1 0.87791278E-01 0.15626561E+04</pdfrwt>
<totfact> 0.16415014E+01</totfact>
</mgrwt>
</event>
<event>
 6    1  0.1719556E-004  0.1550405E+04  0.7818608E-02  0.8851609E-01
          1   -1    0    0  501    0  0.00000000000E+00  0.00000000000E+00  0.17543645004E+04  0.17543645004E+04  0.00000000000E+00 0.  1.
         -1   -1    0    0    0  501 -0.00000000000E+00 -0.00000000000E+00 -0.34253959022E+03  0.34253959022E+03  0.00000000000E+00 0. -1.
         23    2    1    2    0    0  0.61805707720E+03  0.42780824478E+03  0.94942880814E+03  0.12143936940E+04  0.91227941419E+02 0.  0.
         13    1    3    3    0    0  0.46992225194E+03  0.28720808911E+03  0.73256862553E+03  0.91649997296E+03  0.00000000000E+00 0. -1.
        -13    1    3    3    0    0  0.14813482526E+03  0.14060015567E+03  0.21686018262E+03  0.29789372104E+03  0.00000000000E+00 0.  1.
         22    1    1    2    0    0 -0.61805707720E+03 -0.42780824478E+03  0.46239610204E+03  0.88251039663E+03  0.00000000000E+00 0. -1.
<mgrwt>
<rscale>  0 0.15504055E+04</rscale>
<asrwt>0</asrwt>
<pdfrwt beam="1">  1        1 0.26990223E+00 0.15504055E+04</pdfrwt>
<pdfrwt beam="2">  1       -1 0.52698399E-01 0.15504055E+04</pdfrwt>
<totfact> 0.15301959E+01</totfact>
</mgrwt>
</event>
<event>
 6    1  0.1719556E-004  0.2055586E+04  0.7818608E-02  0.8581065E-01
          1   -1    0    0  501    0  0.00000000000E+00  0.00000000000E+00  0.10493827989E+04  0.10493827989E+04  0.00000000000E+00 0. -1.
         -1   -1    0    0    0  501 -0.00000000000E+00 -0.00000000000E+00 -0.10066472538E+04  0.10066472538E+04  0.00000000000E+00 0.  1.
         23    2    1    2    0    0 -0.42288515101E+03 -0.11496749076E+03  0.94895334016E+03  0.10494119191E+04  0.93292868697E+02 0.  0.
         11    1    3    3    0    0 -0.10406194694E+03 -0.85400351311E+01  0.31519118693E+03  0.33203509652E+03  0.00000000000E+00 0. -1.
        -11    1    3    3    0    0 -0.31882320407E+03 -0.10642745562E+03  0.63376215322E+03  0.71737682262E+03  0.00000000000E+00 0.  1.
         22    1    1    2    0    0  0.42288515101E+03  0.11496749076E+03 -0.90621779504E+03  0.10066181336E+04  0.00000000000E+00 0.  1.
<mgrwt>
<rscale>  0 0.20555859E+04</rscale>
<asrwt>0</asrwt>
<pdfrwt beam="1">  1        1 0.16144351E+00 0.20555859E+04</pdfrwt>
<pdfrwt beam="2">  1       -1 0.15486881E+00 0.20555859E+04</pdfrwt>
<totfact> 0.40915814E+00</totfact>
</mgrwt>
</event>
<event>
 6    1  0.1719556E-004  0.4614102E+04  0.7818608E-02  0.7890960E-01
          2   -1    0    0  501    0  0.00000000000E+00  0.00000000000E+00  0.19714822612E+04  0.19714822612E+04  0.00000000000E+00 0.  1.
         -2   -1    0    0    0  501 -0.00000000000E+00 -0.00000000000E+00 -0.26997378301E+04  0.26997378301E+04  0.00000000000E+00 0. -1.
         23    2    1    2    0    0  0.72935314463E+03  0.17472260824E+04  0.96864554380E+03  0.21287354052E+04  0.92115378904E+02 0.  0.
         13    1    3    3    0    0  0.58031698193E+03  0.13327296885E+04  0.70701804302E+03  0.16164191088E+04  0.00000000000E+00 0.  1.
        -13    1    3    3    0    0  0.14903616270E+03  0.41449639389E+03  0.26162750078E+03  0.51231629635E+03  0.00000000000E+00 0. -1.
         22    1    1    2    0    0 -0.72935314463E+03 -0.17472260824E+04 -0.16969011127E+04  0.25424846861E+04  0.00000000000E+00 0. -1.
<mgrwt>
<rscale>  0 0.46141024E+04</rscale>
<asrwt>0</asrwt>
<pdfrwt beam="1">  1        2 0.30330497E+00 0.46141024E+04</pdfrwt>
<pdfrwt beam="2">  1       -2 0.41534428E+00 0.46141024E+04</pdfrwt>
<totfact> 0.30633736E-02</totfact>
</mgrwt>
</event>
<event>
 6    1  0.1719556E-004  0.3835807E+04  0.7818608E-02  0.8038514E-01
         -1   -1    0    0    0  501 -0.00000000000E+00  0.00000000000E+00  0.18139119538E+04  0.18139119538E+04  0.00000000000E+00 0. -1.
          1   -1    0    0  501    0  0.00000000000E+00 -0.00000000000E+00 -0.20278570973E+04  0.20278570973E+04  0.00000000000E+00 0.  1.
         23    2    1    2    0    0 -0.35205429814E+03  0.17738314177E+04  0.52886460142E+03  0.18867277614E+04  0.98100721996E+02 0.  0.
         13    1    3    3    0    0 -0.11457411527E+03  0.63533617306E+03  0.14145794011E+03  0.66090061999E+03  0.00000000000E+00 0.  1.
        -13    1    3    3    0    0 -0.23748018287E+03  0.11384952447E+04  0.38740666131E+03  0.12258271414E+04  0.00000000000E+00 0. -1.
         22    1    1    2    0    0  0.35205429814E+03 -0.17738314177E+04 -0.74280974493E+03  0.19550412897E+04  0.00000000000E+00 0. -1.
<mgrwt>
<rscale>  0 0.38358072E+04</rscale>
<asrwt>0</asrwt>
<pdfrwt beam="1">  1        1 0.31197801E+00 0.38358072E+04</pdfrwt>
<pdfrwt beam="2">  1       -1 0.27906338E+00 0.38358072E+04</pdfrwt>
<totfact> 0.10215217E-01</totfact>
</mgrwt>
</event>
<event>
 6    1  0.1719556E-004  0.1534645E+04  0.7818608E-02  0.8861736E-01
          2   -1    0    0  501    0  0.00000000000E+00  0.00000000000E+00  0.34167091277E+04  0.34167091277E+04  0.00000000000E+00 0.  1.
         -2   -1    0    0    0  501 -0.00000000000E+00 -0.00000000000E+00 -0.17232476914E+03  0.17232476914E+03  0.00000000000E+00 0. -1.
         23    2    1    2    0    0 -0.67905283630E+03  0.32895742774E+03  0.13390316629E+04  0.15397182456E+04  0.91655538445E+02 0.  0.
         13    1    3    3    0    0 -0.25849422538E+03  0.76740752423E+02  0.46682475914E+03  0.53910459410E+03  0.00000000000E+00 0.  1.
        -13    1    3    3    0    0 -0.42055861092E+03  0.25221667532E+03  0.87220690380E+03  0.10006136515E+04  0.00000000000E+00 0. -1.
         22    1    1    2    0    0  0.67905283630E+03 -0.32895742774E+03  0.19053526956E+04  0.20493156512E+04  0.00000000000E+00 0.  1.
<mgrwt>
<rscale>  0 0.15346447E+04</rscale>
<asrwt>0</asrwt>
<pdfrwt beam="1">  1        2 0.52564751E+00 0.15346447E+04</pdfrwt>
<pdfrwt beam="2">  1       -2 0.26511506E-01 0.15346447E+04</pdfrwt>
<totfact> 0.11674690E+01</totfact>
</mgrwt>
</event>
<event>
 6    1  0.1719556E-004  0.1395652E+04  0.7818608E-02  0.8956972E-01
          1   -1    0    0  501    0  0.00000000000E+00  0.00000000000E+00  0.23363483607E+04  0.23363483607E+04  0.00000000000E+00 0.  1.
         -1   -1    0    0    0  501 -0.00000000000E+00 -0.00000000000E+00 -0.20842830656E+03  0.20842830656E+03  0.00000000000E+00 0. -1.
         23    2    1    2    0    0  0.52855680900E+03  0.44061325717E+02  0.18862809671E+04  0.19619360809E+04  0.99114064493E+02 0.  0.
         11    1    3    3    0    0  0.34692212815E+03 -0.18553393131E+02  0.12048007042E+04  0.12538915137E+04  0.00000000000E+00 0. -1.
        -11    1    3    3    0    0  0.18163468084E+03  0.62614718848E+02  0.68148026292E+03  0.70804456714E+03  0.00000000000E+00 0.  1.
         22    1    1    2    0    0 -0.52855680900E+03 -0.44061325717E+02  0.24163908702E+03  0.58284058638E+03  0.00000000000E+00 0. -1.
<mgrwt>
<rscale>  0 0.13956520E+04</rscale>
<asrwt>0</asrwt>
<pdfrwt beam="1">  1        1 0.35943819E+00 0.13956520E+04</pdfrwt>
<pdfrwt beam="2">  1       -1 0.32065895E-01 0.13956520E+04</pdfrwt>
<totfact> 0.15588733E+01</totfact>
</mgrwt>
</event>
<event>
 6    1  0.1719556E-004  0.2016347E+04  0.7818608E-02  0.8599016E-01
          2   -1    0    0  501    0  0.00000000000E+00  0.00000000000E+00  0.10767992021E+04  0.10767992021E+04  0.00000000000E+00 0.  1.
         -2   -1    0    0    0  501 -0.00000000000E+00 -0.00000000000E+00 -0.94392101655E+03  0.94392101655E+03  0.00000000000E+00 0. -1.
         23    2    1    2    0    0  0.43075721587E+03 -0.38039947740E+03 -0.76104957448E+03  0.95800559017E+03  0.91228913005E+02 0.  0.
         13    1    3    3    0    0  0.34850162770E+03 -0.34534594964E+03 -0.66958792848E+03  0.83009951416E+03  0.00000000000E+00 0.  1.
        -13    1    3    3    0    0  0.82255588164E+02 -0.35053527755E+02 -0.91461645992E+02  0.12790607601E+03  0.00000000000E+00 0. -1.
         22    1    1    2    0    0 -0.43075721587E+03  0.38039947740E+03  0.89392775999E+03  0.10627146284E+04  0.00000000000E+00 0.  1.
<mgrwt>
<rscale>  0 0.20163466E+04</rscale>
<asrwt>0</asrwt>
<pdfrwt beam="1">  1        2 0.16566142E+00 0.20163466E+04</pdfrwt>
<pdfrwt beam="2">  1       -2 0.14521862E+00 0.20163466E+04</pdfrwt>
<totfact> 0.68198549E+00</totfact>
</mgrwt>
</event>
<event>
 6    1  0.1719556E-004  0.7054571E+03  0.7818608E-02  0.9707945E-01
         -2   -1    0    0    0  501 -0.00000000000E+00  0.00000000000E+00  0.11192620246E+03  0.11192620246E+03  0.00000000000E+00 0. -1.
          2   -1    0    0  501    0  0.00000000000E+00 -0.00000000000E+00 -0.11116024187E+04  0.11116024187E+04  0.00000000000E+00 0.  1.
         23    2    1    2    0    0  0.70576736416E+02 -0.30003420949E+03 -0.78413375480E+03  0.84741672920E+03  0.90817206164E+02 0.  0.
         13    1    3    3    0    0  0.69744417730E+02 -0.23470014685E+03 -0.69523478933E+03  0.73708877012E+03  0.00000000000E+00 0.  1.
        -13    1    3    3    0    0  0.83231868645E+00 -0.65334062639E+02 -0.88898965464E+02  0.11032795908E+03  0.00000000000E+00 0. -1.
         22    1    1    2    0    0 -0.70576736416E+02  0.30003420949E+03 -0.21554246145E+03  0.37611189196E+03  0.00000000000E+00 0. -1.
<mgrwt>
<rscale>  0 0.70545712E+03</rscale>
<asrwt>0</asrwt>
<pdfrwt beam="1">  1        2 0.17101576E+00 0.70545712E+03</pdfrwt>
<pdfrwt beam="2">  1       -2 0.17219416E-01 0.70545712E+03</pdfrwt>
<totfact> 0.59803520E+02</totfact>
</mgrwt>
</event>
<event>
 6    1  0.1719556E-004  0.1783743E+04  0.7818608E-02  0.8714993E-01
          1   -1    0    0  501    0  0.00000000000E+00  0.00000000000E+00  0.14864395050E+04  0.14864395050E+04  0.00000000000E+00 0. -1.
         -1   -1    0    0    0  501 -0.00000000000E+00 -0.00000000000E+00 -0.53512778045E+03  0.53512778045E+03  0.00000000000E+00 0.  1.
         23    2    1    2    0    0 -0.18277906897E+03 -0.72224946435E+03  0.10277267042E+04  0.12726402356E+04  0.91315464273E+02 0.  0.
         11    1    3    3    0    0 -0.53308762097E+02 -0.34410331938E+03  0.53243141278E+03  0.63618560801E+03  0.00000000000E+00 0.  1.
        -11    1    3    3    0    0 -0.12947030687E+03 -0.37814614497E+03  0.49529529141E+03  0.63645462761E+03  0.00000000000E+00 0. -1.
         22    1    1    2    0    0  0.18277906897E+03  0.72224946435E+03 -0.76414979663E+02  0.74892704980E+03  0.00000000000E+00 0.  1.
<mgrwt>
<rscale>  0 0.17837433E+04</rscale>
<asrwt>0</asrwt>
<pdfrwt beam="1">  1        1 0.22868300E+00 0.17837433E+04</pdfrwt>
<pdfrwt beam="2">  1       -1 0.82327352E-01 0.17837433E+04</pdfrwt>
<totfact> 0.92662127E+00</totfact>
</mgrwt>
</event>
<event>
 6    1  0.1719556E-004  0.1208576E+04  0.7818608E-02  0.9105383E-01
         -1   -1    0    0    0  501 -0.00000000000E+00  0.00000000000E+00  0.56909919823E+03  0.56909919823E+03  0.00000000000E+00 0. -1.
          1   -1    0    0  501    0  0.00000000000E+00 -0.00000000000E+00 -0.64165242579E+03  0.64165242579E+03  0.00000000000E+00 0.  1.
         23    2    1    2    0    0  0.59008832077E+03  0.11132021500E+03 -0.15042507144E+02  0.60750714660E+03  0.90786780835E+02 0.  0.
         13    1    3    3    0    0  0.46411075469E+03  0.80946085809E+02 -0.48679654420E+02  0.47362513677E+03  0.00000000000E+00 0. -1.
        -13    1    3    3    0    0  0.12597756608E+03  0.30374129191E+02  0.33637147276E+02  0.13388200983E+03  0.00000000000E+00 0.  1.
         22    1    1    2    0    0 -0.59008832077E+03 -0.11132021500E+03 -0.57510720423E+02  0.60324447742E+03  0.00000000000E+00 0.  1.
<mgrwt>
<rscale>  0 0.12085758E+04</rscale>
<asrwt>0</asrwt>
<pdfrwt beam="1">  1        1 0.98715758E-01 0.12085758E+04</pdfrwt>
<pdfrwt beam="2">  1       -1 0.87553723E-01 0.12085758E+04</pdfrwt>
<totfact> 0.39433785E+01</totfact>
</mgrwt>
</event>
<event>
 6    1  0.1719556E-004  0.4706749E+04  0.7818608E-02  0.7875408E-01
          2   -1    0    0  501    0  0.00000000000E+00  0.00000000000E+00  0.38071343239E+04  0.38071343239E+04  0.00000000000E+00 0.  1.
         -2   -1    0    0    0  501 -0.00000000000E+00 -0.00000000000E+00 -0.14547350686E+04  0.14547350686E+04  0.00000000000E+00 0. -1.
         23    2    1    2    0    0 -0.17132565380E+04  0.50450287777E+03  0.28883940293E+04  0.33971813444E+04  0.90828957869E+02 0.  0.
         13    1    3    3    0    0 -0.90182975581E+03  0.22720549646E+03  0.15531774784E+04  0.18103258065E+04  0.00000000000E+00 0. -1.
        -13    1    3    3    0    0 -0.81142678224E+03  0.27729738131E+03  0.13352165509E+04  0.15868555380E+04  0.00000000000E+00 0.  1.
         22    1    1    2    0    0  0.17132565380E+04 -0.50450287777E+03 -0.53599477404E+03  0.18646880481E+04  0.00000000000E+00 0. -1.
<mgrwt>
<rscale>  0 0.47067491E+04</rscale>
<asrwt>0</asrwt>
<pdfrwt beam="1">  1        2 0.58571297E+00 0.47067491E+04</pdfrwt>
<pdfrwt beam="2">  1       -2 0.22380540E+00 0.47067491E+04</pdfrwt>
<totfact> 0.33684021E-02</totfact>
</mgrwt>
</event>
<event>
 6    1  0.1719556E-004  0.3513157E+04  0.7818608E-02  0.8110679E-01
          2   -1    0    0  501    0  0.00000000000E+00  0.00000000000E+00  0.20081289628E+04  0.20081289628E+04  0.00000000000E+00 0.  1.
         -2   -1    0    0    0  501 -0.00000000000E+00 -0.00000000000E+00 -0.15365390980E+04  0.15365390980E+04  0.00000000000E+00 0. -1.
         23    2    1    2    0    0  0.13206427329E+04  0.11186384800E+04  0.53172032201E+03  0.18128872002E+04  0.91565402939E+02 0.  0.
         11    1    3    3    0    0  0.23294480992E+03  0.22700524838E+03  0.12910099879E+03  0.34994533166E+03  0.00000000000E+00 0. -1.
        -11    1    3    3    0    0  0.10876979230E+04  0.89163323162E+03  0.40261932322E+03  0.14629418686E+04  0.00000000000E+00 0.  1.
         22    1    1    2    0    0 -0.13206427329E+04 -0.11186384800E+04 -0.60130457255E+02  0.17317808605E+04  0.00000000000E+00 0. -1.
<mgrwt>
<rscale>  0 0.35131574E+04</rscale>
<asrwt>0</asrwt>
<pdfrwt beam="1">  1        2 0.30894292E+00 0.35131574E+04</pdfrwt>
<pdfrwt beam="2">  1       -2 0.23639063E+00 0.35131574E+04</pdfrwt>
<totfact> 0.42334124E-01</totfact>
</mgrwt>
</event>
<event>
 6    1  0.1719556E-004  0.1828990E+04  0.7818608E-02  0.8691033E-01
         -1   -1    0    0    0  501 -0.00000000000E+00  0.00000000000E+00  0.47279722429E+03  0.47279722429E+03  0.00000000000E+00 0.  1.
          1   -1    0    0  501    0  0.00000000000E+00 -0.00000000000E+00 -0.17688374857E+04  0.17688374857E+04  0.00000000000E+00 0. -1.
         23    2    1    2    0    0  0.86697775753E+02  0.56983371434E+03 -0.15161212025E+04  0.16246561147E+04  0.93043129593E+02 0.  0.
         11    1    3    3    0    0  0.71556835110E+01  0.10033557745E+03 -0.37281946352E+03  0.38615124535E+03  0.00000000000E+00 0.  1.
        -11    1    3    3    0    0  0.79542092242E+02  0.46949813689E+03 -0.11433017390E+04  0.12385048694E+04  0.00000000000E+00 0. -1.
         22    1    1    2    0    0 -0.86697775753E+02 -0.56983371434E+03  0.22008094117E+03  0.61697859524E+03  0.00000000000E+00 0.  1.
<mgrwt>
<rscale>  0 0.18289904E+04</rscale>
<asrwt>0</asrwt>
<pdfrwt beam="1">  1        1 0.27212885E+00 0.18289904E+04</pdfrwt>
<pdfrwt beam="2">  1       -1 0.72738034E-01 0.18289904E+04</pdfrwt>
<totfact> 0.76737650E+00</totfact>
</mgrwt>
</event>
<event>
 6    1  0.1719556E-004  0.3324719E+04  0.7818608E-02  0.8156634E-01
          1   -1    0    0  501    0  0.00000000000E+00  0.00000000000E+00  0.34194381826E+04  0.34194381826E+04  0.00000000000E+00 0. -1.
         -1   -1    0    0    0  501 -0.00000000000E+00 -0.00000000000E+00 -0.80815575734E+03  0.80815575734E+03  0.00000000000E+00 0.  1.
         23    2    1    2    0    0  0.67198734615E+02  0.51689944956E+03  0.33121198903E+04  0.33541674328E+04  0.92737741524E+02 0.  0.
         13    1    3    3    0    0  0.81529272482E+02  0.34858539385E+03  0.20920283989E+04  0.21224376601E+04  0.00000000000E+00 0.  1.
        -13    1    3    3    0    0 -0.14330537866E+02  0.16831405570E+03  0.12200914914E+04  0.12317297727E+04  0.00000000000E+00 0. -1.
         22    1    1    2    0    0 -0.67198734615E+02 -0.51689944956E+03 -0.70083746506E+03  0.87342650711E+03  0.00000000000E+00 0.  1.
<mgrwt>
<rscale>  0 0.33247187E+04</rscale>
<asrwt>0</asrwt>
<pdfrwt beam="1">  1        1 0.52606741E+00 0.33247187E+04</pdfrwt>
<pdfrwt beam="2">  1       -1 0.12433166E+00 0.33247187E+04</pdfrwt>
<totfact> 0.13550848E-01</totfact>
</mgrwt>
</event>
<event>
 6    1  0.1719556E-004  0.2618120E+04  0.7818608E-02  0.8362072E-01
          1   -1    0    0  501    0  0.00000000000E+00  0.00000000000E+00  0.19704816508E+04  0.19704816508E+04  0.00000000000E+00 0.  1.
         -1   -1    0    0    0  501 -0.00000000000E+00 -0.00000000000E+00 -0.86965423216E+03  0.86965423216E+03  0.00000000000E+00 0. -1.
         23    2    1    2    0    0  0.25553765185E+03  0.99387479128E+03  0.14299769296E+04  0.17624411243E+04  0.90984092619E+02 0.  0.
         13    1    3    3    0    0  0.18976140607E+03  0.56139191877E+03  0.80666955325E+03  0.10009425787E+04  0.00000000000E+00 0.  1.
        -13    1    3    3    0    0  0.65776245784E+02  0.43248287251E+03  0.62330737637E+03  0.76149854561E+03  0.00000000000E+00 0. -1.
         22    1    1    2    0    0 -0.25553765185E+03 -0.99387479128E+03 -0.32914951099E+03  0.10776947587E+04  0.00000000000E+00 0. -1.
<mgrwt>
<rscale>  0 0.26181197E+04</rscale>
<asrwt>0</asrwt>
<pdfrwt beam="1">  1        1 0.30315102E+00 0.26181197E+04</pdfrwt>
<pdfrwt beam="2">  1       -1 0.13379296E+00 0.26181197E+04</pdfrwt>
<totfact> 0.12933602E+00</totfact>
</mgrwt>
</event>
<event>
 6    1  0.1719556E-004  0.1442336E+04  0.7818608E-02  0.8923731E-01
         -2   -1    0    0    0  501 -0.00000000000E+00  0.00000000000E+00  0.75769139354E+03  0.75769139354E+03  0.00000000000E+00 0. -1.
          2   -1    0    0  501    0  0.00000000000E+00 -0.00000000000E+00 -0.68640471752E+03  0.68640471752E+03  0.00000000000E+00 0.  1.
         23    2    1    2    0    0 -0.51831140189E+03 -0.42142629796E+03 -0.22862903428E+03  0.71184187432E+03  0.90558184490E+02 0.  0.
         11    1    3    3    0    0 -0.27030397971E+03 -0.25547614513E+03 -0.16417114080E+03  0.40655192245E+03  0.00000000000E+00 0. -1.
        -11    1    3    3    0    0 -0.24800742218E+03 -0.16595015283E+03 -0.64457893488E+02  0.30528995187E+03  0.00000000000E+00 0.  1.
         22    1    1    2    0    0  0.51831140189E+03  0.42142629796E+03  0.29991571031E+03  0.73225423674E+03  0.00000000000E+00 0.  1.
<mgrwt>
<rscale>  0 0.14423355E+04</rscale>
<asrwt>0</asrwt>
<pdfrwt beam="1">  1        2 0.10560073E+00 0.14423355E+04</pdfrwt>
<pdfrwt beam="2">  1       -2 0.11656791E+00 0.14423355E+04</pdfrwt>
<totfact> 0.23246303E+01</totfact>
</mgrwt>
</event>
<event>
 6    1  0.1719556E-004  0.1593088E+04  0.7818608E-02  0.8824806E-01
         -2   -1    0    0    0  501 -0.00000000000E+00  0.00000000000E+00  0.36313677648E+03  0.36313677648E+03  0.00000000000E+00 0. -1.
          2   -1    0    0  501    0  0.00000000000E+00 -0.00000000000E+00 -0.17472260980E+04  0.17472260980E+04  0.00000000000E+00 0.  1.
         23    2    1    2    0    0  0.69608541277E+03 -0.24524343154E+03 -0.10864015472E+04  0.13145631173E+04  0.55934111952E+02 0.  0.
         13    1    3    3    0    0  0.14353520261E+03 -0.53193145386E+02 -0.18702100186E+03  0.24167896111E+03  0.00000000000E+00 0.  1.
        -13    1    3    3    0    0  0.55255021015E+03 -0.19205028615E+03 -0.89938054536E+03  0.10728841562E+04  0.00000000000E+00 0. -1.
         22    1    1    2    0    0 -0.69608541277E+03  0.24524343154E+03 -0.29768777425E+03  0.79579975717E+03  0.00000000000E+00 0. -1.
<mgrwt>
<rscale>  0 0.15930876E+04</rscale>
<asrwt>0</asrwt>
<pdfrwt beam="1">  1        2 0.26880401E+00 0.15930876E+04</pdfrwt>
<pdfrwt beam="2">  1       -2 0.55867197E-01 0.15930876E+04</pdfrwt>
<totfact> 0.26649638E+01</totfact>
</mgrwt>
</event>
<event>
 6    1  0.1719556E-004  0.6894440E+03  0.7818608E-02  0.9735457E-01
         -1   -1    0    0    0  501 -0.00000000000E+00  0.00000000000E+00  0.13216939054E+03  0.13216939054E+03  0.00000000000E+00 0. -1.
          1   -1    0    0  501    0  0.00000000000E+00 -0.00000000000E+00 -0.89909820463E+03  0.89909820463E+03  0.00000000000E+00 0.  1.
         23    2    1    2    0    0 -0.11593797851E+03  0.20847308913E+03 -0.24570081337E+02  0.25152460429E+03  0.75883423191E+02 0.  0.
         11    1    3    3    0    0 -0.46121566628E+02  0.14997292453E+03  0.10362247574E+01  0.15690809655E+03  0.00000000000E+00 0.  1.
        -11    1    3    3    0    0 -0.69816411877E+02  0.58500164598E+02 -0.25606306094E+02  0.94616507741E+02  0.00000000000E+00 0. -1.
         22    1    1    2    0    0  0.11593797851E+03 -0.20847308913E+03 -0.74235873275E+03  0.77974299089E+03  0.00000000000E+00 0.  1.
<mgrwt>
<rscale>  0 0.68944401E+03</rscale>
<asrwt>0</asrwt>
<pdfrwt beam="1">  1        1 0.13832280E+00 0.68944401E+03</pdfrwt>
<pdfrwt beam="2">  1       -1 0.20333752E-01 0.68944401E+03</pdfrwt>
<totfact> 0.36686457E+02</totfact>
</mgrwt>
</event>
<event>
 6    1  0.1719556E-004  0.2347867E+04  0.7818608E-02  0.8459283E-01
         -2   -1    0    0    0  501 -0.00000000000E+00  0.00000000000E+00  0.51719095956E+03  0.51719095956E+03  0.00000000000E+00 0.  1.
          2   -1    0    0  501    0  0.00000000000E+00 -0.00000000000E+00 -0.26646253032E+04  0.26646253032E+04  0.00000000000E+00 0. -1.
         23    2    1    2    0    0 -0.93594107643E+02  0.87107527127E+03 -0.19973458317E+02  0.88102904882E+03  0.91001432026E+02 0.  0.
         13    1    3    3    0    0 -0.96741551839E+02  0.60082025977E+03 -0.41004074188E+02  0.60993872357E+03  0.00000000000E+00 0. -1.
        -13    1    3    3    0    0  0.31474441966E+01  0.27025501150E+03  0.21030615870E+02  0.27109032526E+03  0.00000000000E+00 0.  1.
         22    1    1    2    0    0  0.93594107643E+02 -0.87107527127E+03 -0.21274608853E+04  0.23007872139E+04  0.00000000000E+00 0. -1.
<mgrwt>
<rscale>  0 0.23478672E+04</rscale>
<asrwt>0</asrwt>
<pdfrwt beam="1">  1        2 0.40994236E+00 0.23478672E+04</pdfrwt>
<pdfrwt beam="2">  1       -2 0.79567839E-01 0.23478672E+04</pdfrwt>
<totfact> 0.35223453E+00</totfact>
</mgrwt>
</event>
<event>
 6    1  0.1719556E-004  0.2791894E+04  0.7818608E-02  0.8305789E-01
         -2   -1    0    0    0  501 -0.00000000000E+00  0.00000000000E+00  0.11044106589E+04  0.11044106589E+04  0.00000000000E+00 0. -1.
          2   -1    0    0  501    0  0.00000000000E+00 -0.00000000000E+00 -0.17644419277E+04  0.17644419277E+04  0.00000000000E+00 0.  1.
         23    2    1    2    0    0 -0.10793162882E+04  0.87156209471E+03 -0.47612920072E+03  0.14694369566E+04  0.89452885387E+02 0.  0.
         11    1    3    3    0    0 -0.26636152531E+03  0.25127410458E+03 -0.15493142265E+03  0.39760644301E+03  0.00000000000E+00 0.  1.
        -11    1    3    3    0    0 -0.81295476290E+03  0.62028799013E+03 -0.32119777807E+03  0.10718305136E+04  0.00000000000E+00 0. -1.
         22    1    1    2    0    0  0.10793162882E+04 -0.87156209471E+03 -0.18390206801E+03  0.13994156300E+04  0.00000000000E+00 0. -1.
<mgrwt>
<rscale>  0 0.27918943E+04</rscale>
<asrwt>0</asrwt>
<pdfrwt beam="1">  1        2 0.27145260E+00 0.27918943E+04</pdfrwt>
<pdfrwt beam="2">  1       -2 0.16990933E+00 0.27918943E+04</pdfrwt>
<totfact> 0.16785912E+00</totfact>
</mgrwt>
</event>
<event>
 6    1  0.1719556E-004  0.1060714E+04  0.7818608E-02  0.9244351E-01
         -1   -1    0    0    0  501 -0.00000000000E+00  0.00000000000E+00  0.58556654285E+03  0.58556654285E+03  0.00000000000E+00 0. -1.
          1   -1    0    0  501    0  0.00000000000E+00 -0.00000000000E+00 -0.48035319375E+03  0.48035319375E+03  0.00000000000E+00 0.  1.
         23    2    1    2    0    0  0.33941986528E+03 -0.28180134040E+03 -0.23555408597E+03  0.50847890099E+03  0.91908786015E+02 0.  0.
         11    1    3    3    0    0  0.17568478512E+03 -0.20131482498E+03 -0.12337591023E+03  0.29430327505E+03  0.00000000000E+00 0. -1.
        -11    1    3    3    0    0  0.16373508016E+03 -0.80486515419E+02 -0.11217817574E+03  0.21417562595E+03  0.00000000000E+00 0.  1.
         22    1    1    2    0    0 -0.33941986528E+03  0.28180134040E+03  0.34076743507E+03  0.55744083560E+03  0.00000000000E+00 0. -1.
<mgrwt>
<rscale>  0 0.10607144E+04</rscale>
<asrwt>0</asrwt>
<pdfrwt beam="1">  1        1 0.73900492E-01 0.10607144E+04</pdfrwt>
<pdfrwt beam="2">  1       -1 0.90087160E-01 0.10607144E+04</pdfrwt>
<totfact> 0.56435797E+01</totfact>
</mgrwt>
</event>
<event>
 6    1  0.1719556E-004  0.9953141E+03  0.7818608E-02  0.9313699E-01
         -2   -1    0    0    0  501 -0.00000000000E+00  0.00000000000E+00  0.26557062932E+03  0.26557062932E+03  0.00000000000E+00 0. -1.
          2   -1    0    0  501    0  0.00000000000E+00 -0.00000000000E+00 -0.93256756807E+03  0.93256756807E+03  0.00000000000E+00 0.  1.
         23    2    1    2    0    0  0.46573087995E+03  0.13601478690E+03 -0.44473612170E+03  0.66446681387E+03  0.91217618863E+02 0.  0.
         11    1    3    3    0    0  0.31283304213E+03  0.84173933034E+02 -0.35155297179E+03  0.47805779486E+03  0.00000000000E+00 0. -1.
        -11    1    3    3    0    0  0.15289783783E+03  0.51840853863E+02 -0.93183149903E+02  0.18640901901E+03  0.00000000000E+00 0.  1.
         22    1    1    2    0    0 -0.46573087995E+03 -0.13601478690E+03 -0.22226081706E+03  0.53367138353E+03  0.00000000000E+00 0. -1.
<mgrwt>
<rscale>  0 0.99531413E+03</rscale>
<asrwt>0</asrwt>
<pdfrwt beam="1">  1        2 0.14347193E+00 0.99531413E+03</pdfrwt>
<pdfrwt beam="2">  1       -2 0.40857020E-01 0.99531413E+03</pdfrwt>
<totfact> 0.15783326E+02</totfact>
</mgrwt>
</event>
<event>
 6    1  0.1719556E-004  0.2186640E+04  0.7818608E-02  0.8524009E-01
          2   -1    0    0  501    0  0.00000000000E+00  0.00000000000E+00  0.88695988314E+03  0.88695988314E+03  0.00000000000E+00 0.  1.
         -2   -1    0    0    0  501 -0.00000000000E+00 -0.00000000000E+00 -0.13476922392E+04  0.13476922392E+04  0.00000000000E+00 0. -1.
         23    2    1    2    0    0  0.77061201251E+03 -0.56697140558E+03  0.30686135216E+03  0.10080716931E+04  0.82129168822E+02 0.  0.
         11    1    3    3    0    0  0.13563770148E+03 -0.10787749276E+03  0.23692253551E+02  0.17491844495E+03  0.00000000000E+00 0. -1.
        -11    1    3    3    0    0  0.63497431103E+03 -0.45909391281E+03  0.28316909861E+03  0.83315324813E+03  0.00000000000E+00 0.  1.
         22    1    1    2    0    0 -0.77061201251E+03  0.56697140558E+03 -0.76759370826E+03  0.12265804293E+04  0.00000000000E+00 0. -1.
<mgrwt>
<rscale>  0 0.21866403E+04</rscale>
<asrwt>0</asrwt>
<pdfrwt beam="1">  1        2 0.13645537E+00 0.21866403E+04</pdfrwt>
<pdfrwt beam="2">  1       -2 0.20733727E+00 0.21866403E+04</pdfrwt>
<totfact> 0.32611020E+00</totfact>
</mgrwt>
</event>
<event>
 6    1  0.1719556E-004  0.5350083E+04  0.7818608E-02  0.7776662E-01
         -2   -1    0    0    0  501 -0.00000000000E+00  0.00000000000E+00  0.29604881084E+04  0.29604881084E+04  0.00000000000E+00 0. -1.
          2   -1    0    0  501    0  0.00000000000E+00 -0.00000000000E+00 -0.24171170257E+04  0.24171170257E+04  0.00000000000E+00 0.  1.
         23    2    1    2    0    0  0.12894229749E+04  0.23221839202E+04 -0.40520739572E+02  0.26580317434E+04  0.91329355967E+02 0.  0.
         13    1    3    3    0    0  0.75462871241E+03  0.12694120057E+04 -0.35401230223E+02  0.14772016047E+04  0.00000000000E+00 0.  1.
        -13    1    3    3    0    0  0.53479426250E+03  0.10527719145E+04 -0.51195093486E+01  0.11808301387E+04  0.00000000000E+00 0. -1.
         22    1    1    2    0    0 -0.12894229749E+04 -0.23221839202E+04  0.58389182226E+03  0.27195733907E+04  0.00000000000E+00 0.  1.
<mgrwt>
<rscale>  0 0.53500827E+04</rscale>
<asrwt>0</asrwt>
<pdfrwt beam="1">  1        2 0.37186416E+00 0.53500827E+04</pdfrwt>
<pdfrwt beam="2">  1       -2 0.45545971E+00 0.53500827E+04</pdfrwt>
<totfact> 0.88270247E-03</totfact>
</mgrwt>
</event>
<event>
 6    1  0.1719556E-004  0.1971198E+04  0.7818608E-02  0.8620206E-01
          2   -1    0    0  501    0  0.00000000000E+00  0.00000000000E+00  0.16410694913E+04  0.16410694913E+04  0.00000000000E+00 0.  1.
         -2   -1    0    0    0  501 -0.00000000000E+00 -0.00000000000E+00 -0.59193443910E+03  0.59193443910E+03  0.00000000000E+00 0. -1.
         23    2    1    2    0    0  0.73201584034E+03 -0.31892409578E+03  0.11759107132E+04  0.14245289230E+04  0.94640781167E+02 0.  0.
         13    1    3    3    0    0  0.19218908636E+03 -0.13021125520E+03  0.34714759460E+03  0.41761593400E+03  0.00000000000E+00 0. -1.
        -13    1    3    3    0    0  0.53982675397E+03 -0.18871284057E+03  0.82876311864E+03  0.10069129890E+04  0.00000000000E+00 0.  1.
         22    1    1    2    0    0 -0.73201584034E+03  0.31892409578E+03 -0.12677566108E+03  0.80847500741E+03  0.00000000000E+00 0. -1.
<mgrwt>
<rscale>  0 0.19711982E+04</rscale>
<asrwt>0</asrwt>
<pdfrwt beam="1">  1        2 0.25247223E+00 0.19711982E+04</pdfrwt>
<pdfrwt beam="2">  1       -2 0.91066838E-01 0.19711982E+04</pdfrwt>
<totfact> 0.10129943E+01</totfact>
</mgrwt>
</event>
<event>
 6    1  0.1719556E-004  0.1545640E+04  0.7818608E-02  0.8854657E-01
          2   -1    0    0  501    0  0.00000000000E+00  0.00000000000E+00  0.19951438215E+04  0.19951438215E+04  0.00000000000E+00 0.  1.
         -2   -1    0    0    0  501 -0.00000000000E+00 -0.00000000000E+00 -0.29935233080E+03  0.29935233080E+03  0.00000000000E+00 0. -1.
         23    2    1    2    0    0 -0.60052426155E+03 -0.13963499195E+03  0.16573031080E+03  0.64488573347E+03  0.91015128569E+02 0.  0.
         11    1    3    3    0    0 -0.13970890880E+03 -0.32914963209E+02  0.79495224346E+02  0.16407761790E+03  0.00000000000E+00 0. -1.
        -11    1    3    3    0    0 -0.46081535275E+03 -0.10672002874E+03  0.86235086450E+02  0.48080811557E+03  0.00000000000E+00 0.  1.
         22    1    1    2    0    0  0.60052426155E+03  0.13963499195E+03  0.15300611799E+04  0.16496104188E+04  0.00000000000E+00 0.  1.
<mgrwt>
<rscale>  0 0.15456403E+04</rscale>
<asrwt>0</asrwt>
<pdfrwt beam="1">  1        2 0.30694519E+00 0.15456403E+04</pdfrwt>
<pdfrwt beam="2">  1       -2 0.46054206E-01 0.15456403E+04</pdfrwt>
<totfact> 0.28947688E+01</totfact>
</mgrwt>
</event>
<event>
 6    1  0.1719556E-004  0.3011127E+04  0.7818608E-02  0.8240561E-01
          2   -1    0    0  501    0  0.00000000000E+00  0.00000000000E+00  0.23876828609E+04  0.23876828609E+04  0.00000000000E+00 0.  1.
         -2   -1    0    0    0  501 -0.00000000000E+00 -0.00000000000E+00 -0.94933960795E+03  0.94933960795E+03  0.00000000000E+00 0. -1.
         23    2    1    2    0    0 -0.37236366959E+03 -0.38284512767E+03 -0.83854810309E+03  0.99833494347E+03  0.91020019532E+02 0.  0.
         11    1    3    3    0    0 -0.32115914576E+03 -0.29822579840E+03 -0.73021889783E+03  0.85164632476E+03  0.00000000000E+00 0. -1.
        -11    1    3    3    0    0 -0.51204523837E+02 -0.84619329270E+02 -0.10832920526E+03  0.14668861871E+03  0.00000000000E+00 0.  1.
         22    1    1    2    0    0  0.37236366959E+03  0.38284512767E+03  0.22768913560E+04  0.23386875254E+04  0.00000000000E+00 0.  1.
<mgrwt>
<rscale>  0 0.30111273E+04</rscale>
<asrwt>0</asrwt>
<pdfrwt beam="1">  1        2 0.36733582E+00 0.30111273E+04</pdfrwt>
<pdfrwt beam="2">  1       -2 0.14605225E+00 0.30111273E+04</pdfrwt>
<totfact> 0.11108716E+00</totfact>
</mgrwt>
</event>
<event>
 6    1  0.1719556E-004  0.1418176E+04  0.7818608E-02  0.8940766E-01
          1   -1    0    0  501    0  0.00000000000E+00  0.00000000000E+00  0.13415809598E+04  0.13415809598E+04  0.00000000000E+00 0.  1.
         -1   -1    0    0    0  501 -0.00000000000E+00 -0.00000000000E+00 -0.37478585503E+03  0.37478585503E+03  0.00000000000E+00 0. -1.
         23    2    1    2    0    0 -0.42339745114E+03 -0.55737303692E+03  0.59753427418E+03  0.92498595526E+03  0.92853135123E+02 0.  0.
         13    1    3    3    0    0 -0.14592706796E+03 -0.24450427111E+03  0.28546900691E+03  0.40319920841E+03  0.00000000000E+00 0. -1.
        -13    1    3    3    0    0 -0.27747038318E+03 -0.31286876581E+03  0.31206526727E+03  0.52178674686E+03  0.00000000000E+00 0.  1.
         22    1    1    2    0    0  0.42339745114E+03  0.55737303692E+03  0.36926083064E+03  0.79138085961E+03  0.00000000000E+00 0.  1.
<mgrwt>
<rscale>  0 0.14181757E+04</rscale>
<asrwt>0</asrwt>
<pdfrwt beam="1">  1        1 0.20639707E+00 0.14181757E+04</pdfrwt>
<pdfrwt beam="2">  1       -1 0.57659363E-01 0.14181757E+04</pdfrwt>
<totfact> 0.25061229E+01</totfact>
</mgrwt>
</event>
<event>
 6    1  0.1719556E-004  0.1115855E+04  0.7818608E-02  0.9189875E-01
         -2   -1    0    0    0  501 -0.00000000000E+00  0.00000000000E+00  0.45473091816E+03  0.45473091816E+03  0.00000000000E+00 0. -1.
          2   -1    0    0  501    0  0.00000000000E+00 -0.00000000000E+00 -0.68454351508E+03  0.68454351508E+03  0.00000000000E+00 0.  1.
         23    2    1    2    0    0  0.31618388274E+03 -0.39357685258E+03  0.11779239166E+03  0.52632727835E+03  0.90941573559E+02 0.  0.
         13    1    3    3    0    0  0.11422970680E+03 -0.18780191164E+03  0.86857176086E+02  0.23635175686E+03  0.00000000000E+00 0. -1.
        -13    1    3    3    0    0  0.20195417594E+03 -0.20577494094E+03  0.30935215579E+02  0.28997552149E+03  0.00000000000E+00 0.  1.
         22    1    1    2    0    0 -0.31618388274E+03  0.39357685258E+03 -0.34760498858E+03  0.61294715489E+03  0.00000000000E+00 0.  1.
<mgrwt>
<rscale>  0 0.11158550E+04</rscale>
<asrwt>0</asrwt>
<pdfrwt beam="1">  1        2 0.10531439E+00 0.11158550E+04</pdfrwt>
<pdfrwt beam="2">  1       -2 0.69958603E-01 0.11158550E+04</pdfrwt>
<totfact> 0.77859972E+01</totfact>
</mgrwt>
</event>
<event>
 6    1  0.1719556E-004  0.3892809E+04  0.7818608E-02  0.8026527E-01
         -2   -1    0    0    0  501 -0.00000000000E+00  0.00000000000E+00  0.17569960910E+04  0.17569960910E+04  0.00000000000E+00 0. -1.
          2   -1    0    0  501    0  0.00000000000E+00 -0.00000000000E+00 -0.21562311543E+04  0.21562311543E+04  0.00000000000E+00 0.  1.
         23    2    1    2    0    0 -0.19188934320E+04  0.80539473191E+02 -0.51050319657E+03  0.19894239270E+04  0.92495609138E+02 0.  0.
         13    1    3    3    0    0 -0.94195328331E+03  0.47477499996E+02 -0.29782944761E+03  0.98905635876E+03  0.00000000000E+00 0. -1.
        -13    1    3    3    0    0 -0.97694014864E+03  0.33061973195E+02 -0.21267374896E+03  0.10003675682E+04  0.00000000000E+00 0.  1.
         22    1    1    2    0    0  0.19188934320E+04 -0.80539473191E+02  0.11126813330E+03  0.19238033183E+04  0.00000000000E+00 0.  1.
<mgrwt>
<rscale>  0 0.38928086E+04</rscale>
<asrwt>0</asrwt>
<pdfrwt beam="1">  1        2 0.33172787E+00 0.38928086E+04</pdfrwt>
<pdfrwt beam="2">  1       -2 0.27030709E+00 0.38928086E+04</pdfrwt>
<totfact> 0.20986849E-01</totfact>
</mgrwt>
</event>
<event>
 6    1  0.1719556E-004  0.2846710E+04  0.7818608E-02  0.8288912E-01
         -2   -1    0    0    0  501 -0.00000000000E+00  0.00000000000E+00  0.16373071837E+04  0.16373071837E+04  0.00000000000E+00 0. -1.
          2   -1    0    0  501    0  0.00000000000E+00 -0.00000000000E+00 -0.12373604446E+04  0.12373604446E+04  0.00000000000E+00 0.  1.
         23    2    1    2    0    0  0.12011364312E+03  0.78007431120E+03  0.13943745523E+04  0.16050889998E+04  0.95326212799E+02 0.  0.
         13    1    3    3    0    0  0.10946925573E+03  0.43023524939E+03  0.73834557366E+03  0.86153355937E+03  0.00000000000E+00 0. -1.
        -13    1    3    3    0    0  0.10644387386E+02  0.34983906180E+03  0.65602897866E+03  0.74355544043E+03  0.00000000000E+00 0.  1.
         22    1    1    2    0    0 -0.12011364312E+03 -0.78007431120E+03 -0.99442781317E+03  0.12695786285E+04  0.00000000000E+00 0.  1.
<mgrwt>
<rscale>  0 0.28467098E+04</rscale>
<asrwt>0</asrwt>
<pdfrwt beam="1">  1        2 0.19036314E+00 0.28467098E+04</pdfrwt>
<pdfrwt beam="2">  1       -2 0.25189341E+00 0.28467098E+04</pdfrwt>
<totfact> 0.97585817E-01</totfact>
</mgrwt>
</event>
<event>
 6    1  0.1719556E-004  0.6939199E+03  0.7818608E-02  0.9727687E-01
         -2   -1    0    0    0  501 -0.00000000000E+00  0.00000000000E+00  0.21139568804E+03  0.21139568804E+03  0.00000000000E+00 0. -1.
          2   -1    0    0  501    0  0.00000000000E+00 -0.00000000000E+00 -0.56945914932E+03  0.56945914932E+03  0.00000000000E+00 0.  1.
         23    2    1    2    0    0  0.25260777048E+03  0.41835801788E+02 -0.43533232983E+03  0.51340129361E+03  0.92226519344E+02 0.  0.
         11    1    3    3    0    0  0.21304407892E+03  0.18580349138E+02 -0.28558626197E+03  0.35678077577E+03  0.00000000000E+00 0. -1.
        -11    1    3    3    0    0  0.39563691557E+02  0.23255452650E+02 -0.14974606787E+03  0.15662051784E+03  0.00000000000E+00 0.  1.
         22    1    1    2    0    0 -0.25260777048E+03 -0.41835801788E+02  0.77268868554E+02  0.26745354375E+03  0.00000000000E+00 0.  1.
<mgrwt>
<rscale>  0 0.69391991E+03</rscale>
<asrwt>0</asrwt>
<pdfrwt beam="1">  1        2 0.87609099E-01 0.69391991E+03</pdfrwt>
<pdfrwt beam="2">  1       -2 0.32522414E-01 0.69391991E+03</pdfrwt>
<totfact> 0.46838675E+02</totfact>
</mgrwt>
</event>
<event>
 6    1  0.1719556E-004  0.2724962E+04  0.7818608E-02  0.8326951E-01
          2   -1    0    0  501    0  0.00000000000E+00  0.00000000000E+00  0.18928681392E+04  0.18928681392E+04  0.00000000000E+00 0.  1.
         -2   -1    0    0    0  501 -0.00000000000E+00 -0.00000000000E+00 -0.98070955662E+03  0.98070955662E+03  0.00000000000E+00 0. -1.
         23    2    1    2    0    0  0.99271967767E+03  0.92383396094E+03  0.33496986819E+03  0.13997702600E+04  0.90500952417E+02 0.  0.
         11    1    3    3    0    0  0.71285087871E+03  0.60652987378E+03  0.22580893012E+03  0.96282113395E+03  0.00000000000E+00 0.  1.
        -11    1    3    3    0    0  0.27986879896E+03  0.31730408716E+03  0.10916093807E+03  0.43694912606E+03  0.00000000000E+00 0. -1.
         22    1    1    2    0    0 -0.99271967767E+03 -0.92383396094E+03  0.57718871437E+03  0.14738074358E+04  0.00000000000E+00 0.  1.
<mgrwt>
<rscale>  0 0.27249616E+04</rscale>
<asrwt>0</asrwt>
<pdfrwt beam="1">  1        2 0.29121048E+00 0.27249616E+04</pdfrwt>
<pdfrwt beam="2">  1       -2 0.15087839E+00 0.27249616E+04</pdfrwt>
<totfact> 0.19794366E+00</totfact>
</mgrwt>
</event>
<event>
 6    1  0.1719556E-004  0.2666179E+04  0.7818608E-02  0.8346063E-01
         -2   -1    0    0    0  501 -0.00000000000E+00  0.00000000000E+00  0.17755227532E+04  0.17755227532E+04  0.00000000000E+00 0. -1.
          2   -1    0    0  501    0  0.00000000000E+00 -0.00000000000E+00 -0.10009039841E+04  0.10009039841E+04  0.00000000000E+00 0.  1.
         23    2    1    2    0    0  0.87593664220E+03  0.73272492600E+02  0.14294432305E+04  0.16803295998E+04  0.86981350551E+02 0.  0.
         13    1    3    3    0    0  0.61294598185E+03  0.59292503804E+02  0.10728970827E+04  0.12370636717E+04  0.00000000000E+00 0.  1.
        -13    1    3    3    0    0  0.26299066035E+03  0.13979988796E+02  0.35654614780E+03  0.44326592812E+03  0.00000000000E+00 0. -1.
         22    1    1    2    0    0 -0.87593664220E+03 -0.73272492600E+02 -0.65482446146E+03  0.10960971374E+04  0.00000000000E+00 0.  1.
<mgrwt>
<rscale>  0 0.26661791E+04</rscale>
<asrwt>0</asrwt>
<pdfrwt beam="1">  1        2 0.15398523E+00 0.26661791E+04</pdfrwt>
<pdfrwt beam="2">  1       -2 0.27315735E+00 0.26661791E+04</pdfrwt>
<totfact> 0.10259410E+00</totfact>
</mgrwt>
</event>
<event>
 6    1  0.1719556E-004  0.1204745E+04  0.7818608E-02  0.9108713E-01
          2   -1    0    0  501    0  0.00000000000E+00  0.00000000000E+00  0.25070315339E+04  0.25070315339E+04  0.00000000000E+00 0.  1.
         -2   -1    0    0    0  501 -0.00000000000E+00 -0.00000000000E+00 -0.14473395846E+03  0.14473395846E+03  0.00000000000E+00 0. -1.
         23    2    1    2    0    0 -0.33224795128E+03 -0.16692480779E+03  0.15428578148E+03  0.41266552255E+03  0.90753173768E+02 0.  0.
         11    1    3    3    0    0 -0.13327455342E+03 -0.25411341865E+02  0.79745877717E+02  0.15737613509E+03  0.00000000000E+00 0. -1.
        -11    1    3    3    0    0 -0.19897339786E+03 -0.14151346593E+03  0.74539903767E+02  0.25528938746E+03  0.00000000000E+00 0.  1.
         22    1    1    2    0    0  0.33224795128E+03  0.16692480779E+03  0.22080117939E+04  0.22390999698E+04  0.00000000000E+00 0.  1.
<mgrwt>
<rscale>  0 0.12047449E+04</rscale>
<asrwt>0</asrwt>
<pdfrwt beam="1">  1        2 0.38569713E+00 0.12047449E+04</pdfrwt>
<pdfrwt beam="2">  1       -2 0.22266765E-01 0.12047449E+04</pdfrwt>
<totfact> 0.60501027E+01</totfact>
</mgrwt>
</event>
<event>
 6    1  0.2991774E-004  0.4007035E+04  0.7818608E-02  0.8003129E-01
         -2   -1    0    0    0  501 -0.00000000000E+00  0.00000000000E+00  0.15889098946E+04  0.15889098946E+04  0.00000000000E+00 0. -1.
          2   -1    0    0  501    0  0.00000000000E+00 -0.00000000000E+00 -0.25263125215E+04  0.25263125215E+04  0.00000000000E+00 0.  1.
         23    2    1    2    0    0 -0.14677762058E+04  0.12863825601E+04 -0.88710984924E+01  0.19538992380E+04  0.92176215909E+02 0.  0.
         11    1    3    3    0    0 -0.53265153893E+03  0.49298763375E+03  0.36668798622E+02  0.72670425191E+03  0.00000000000E+00 0. -1.
        -11    1    3    3    0    0 -0.93512466683E+03  0.79339492635E+03 -0.45539897114E+02  0.12271949861E+04  0.00000000000E+00 0.  1.
         22    1    1    2    0    0  0.14677762058E+04 -0.12863825601E+04 -0.92853152844E+03  0.21613231782E+04  0.00000000000E+00 0.  1.
<mgrwt>
<rscale>  0 0.40070353E+04</rscale>
<asrwt>0</asrwt>
<pdfrwt beam="1">  1        2 0.38866346E+00 0.40070353E+04</pdfrwt>
<pdfrwt beam="2">  1       -2 0.24444768E+00 0.40070353E+04</pdfrwt>
<totfact> 0.18423115E-01</totfact>
</mgrwt>
</event>
<event>
 6    1  0.1719556E-004  0.1303089E+04  0.7818608E-02  0.9027119E-01
          1   -1    0    0  501    0  0.00000000000E+00  0.00000000000E+00  0.14393314582E+04  0.14393314582E+04  0.00000000000E+00 0.  1.
         -1   -1    0    0    0  501 -0.00000000000E+00 -0.00000000000E+00 -0.29493587100E+03  0.29493587100E+03  0.00000000000E+00 0. -1.
         23    2    1    2    0    0 -0.71523949948E+02 -0.64295199288E+03  0.51564036830E+03  0.83213869878E+03  0.89815833870E+02 0.  0.
         11    1    3    3    0    0 -0.18808451156E+02 -0.20413844733E+03  0.21824721620E+03  0.29942964264E+03  0.00000000000E+00 0.  1.
        -11    1    3    3    0    0 -0.52715498792E+02 -0.43881354555E+03  0.29739315210E+03  0.53270905614E+03  0.00000000000E+00 0. -1.
         22    1    1    2    0    0  0.71523949948E+02  0.64295199288E+03  0.62875521894E+03  0.90212863047E+03  0.00000000000E+00 0. -1.
<mgrwt>
<rscale>  0 0.13030894E+04</rscale>
<asrwt>0</asrwt>
<pdfrwt beam="1">  1        1 0.22143560E+00 0.13030894E+04</pdfrwt>
<pdfrwt beam="2">  1       -1 0.45374750E-01 0.13030894E+04</pdfrwt>
<totfact> 0.34145425E+01</totfact>
</mgrwt>
</event>
<event>
 6    1  0.1719556E-004  0.1469130E+04  0.7818608E-02  0.8905244E-01
          2   -1    0    0  501    0  0.00000000000E+00  0.00000000000E+00  0.10954645186E+04  0.10954645186E+04  0.00000000000E+00 0.  1.
         -2   -1    0    0    0  501 -0.00000000000E+00 -0.00000000000E+00 -0.49256368939E+03  0.49256368939E+03  0.00000000000E+00 0. -1.
         23    2    1    2    0    0  0.57560737010E+03  0.37393434156E+03  0.57668518617E+03  0.90112355937E+03  0.91143452819E+02 0.  0.
         11    1    3    3    0    0  0.22089590011E+03  0.13722205646E+03  0.27680582908E+03  0.37979778630E+03  0.00000000000E+00 0.  1.
        -11    1    3    3    0    0  0.35471146999E+03  0.23671228509E+03  0.29987935709E+03  0.52132577307E+03  0.00000000000E+00 0. -1.
         22    1    1    2    0    0 -0.57560737010E+03 -0.37393434156E+03  0.26215643002E+02  0.68690464859E+03  0.00000000000E+00 0. -1.
<mgrwt>
<rscale>  0 0.14691304E+04</rscale>
<asrwt>0</asrwt>
<pdfrwt beam="1">  1        2 0.16853300E+00 0.14691304E+04</pdfrwt>
<pdfrwt beam="2">  1       -2 0.75779029E-01 0.14691304E+04</pdfrwt>
<totfact> 0.33144196E+01</totfact>
</mgrwt>
</event>
<event>
 6    1  0.1719556E-004  0.4651581E+04  0.7818608E-02  0.7884624E-01
         -2   -1    0    0    0  501 -0.00000000000E+00  0.00000000000E+00  0.18479198017E+04  0.18479198017E+04  0.00000000000E+00 0. -1.
          2   -1    0    0  501    0  0.00000000000E+00 -0.00000000000E+00 -0.29272384116E+04  0.29272384116E+04  0.00000000000E+00 0.  1.
         23    2    1    2    0    0  0.12494850313E+04 -0.15182131606E+03  0.14667225807E+04  0.19349842222E+04  0.92877639700E+02 0.  0.
         11    1    3    3    0    0  0.90253465778E+03 -0.10065437625E+03  0.11188111481E+04  0.14409852522E+04  0.00000000000E+00 0.  1.
        -11    1    3    3    0    0  0.34695037351E+03 -0.51166939808E+02  0.34791143251E+03  0.49399896992E+03  0.00000000000E+00 0. -1.
         22    1    1    2    0    0 -0.12494850313E+04  0.15182131606E+03 -0.25460411906E+04  0.28401739911E+04  0.00000000000E+00 0.  1.
<mgrwt>
<rscale>  0 0.46515812E+04</rscale>
<asrwt>0</asrwt>
<pdfrwt beam="1">  1        2 0.45034437E+00 0.46515812E+04</pdfrwt>
<pdfrwt beam="2">  1       -2 0.28429536E+00 0.46515812E+04</pdfrwt>
<totfact> 0.57332317E-02</totfact>
</mgrwt>
</event>
<event>
 6    1  0.1719556E-004  0.3116541E+04  0.7818608E-02  0.8211213E-01
         -2   -1    0    0    0  501 -0.00000000000E+00  0.00000000000E+00  0.75754460275E+03  0.75754460275E+03  0.00000000000E+00 0. -1.
          2   -1    0    0  501    0  0.00000000000E+00 -0.00000000000E+00 -0.32053654168E+04  0.32053654168E+04  0.00000000000E+00 0.  1.
         23    2    1    2    0    0 -0.16089299334E+02 -0.11022570755E+04 -0.26230087736E+04  0.28467019980E+04  0.91146657246E+02 0.  0.
         13    1    3    3    0    0  0.33976540134E+02 -0.51757351556E+03 -0.11829962257E+04  0.12917108110E+04  0.00000000000E+00 0. -1.
        -13    1    3    3    0    0 -0.50065839468E+02 -0.58468355995E+03 -0.14400125479E+04  0.15549911870E+04  0.00000000000E+00 0.  1.
         22    1    1    2    0    0  0.16089299334E+02  0.11022570755E+04  0.17518795959E+03  0.11162080215E+04  0.00000000000E+00 0. -1.
<mgrwt>
<rscale>  0 0.31165412E+04</rscale>
<asrwt>0</asrwt>
<pdfrwt beam="1">  1        2 0.49313314E+00 0.31165412E+04</pdfrwt>
<pdfrwt beam="2">  1       -2 0.11654532E+00 0.31165412E+04</pdfrwt>
<totfact> 0.62188988E-01</totfact>
</mgrwt>
</event>
<event>
 6    1  0.1719556E-004  0.2018017E+04  0.7818608E-02  0.8598243E-01
         -2   -1    0    0    0  501 -0.00000000000E+00  0.00000000000E+00  0.10100062037E+04  0.10100062037E+04  0.00000000000E+00 0. -1.
          2   -1    0    0  501    0  0.00000000000E+00 -0.00000000000E+00 -0.10080119000E+04  0.10080119000E+04  0.00000000000E+00 0.  1.
         23    2    1    2    0    0  0.77564872271E+03  0.22895190252E+03 -0.59948194372E+03  0.10101373613E+04  0.83360500579E+02 0.  0.
         11    1    3    3    0    0  0.25362508170E+03  0.92124940628E+02 -0.24499888989E+03  0.36446830151E+03  0.00000000000E+00 0.  1.
        -11    1    3    3    0    0  0.52202364101E+03  0.13682696189E+03 -0.35448305383E+03  0.64566905975E+03  0.00000000000E+00 0. -1.
         22    1    1    2    0    0 -0.77564872271E+03 -0.22895190252E+03  0.60147624746E+03  0.10078807424E+04  0.00000000000E+00 0. -1.
<mgrwt>
<rscale>  0 0.20180171E+04</rscale>
<asrwt>0</asrwt>
<pdfrwt beam="1">  1        2 0.15507875E+00 0.20180171E+04</pdfrwt>
<pdfrwt beam="2">  1       -2 0.15538557E+00 0.20180171E+04</pdfrwt>
<totfact> 0.62963247E+00</totfact>
</mgrwt>
</event>
<event>
 6    1  0.1719556E-004  0.2875936E+04  0.7818608E-02  0.8280073E-01
          2   -1    0    0  501    0  0.00000000000E+00  0.00000000000E+00  0.27248603291E+04  0.27248603291E+04  0.00000000000E+00 0.  1.
         -2   -1    0    0    0  501 -0.00000000000E+00 -0.00000000000E+00 -0.75884683421E+03  0.75884683421E+03  0.00000000000E+00 0. -1.
         23    2    1    2    0    0 -0.13034746079E+04  0.33914392093E+03  0.37892970408E+03  0.14021453431E+04  0.91428606198E+02 0.  0.
         13    1    3    3    0    0 -0.91475712479E+03  0.19466857098E+03  0.25803595589E+03  0.97018503617E+03  0.00000000000E+00 0.  1.
        -13    1    3    3    0    0 -0.38871748307E+03  0.14447534995E+03  0.12089374819E+03  0.43196030690E+03  0.00000000000E+00 0. -1.
         22    1    1    2    0    0  0.13034746079E+04 -0.33914392093E+03  0.15870837908E+04  0.20815618203E+04  0.00000000000E+00 0.  1.
<mgrwt>
<rscale>  0 0.28759358E+04</rscale>
<asrwt>0</asrwt>
<pdfrwt beam="1">  1        2 0.41920928E+00 0.28759358E+04</pdfrwt>
<pdfrwt beam="2">  1       -2 0.11674567E+00 0.28759358E+04</pdfrwt>
<totfact> 0.12607209E+00</totfact>
</mgrwt>
</event>
<event>
 6    1  0.1719556E-004  0.2141571E+04  0.7818608E-02  0.8543149E-01
         -2   -1    0    0    0  501 -0.00000000000E+00  0.00000000000E+00  0.89803482345E+03  0.89803482345E+03  0.00000000000E+00 0. -1.
          2   -1    0    0  501    0  0.00000000000E+00 -0.00000000000E+00 -0.12767671394E+04  0.12767671394E+04  0.00000000000E+00 0.  1.
         23    2    1    2    0    0  0.17035292403E+03 -0.37482066296E+03  0.81196218558E+03  0.91493528574E+03  0.91177509125E+02 0.  0.
         11    1    3    3    0    0  0.10664712216E+03 -0.29377803399E+03  0.67185807943E+03  0.74099421106E+03  0.00000000000E+00 0. -1.
        -11    1    3    3    0    0  0.63705801871E+02 -0.81042628974E+02  0.14010410615E+03  0.17394107469E+03  0.00000000000E+00 0.  1.
         22    1    1    2    0    0 -0.17035292403E+03  0.37482066296E+03 -0.11906945015E+04  0.12598666771E+04  0.00000000000E+00 0.  1.
<mgrwt>
<rscale>  0 0.21415708E+04</rscale>
<asrwt>0</asrwt>
<pdfrwt beam="1">  1        2 0.19642571E+00 0.21415708E+04</pdfrwt>
<pdfrwt beam="2">  1       -2 0.13815920E+00 0.21415708E+04</pdfrwt>
<totfact> 0.58241471E+00</totfact>
</mgrwt>
</event>
<event>
 6    1  0.1719556E-004  0.2657477E+04  0.7818608E-02  0.8348935E-01
          2   -1    0    0  501    0  0.00000000000E+00  0.00000000000E+00  0.19357771970E+04  0.19357771970E+04  0.00000000000E+00 0.  1.
         -2   -1    0    0    0  501 -0.00000000000E+00 -0.00000000000E+00 -0.91206082840E+03  0.91206082840E+03  0.00000000000E+00 0. -1.
         23    2    1    2    0    0 -0.45031152182E+03  0.11926718011E+04  0.11465917425E+03  0.12820693725E+04  0.72860537450E+02 0.  0.
         11    1    3    3    0    0 -0.26555105643E+03  0.66291295017E+03  0.97557417668E+02  0.72075543204E+03  0.00000000000E+00 0.  1.
        -11    1    3    3    0    0 -0.18476046539E+03  0.52975885093E+03  0.17101756585E+02  0.56131394048E+03  0.00000000000E+00 0. -1.
         22    1    1    2    0    0  0.45031152182E+03 -0.11926718011E+04  0.90905719439E+03  0.15657686529E+04  0.00000000000E+00 0.  1.
<mgrwt>
<rscale>  0 0.26574774E+04</rscale>
<asrwt>0</asrwt>
<pdfrwt beam="1">  1        2 0.29781187E+00 0.26574774E+04</pdfrwt>
<pdfrwt beam="2">  1       -2 0.14031705E+00 0.26574774E+04</pdfrwt>
<totfact> 0.22803560E+00</totfact>
</mgrwt>
</event>
<event>
 6    1  0.1719556E-004  0.2985021E+04  0.7818608E-02  0.8248021E-01
         -2   -1    0    0    0  501 -0.00000000000E+00  0.00000000000E+00  0.12665196659E+04  0.12665196659E+04  0.00000000000E+00 0. -1.
          2   -1    0    0  501    0  0.00000000000E+00 -0.00000000000E+00 -0.17588254636E+04  0.17588254636E+04  0.00000000000E+00 0.  1.
         23    2    1    2    0    0  0.62128228429E+03  0.10536465770E+04  0.61796700501E+03  0.13734164136E+04  0.90700826713E+02 0.  0.
         11    1    3    3    0    0  0.20431552278E+03  0.38188289370E+03  0.26332597384E+03  0.50687271168E+03  0.00000000000E+00 0.  1.
        -11    1    3    3    0    0  0.41696676152E+03  0.67176368329E+03  0.35464103117E+03  0.86654370195E+03  0.00000000000E+00 0. -1.
         22    1    1    2    0    0 -0.62128228429E+03 -0.10536465770E+04 -0.11102728027E+04  0.16519287159E+04  0.00000000000E+00 0.  1.
<mgrwt>
<rscale>  0 0.29850206E+04</rscale>
<asrwt>0</asrwt>
<pdfrwt beam="1">  1        2 0.27058853E+00 0.29850206E+04</pdfrwt>
<pdfrwt beam="2">  1       -2 0.19484918E+00 0.29850206E+04</pdfrwt>
<totfact> 0.11214938E+00</totfact>
</mgrwt>
</event>
<event>
 6    1  0.1719556E-004  0.4762820E+04  0.7818608E-02  0.7866174E-01
         -1   -1    0    0    0  501 -0.00000000000E+00  0.00000000000E+00  0.26025548998E+04  0.26025548998E+04  0.00000000000E+00 0. -1.
          1   -1    0    0  501    0  0.00000000000E+00 -0.00000000000E+00 -0.21790560855E+04  0.21790560855E+04  0.00000000000E+00 0.  1.
         23    2    1    2    0    0 -0.10027060618E+04  0.21560036099E+04  0.32461752856E+03  0.24017898742E+04  0.97195925766E+02 0.  0.
         13    1    3    3    0    0 -0.46682211535E+03  0.10427262514E+04  0.10984627834E+03  0.11477225830E+04  0.00000000000E+00 0.  1.
        -13    1    3    3    0    0 -0.53588394641E+03  0.11132773585E+04  0.21477125022E+03  0.12540672912E+04  0.00000000000E+00 0. -1.
         22    1    1    2    0    0  0.10027060618E+04 -0.21560036099E+04  0.98881285710E+02  0.23798211111E+04  0.00000000000E+00 0.  1.
<mgrwt>
<rscale>  0 0.47628198E+04</rscale>
<asrwt>0</asrwt>
<pdfrwt beam="1">  1        1 0.33523940E+00 0.47628198E+04</pdfrwt>
<pdfrwt beam="2">  1       -1 0.40039306E+00 0.47628198E+04</pdfrwt>
<totfact> 0.11777207E-02</totfact>
</mgrwt>
</event>
<event>
 6    1  0.1719556E-004  0.1811611E+04  0.7818608E-02  0.8700149E-01
         -2   -1    0    0    0  501 -0.00000000000E+00  0.00000000000E+00  0.45183087808E+03  0.45183087808E+03  0.00000000000E+00 0. -1.
          2   -1    0    0  501    0  0.00000000000E+00 -0.00000000000E+00 -0.18159088653E+04  0.18159088653E+04  0.00000000000E+00 0.  1.
         23    2    1    2    0    0  0.30365690522E+03 -0.76178443495E+03 -0.11586031929E+04  0.14223150380E+04  0.89975925999E+02 0.  0.
         13    1    3    3    0    0  0.12932351400E+03 -0.28565097540E+03 -0.37294916662E+03  0.48724955813E+03  0.00000000000E+00 0.  1.
        -13    1    3    3    0    0  0.17433339122E+03 -0.47613345955E+03 -0.78565402626E+03  0.93506547984E+03  0.00000000000E+00 0. -1.
         22    1    1    2    0    0 -0.30365690522E+03  0.76178443495E+03 -0.20547479435E+03  0.84542470542E+03  0.00000000000E+00 0. -1.
<mgrwt>
<rscale>  0 0.18116111E+04</rscale>
<asrwt>0</asrwt>
<pdfrwt beam="1">  1        2 0.27937060E+00 0.18116111E+04</pdfrwt>
<pdfrwt beam="2">  1       -2 0.69512443E-01 0.18116111E+04</pdfrwt>
<totfact> 0.15051049E+01</totfact>
</mgrwt>
</event>
<event>
 6    1  0.1719556E-004  0.5997413E+03  0.7818608E-02  0.9905943E-01
         -2   -1    0    0    0  501 -0.00000000000E+00  0.00000000000E+00  0.89523034679E+02  0.89523034679E+02  0.00000000000E+00 0. -1.
          2   -1    0    0  501    0  0.00000000000E+00 -0.00000000000E+00 -0.10044611697E+04  0.10044611697E+04  0.00000000000E+00 0.  1.
         23    2    1    2    0    0  0.18503990992E+03 -0.25070702431E+02 -0.56920660573E+02  0.21588267560E+03  0.92179496869E+02 0.  0.
         13    1    3    3    0    0  0.10180593628E+03  0.23978404783E+01  0.14445610819E+02  0.10285365319E+03  0.00000000000E+00 0. -1.
        -13    1    3    3    0    0  0.83233973632E+02 -0.27468542910E+02 -0.71366271392E+02  0.11302902242E+03  0.00000000000E+00 0.  1.
         22    1    1    2    0    0 -0.18503990992E+03  0.25070702431E+02 -0.85801747445E+03  0.87810152878E+03  0.00000000000E+00 0.  1.
<mgrwt>
<rscale>  0 0.59974132E+03</rscale>
<asrwt>0</asrwt>
<pdfrwt beam="1">  1        2 0.15453249E+00 0.59974132E+03</pdfrwt>
<pdfrwt beam="2">  1       -2 0.13772775E-01 0.59974132E+03</pdfrwt>
<totfact> 0.10205113E+03</totfact>
</mgrwt>
</event>
<event>
 6    1  0.1719556E-004  0.1898688E+04  0.7818608E-02  0.8655510E-01
         -2   -1    0    0    0  501 -0.00000000000E+00  0.00000000000E+00  0.91769625103E+03  0.91769625103E+03  0.00000000000E+00 0. -1.
          2   -1    0    0  501    0  0.00000000000E+00 -0.00000000000E+00 -0.98208338290E+03  0.98208338290E+03  0.00000000000E+00 0.  1.
         23    2    1    2    0    0  0.43653494664E+03  0.16726335775E+03  0.79273679901E+03  0.92345938761E+03  0.76195915794E+02 0.  0.
         13    1    3    3    0    0  0.35645304336E+03  0.16664351647E+03  0.66510888939E+03  0.77278630193E+03  0.00000000000E+00 0.  1.
        -13    1    3    3    0    0  0.80081903279E+02  0.61984127997E+00  0.12762790962E+03  0.15067308568E+03  0.00000000000E+00 0. -1.
         22    1    1    2    0    0 -0.43653494664E+03 -0.16726335775E+03 -0.85712393088E+03  0.97632024631E+03  0.00000000000E+00 0.  1.
<mgrwt>
<rscale>  0 0.18986882E+04</rscale>
<asrwt>0</asrwt>
<pdfrwt beam="1">  1        2 0.15108975E+00 0.18986882E+04</pdfrwt>
<pdfrwt beam="2">  1       -2 0.14118404E+00 0.18986882E+04</pdfrwt>
<totfact> 0.85131982E+00</totfact>
</mgrwt>
</event>
<event>
 6    1  0.1719556E-004  0.4962427E+04  0.7818608E-02  0.7834329E-01
          2   -1    0    0  501    0  0.00000000000E+00  0.00000000000E+00  0.30754735107E+04  0.30754735107E+04  0.00000000000E+00 0.  1.
         -2   -1    0    0    0  501 -0.00000000000E+00 -0.00000000000E+00 -0.20017800452E+04  0.20017800452E+04  0.00000000000E+00 0. -1.
         23    2    1    2    0    0 -0.10069388680E+04  0.92400899035E+03 -0.15807841480E+04  0.20916263355E+04  0.91124678380E+02 0.  0.
         13    1    3    3    0    0 -0.38689123339E+03  0.36461477357E+03 -0.54866624693E+03  0.76397867123E+03  0.00000000000E+00 0. -1.
        -13    1    3    3    0    0 -0.62004763460E+03  0.55939421678E+03 -0.10321179010E+04  0.13276476643E+04  0.00000000000E+00 0.  1.
         22    1    1    2    0    0  0.10069388680E+04 -0.92400899035E+03  0.26544776135E+04  0.29856272203E+04  0.00000000000E+00 0.  1.
<mgrwt>
<rscale>  0 0.49624274E+04</rscale>
<asrwt>0</asrwt>
<pdfrwt beam="1">  1        2 0.47314977E+00 0.49624274E+04</pdfrwt>
<pdfrwt beam="2">  1       -2 0.30796616E+00 0.49624274E+04</pdfrwt>
<totfact> 0.32332327E-02</totfact>
</mgrwt>
</event>
<event>
 6    1  0.1719556E-004  0.3509405E+03  0.7818608E-02  0.1062230E+00
          2   -1    0    0  501    0  0.00000000000E+00  0.00000000000E+00  0.23062071152E+04  0.23062071152E+04  0.00000000000E+00 0.  1.
         -2   -1    0    0    0  501 -0.00000000000E+00 -0.00000000000E+00 -0.13350841081E+02  0.13350841081E+02  0.00000000000E+00 0. -1.
         23    2    1    2    0    0 -0.63278999283E+02 -0.13738407312E+03  0.16199370911E+04  0.16298487116E+04  0.96602424133E+02 0.  0.
         13    1    3    3    0    0  0.89844342208E+01 -0.87255704904E+02  0.64196444423E+03  0.64792949135E+03  0.00000000000E+00 0. -1.
        -13    1    3    3    0    0 -0.72263433504E+02 -0.50128368214E+02  0.97797264690E+03  0.98191922030E+03  0.00000000000E+00 0.  1.
         22    1    1    2    0    0  0.63278999283E+02  0.13738407312E+03  0.67291918300E+03  0.68970924464E+03  0.00000000000E+00 0. -1.
<mgrwt>
<rscale>  0 0.35094048E+03</rscale>
<asrwt>0</asrwt>
<pdfrwt beam="1">  1        2 0.35480078E+00 0.35094048E+03</pdfrwt>
<pdfrwt beam="2">  1       -2 0.20539774E-02 0.35094048E+03</pdfrwt>
<totfact> 0.37853054E+03</totfact>
</mgrwt>
</event>
<event>
 6    1  0.1719556E-004  0.1677755E+04  0.7818608E-02  0.8774154E-01
          2   -1    0    0  501    0  0.00000000000E+00  0.00000000000E+00  0.13603164167E+04  0.13603164167E+04  0.00000000000E+00 0.  1.
         -2   -1    0    0    0  501 -0.00000000000E+00 -0.00000000000E+00 -0.51731727594E+03  0.51731727594E+03  0.00000000000E+00 0. -1.
         23    2    1    2    0    0 -0.31735812764E+03  0.32254054309E+03  0.12099851103E+04  0.12950298093E+04  0.91047552567E+02 0.  0.
         13    1    3    3    0    0 -0.25735257013E+03  0.22494774594E+03  0.98377932633E+03  0.10414670406E+04  0.00000000000E+00 0.  1.
        -13    1    3    3    0    0 -0.60005557504E+02  0.97592797150E+02  0.22620578392E+03  0.25356276869E+03  0.00000000000E+00 0. -1.
         22    1    1    2    0    0  0.31735812764E+03 -0.32254054309E+03 -0.36698596947E+03  0.58260388336E+03  0.00000000000E+00 0. -1.
<mgrwt>
<rscale>  0 0.16777547E+04</rscale>
<asrwt>0</asrwt>
<pdfrwt beam="1">  1        2 0.20927945E+00 0.16777547E+04</pdfrwt>
<pdfrwt beam="2">  1       -2 0.79587274E-01 0.16777547E+04</pdfrwt>
<totfact> 0.20331318E+01</totfact>
</mgrwt>
</event>
<event>
 6    1  0.1719556E-004  0.2346859E+04  0.7818608E-02  0.8459671E-01
          2   -1    0    0  501    0  0.00000000000E+00  0.00000000000E+00  0.13742585163E+04  0.13742585163E+04  0.00000000000E+00 0.  1.
         -2   -1    0    0    0  501 -0.00000000000E+00 -0.00000000000E+00 -0.10019492536E+04  0.10019492536E+04  0.00000000000E+00 0. -1.
         23    2    1    2    0    0  0.21593989356E+03  0.23896858193E+02  0.13520639023E+04  0.13726539589E+04  0.94345097902E+02 0.  0.
         11    1    3    3    0    0  0.15094441612E+03  0.29761008035E+02  0.66818392438E+03  0.68566733272E+03  0.00000000000E+00 0. -1.
        -11    1    3    3    0    0  0.64995477435E+02 -0.58641498413E+01  0.68387997796E+03  0.68698662621E+03  0.00000000000E+00 0.  1.
         22    1    1    2    0    0 -0.21593989356E+03 -0.23896858193E+02 -0.97975463965E+03  0.10035538109E+04  0.00000000000E+00 0. -1.
<mgrwt>
<rscale>  0 0.23468594E+04</rscale>
<asrwt>0</asrwt>
<pdfrwt beam="1">  1        2 0.21142439E+00 0.23468594E+04</pdfrwt>
<pdfrwt beam="2">  1       -2 0.15414604E+00 0.23468594E+04</pdfrwt>
<totfact> 0.37679368E+00</totfact>
</mgrwt>
</event>
<event>
 6    1  0.1719556E-004  0.1738346E+04  0.7818608E-02  0.8739791E-01
         -2   -1    0    0    0  501 -0.00000000000E+00  0.00000000000E+00  0.64061980383E+03  0.64061980383E+03  0.00000000000E+00 0. -1.
          2   -1    0    0  501    0  0.00000000000E+00 -0.00000000000E+00 -0.11792674104E+04  0.11792674104E+04  0.00000000000E+00 0.  1.
         23    2    1    2    0    0 -0.34418864013E+03  0.62278823722E+03 -0.78826724478E+03  0.10658043460E+04  0.90789021240E+02 0.  0.
         11    1    3    3    0    0 -0.19763350802E+03  0.27304018085E+03 -0.39998127668E+03  0.52306306077E+03  0.00000000000E+00 0.  1.
        -11    1    3    3    0    0 -0.14655513211E+03  0.34974805637E+03 -0.38828596810E+03  0.54274128525E+03  0.00000000000E+00 0. -1.
         22    1    1    2    0    0  0.34418864013E+03 -0.62278823722E+03  0.24961963817E+03  0.75408286824E+03  0.00000000000E+00 0. -1.
<mgrwt>
<rscale>  0 0.17383464E+04</rscale>
<asrwt>0</asrwt>
<pdfrwt beam="1">  1        2 0.18142576E+00 0.17383464E+04</pdfrwt>
<pdfrwt beam="2">  1       -2 0.98556893E-01 0.17383464E+04</pdfrwt>
<totfact> 0.15811051E+01</totfact>
</mgrwt>
</event>
<event>
 6    1  0.1719556E-004  0.2573336E+04  0.7818608E-02  0.8377315E-01
          2   -1    0    0  501    0  0.00000000000E+00  0.00000000000E+00  0.14843229742E+04  0.14843229742E+04  0.00000000000E+00 0.  1.
         -2   -1    0    0    0  501 -0.00000000000E+00 -0.00000000000E+00 -0.11153333734E+04  0.11153333734E+04  0.00000000000E+00 0. -1.
         23    2    1    2    0    0  0.60105738488E+03 -0.11307102271E+04  0.28190774147E+03  0.13161615686E+04  0.11416524159E+03 0.  0.
         13    1    3    3    0    0  0.24560214722E+03 -0.37537480019E+03  0.61647207943E+02  0.45279910953E+03  0.00000000000E+00 0.  1.
        -13    1    3    3    0    0  0.35545523766E+03 -0.75533542691E+03  0.22026053353E+03  0.86336245908E+03  0.00000000000E+00 0. -1.
         22    1    1    2    0    0 -0.60105738488E+03  0.11307102271E+04  0.87081859380E+02  0.12834947790E+04  0.00000000000E+00 0.  1.
<mgrwt>
<rscale>  0 0.25733363E+04</rscale>
<asrwt>0</asrwt>
<pdfrwt beam="1">  1        2 0.22835738E+00 0.25733363E+04</pdfrwt>
<pdfrwt beam="2">  1       -2 0.17158975E+00 0.25733363E+04</pdfrwt>
<totfact> 0.23854586E+00</totfact>
</mgrwt>
</event>
<event>
 6    1  0.1719556E-004  0.1907020E+04  0.7818608E-02  0.8651370E-01
          2   -1    0    0  501    0  0.00000000000E+00  0.00000000000E+00  0.13461476404E+04  0.13461476404E+04  0.00000000000E+00 0.  1.
         -2   -1    0    0    0  501 -0.00000000000E+00 -0.00000000000E+00 -0.67539526421E+03  0.67539526421E+03  0.00000000000E+00 0. -1.
         23    2    1    2    0    0  0.21294796542E+03  0.24334226991E+03  0.12845625187E+04  0.13277668691E+04  0.91113654106E+02 0.  0.
         13    1    3    3    0    0  0.15415803069E+03  0.15667316801E+03  0.10160853179E+04  0.10395867223E+04  0.00000000000E+00 0. -1.
        -13    1    3    3    0    0  0.58789934725E+02  0.86669101906E+02  0.26847720086E+03  0.28818014684E+03  0.00000000000E+00 0.  1.
         22    1    1    2    0    0 -0.21294796542E+03 -0.24334226991E+03 -0.61381014254E+03  0.69377603547E+03  0.00000000000E+00 0. -1.
<mgrwt>
<rscale>  0 0.19070204E+04</rscale>
<asrwt>0</asrwt>
<pdfrwt beam="1">  1        2 0.20709964E+00 0.19070204E+04</pdfrwt>
<pdfrwt beam="2">  1       -2 0.10390696E+00 0.19070204E+04</pdfrwt>
<totfact> 0.10967266E+01</totfact>
</mgrwt>
</event>
<event>
 6    1  0.1719556E-004  0.1284056E+04  0.7818608E-02  0.9042305E-01
         -2   -1    0    0    0  501 -0.00000000000E+00  0.00000000000E+00  0.18190687116E+03  0.18190687116E+03  0.00000000000E+00 0. -1.
          2   -1    0    0  501    0  0.00000000000E+00 -0.00000000000E+00 -0.22659956760E+04  0.22659956760E+04  0.00000000000E+00 0.  1.
         23    2    1    2    0    0 -0.50228489206E+03  0.12392367849E+03 -0.17614574072E+04  0.18381991688E+04  0.92718907918E+02 0.  0.
         11    1    3    3    0    0 -0.16006792199E+03  0.32777541521E+02 -0.41663087622E+03  0.44752362384E+03  0.00000000000E+00 0. -1.
        -11    1    3    3    0    0 -0.34221697007E+03  0.91146136968E+02 -0.13448265310E+04  0.13906755449E+04  0.00000000000E+00 0.  1.
         22    1    1    2    0    0  0.50228489206E+03 -0.12392367849E+03 -0.32263139768E+03  0.60970337842E+03  0.00000000000E+00 0. -1.
<mgrwt>
<rscale>  0 0.12840564E+04</rscale>
<asrwt>0</asrwt>
<pdfrwt beam="1">  1        2 0.34861471E+00 0.12840564E+04</pdfrwt>
<pdfrwt beam="2">  1       -2 0.27985673E-01 0.12840564E+04</pdfrwt>
<totfact> 0.54410903E+01</totfact>
</mgrwt>
</event>
<event>
 6    1  0.1719556E-004  0.1796842E+04  0.7818608E-02  0.8707981E-01
          2   -1    0    0  501    0  0.00000000000E+00  0.00000000000E+00  0.53489599547E+03  0.53489599547E+03  0.00000000000E+00 0.  1.
         -2   -1    0    0    0  501 -0.00000000000E+00 -0.00000000000E+00 -0.15090040506E+04  0.15090040506E+04  0.00000000000E+00 0. -1.
         23    2    1    2    0    0  0.45998510170E+03 -0.39854630166E+03 -0.12364782637E+04  0.13811304219E+04  0.90649309561E+02 0.  0.
         13    1    3    3    0    0  0.85723895000E+02 -0.12503938249E+03 -0.31962658578E+03  0.35375780936E+03  0.00000000000E+00 0. -1.
        -13    1    3    3    0    0  0.37426120670E+03 -0.27350691917E+03 -0.91685167792E+03  0.10273726125E+04  0.00000000000E+00 0.  1.
         22    1    1    2    0    0 -0.45998510170E+03  0.39854630166E+03  0.26237020859E+03  0.66276962416E+03  0.00000000000E+00 0.  1.
<mgrwt>
<rscale>  0 0.17968419E+04</rscale>
<asrwt>0</asrwt>
<pdfrwt beam="1">  1        2 0.82291693E-01 0.17968419E+04</pdfrwt>
<pdfrwt beam="2">  1       -2 0.23215447E+00 0.17968419E+04</pdfrwt>
<totfact> 0.44511242E+00</totfact>
</mgrwt>
</event>
<event>
 6    1  0.1719556E-004  0.1802901E+04  0.7818608E-02  0.8704758E-01
          1   -1    0    0  501    0  0.00000000000E+00  0.00000000000E+00  0.29150507970E+04  0.29150507970E+04  0.00000000000E+00 0.  1.
         -1   -1    0    0    0  501 -0.00000000000E+00 -0.00000000000E+00 -0.27876453041E+03  0.27876453041E+03  0.00000000000E+00 0. -1.
         23    2    1    2    0    0 -0.58211959738E+03 -0.60443725135E+03  0.75232377210E+03  0.11314084090E+04  0.99429942144E+02 0.  0.
         13    1    3    3    0    0 -0.30264871631E+03 -0.36141056850E+03  0.47044431442E+03  0.66598175461E+03  0.00000000000E+00 0. -1.
        -13    1    3    3    0    0 -0.27947088107E+03 -0.24302668285E+03  0.28187945768E+03  0.46542665437E+03  0.00000000000E+00 0.  1.
         22    1    1    2    0    0  0.58211959738E+03  0.60443725135E+03  0.18839624945E+04  0.20624069184E+04  0.00000000000E+00 0.  1.
<mgrwt>
<rscale>  0 0.18029007E+04</rscale>
<asrwt>0</asrwt>
<pdfrwt beam="1">  1        1 0.44846933E+00 0.18029007E+04</pdfrwt>
<pdfrwt beam="2">  1       -1 0.42886853E-01 0.18029007E+04</pdfrwt>
<totfact> 0.34910995E+00</totfact>
</mgrwt>
</event>
<event>
 6    1  0.1719556E-004  0.2707058E+04  0.7818608E-02  0.8332718E-01
          2   -1    0    0  501    0  0.00000000000E+00  0.00000000000E+00  0.16026688944E+04  0.16026688944E+04  0.00000000000E+00 0.  1.
         -2   -1    0    0    0  501 -0.00000000000E+00 -0.00000000000E+00 -0.11431189664E+04  0.11431189664E+04  0.00000000000E+00 0. -1.
         23    2    1    2    0    0 -0.14756143627E+03 -0.37054928831E+03 -0.10802920526E+04  0.11551293564E+04  0.90618753270E+02 0.  0.
         13    1    3    3    0    0  0.16376405312E+00 -0.61803207759E+01 -0.81529360849E+02  0.81763438431E+02  0.00000000000E+00 0. -1.
        -13    1    3    3    0    0 -0.14772520032E+03 -0.36436896753E+03 -0.99876269177E+03  0.10733659179E+04  0.00000000000E+00 0.  1.
         22    1    1    2    0    0  0.14756143627E+03  0.37054928831E+03  0.15398419806E+04  0.15906585045E+04  0.00000000000E+00 0.  1.
<mgrwt>
<rscale>  0 0.27070583E+04</rscale>
<asrwt>0</asrwt>
<pdfrwt beam="1">  1        2 0.24656445E+00 0.27070583E+04</pdfrwt>
<pdfrwt beam="2">  1       -2 0.17586446E+00 0.27070583E+04</pdfrwt>
<totfact> 0.18882973E+00</totfact>
</mgrwt>
</event>
<event>
 6    1  0.1719556E-004  0.1235336E+04  0.7818608E-02  0.9082477E-01
          2   -1    0    0  501    0  0.00000000000E+00  0.00000000000E+00  0.18560324366E+04  0.18560324366E+04  0.00000000000E+00 0.  1.
         -2   -1    0    0    0  501 -0.00000000000E+00 -0.00000000000E+00 -0.20555352912E+03  0.20555352912E+03  0.00000000000E+00 0. -1.
         23    2    1    2    0    0  0.24041703793E+03  0.17198296344E+03  0.17283978441E+04  0.17558902796E+04  0.91722814260E+02 0.  0.
         13    1    3    3    0    0  0.86164354171E+02  0.67708499877E+02  0.91030073935E+03  0.91687304080E+03  0.00000000000E+00 0. -1.
        -13    1    3    3    0    0  0.15425268376E+03  0.10427446357E+03  0.81809710470E+03  0.83901723875E+03  0.00000000000E+00 0.  1.
         22    1    1    2    0    0 -0.24041703793E+03 -0.17198296344E+03 -0.77918936609E+02  0.30569568614E+03  0.00000000000E+00 0. -1.
<mgrwt>
<rscale>  0 0.12353364E+04</rscale>
<asrwt>0</asrwt>
<pdfrwt beam="1">  1        2 0.28554344E+00 0.12353364E+04</pdfrwt>
<pdfrwt beam="2">  1       -2 0.31623621E-01 0.12353364E+04</pdfrwt>
<totfact> 0.73482977E+01</totfact>
</mgrwt>
</event>
<event>
 6    1  0.1719556E-004  0.2607784E+04  0.7818608E-02  0.8365562E-01
         -2   -1    0    0    0  501 -0.00000000000E+00  0.00000000000E+00  0.10499074164E+04  0.10499074164E+04  0.00000000000E+00 0. -1.
          2   -1    0    0  501    0  0.00000000000E+00 -0.00000000000E+00 -0.16193186382E+04  0.16193186382E+04  0.00000000000E+00 0.  1.
         23    2    1    2    0    0  0.11438476411E+04  0.10490655531E+03  0.34313112024E+03  0.12022133289E+04  0.90471604516E+02 0.  0.
         13    1    3    3    0    0  0.29251534666E+03  0.11465533325E+02  0.12578635187E+03  0.31862029566E+03  0.00000000000E+00 0. -1.
        -13    1    3    3    0    0  0.85133229442E+03  0.93441021980E+02  0.21734476837E+03  0.88359303328E+03  0.00000000000E+00 0.  1.
         22    1    1    2    0    0 -0.11438476411E+04 -0.10490655531E+03 -0.91254234197E+03  0.14670127257E+04  0.00000000000E+00 0.  1.
<mgrwt>
<rscale>  0 0.26077842E+04</rscale>
<asrwt>0</asrwt>
<pdfrwt beam="1">  1        2 0.24912595E+00 0.26077842E+04</pdfrwt>
<pdfrwt beam="2">  1       -2 0.16152422E+00 0.26077842E+04</pdfrwt>
<totfact> 0.23606523E+00</totfact>
</mgrwt>
</event>
<event>
 6    1  0.1719556E-004  0.6773275E+03  0.7818608E-02  0.9756810E-01
          2   -1    0    0  501    0  0.00000000000E+00  0.00000000000E+00  0.31346872956E+03  0.31346872956E+03  0.00000000000E+00 0.  1.
         -2   -1    0    0    0  501 -0.00000000000E+00 -0.00000000000E+00 -0.36588386492E+03  0.36588386492E+03  0.00000000000E+00 0. -1.
         23    2    1    2    0    0 -0.22411113326E+03 -0.22465025621E+03 -0.12646120608E+03  0.35350545507E+03  0.90995233162E+02 0.  0.
         13    1    3    3    0    0 -0.14170274952E+03 -0.14188241806E+03 -0.12577524041E+03  0.23670593756E+03  0.00000000000E+00 0. -1.
        -13    1    3    3    0    0 -0.82408383743E+02 -0.82767838151E+02 -0.68596567014E+00  0.11679951752E+03  0.00000000000E+00 0.  1.
         22    1    1    2    0    0  0.22411113326E+03  0.22465025621E+03  0.74046070719E+02  0.32584713940E+03  0.00000000000E+00 0.  1.
<mgrwt>
<rscale>  0 0.67732754E+03</rscale>
<asrwt>0</asrwt>
<pdfrwt beam="1">  1        2 0.48225959E-01 0.67732754E+03</pdfrwt>
<pdfrwt beam="2">  1       -2 0.56289825E-01 0.67732754E+03</pdfrwt>
<totfact> 0.31267889E+02</totfact>
</mgrwt>
</event>
<event>
 6    1  0.1719556E-004  0.3412741E+04  0.7818608E-02  0.8134786E-01
         -2   -1    0    0    0  501 -0.00000000000E+00  0.00000000000E+00  0.17270815328E+04  0.17270815328E+04  0.00000000000E+00 0. -1.
          2   -1    0    0  501    0  0.00000000000E+00 -0.00000000000E+00 -0.16859074201E+04  0.16859074201E+04  0.00000000000E+00 0.  1.
         23    2    1    2    0    0 -0.15843309641E+04  0.37405409771E+03  0.52800715732E+03  0.17138634469E+04  0.92278300213E+02 0.  0.
         11    1    3    3    0    0 -0.94472914721E+03  0.19828545180E+03  0.27247689229E+03  0.10030323718E+04  0.00000000000E+00 0. -1.
        -11    1    3    3    0    0 -0.63960181685E+03  0.17576864591E+03  0.25553026503E+03  0.71083107512E+03  0.00000000000E+00 0.  1.
         22    1    1    2    0    0  0.15843309641E+04 -0.37405409771E+03 -0.48683304461E+03  0.16991255060E+04  0.00000000000E+00 0.  1.
<mgrwt>
<rscale>  0 0.34127406E+04</rscale>
<asrwt>0</asrwt>
<pdfrwt beam="1">  1        2 0.25937037E+00 0.34127406E+04</pdfrwt>
<pdfrwt beam="2">  1       -2 0.26570485E+00 0.34127406E+04</pdfrwt>
<totfact> 0.42549283E-01</totfact>
</mgrwt>
</event>
<event>
 6    1  0.1719556E-004  0.2079989E+04  0.7818608E-02  0.8570110E-01
          2   -1    0    0  501    0  0.00000000000E+00  0.00000000000E+00  0.68990030812E+03  0.68990030812E+03  0.00000000000E+00 0.  1.
         -2   -1    0    0    0  501 -0.00000000000E+00 -0.00000000000E+00 -0.15677461608E+04  0.15677461608E+04  0.00000000000E+00 0. -1.
         23    2    1    2    0    0 -0.64638247988E+02  0.10355908750E+04 -0.40536196117E+03  0.11175291104E+04  0.89030497136E+02 0.  0.
         13    1    3    3    0    0 -0.58428531558E+01  0.69716043095E+03 -0.29119633324E+03  0.75555417404E+03  0.00000000000E+00 0.  1.
        -13    1    3    3    0    0 -0.58795394833E+02  0.33843044406E+03 -0.11416562793E+03  0.36197493632E+03  0.00000000000E+00 0. -1.
         22    1    1    2    0    0  0.64638247988E+02 -0.10355908750E+04 -0.47248389148E+03  0.11401173585E+04  0.00000000000E+00 0. -1.
<mgrwt>
<rscale>  0 0.20799890E+04</rscale>
<asrwt>0</asrwt>
<pdfrwt beam="1">  1        2 0.10613851E+00 0.20799890E+04</pdfrwt>
<pdfrwt beam="2">  1       -2 0.24119172E+00 0.20799890E+04</pdfrwt>
<totfact> 0.28046051E+00</totfact>
</mgrwt>
</event>
<event>
 6    1  0.1719556E-004  0.2146907E+04  0.7818608E-02  0.8540857E-01
          2   -1    0    0  501    0  0.00000000000E+00  0.00000000000E+00  0.17349613286E+04  0.17349613286E+04  0.00000000000E+00 0.  1.
         -2   -1    0    0    0  501 -0.00000000000E+00 -0.00000000000E+00 -0.66416623723E+03  0.66416623723E+03  0.00000000000E+00 0. -1.
         23    2    1    2    0    0  0.68722726612E+03 -0.71999116439E+03  0.97956264341E+03  0.13996317171E+04  0.93580869365E+02 0.  0.
         13    1    3    3    0    0  0.29144141822E+03 -0.33297703021E+03  0.37620694801E+03  0.58081276728E+03  0.00000000000E+00 0. -1.
        -13    1    3    3    0    0  0.39578584790E+03 -0.38701413418E+03  0.60335569540E+03  0.81881894985E+03  0.00000000000E+00 0.  1.
         22    1    1    2    0    0 -0.68722726612E+03  0.71999116439E+03  0.91232448008E+02  0.99949584875E+03  0.00000000000E+00 0. -1.
<mgrwt>
<rscale>  0 0.21469073E+04</rscale>
<asrwt>0</asrwt>
<pdfrwt beam="1">  1        2 0.26691713E+00 0.21469073E+04</pdfrwt>
<pdfrwt beam="2">  1       -2 0.10217942E+00 0.21469073E+04</pdfrwt>
<totfact> 0.67550024E+00</totfact>
</mgrwt>
</event>
<event>
 6    1  0.1719556E-004  0.2424488E+04  0.7818608E-02  0.8430392E-01
         -2   -1    0    0    0  501 -0.00000000000E+00  0.00000000000E+00  0.10348845056E+04  0.10348845056E+04  0.00000000000E+00 0. -1.
          2   -1    0    0  501    0  0.00000000000E+00 -0.00000000000E+00 -0.14199999720E+04  0.14199999720E+04  0.00000000000E+00 0.  1.
         23    2    1    2    0    0 -0.33794934377E+03  0.15558531804E+03  0.97363560753E+03  0.10461186947E+04  0.89339112038E+02 0.  0.
         11    1    3    3    0    0 -0.22282306666E+03  0.11155670801E+03  0.75591975574E+03  0.79593322286E+03  0.00000000000E+00 0. -1.
        -11    1    3    3    0    0 -0.11512627711E+03  0.44028610029E+02  0.21771585180E+03  0.25018547181E+03  0.00000000000E+00 0.  1.
         22    1    1    2    0    0  0.33794934377E+03 -0.15558531804E+03 -0.13587510740E+04  0.14087657829E+04  0.00000000000E+00 0.  1.
<mgrwt>
<rscale>  0 0.24244884E+04</rscale>
<asrwt>0</asrwt>
<pdfrwt beam="1">  1        2 0.21846153E+00 0.24244884E+04</pdfrwt>
<pdfrwt beam="2">  1       -2 0.15921300E+00 0.24244884E+04</pdfrwt>
<totfact> 0.32296408E+00</totfact>
</mgrwt>
</event>
<event>
 6    1  0.1719556E-004  0.3021250E+04  0.7818608E-02  0.8237689E-01
          2   -1    0    0  501    0  0.00000000000E+00  0.00000000000E+00  0.33554012507E+04  0.33554012507E+04  0.00000000000E+00 0.  1.
         -2   -1    0    0    0  501 -0.00000000000E+00 -0.00000000000E+00 -0.68009390418E+03  0.68009390418E+03  0.00000000000E+00 0. -1.
         23    2    1    2    0    0  0.14738116463E+04 -0.32400429843E+03  0.13026484006E+04  0.19955706131E+04  0.91157347477E+02 0.  0.
         11    1    3    3    0    0  0.86166071990E+03 -0.19661091156E+03  0.70396482535E+03  0.11299033242E+04  0.00000000000E+00 0. -1.
        -11    1    3    3    0    0  0.61215092644E+03 -0.12739338687E+03  0.59868357522E+03  0.86566728886E+03  0.00000000000E+00 0.  1.
         22    1    1    2    0    0 -0.14738116463E+04  0.32400429843E+03  0.13726589459E+04  0.20399245418E+04  0.00000000000E+00 0. -1.
<mgrwt>
<rscale>  0 0.30212500E+04</rscale>
<asrwt>0</asrwt>
<pdfrwt beam="1">  1        2 0.51621557E+00 0.30212500E+04</pdfrwt>
<pdfrwt beam="2">  1       -2 0.10462983E+00 0.30212500E+04</pdfrwt>
<totfact> 0.64712453E-01</totfact>
</mgrwt>
</event>
<event>
 6    1  0.1719556E-004  0.1960179E+04  0.7818608E-02  0.8625468E-01
          2   -1    0    0  501    0  0.00000000000E+00  0.00000000000E+00  0.13361629849E+04  0.13361629849E+04  0.00000000000E+00 0.  1.
         -2   -1    0    0    0  501 -0.00000000000E+00 -0.00000000000E+00 -0.71890612676E+03  0.71890612676E+03  0.00000000000E+00 0. -1.
         23    2    1    2    0    0  0.79739219302E+03 -0.23388696806E+03 -0.23039980516E+03  0.86803109955E+03  0.99279888388E+02 0.  0.
         13    1    3    3    0    0  0.69048763002E+03 -0.16635616265E+03 -0.20239170854E+03  0.73851874976E+03  0.00000000000E+00 0. -1.
        -13    1    3    3    0    0  0.10690456301E+03 -0.67530805417E+02 -0.28008096619E+02  0.12951234979E+03  0.00000000000E+00 0.  1.
         22    1    1    2    0    0 -0.79739219302E+03  0.23388696806E+03  0.84765666328E+03  0.11870380121E+04  0.00000000000E+00 0.  1.
<mgrwt>
<rscale>  0 0.19601793E+04</rscale>
<asrwt>0</asrwt>
<pdfrwt beam="1">  1        2 0.20556354E+00 0.19601793E+04</pdfrwt>
<pdfrwt beam="2">  1       -2 0.11060094E+00 0.19601793E+04</pdfrwt>
<totfact> 0.95197938E+00</totfact>
</mgrwt>
</event>
<event>
 6    1  0.1719556E-004  0.2488302E+04  0.7818608E-02  0.8407165E-01
          2   -1    0    0  501    0  0.00000000000E+00  0.00000000000E+00  0.11947936323E+04  0.11947936323E+04  0.00000000000E+00 0.  1.
         -2   -1    0    0    0  501 -0.00000000000E+00 -0.00000000000E+00 -0.12955469024E+04  0.12955469024E+04  0.00000000000E+00 0. -1.
         23    2    1    2    0    0  0.71690930605E+03  0.78735278506E+03  0.59057297348E+03  0.12207676394E+04  0.87257270245E+02 0.  0.
         13    1    3    3    0    0  0.30170154140E+03  0.26883460034E+03  0.22830295838E+03  0.46413155811E+03  0.00000000000E+00 0.  1.
        -13    1    3    3    0    0  0.41520776465E+03  0.51851818472E+03  0.36227001510E+03  0.75663608132E+03  0.00000000000E+00 0. -1.
         22    1    1    2    0    0 -0.71690930605E+03 -0.78735278506E+03 -0.69132624366E+03  0.12695728953E+04  0.00000000000E+00 0. -1.
<mgrwt>
<rscale>  0 0.24883016E+04</rscale>
<asrwt>0</asrwt>
<pdfrwt beam="1">  1        2 0.18381440E+00 0.24883016E+04</pdfrwt>
<pdfrwt beam="2">  1       -2 0.19931491E+00 0.24883016E+04</pdfrwt>
<totfact> 0.22886782E+00</totfact>
</mgrwt>
</event>
<event>
 6    1  0.1719556E-004  0.2124138E+04  0.7818608E-02  0.8550684E-01
          2   -1    0    0  501    0  0.00000000000E+00  0.00000000000E+00  0.10230570513E+04  0.10230570513E+04  0.00000000000E+00 0.  1.
         -2   -1    0    0    0  501 -0.00000000000E+00 -0.00000000000E+00 -0.11025681710E+04  0.11025681710E+04  0.00000000000E+00 0. -1.
         23    2    1    2    0    0 -0.12230355637E+03 -0.10097921613E+04  0.25914032528E+03  0.10535603129E+04  0.90538697955E+02 0.  0.
         13    1    3    3    0    0 -0.95059273202E+02 -0.49585862064E+03  0.15826438121E+03  0.52911213504E+03  0.00000000000E+00 0. -1.
        -13    1    3    3    0    0 -0.27244283165E+02 -0.51393354063E+03  0.10087594407E+03  0.52444817785E+03  0.00000000000E+00 0.  1.
         22    1    1    2    0    0  0.12230355637E+03  0.10097921613E+04 -0.33865144497E+03  0.10720649094E+04  0.00000000000E+00 0. -1.
<mgrwt>
<rscale>  0 0.21241376E+04</rscale>
<asrwt>0</asrwt>
<pdfrwt beam="1">  1        2 0.15739339E+00 0.21241376E+04</pdfrwt>
<pdfrwt beam="2">  1       -2 0.16962587E+00 0.21241376E+04</pdfrwt>
<totfact> 0.48012201E+00</totfact>
</mgrwt>
</event>
<event>
 6    1  0.1719556E-004  0.2367620E+04  0.7818608E-02  0.8451727E-01
          2   -1    0    0  501    0  0.00000000000E+00  0.00000000000E+00  0.33579094559E+04  0.33579094559E+04  0.00000000000E+00 0.  1.
         -2   -1    0    0    0  501 -0.00000000000E+00 -0.00000000000E+00 -0.41734465813E+03  0.41734465813E+03  0.00000000000E+00 0. -1.
         23    2    1    2    0    0  0.98840569143E+03  0.58892512458E+03  0.10400714737E+04  0.15536210462E+04  0.90614963198E+02 0.  0.
         11    1    3    3    0    0  0.41830541839E+03  0.24328957312E+03  0.49775337473E+03  0.69421009896E+03  0.00000000000E+00 0. -1.
        -11    1    3    3    0    0  0.57010027304E+03  0.34563555146E+03  0.54231809899E+03  0.85941094725E+03  0.00000000000E+00 0.  1.
         22    1    1    2    0    0 -0.98840569143E+03 -0.58892512458E+03  0.19004933240E+04  0.22216330678E+04  0.00000000000E+00 0.  1.
<mgrwt>
<rscale>  0 0.23676195E+04</rscale>
<asrwt>0</asrwt>
<pdfrwt beam="1">  1        2 0.51660144E+00 0.23676195E+04</pdfrwt>
<pdfrwt beam="2">  1       -2 0.64206873E-01 0.23676195E+04</pdfrwt>
<totfact> 0.20614564E+00</totfact>
</mgrwt>
</event>
<event>
 6    1  0.1719556E-004  0.2410625E+04  0.7818608E-02  0.8435537E-01
         -2   -1    0    0    0  501 -0.00000000000E+00  0.00000000000E+00  0.14088326886E+04  0.14088326886E+04  0.00000000000E+00 0. -1.
          2   -1    0    0  501    0  0.00000000000E+00 -0.00000000000E+00 -0.10311925817E+04  0.10311925817E+04  0.00000000000E+00 0.  1.
         23    2    1    2    0    0  0.83593495738E+03 -0.78909575503E+03 -0.17175889632E+03  0.11659378995E+04  0.91927708008E+02 0.  0.
         11    1    3    3    0    0  0.70860686547E+03 -0.62192700076E+03 -0.14991016698E+03  0.95466745113E+03  0.00000000000E+00 0. -1.
        -11    1    3    3    0    0  0.12732809191E+03 -0.16716875427E+03 -0.21848729338E+02  0.21127044840E+03  0.00000000000E+00 0.  1.
         22    1    1    2    0    0 -0.83593495738E+03  0.78909575503E+03  0.54939900323E+03  0.12740873708E+04  0.00000000000E+00 0. -1.
<mgrwt>
<rscale>  0 0.24106247E+04</rscale>
<asrwt>0</asrwt>
<pdfrwt beam="1">  1        2 0.15864501E+00 0.24106247E+04</pdfrwt>
<pdfrwt beam="2">  1       -2 0.21674349E+00 0.24106247E+04</pdfrwt>
<totfact> 0.22402284E+00</totfact>
</mgrwt>
</event>
<event>
 6    1  0.1719556E-004  0.1337160E+04  0.7818608E-02  0.9000605E-01
         -2   -1    0    0    0  501 -0.00000000000E+00  0.00000000000E+00  0.67656292792E+03  0.67656292792E+03  0.00000000000E+00 0. -1.
          2   -1    0    0  501    0  0.00000000000E+00 -0.00000000000E+00 -0.66069165124E+03  0.66069165124E+03  0.00000000000E+00 0.  1.
         23    2    1    2    0    0  0.26419143860E+03 -0.54172496970E+03 -0.27363062803E+03  0.66861834633E+03  0.94412464355E+02 0.  0.
         13    1    3    3    0    0  0.18513479463E+03 -0.31246977166E+03 -0.12457040150E+03  0.38396619033E+03  0.00000000000E+00 0. -1.
        -13    1    3    3    0    0  0.79056643974E+02 -0.22925519803E+03 -0.14906022653E+03  0.28465215600E+03  0.00000000000E+00 0.  1.
         22    1    1    2    0    0 -0.26419143860E+03  0.54172496970E+03  0.28950190471E+03  0.66863623283E+03  0.00000000000E+00 0. -1.
<mgrwt>
<rscale>  0 0.13371604E+04</rscale>
<asrwt>0</asrwt>
<pdfrwt beam="1">  1        2 0.10164487E+00 0.13371604E+04</pdfrwt>
<pdfrwt beam="2">  1       -2 0.10408661E+00 0.13371604E+04</pdfrwt>
<totfact> 0.32340721E+01</totfact>
</mgrwt>
</event>
<event>
 6    1  0.1719556E-004  0.1634403E+04  0.7818608E-02  0.8799688E-01
          2   -1    0    0  501    0  0.00000000000E+00  0.00000000000E+00  0.12048786291E+04  0.12048786291E+04  0.00000000000E+00 0.  1.
         -2   -1    0    0    0  501 -0.00000000000E+00 -0.00000000000E+00 -0.55426160830E+03  0.55426160830E+03  0.00000000000E+00 0. -1.
         23    2    1    2    0    0  0.73413728719E+03 -0.28826443876E+03  0.54569416975E+03  0.96348783356E+03  0.92047462790E+02 0.  0.
         11    1    3    3    0    0  0.49233436840E+03 -0.21514194944E+03  0.32422811976E+03  0.62753729958E+03  0.00000000000E+00 0.  1.
        -11    1    3    3    0    0  0.24180291879E+03 -0.73122489320E+02  0.22146604999E+03  0.33595053398E+03  0.00000000000E+00 0. -1.
         22    1    1    2    0    0 -0.73413728719E+03  0.28826443876E+03  0.10492285107E+03  0.79565240387E+03  0.00000000000E+00 0. -1.
<mgrwt>
<rscale>  0 0.16344026E+04</rscale>
<asrwt>0</asrwt>
<pdfrwt beam="1">  1        2 0.18536594E+00 0.16344026E+04</pdfrwt>
<pdfrwt beam="2">  1       -2 0.85271017E-01 0.16344026E+04</pdfrwt>
<totfact> 0.21527219E+01</totfact>
</mgrwt>
</event>
<event>
 6    1  0.1719556E-004  0.3250067E+04  0.7818608E-02  0.8175718E-01
         -2   -1    0    0    0  501 -0.00000000000E+00  0.00000000000E+00  0.24621404837E+04  0.24621404837E+04  0.00000000000E+00 0. -1.
          2   -1    0    0  501    0  0.00000000000E+00 -0.00000000000E+00 -0.10725358309E+04  0.10725358309E+04  0.00000000000E+00 0.  1.
         23    2    1    2    0    0  0.11056257916E+03  0.25985393541E+03  0.24343575021E+04  0.24524301930E+04  0.92570252466E+02 0.  0.
         13    1    3    3    0    0  0.82739375791E+02  0.25229278600E+03  0.20750963653E+04  0.20920139530E+04  0.00000000000E+00 0.  1.
        -13    1    3    3    0    0  0.27823203366E+02  0.75611494067E+01  0.35926113679E+03  0.36041623997E+03  0.00000000000E+00 0. -1.
         22    1    1    2    0    0 -0.11056257916E+03 -0.25985393541E+03 -0.10447528493E+04  0.10822461216E+04  0.00000000000E+00 0.  1.
<mgrwt>
<rscale>  0 0.32500670E+04</rscale>
<asrwt>0</asrwt>
<pdfrwt beam="1">  1        2 0.16500551E+00 0.32500670E+04</pdfrwt>
<pdfrwt beam="2">  1       -2 0.37879084E+00 0.32500670E+04</pdfrwt>
<totfact> 0.19356757E-01</totfact>
</mgrwt>
</event>
<event>
 6    1  0.1719556E-004  0.2058654E+04  0.7818608E-02  0.8579679E-01
          2   -1    0    0  501    0  0.00000000000E+00  0.00000000000E+00  0.21106202646E+04  0.21106202646E+04  0.00000000000E+00 0.  1.
         -2   -1    0    0    0  501 -0.00000000000E+00 -0.00000000000E+00 -0.50199157773E+03  0.50199157773E+03  0.00000000000E+00 0. -1.
         23    2    1    2    0    0  0.76205116398E+03 -0.67044207709E+03  0.10070783333E+04  0.14327485523E+04  0.91362407542E+02 0.  0.
         13    1    3    3    0    0  0.67385378694E+03 -0.62689875645E+03  0.92092612924E+03  0.13019930539E+04  0.00000000000E+00 0.  1.
        -13    1    3    3    0    0  0.88197377042E+02 -0.43543320638E+02  0.86152204020E+02  0.13075549834E+03  0.00000000000E+00 0. -1.
         22    1    1    2    0    0 -0.76205116398E+03  0.67044207709E+03  0.60155035359E+03  0.11798632900E+04  0.00000000000E+00 0. -1.
<mgrwt>
<rscale>  0 0.20586535E+04</rscale>
<asrwt>0</asrwt>
<pdfrwt beam="1">  1        2 0.32471081E+00 0.20586535E+04</pdfrwt>
<pdfrwt beam="2">  1       -2 0.77229474E-01 0.20586535E+04</pdfrwt>
<totfact> 0.80168824E+00</totfact>
</mgrwt>
</event>
<event>
 6    1  0.1719556E-004  0.2222391E+04  0.7818608E-02  0.8509166E-01
          1   -1    0    0  501    0  0.00000000000E+00  0.00000000000E+00  0.18260693257E+04  0.18260693257E+04  0.00000000000E+00 0.  1.
         -1   -1    0    0    0  501 -0.00000000000E+00 -0.00000000000E+00 -0.67618190782E+03  0.67618190782E+03  0.00000000000E+00 0. -1.
         23    2    1    2    0    0  0.60600586359E+03 -0.92494817164E+03  0.67533494389E+03  0.12989340361E+04  0.91542978234E+02 0.  0.
         13    1    3    3    0    0  0.21280026736E+03 -0.25062413502E+03  0.18890400694E+03  0.37918482918E+03  0.00000000000E+00 0.  1.
        -13    1    3    3    0    0  0.39320559623E+03 -0.67432403662E+03  0.48643093694E+03  0.91974920695E+03  0.00000000000E+00 0. -1.
         22    1    1    2    0    0 -0.60600586359E+03  0.92494817164E+03  0.47455247396E+03  0.12033171974E+04  0.00000000000E+00 0.  1.
<mgrwt>
<rscale>  0 0.22223906E+04</rscale>
<asrwt>0</asrwt>
<pdfrwt beam="1">  1        1 0.28093374E+00 0.22223906E+04</pdfrwt>
<pdfrwt beam="2">  1       -1 0.10402799E+00 0.22223906E+04</pdfrwt>
<totfact> 0.30958208E+00</totfact>
</mgrwt>
</event>
<event>
 6    1  0.1719556E-004  0.2042885E+04  0.7818608E-02  0.8586829E-01
         -2   -1    0    0    0  501 -0.00000000000E+00  0.00000000000E+00  0.10431159997E+04  0.10431159997E+04  0.00000000000E+00 0. -1.
          2   -1    0    0  501    0  0.00000000000E+00 -0.00000000000E+00 -0.10002192552E+04  0.10002192552E+04  0.00000000000E+00 0.  1.
         23    2    1    2    0    0 -0.90357909260E+03 -0.31809801889E+02 -0.44941333866E+03  0.10138517640E+04  0.91956567195E+02 0.  0.
         11    1    3    3    0    0 -0.39780511307E+03  0.12618421293E+02 -0.23904047620E+03  0.46427199119E+03  0.00000000000E+00 0.  1.
        -11    1    3    3    0    0 -0.50577397953E+03 -0.44428223182E+02 -0.21037286245E+03  0.54957977278E+03  0.00000000000E+00 0. -1.
         22    1    1    2    0    0  0.90357909260E+03  0.31809801889E+02  0.49231008322E+03  0.10294834909E+04  0.00000000000E+00 0. -1.
<mgrwt>
<rscale>  0 0.20428849E+04</rscale>
<asrwt>0</asrwt>
<pdfrwt beam="1">  1        2 0.15387988E+00 0.20428849E+04</pdfrwt>
<pdfrwt beam="2">  1       -2 0.16047939E+00 0.20428849E+04</pdfrwt>
<totfact> 0.58237192E+00</totfact>
</mgrwt>
</event>
<event>
 6    1  0.1719556E-004  0.5132221E+04  0.7818608E-02  0.7808428E-01
          2   -1    0    0  501    0  0.00000000000E+00  0.00000000000E+00  0.19629983645E+04  0.19629983645E+04  0.00000000000E+00 0.  1.
         -2   -1    0    0    0  501 -0.00000000000E+00 -0.00000000000E+00 -0.33545229940E+04  0.33545229940E+04  0.00000000000E+00 0. -1.
         23    2    1    2    0    0 -0.15050962375E+04 -0.13508329400E+04 -0.23311475598E+04  0.30875088996E+04  0.91640292601E+02 0.  0.
         13    1    3    3    0    0 -0.49330460144E+03 -0.49493102146E+03 -0.83507412428E+03  0.10888778347E+04  0.00000000000E+00 0.  1.
        -13    1    3    3    0    0 -0.10117916360E+04 -0.85590191858E+03 -0.14960734355E+04  0.19986310649E+04  0.00000000000E+00 0. -1.
         22    1    1    2    0    0  0.15050962375E+04  0.13508329400E+04  0.93962293024E+03  0.22300124589E+04  0.00000000000E+00 0.  1.
<mgrwt>
<rscale>  0 0.51322210E+04</rscale>
<asrwt>0</asrwt>
<pdfrwt beam="1">  1        2 0.30199975E+00 0.51322210E+04</pdfrwt>
<pdfrwt beam="2">  1       -2 0.51608046E+00 0.51322210E+04</pdfrwt>
<totfact> 0.67089764E-03</totfact>
</mgrwt>
</event>
<event>
 6    1  0.1719556E-004  0.2118380E+04  0.7818608E-02  0.8553190E-01
          2   -1    0    0  501    0  0.00000000000E+00  0.00000000000E+00  0.17989503765E+04  0.17989503765E+04  0.00000000000E+00 0.  1.
         -2   -1    0    0    0  501 -0.00000000000E+00 -0.00000000000E+00 -0.62363235443E+03  0.62363235443E+03  0.00000000000E+00 0. -1.
         23    2    1    2    0    0 -0.48609603519E+03 -0.27773421392E+03 -0.43699601186E+03  0.71583664759E+03  0.89615526798E+02 0.  0.
         11    1    3    3    0    0 -0.22704701426E+03 -0.84537377697E+02 -0.16133202575E+03  0.29107548410E+03  0.00000000000E+00 0.  1.
        -11    1    3    3    0    0 -0.25904902093E+03 -0.19319683622E+03 -0.27566398610E+03  0.42476116348E+03  0.00000000000E+00 0. -1.
         22    1    1    2    0    0  0.48609603519E+03  0.27773421392E+03  0.16123140339E+04  0.17067460833E+04  0.00000000000E+00 0.  1.
<mgrwt>
<rscale>  0 0.21183802E+04</rscale>
<asrwt>0</asrwt>
<pdfrwt beam="1">  1        2 0.27676159E+00 0.21183802E+04</pdfrwt>
<pdfrwt beam="2">  1       -2 0.95943440E-01 0.21183802E+04</pdfrwt>
<totfact> 0.72404444E+00</totfact>
</mgrwt>
</event>
<event>
 6    1  0.1719556E-004  0.1718131E+04  0.7818608E-02  0.8751091E-01
         -2   -1    0    0    0  501 -0.00000000000E+00  0.00000000000E+00  0.42504607228E+03  0.42504607228E+03  0.00000000000E+00 0. -1.
          2   -1    0    0  501    0  0.00000000000E+00 -0.00000000000E+00 -0.17362665036E+04  0.17362665036E+04  0.00000000000E+00 0.  1.
         23    2    1    2    0    0  0.63155825324E+02  0.20768545258E+03 -0.16999717834E+04  0.17160603784E+04  0.88528257721E+02 0.  0.
         11    1    3    3    0    0  0.56746720439E+02  0.73523906866E+02 -0.49608046974E+03  0.50469970044E+03  0.00000000000E+00 0.  1.
        -11    1    3    3    0    0  0.64091048846E+01  0.13416154572E+03 -0.12038913137E+04  0.12113606780E+04  0.00000000000E+00 0. -1.
         22    1    1    2    0    0 -0.63155825324E+02 -0.20768545258E+03  0.38875135217E+03  0.44525219741E+03  0.00000000000E+00 0. -1.
<mgrwt>
<rscale>  0 0.17181307E+04</rscale>
<asrwt>0</asrwt>
<pdfrwt beam="1">  1        2 0.26711793E+00 0.17181307E+04</pdfrwt>
<pdfrwt beam="2">  1       -2 0.65391703E-01 0.17181307E+04</pdfrwt>
<totfact> 0.19168497E+01</totfact>
</mgrwt>
</event>
<event>
 6    1  0.1719556E-004  0.1085284E+04  0.7818608E-02  0.9219655E-01
         -2   -1    0    0    0  501 -0.00000000000E+00  0.00000000000E+00  0.12271877392E+03  0.12271877392E+03  0.00000000000E+00 0. -1.
          2   -1    0    0  501    0  0.00000000000E+00 -0.00000000000E+00 -0.23994735284E+04  0.23994735284E+04  0.00000000000E+00 0.  1.
         23    2    1    2    0    0 -0.16573577333E+03  0.33125717405E+03 -0.23679467683E+03  0.44887689449E+03  0.90659172219E+02 0.  0.
         13    1    3    3    0    0 -0.78083894251E+02  0.86313617215E+02 -0.41472192906E+02  0.12356001717E+03  0.00000000000E+00 0.  1.
        -13    1    3    3    0    0 -0.87651879075E+02  0.24494355684E+03 -0.19532248393E+03  0.32531687732E+03  0.00000000000E+00 0. -1.
         22    1    1    2    0    0  0.16573577333E+03 -0.33125717405E+03 -0.20399600777E+04  0.20733154078E+04  0.00000000000E+00 0.  1.
<mgrwt>
<rscale>  0 0.10852842E+04</rscale>
<asrwt>0</asrwt>
<pdfrwt beam="1">  1        2 0.36914976E+00 0.10852842E+04</pdfrwt>
<pdfrwt beam="2">  1       -2 0.18879812E-01 0.10852842E+04</pdfrwt>
<totfact> 0.94190436E+01</totfact>
</mgrwt>
</event>
<event>
 6    1  0.2166265E-004  0.4672798E+04  0.7818608E-02  0.7881064E-01
         -2   -1    0    0    0  501 -0.00000000000E+00  0.00000000000E+00  0.15054154735E+04  0.15054154735E+04  0.00000000000E+00 0. -1.
          2   -1    0    0  501    0  0.00000000000E+00 -0.00000000000E+00 -0.36260822667E+04  0.36260822667E+04  0.00000000000E+00 0.  1.
         23    2    1    2    0    0 -0.39389174552E+03 -0.47587857923E+03  0.14127566838E+04  0.15444805116E+04  0.89036362123E+02 0.  0.
         13    1    3    3    0    0 -0.16873904443E+03 -0.22466019766E+03  0.74785609440E+03  0.79889536702E+03  0.00000000000E+00 0. -1.
        -13    1    3    3    0    0 -0.22515270109E+03 -0.25121838157E+03  0.66490058944E+03  0.74558514462E+03  0.00000000000E+00 0.  1.
         22    1    1    2    0    0  0.39389174552E+03  0.47587857923E+03 -0.35334234771E+04  0.35870172285E+04  0.00000000000E+00 0.  1.
<mgrwt>
<rscale>  0 0.46727980E+04</rscale>
<asrwt>0</asrwt>
<pdfrwt beam="1">  1        2 0.55785880E+00 0.46727980E+04</pdfrwt>
<pdfrwt beam="2">  1       -2 0.23160239E+00 0.46727980E+04</pdfrwt>
<totfact> 0.41170678E-02</totfact>
</mgrwt>
</event>
<event>
 6    1  0.1719556E-004  0.1347032E+04  0.7818608E-02  0.8993078E-01
         -2   -1    0    0    0  501 -0.00000000000E+00  0.00000000000E+00  0.25944181902E+03  0.25944181902E+03  0.00000000000E+00 0. -1.
          2   -1    0    0  501    0  0.00000000000E+00 -0.00000000000E+00 -0.17484608345E+04  0.17484608345E+04  0.00000000000E+00 0.  1.
         23    2    1    2    0    0 -0.20592067003E+03  0.32744979266E+03  0.71462751685E+02  0.40019309184E+03  0.73626739848E+02 0.  0.
         11    1    3    3    0    0 -0.45664172116E+02  0.37946273034E+02 -0.79367608361E+01  0.59900988513E+02  0.00000000000E+00 0. -1.
        -11    1    3    3    0    0 -0.16025649791E+03  0.28950351962E+03  0.79399512521E+02  0.34029210332E+03  0.00000000000E+00 0.  1.
         22    1    1    2    0    0  0.20592067003E+03 -0.32744979266E+03 -0.15604817672E+04  0.16077095617E+04  0.00000000000E+00 0.  1.
<mgrwt>
<rscale>  0 0.13470321E+04</rscale>
<asrwt>0</asrwt>
<pdfrwt beam="1">  1        2 0.26899398E+00 0.13470321E+04</pdfrwt>
<pdfrwt beam="2">  1       -2 0.39914125E-01 0.13470321E+04</pdfrwt>
<totfact> 0.53477509E+01</totfact>
</mgrwt>
</event>
<event>
 6    1  0.1719556E-004  0.2677295E+04  0.7818608E-02  0.8342410E-01
         -2   -1    0    0    0  501 -0.00000000000E+00  0.00000000000E+00  0.47427732196E+03  0.47427732196E+03  0.00000000000E+00 0. -1.
          2   -1    0    0  501    0  0.00000000000E+00 -0.00000000000E+00 -0.37783314844E+04  0.37783314844E+04  0.00000000000E+00 0.  1.
         23    2    1    2    0    0  0.50170383562E+03  0.96682542522E+03 -0.42154229394E+03  0.11711590155E+04  0.86356195294E+02 0.  0.
         13    1    3    3    0    0  0.12290704241E+03  0.18213418392E+03 -0.59808978560E+02  0.22771937981E+03  0.00000000000E+00 0.  1.
        -13    1    3    3    0    0  0.37879679321E+03  0.78469124130E+03 -0.36173331538E+03  0.94343963568E+03  0.00000000000E+00 0. -1.
         22    1    1    2    0    0 -0.50170383562E+03 -0.96682542522E+03 -0.28825118685E+04  0.30814497908E+04  0.00000000000E+00 0.  1.
<mgrwt>
<rscale>  0 0.26772949E+04</rscale>
<asrwt>0</asrwt>
<pdfrwt beam="1">  1        2 0.58128173E+00 0.26772949E+04</pdfrwt>
<pdfrwt beam="2">  1       -2 0.72965746E-01 0.26772949E+04</pdfrwt>
<totfact> 0.76151154E-01</totfact>
</mgrwt>
</event>
<event>
 6    1  0.1719556E-004  0.1855624E+04  0.7818608E-02  0.8677266E-01
         -2   -1    0    0    0  501 -0.00000000000E+00  0.00000000000E+00  0.55552351481E+03  0.55552351481E+03  0.00000000000E+00 0. -1.
          2   -1    0    0  501    0  0.00000000000E+00 -0.00000000000E+00 -0.15495926554E+04  0.15495926554E+04  0.00000000000E+00 0.  1.
         23    2    1    2    0    0  0.88673383436E+03  0.24551114653E+02 -0.79789630580E+03  0.11966100165E+04  0.91309181427E+02 0.  0.
         11    1    3    3    0    0  0.34119021019E+03 -0.25309124539E+02 -0.34424648754E+03  0.48534210151E+03  0.00000000000E+00 0.  1.
        -11    1    3    3    0    0  0.54554362416E+03  0.49860239192E+02 -0.45364981826E+03  0.71126791501E+03  0.00000000000E+00 0. -1.
         22    1    1    2    0    0 -0.88673383436E+03 -0.24551114653E+02 -0.19617283482E+03  0.90850615372E+03  0.00000000000E+00 0.  1.
<mgrwt>
<rscale>  0 0.18556241E+04</rscale>
<asrwt>0</asrwt>
<pdfrwt beam="1">  1        2 0.23839887E+00 0.18556241E+04</pdfrwt>
<pdfrwt beam="2">  1       -2 0.85465156E-01 0.18556241E+04</pdfrwt>
<totfact> 0.13312484E+01</totfact>
</mgrwt>
</event>
<event>
 6    1  0.1719556E-004  0.3312099E+04  0.7818608E-02  0.8159824E-01
          2   -1    0    0  501    0  0.00000000000E+00  0.00000000000E+00  0.29781130651E+04  0.29781130651E+04  0.00000000000E+00 0.  1.
         -2   -1    0    0    0  501 -0.00000000000E+00 -0.00000000000E+00 -0.92088513822E+03  0.92088513822E+03  0.00000000000E+00 0. -1.
         23    2    1    2    0    0 -0.48568566763E+03  0.28327276178E+03 -0.80286156187E+03  0.98416614829E+03  0.88669581047E+02 0.  0.
         11    1    3    3    0    0 -0.22360991722E+03  0.80020927408E+02 -0.32828841671E+03  0.40518887996E+03  0.00000000000E+00 0.  1.
        -11    1    3    3    0    0 -0.26207575042E+03  0.20325183437E+03 -0.47457314516E+03  0.57897726833E+03  0.00000000000E+00 0. -1.
         22    1    1    2    0    0  0.48568566763E+03 -0.28327276178E+03  0.28600894887E+04  0.29148320550E+04  0.00000000000E+00 0.  1.
<mgrwt>
<rscale>  0 0.33120991E+04</rscale>
<asrwt>0</asrwt>
<pdfrwt beam="1">  1        2 0.45817124E+00 0.33120991E+04</pdfrwt>
<pdfrwt beam="2">  1       -2 0.14167464E+00 0.33120991E+04</pdfrwt>
<totfact> 0.52171822E-01</totfact>
</mgrwt>
</event>
<event>
 6    1  0.1719556E-004  0.1051246E+04  0.7818608E-02  0.9254059E-01
         -1   -1    0    0    0  501 -0.00000000000E+00  0.00000000000E+00  0.46926272259E+03  0.46926272259E+03  0.00000000000E+00 0.  1.
          1   -1    0    0  501    0  0.00000000000E+00 -0.00000000000E+00 -0.58875235553E+03  0.58875235553E+03  0.00000000000E+00 0. -1.
         23    2    1    2    0    0  0.36457919777E+03 -0.81203014764E+02 -0.42662292242E+03  0.57444214820E+03  0.92004036066E+02 0.  0.
         13    1    3    3    0    0  0.19437446228E+03  0.34973992169E+01 -0.22387261148E+03  0.29650060634E+03  0.00000000000E+00 0. -1.
        -13    1    3    3    0    0  0.17020473549E+03 -0.84700413981E+02 -0.20275031093E+03  0.27794154187E+03  0.00000000000E+00 0.  1.
         22    1    1    2    0    0 -0.36457919777E+03  0.81203014764E+02  0.30713328947E+03  0.48357292992E+03  0.00000000000E+00 0.  1.
<mgrwt>
<rscale>  0 0.10512460E+04</rscale>
<asrwt>0</asrwt>
<pdfrwt beam="1">  1        1 0.90577286E-01 0.10512460E+04</pdfrwt>
<pdfrwt beam="2">  1       -1 0.72194265E-01 0.10512460E+04</pdfrwt>
<totfact> 0.68137385E+01</totfact>
</mgrwt>
</event>
<event>
 6    1  0.1719556E-004  0.2460508E+04  0.7818608E-02  0.8417191E-01
         -2   -1    0    0    0  501 -0.00000000000E+00  0.00000000000E+00  0.10908754989E+04  0.10908754989E+04  0.00000000000E+00 0. -1.
          2   -1    0    0  501    0  0.00000000000E+00 -0.00000000000E+00 -0.13874403480E+04  0.13874403480E+04  0.00000000000E+00 0.  1.
         23    2    1    2    0    0  0.85630346096E+03  0.99301538463E+02  0.73322850052E+03  0.11353375315E+04  0.90834264612E+02 0.  0.
         13    1    3    3    0    0  0.81381363494E+02 -0.15248470996E+02  0.57371463816E+02  0.10073195646E+03  0.00000000000E+00 0.  1.
        -13    1    3    3    0    0  0.77492209747E+03  0.11455000946E+03  0.67585703670E+03  0.10346055750E+04  0.00000000000E+00 0. -1.
         22    1    1    2    0    0 -0.85630346096E+03 -0.99301538463E+02 -0.10297933496E+04  0.13429783154E+04  0.00000000000E+00 0.  1.
<mgrwt>
<rscale>  0 0.24605078E+04</rscale>
<asrwt>0</asrwt>
<pdfrwt beam="1">  1        2 0.21345236E+00 0.24605078E+04</pdfrwt>
<pdfrwt beam="2">  1       -2 0.16782700E+00 0.24605078E+04</pdfrwt>
<totfact> 0.29083633E+00</totfact>
</mgrwt>
</event>
<event>
 6    1  0.1719556E-004  0.2686281E+04  0.7818608E-02  0.8339470E-01
          2   -1    0    0  501    0  0.00000000000E+00  0.00000000000E+00  0.17020441153E+04  0.17020441153E+04  0.00000000000E+00 0.  1.
         -2   -1    0    0    0  501 -0.00000000000E+00 -0.00000000000E+00 -0.10599172879E+04  0.10599172879E+04  0.00000000000E+00 0. -1.
         23    2    1    2    0    0  0.33252568095E+03 -0.88373398536E+03  0.13010300792E+04  0.16105654762E+04  0.98401223041E+02 0.  0.
         11    1    3    3    0    0  0.21178760515E+03 -0.59380934734E+03  0.94270061038E+03  0.11340846404E+04  0.00000000000E+00 0.  1.
        -11    1    3    3    0    0  0.12073807579E+03 -0.28992463801E+03  0.35832946883E+03  0.47648083582E+03  0.00000000000E+00 0. -1.
         22    1    1    2    0    0 -0.33252568095E+03  0.88373398536E+03 -0.65890325186E+03  0.11513959270E+04  0.00000000000E+00 0. -1.
<mgrwt>
<rscale>  0 0.26862807E+04</rscale>
<asrwt>0</asrwt>
<pdfrwt beam="1">  1        2 0.26185294E+00 0.26862807E+04</pdfrwt>
<pdfrwt beam="2">  1       -2 0.16306420E+00 0.26862807E+04</pdfrwt>
<totfact> 0.20548471E+00</totfact>
</mgrwt>
</event>
<event>
 6    1  0.1719556E-004  0.3626894E+04  0.7818608E-02  0.8084359E-01
          2   -1    0    0  501    0  0.00000000000E+00  0.00000000000E+00  0.15687853955E+04  0.15687853955E+04  0.00000000000E+00 0.  1.
         -2   -1    0    0    0  501 -0.00000000000E+00 -0.00000000000E+00 -0.20962654611E+04  0.20962654611E+04  0.00000000000E+00 0. -1.
         23    2    1    2    0    0  0.16160930297E+04  0.27879531534E+03 -0.10434083808E+04  0.19458459430E+04  0.90176918123E+02 0.  0.
         11    1    3    3    0    0  0.39518178609E+03  0.55495101708E+02 -0.29798514450E+03  0.49803965375E+03  0.00000000000E+00 0.  1.
        -11    1    3    3    0    0  0.12209112436E+04  0.22330021363E+03 -0.74542323631E+03  0.14478062893E+04  0.00000000000E+00 0. -1.
         22    1    1    2    0    0 -0.16160930297E+04 -0.27879531534E+03  0.51592831521E+03  0.17192049136E+04  0.00000000000E+00 0.  1.
<mgrwt>
<rscale>  0 0.36268943E+04</rscale>
<asrwt>0</asrwt>
<pdfrwt beam="1">  1        2 0.24135160E+00 0.36268943E+04</pdfrwt>
<pdfrwt beam="2">  1       -2 0.32250238E+00 0.36268943E+04</pdfrwt>
<totfact> 0.21812426E-01</totfact>
</mgrwt>
</event>
<event>
 6    1  0.1719556E-004  0.3960134E+04  0.7818608E-02  0.8012637E-01
         -2   -1    0    0    0  501 -0.00000000000E+00  0.00000000000E+00  0.12519093285E+04  0.12519093285E+04  0.00000000000E+00 0. -1.
          2   -1    0    0  501    0  0.00000000000E+00 -0.00000000000E+00 -0.31317484055E+04  0.31317484055E+04  0.00000000000E+00 0.  1.
         23    2    1    2    0    0  0.15569927861E+04  0.55141008478E+03 -0.21471387569E+04  0.27104187383E+04  0.88799089130E+02 0.  0.
         11    1    3    3    0    0  0.68495093080E+03  0.27784645241E+03 -0.91260065425E+03  0.11743919205E+04  0.00000000000E+00 0. -1.
        -11    1    3    3    0    0  0.87204185535E+03  0.27356363237E+03 -0.12345381026E+04  0.15360268179E+04  0.00000000000E+00 0.  1.
         22    1    1    2    0    0 -0.15569927861E+04 -0.55141008478E+03  0.26729967985E+03  0.16732389956E+04  0.00000000000E+00 0. -1.
<mgrwt>
<rscale>  0 0.39601339E+04</rscale>
<asrwt>0</asrwt>
<pdfrwt beam="1">  1        2 0.48180745E+00 0.39601339E+04</pdfrwt>
<pdfrwt beam="2">  1       -2 0.19260143E+00 0.39601339E+04</pdfrwt>
<totfact> 0.16906605E-01</totfact>
</mgrwt>
</event>
<event>
 6    1  0.1719556E-004  0.2278276E+04  0.7818608E-02  0.8486536E-01
         -2   -1    0    0    0  501 -0.00000000000E+00  0.00000000000E+00  0.40161083831E+03  0.40161083831E+03  0.00000000000E+00 0. -1.
          2   -1    0    0  501    0  0.00000000000E+00 -0.00000000000E+00 -0.32310754000E+04  0.32310754000E+04  0.00000000000E+00 0.  1.
         23    2    1    2    0    0 -0.27970018607E+03 -0.24765286762E+03 -0.31297978422E+04  0.31533489705E+04  0.91711830538E+02 0.  0.
         13    1    3    3    0    0 -0.16224173854E+03 -0.19289809724E+03 -0.18720654369E+04  0.18889576643E+04  0.00000000000E+00 0. -1.
        -13    1    3    3    0    0 -0.11745844753E+03 -0.54754770387E+02 -0.12577324053E+04  0.12643913062E+04  0.00000000000E+00 0.  1.
         22    1    1    2    0    0  0.27970018607E+03  0.24765286762E+03  0.30033328050E+03  0.47933726780E+03  0.00000000000E+00 0. -1.
<mgrwt>
<rscale>  0 0.22782756E+04</rscale>
<asrwt>0</asrwt>
<pdfrwt beam="1">  1        2 0.49708853E+00 0.22782756E+04</pdfrwt>
<pdfrwt beam="2">  1       -2 0.61786282E-01 0.22782756E+04</pdfrwt>
<totfact> 0.27393162E+00</totfact>
</mgrwt>
</event>
<event>
 6    1  0.1719556E-004  0.9729506E+03  0.7818608E-02  0.9338720E-01
          1   -1    0    0  501    0  0.00000000000E+00  0.00000000000E+00  0.15570829072E+03  0.15570829072E+03  0.00000000000E+00 0.  1.
         -1   -1    0    0    0  501 -0.00000000000E+00 -0.00000000000E+00 -0.15198819946E+04  0.15198819946E+04  0.00000000000E+00 0. -1.
         23    2    1    2    0    0 -0.27476506156E+03  0.20030684400E+03 -0.12769357542E+04  0.13245502154E+04  0.90827759477E+02 0.  0.
         13    1    3    3    0    0 -0.12313843328E+03  0.37018634496E+02 -0.43255560363E+03  0.45126245499E+03  0.00000000000E+00 0. -1.
        -13    1    3    3    0    0 -0.15162662829E+03  0.16328820951E+03 -0.84438015060E+03  0.87328776042E+03  0.00000000000E+00 0.  1.
         22    1    1    2    0    0  0.27476506156E+03 -0.20030684400E+03 -0.87237949609E+02  0.35104006988E+03  0.00000000000E+00 0.  1.
<mgrwt>
<rscale>  0 0.97295062E+03</rscale>
<asrwt>0</asrwt>
<pdfrwt beam="1">  1        1 0.23955123E-01 0.97295062E+03</pdfrwt>
<pdfrwt beam="2">  1       -1 0.23382799E+00 0.97295062E+03</pdfrwt>
<totfact> 0.18570314E+01</totfact>
</mgrwt>
</event>
<event>
 6    1  0.1719556E-004  0.5492189E+03  0.7818608E-02  0.1001675E+00
          2   -1    0    0  501    0  0.00000000000E+00  0.00000000000E+00  0.92532299957E+03  0.92532299957E+03  0.00000000000E+00 0.  1.
         -2   -1    0    0    0  501 -0.00000000000E+00 -0.00000000000E+00 -0.81496240808E+02  0.81496240808E+02  0.00000000000E+00 0. -1.
         23    2    1    2    0    0 -0.13635773583E+03  0.22917356842E+03  0.45837854008E+03  0.53811433762E+03  0.91335632504E+02 0.  0.
         13    1    3    3    0    0 -0.84156869635E+02  0.56314102350E+02  0.15985896157E+03  0.18923145728E+03  0.00000000000E+00 0. -1.
        -13    1    3    3    0    0 -0.52200866197E+02  0.17285946607E+03  0.29851957851E+03  0.34888288034E+03  0.00000000000E+00 0.  1.
         22    1    1    2    0    0  0.13635773583E+03 -0.22917356842E+03  0.38544821869E+03  0.46870490276E+03  0.00000000000E+00 0. -1.
<mgrwt>
<rscale>  0 0.54921889E+03</rscale>
<asrwt>0</asrwt>
<pdfrwt beam="1">  1        2 0.14235738E+00 0.54921889E+03</pdfrwt>
<pdfrwt beam="2">  1       -2 0.12537884E-01 0.54921889E+03</pdfrwt>
<totfact> 0.13426206E+03</totfact>
</mgrwt>
</event>
<event>
 6    1  0.2230568E-004  0.4598185E+04  0.7818608E-02  0.7893669E-01
          1   -1    0    0  501    0  0.00000000000E+00  0.00000000000E+00  0.33843004609E+04  0.33843004609E+04  0.00000000000E+00 0.  1.
         -1   -1    0    0    0  501 -0.00000000000E+00 -0.00000000000E+00 -0.15618668048E+04  0.15618668048E+04  0.00000000000E+00 0. -1.
         23    2    1    2    0    0 -0.21222400516E+04 -0.62495909646E+02  0.18578107476E+04  0.28227125066E+04  0.91850670792E+02 0.  0.
         11    1    3    3    0    0 -0.70379734302E+03 -0.51771820202E+02  0.57745006674E+03  0.91184406616E+03  0.00000000000E+00 0. -1.
        -11    1    3    3    0    0 -0.14184427086E+04 -0.10724089444E+02  0.12803606808E+04  0.19108684404E+04  0.00000000000E+00 0.  1.
         22    1    1    2    0    0  0.21222400516E+04  0.62495909646E+02 -0.35377091448E+02  0.21234547591E+04  0.00000000000E+00 0. -1.
<mgrwt>
<rscale>  0 0.45981851E+04</rscale>
<asrwt>0</asrwt>
<pdfrwt beam="1">  1        1 0.52066161E+00 0.45981851E+04</pdfrwt>
<pdfrwt beam="2">  1       -1 0.24028720E+00 0.45981851E+04</pdfrwt>
<totfact> 0.18497247E-02</totfact>
</mgrwt>
</event>
<event>
 6    1  0.1719556E-004  0.1406941E+04  0.7818608E-02  0.8948809E-01
          1   -1    0    0  501    0  0.00000000000E+00  0.00000000000E+00  0.88511728976E+03  0.88511728976E+03  0.00000000000E+00 0.  1.
         -1   -1    0    0    0  501 -0.00000000000E+00 -0.00000000000E+00 -0.55910205430E+03  0.55910205430E+03  0.00000000000E+00 0. -1.
         23    2    1    2    0    0 -0.39913850561E+03 -0.53720285292E+03  0.37579428877E+03  0.77311845299E+03  0.92694892141E+02 0.  0.
         13    1    3    3    0    0 -0.26268306203E+03 -0.39592362132E+03  0.22628547672E+03  0.52627276385E+03  0.00000000000E+00 0. -1.
        -13    1    3    3    0    0 -0.13645544358E+03 -0.14127923160E+03  0.14950881205E+03  0.24684568914E+03  0.00000000000E+00 0.  1.
         22    1    1    2    0    0  0.39913850561E+03  0.53720285292E+03 -0.49779053309E+02  0.67110089107E+03  0.00000000000E+00 0.  1.
<mgrwt>
<rscale>  0 0.14069412E+04</rscale>
<asrwt>0</asrwt>
<pdfrwt beam="1">  1        1 0.13617189E+00 0.14069412E+04</pdfrwt>
<pdfrwt beam="2">  1       -1 0.86015701E-01 0.14069412E+04</pdfrwt>
<totfact> 0.24345487E+01</totfact>
</mgrwt>
</event>
<event>
 6    1  0.1719556E-004  0.4754310E+04  0.7818608E-02  0.7867567E-01
         -2   -1    0    0    0  501 -0.00000000000E+00  0.00000000000E+00  0.22109860757E+04  0.22109860757E+04  0.00000000000E+00 0. -1.
          2   -1    0    0  501    0  0.00000000000E+00 -0.00000000000E+00 -0.25558123080E+04  0.25558123080E+04  0.00000000000E+00 0.  1.
         23    2    1    2    0    0  0.17810523158E+04  0.12412882030E+04  0.79629307215E+03  0.23142289104E+04  0.92892618531E+02 0.  0.
         13    1    3    3    0    0  0.16933369473E+04  0.11678158356E+04  0.73449263498E+03  0.21841848076E+04  0.00000000000E+00 0.  1.
        -13    1    3    3    0    0  0.87715368517E+02  0.73472367423E+02  0.61800437169E+02  0.13004410284E+03  0.00000000000E+00 0. -1.
         22    1    1    2    0    0 -0.17810523158E+04 -0.12412882030E+04 -0.11411193045E+04  0.24525694733E+04  0.00000000000E+00 0.  1.
<mgrwt>
<rscale>  0 0.47543098E+04</rscale>
<asrwt>0</asrwt>
<pdfrwt beam="1">  1        2 0.39320189E+00 0.47543098E+04</pdfrwt>
<pdfrwt beam="2">  1       -2 0.34015171E+00 0.47543098E+04</pdfrwt>
<totfact> 0.43023167E-02</totfact>
</mgrwt>
</event>
<event>
 6    1  0.1719556E-004  0.1083548E+04  0.7818608E-02  0.9221377E-01
         -2   -1    0    0    0  501 -0.00000000000E+00  0.00000000000E+00  0.10098122294E+04  0.10098122294E+04  0.00000000000E+00 0. -1.
          2   -1    0    0  501    0  0.00000000000E+00 -0.00000000000E+00 -0.29066717489E+03  0.29066717489E+03  0.00000000000E+00 0.  1.
         23    2    1    2    0    0 -0.41754146818E+03 -0.33303103898E+03  0.43444958893E+03  0.69525047346E+03  0.96830909054E+02 0.  0.
         11    1    3    3    0    0 -0.10316148545E+03 -0.12586324909E+03  0.95725318191E+02  0.18880462414E+03  0.00000000000E+00 0. -1.
        -11    1    3    3    0    0 -0.31437998273E+03 -0.20716778989E+03  0.33872427074E+03  0.50644584932E+03  0.00000000000E+00 0.  1.
         22    1    1    2    0    0  0.41754146818E+03  0.33303103898E+03  0.28469546556E+03  0.60522893081E+03  0.00000000000E+00 0. -1.
<mgrwt>
<rscale>  0 0.10835484E+04</rscale>
<asrwt>0</asrwt>
<pdfrwt beam="1">  1        2 0.44718027E-01 0.10835484E+04</pdfrwt>
<pdfrwt beam="2">  1       -2 0.15535573E+00 0.10835484E+04</pdfrwt>
<totfact> 0.30804475E+01</totfact>
</mgrwt>
</event>
<event>
 6    1  0.1719556E-004  0.6341001E+03  0.7818608E-02  0.9837080E-01
          2   -1    0    0  501    0  0.00000000000E+00  0.00000000000E+00  0.59423764351E+03  0.59423764351E+03  0.00000000000E+00 0.  1.
         -2   -1    0    0    0  501 -0.00000000000E+00 -0.00000000000E+00 -0.16915915158E+03  0.16915915158E+03  0.00000000000E+00 0. -1.
         23    2    1    2    0    0 -0.18567176681E+03 -0.17578038902E+03  0.42888735169E+03  0.50768747268E+03  0.91812087010E+02 0.  0.
         13    1    3    3    0    0 -0.98403887110E+02 -0.11263612203E+03  0.16520393791E+03  0.22285098628E+03  0.00000000000E+00 0. -1.
        -13    1    3    3    0    0 -0.87267879697E+02 -0.63144266986E+02  0.26368341378E+03  0.28483648640E+03  0.00000000000E+00 0.  1.
         22    1    1    2    0    0  0.18567176681E+03  0.17578038902E+03 -0.38088597550E+01  0.25570932241E+03  0.00000000000E+00 0. -1.
<mgrwt>
<rscale>  0 0.63410010E+03</rscale>
<asrwt>0</asrwt>
<pdfrwt beam="1">  1        2 0.91421175E-01 0.63410010E+03</pdfrwt>
<pdfrwt beam="2">  1       -2 0.26024485E-01 0.63410010E+03</pdfrwt>
<totfact> 0.67235645E+02</totfact>
</mgrwt>
</event>
<event>
 6    1  0.1719556E-004  0.3035057E+04  0.7818608E-02  0.8233790E-01
          2   -1    0    0  501    0  0.00000000000E+00  0.00000000000E+00  0.13872639643E+04  0.13872639643E+04  0.00000000000E+00 0.  1.
         -2   -1    0    0    0  501 -0.00000000000E+00 -0.00000000000E+00 -0.16600249821E+04  0.16600249821E+04  0.00000000000E+00 0. -1.
         23    2    1    2    0    0 -0.93176062593E+03 -0.11805818403E+04 -0.32981143425E+03  0.15422287829E+04  0.87992561598E+02 0.  0.
         11    1    3    3    0    0 -0.50421220380E+03 -0.61152797076E+03 -0.13224010760E+03  0.80354455479E+03  0.00000000000E+00 0. -1.
        -11    1    3    3    0    0 -0.42754842214E+03 -0.56905386955E+03 -0.19757132666E+03  0.73868422810E+03  0.00000000000E+00 0.  1.
         22    1    1    2    0    0  0.93176062593E+03  0.11805818403E+04  0.57050416443E+02  0.15050601635E+04  0.00000000000E+00 0. -1.
<mgrwt>
<rscale>  0 0.30350571E+04</rscale>
<asrwt>0</asrwt>
<pdfrwt beam="1">  1        2 0.21342523E+00 0.30350571E+04</pdfrwt>
<pdfrwt beam="2">  1       -2 0.25538846E+00 0.30350571E+04</pdfrwt>
<totfact> 0.74794223E-01</totfact>
</mgrwt>
</event>
<event>
 6    1  0.1719556E-004  0.1872356E+04  0.7818608E-02  0.8668740E-01
         -2   -1    0    0    0  501 -0.00000000000E+00  0.00000000000E+00  0.62712792607E+03  0.62712792607E+03  0.00000000000E+00 0. -1.
          2   -1    0    0  501    0  0.00000000000E+00 -0.00000000000E+00 -0.13975292875E+04  0.13975292875E+04  0.00000000000E+00 0.  1.
         23    2    1    2    0    0  0.67344679758E+03  0.74909633042E+02 -0.10812248109E+04  0.12791686093E+04  0.89906601261E+02 0.  0.
         11    1    3    3    0    0  0.25013958041E+03  0.57412469294E+02 -0.46932290413E+03  0.53491119792E+03  0.00000000000E+00 0.  1.
        -11    1    3    3    0    0  0.42330721717E+03  0.17497163748E+02 -0.61190190681E+03  0.74425741139E+03  0.00000000000E+00 0. -1.
         22    1    1    2    0    0 -0.67344679758E+03 -0.74909633042E+02  0.31082344952E+03  0.74548860425E+03  0.00000000000E+00 0. -1.
<mgrwt>
<rscale>  0 0.18723564E+04</rscale>
<asrwt>0</asrwt>
<pdfrwt beam="1">  1        2 0.21500450E+00 0.18723564E+04</pdfrwt>
<pdfrwt beam="2">  1       -2 0.96481220E-01 0.18723564E+04</pdfrwt>
<totfact> 0.12249702E+01</totfact>
</mgrwt>
</event>
<event>
 6    1  0.1719556E-004  0.1957974E+04  0.7818608E-02  0.8626525E-01
         -2   -1    0    0    0  501 -0.00000000000E+00  0.00000000000E+00  0.57609973167E+03  0.57609973167E+03  0.00000000000E+00 0. -1.
          2   -1    0    0  501    0  0.00000000000E+00 -0.00000000000E+00 -0.16636283077E+04  0.16636283077E+04  0.00000000000E+00 0.  1.
         23    2    1    2    0    0  0.26354079146E+03 -0.41537863595E+02 -0.16195386040E+04  0.16445693943E+04  0.10258684056E+03 0.  0.
         11    1    3    3    0    0  0.15480182199E+03 -0.68128963678E+02 -0.11155594272E+04  0.11283075801E+04  0.00000000000E+00 0. -1.
        -11    1    3    3    0    0  0.10873896948E+03  0.26591100083E+02 -0.50397917683E+03  0.51626181416E+03  0.00000000000E+00 0.  1.
         22    1    1    2    0    0 -0.26354079146E+03  0.41537863595E+02  0.53201002801E+03  0.59515864506E+03  0.00000000000E+00 0. -1.
<mgrwt>
<rscale>  0 0.19579743E+04</rscale>
<asrwt>0</asrwt>
<pdfrwt beam="1">  1        2 0.25594281E+00 0.19579743E+04</pdfrwt>
<pdfrwt beam="2">  1       -2 0.88630730E-01 0.19579743E+04</pdfrwt>
<totfact> 0.10487192E+01</totfact>
</mgrwt>
</event>
<event>
 6    1  0.1719556E-004  0.1864338E+04  0.7818608E-02  0.8672814E-01
         -2   -1    0    0    0  501 -0.00000000000E+00  0.00000000000E+00  0.85867612274E+03  0.85867612274E+03  0.00000000000E+00 0. -1.
          2   -1    0    0  501    0  0.00000000000E+00 -0.00000000000E+00 -0.10119516850E+04  0.10119516850E+04  0.00000000000E+00 0.  1.
         23    2    1    2    0    0 -0.47247469368E+03  0.57306639189E+03 -0.63536296719E+03  0.98516426155E+03  0.12339001774E+03 0.  0.
         11    1    3    3    0    0 -0.46440838555E+03  0.57714867421E+03 -0.63563653840E+03  0.97611963901E+03  0.00000000000E+00 0.  1.
        -11    1    3    3    0    0 -0.80663081215E+01 -0.40822823198E+01  0.27357120755E+00  0.90446225380E+01  0.00000000000E+00 0. -1.
         22    1    1    2    0    0  0.47247469368E+03 -0.57306639189E+03  0.48208740492E+03  0.88546354621E+03  0.00000000000E+00 0. -1.
<mgrwt>
<rscale>  0 0.18643377E+04</rscale>
<asrwt>0</asrwt>
<pdfrwt beam="1">  1        2 0.15568487E+00 0.18643377E+04</pdfrwt>
<pdfrwt beam="2">  1       -2 0.13210402E+00 0.18643377E+04</pdfrwt>
<totfact> 0.96915071E+00</totfact>
</mgrwt>
</event>
<event>
 6    1  0.1719556E-004  0.1205439E+04  0.7818608E-02  0.9108109E-01
          2   -1    0    0  501    0  0.00000000000E+00  0.00000000000E+00  0.53612293516E+03  0.53612293516E+03  0.00000000000E+00 0.  1.
         -2   -1    0    0    0  501 -0.00000000000E+00 -0.00000000000E+00 -0.67758822299E+03  0.67758822299E+03  0.00000000000E+00 0. -1.
         23    2    1    2    0    0  0.20810847153E+03 -0.26801743224E+03  0.42617960345E+03  0.55237674764E+03  0.91370329045E+02 0.  0.
         13    1    3    3    0    0  0.98992728830E+01 -0.55755185852E+02  0.40674468122E+02  0.69721221375E+02  0.00000000000E+00 0.  1.
        -13    1    3    3    0    0  0.19820919865E+03 -0.21226224639E+03  0.38550513533E+03  0.48265552627E+03  0.00000000000E+00 0. -1.
         22    1    1    2    0    0 -0.20810847153E+03  0.26801743224E+03 -0.56764489129E+03  0.66133441050E+03  0.00000000000E+00 0. -1.
<mgrwt>
<rscale>  0 0.12054387E+04</rscale>
<asrwt>0</asrwt>
<pdfrwt beam="1">  1        2 0.82480452E-01 0.12054387E+04</pdfrwt>
<pdfrwt beam="2">  1       -2 0.10424434E+00 0.12054387E+04</pdfrwt>
<totfact> 0.41868772E+01</totfact>
</mgrwt>
</event>
<event>
 6    1  0.1719556E-004  0.4656442E+04  0.7818608E-02  0.7883806E-01
          1   -1    0    0  501    0  0.00000000000E+00  0.00000000000E+00  0.29146161652E+04  0.29146161652E+04  0.00000000000E+00 0.  1.
         -1   -1    0    0    0  501 -0.00000000000E+00 -0.00000000000E+00 -0.18598037586E+04  0.18598037586E+04  0.00000000000E+00 0. -1.
         23    2    1    2    0    0  0.22669088260E+04  0.46174141054E+03  0.78749992215E+03  0.24455711267E+04  0.92635052827E+02 0.  0.
         11    1    3    3    0    0  0.36702838419E+03  0.53857340880E+02  0.97853927144E+02  0.38364806662E+03  0.00000000000E+00 0. -1.
        -11    1    3    3    0    0  0.18998804418E+04  0.40788406966E+03  0.68964599500E+03  0.20619230601E+04  0.00000000000E+00 0.  1.
         22    1    1    2    0    0 -0.22669088260E+04 -0.46174141054E+03  0.26731248440E+03  0.23288487971E+04  0.00000000000E+00 0. -1.
<mgrwt>
<rscale>  0 0.46564425E+04</rscale>
<asrwt>0</asrwt>
<pdfrwt beam="1">  1        1 0.44840249E+00 0.46564425E+04</pdfrwt>
<pdfrwt beam="2">  1       -1 0.28612366E+00 0.46564425E+04</pdfrwt>
<totfact> 0.20780688E-02</totfact>
</mgrwt>
</event>
<event>
 6    1  0.1719556E-004  0.2861641E+04  0.7818608E-02  0.8284383E-01
         -3   -1    0    0    0  501 -0.00000000000E+00  0.00000000000E+00  0.12534464904E+04  0.12534464904E+04  0.00000000000E+00 0. -1.
          3   -1    0    0  501    0  0.00000000000E+00 -0.00000000000E+00 -0.16332941089E+04  0.16332941089E+04  0.00000000000E+00 0.  1.
         23    2    1    2    0    0  0.58130373573E+03 -0.62744212399E+03  0.96549599943E+03  0.12925175589E+04  0.82592148345E+02 0.  0.
         13    1    3    3    0    0  0.30950316782E+03 -0.28966500076E+03  0.51973645199E+03  0.67068920007E+03  0.00000000000E+00 0. -1.
        -13    1    3    3    0    0  0.27180056791E+03 -0.33777712323E+03  0.44575954744E+03  0.62182835882E+03  0.00000000000E+00 0.  1.
         22    1    1    2    0    0 -0.58130373573E+03  0.62744212399E+03 -0.13453436180E+04  0.15942230404E+04  0.00000000000E+00 0.  1.
<mgrwt>
<rscale>  0 0.28616406E+04</rscale>
<asrwt>0</asrwt>
<pdfrwt beam="1">  1        3 0.25127601E+00 0.28616406E+04</pdfrwt>
<pdfrwt beam="2">  1       -3 0.19283792E+00 0.28616406E+04</pdfrwt>
<totfact> 0.26575928E-02</totfact>
</mgrwt>
</event>
<event>
 6    1  0.1719556E-004  0.3024126E+04  0.7818608E-02  0.8236875E-01
         -2   -1    0    0    0  501 -0.00000000000E+00  0.00000000000E+00  0.20164096390E+04  0.20164096390E+04  0.00000000000E+00 0. -1.
          2   -1    0    0  501    0  0.00000000000E+00 -0.00000000000E+00 -0.11338643138E+04  0.11338643138E+04  0.00000000000E+00 0.  1.
         23    2    1    2    0    0 -0.30494502505E+03  0.11264528486E+04  0.14402929666E+04  0.18568405684E+04  0.10735724716E+03 0.  0.
         11    1    3    3    0    0 -0.97728891828E+02  0.31921469779E+03  0.48934805763E+03  0.59237697549E+03  0.00000000000E+00 0. -1.
        -11    1    3    3    0    0 -0.20721613322E+03  0.80723815077E+03  0.95094490901E+03  0.12644635929E+04  0.00000000000E+00 0.  1.
         22    1    1    2    0    0  0.30494502505E+03 -0.11264528486E+04 -0.55774764147E+03  0.12934333844E+04  0.00000000000E+00 0.  1.
<mgrwt>
<rscale>  0 0.30241263E+04</rscale>
<asrwt>0</asrwt>
<pdfrwt beam="1">  1        2 0.17444066E+00 0.30241263E+04</pdfrwt>
<pdfrwt beam="2">  1       -2 0.31021687E+00 0.30241263E+04</pdfrwt>
<totfact> 0.48803804E-01</totfact>
</mgrwt>
</event>
<event>
 6    1  0.1719556E-004  0.3128956E+04  0.7818608E-02  0.8207836E-01
         -2   -1    0    0    0  501 -0.00000000000E+00  0.00000000000E+00  0.10629727876E+04  0.10629727876E+04  0.00000000000E+00 0. -1.
          2   -1    0    0  501    0  0.00000000000E+00 -0.00000000000E+00 -0.23025907585E+04  0.23025907585E+04  0.00000000000E+00 0.  1.
         23    2    1    2    0    0  0.88905303504E+03 -0.41919964362E+02 -0.20025243503E+04  0.21933013202E+04  0.91073186523E+02 0.  0.
         11    1    3    3    0    0  0.21017156804E+03 -0.15158780621E+02 -0.38520351495E+03  0.43907132059E+03  0.00000000000E+00 0. -1.
        -11    1    3    3    0    0  0.67888146700E+03 -0.26761183742E+02 -0.16173208354E+04  0.17542299996E+04  0.00000000000E+00 0.  1.
         22    1    1    2    0    0 -0.88905303504E+03  0.41919964362E+02  0.76290637932E+03  0.11722622258E+04  0.00000000000E+00 0. -1.
<mgrwt>
<rscale>  0 0.31289559E+04</rscale>
<asrwt>0</asrwt>
<pdfrwt beam="1">  1        2 0.35424473E+00 0.31289559E+04</pdfrwt>
<pdfrwt beam="2">  1       -2 0.16353427E+00 0.31289559E+04</pdfrwt>
<totfact> 0.90797869E-01</totfact>
</mgrwt>
</event>
<event>
 6    1  0.1719556E-004  0.1916855E+04  0.7818608E-02  0.8646512E-01
         -2   -1    0    0    0  501 -0.00000000000E+00  0.00000000000E+00  0.35094429510E+03  0.35094429510E+03  0.00000000000E+00 0. -1.
          2   -1    0    0  501    0  0.00000000000E+00 -0.00000000000E+00 -0.26174613144E+04  0.26174613144E+04  0.00000000000E+00 0.  1.
         23    2    1    2    0    0 -0.68411362166E+03  0.11302119111E+03 -0.11601478713E+03  0.70888241034E+03  0.90937362351E+02 0.  0.
         11    1    3    3    0    0 -0.58966214600E+03  0.78095183620E+02 -0.12492044613E+03  0.60778731641E+03  0.00000000000E+00 0. -1.
        -11    1    3    3    0    0 -0.94451475662E+02  0.34926007493E+02  0.89056589958E+01  0.10109509393E+03  0.00000000000E+00 0.  1.
         22    1    1    2    0    0  0.68411362166E+03 -0.11302119111E+03 -0.21505022322E+04  0.22595231991E+04  0.00000000000E+00 0.  1.
<mgrwt>
<rscale>  0 0.19168548E+04</rscale>
<asrwt>0</asrwt>
<pdfrwt beam="1">  1        2 0.40268636E+00 0.19168548E+04</pdfrwt>
<pdfrwt beam="2">  1       -2 0.53991430E-01 0.19168548E+04</pdfrwt>
<totfact> 0.89916218E+00</totfact>
</mgrwt>
</event>
<event>
 6    1  0.3035899E-004  0.3252405E+04  0.7818608E-02  0.8175113E-01
          2   -1    0    0  501    0  0.00000000000E+00  0.00000000000E+00  0.23442236950E+04  0.23442236950E+04  0.00000000000E+00 0.  1.
         -2   -1    0    0    0  501 -0.00000000000E+00 -0.00000000000E+00 -0.11281067977E+04  0.11281067977E+04  0.00000000000E+00 0. -1.
         23    2    1    2    0    0 -0.30716965892E+03  0.85424737003E+03  0.20473834558E+04  0.22414381904E+04  0.90412265097E+02 0.  0.
         11    1    3    3    0    0 -0.70560330852E+02  0.12148519941E+03  0.26801667373E+03  0.30260593411E+03  0.00000000000E+00 0. -1.
        -11    1    3    3    0    0 -0.23660932806E+03  0.73276217063E+03  0.17793667820E+04  0.19388322563E+04  0.00000000000E+00 0.  1.
         22    1    1    2    0    0  0.30716965892E+03 -0.85424737003E+03 -0.83126655845E+03  0.12308923023E+04  0.00000000000E+00 0. -1.
<mgrwt>
<rscale>  0 0.32524051E+04</rscale>
<asrwt>0</asrwt>
<pdfrwt beam="1">  1        2 0.36064980E+00 0.32524051E+04</pdfrwt>
<pdfrwt beam="2">  1       -2 0.17355489E+00 0.32524051E+04</pdfrwt>
<totfact> 0.72147691E-01</totfact>
</mgrwt>
</event>
<event>
 6    1  0.1719556E-004  0.5211767E+03  0.7818608E-02  0.1008395E+00
         -2   -1    0    0    0  501 -0.00000000000E+00  0.00000000000E+00  0.32996459152E+02  0.32996459152E+02  0.00000000000E+00 0. -1.
          2   -1    0    0  501    0  0.00000000000E+00 -0.00000000000E+00 -0.20579867585E+04  0.20579867585E+04  0.00000000000E+00 0.  1.
         23    2    1    2    0    0 -0.73016555981E+02 -0.23363880107E+03 -0.78787590645E+03  0.82988428104E+03  0.89671451085E+02 0.  0.
         11    1    3    3    0    0  0.69088190584E+01 -0.10206212338E+03 -0.39199929866E+03  0.40512696647E+03  0.00000000000E+00 0. -1.
        -11    1    3    3    0    0 -0.79925375039E+02 -0.13157667769E+03 -0.39587660779E+03  0.42475731457E+03  0.00000000000E+00 0.  1.
         22    1    1    2    0    0  0.73016555981E+02  0.23363880107E+03 -0.12371143929E+04  0.12610989367E+04  0.00000000000E+00 0.  1.
<mgrwt>
<rscale>  0 0.52117665E+03</rscale>
<asrwt>0</asrwt>
<pdfrwt beam="1">  1        2 0.31661346E+00 0.52117665E+03</pdfrwt>
<pdfrwt beam="2">  1       -2 0.50763765E-02 0.52117665E+03</pdfrwt>
<totfact> 0.12987720E+03</totfact>
</mgrwt>
</event>
<event>
 6    1  0.1719556E-004  0.2320383E+04  0.7818608E-02  0.8469928E-01
          2   -1    0    0  501    0  0.00000000000E+00  0.00000000000E+00  0.17370962599E+04  0.17370962599E+04  0.00000000000E+00 0.  1.
         -2   -1    0    0    0  501 -0.00000000000E+00 -0.00000000000E+00 -0.77488159718E+03  0.77488159718E+03  0.00000000000E+00 0. -1.
         23    2    1    2    0    0  0.35120514962E+03  0.18656951962E+03 -0.69603495759E+03  0.80670807020E+03  0.90332749156E+02 0.  0.
         13    1    3    3    0    0  0.15564558435E+03  0.33004990100E+02 -0.27843202449E+03  0.32068562419E+03  0.00000000000E+00 0. -1.
        -13    1    3    3    0    0  0.19555956527E+03  0.15356452952E+03 -0.41760293311E+03  0.48602244602E+03  0.00000000000E+00 0.  1.
         22    1    1    2    0    0 -0.35120514962E+03 -0.18656951962E+03  0.16582496203E+04  0.17052697869E+04  0.00000000000E+00 0.  1.
<mgrwt>
<rscale>  0 0.23203827E+04</rscale>
<asrwt>0</asrwt>
<pdfrwt beam="1">  1        2 0.26724558E+00 0.23203827E+04</pdfrwt>
<pdfrwt beam="2">  1       -2 0.11921255E+00 0.23203827E+04</pdfrwt>
<totfact> 0.45692224E+00</totfact>
</mgrwt>
</event>
<event>
 6    1  0.1719556E-004  0.1692227E+04  0.7818608E-02  0.8765810E-01
          1   -1    0    0  501    0  0.00000000000E+00  0.00000000000E+00  0.45710300666E+03  0.45710300666E+03  0.00000000000E+00 0.  1.
         -1   -1    0    0    0  501 -0.00000000000E+00 -0.00000000000E+00 -0.15661855019E+04  0.15661855019E+04  0.00000000000E+00 0. -1.
         23    2    1    2    0    0 -0.49844678331E+02  0.61133380967E+03  0.13585817117E+03  0.63545178123E+03  0.95540592395E+02 0.  0.
         13    1    3    3    0    0  0.58870671092E+01  0.43574991528E+03  0.10972397797E+03  0.44939069591E+03  0.00000000000E+00 0. -1.
        -13    1    3    3    0    0 -0.55731745441E+02  0.17558389438E+03  0.26134193209E+02  0.18606108532E+03  0.00000000000E+00 0.  1.
         22    1    1    2    0    0  0.49844678331E+02 -0.61133380967E+03 -0.12449406664E+04  0.13878367273E+04  0.00000000000E+00 0. -1.
<mgrwt>
<rscale>  0 0.16922271E+04</rscale>
<asrwt>0</asrwt>
<pdfrwt beam="1">  1        1 0.70323539E-01 0.16922271E+04</pdfrwt>
<pdfrwt beam="2">  1       -1 0.24095162E+00 0.16922271E+04</pdfrwt>
<totfact> 0.38148000E+00</totfact>
</mgrwt>
</event>
<event>
 6    1  0.1719556E-004  0.2236603E+04  0.7818608E-02  0.8503346E-01
          2   -1    0    0  501    0  0.00000000000E+00  0.00000000000E+00  0.32480464971E+04  0.32480464971E+04  0.00000000000E+00 0. -1.
         -2   -1    0    0    0  501 -0.00000000000E+00 -0.00000000000E+00 -0.38503082248E+03  0.38503082248E+03  0.00000000000E+00 0.  1.
         23    2    1    2    0    0 -0.10954807202E+04 -0.19044645296E+03  0.12708184436E+04  0.16910577825E+04  0.91373121827E+02 0.  0.
         13    1    3    3    0    0 -0.74399988372E+03 -0.12364172908E+03  0.92461278197E+03  0.11932023721E+04  0.00000000000E+00 0.  1.
        -13    1    3    3    0    0 -0.35148083650E+03 -0.66804723879E+02  0.34620566164E+03  0.49785541045E+03  0.00000000000E+00 0. -1.
         22    1    1    2    0    0  0.10954807202E+04  0.19044645296E+03  0.15921972310E+04  0.19420195370E+04  0.00000000000E+00 0.  1.
<mgrwt>
<rscale>  0 0.22366028E+04</rscale>
<asrwt>0</asrwt>
<pdfrwt beam="1">  1        2 0.49969944E+00 0.22366028E+04</pdfrwt>
<pdfrwt beam="2">  1       -2 0.59235513E-01 0.22366028E+04</pdfrwt>
<totfact> 0.29302168E+00</totfact>
</mgrwt>
</event>
<event>
 6    1  0.2798036E-004  0.3967996E+04  0.7818608E-02  0.8011034E-01
          2   -1    0    0  501    0  0.00000000000E+00  0.00000000000E+00  0.24927944769E+04  0.24927944769E+04  0.00000000000E+00 0.  1.
         -2   -1    0    0    0  501 -0.00000000000E+00 -0.00000000000E+00 -0.15790503696E+04  0.15790503696E+04  0.00000000000E+00 0. -1.
         23    2    1    2    0    0  0.19245191927E+04 -0.45396000031E+03  0.30481578936E+03  0.20028722750E+04  0.93439175163E+02 0.  0.
         13    1    3    3    0    0  0.97701436884E+03 -0.20195506873E+03  0.11570241751E+03  0.10043555029E+04  0.00000000000E+00 0.  1.
        -13    1    3    3    0    0  0.94750482388E+03 -0.25200493158E+03  0.18911337185E+03  0.99851677213E+03  0.00000000000E+00 0. -1.
         22    1    1    2    0    0 -0.19245191927E+04  0.45396000031E+03  0.60892831799E+03  0.20689725715E+04  0.00000000000E+00 0.  1.
<mgrwt>
<rscale>  0 0.39679960E+04</rscale>
<asrwt>0</asrwt>
<pdfrwt beam="1">  1        2 0.38350684E+00 0.39679960E+04</pdfrwt>
<pdfrwt beam="2">  1       -2 0.24293083E+00 0.39679960E+04</pdfrwt>
<totfact> 0.19750181E-01</totfact>
</mgrwt>
</event>
<event>
 6    1  0.1719556E-004  0.2580024E+04  0.7818608E-02  0.8375018E-01
          2   -1    0    0  501    0  0.00000000000E+00  0.00000000000E+00  0.36978761629E+04  0.36978761629E+04  0.00000000000E+00 0.  1.
         -2   -1    0    0    0  501 -0.00000000000E+00 -0.00000000000E+00 -0.45002361059E+03  0.45002361059E+03  0.00000000000E+00 0. -1.
         23    2    1    2    0    0 -0.11522719311E+04  0.26734396194E+02  0.25517454748E+04  0.28014190293E+04  0.89990433547E+02 0.  0.
         11    1    3    3    0    0 -0.37293218049E+03 -0.27804594458E+02  0.87778186046E+03  0.95412394439E+03  0.00000000000E+00 0. -1.
        -11    1    3    3    0    0 -0.77933975063E+03  0.54538990652E+02  0.16739636143E+04  0.18472950849E+04  0.00000000000E+00 0.  1.
         22    1    1    2    0    0  0.11522719311E+04 -0.26734396194E+02  0.69610707746E+03  0.13464807442E+04  0.00000000000E+00 0. -1.
<mgrwt>
<rscale>  0 0.25800245E+04</rscale>
<asrwt>0</asrwt>
<pdfrwt beam="1">  1        2 0.56890401E+00 0.25800245E+04</pdfrwt>
<pdfrwt beam="2">  1       -2 0.69234404E-01 0.25800245E+04</pdfrwt>
<totfact> 0.98971735E-01</totfact>
</mgrwt>
</event>
<event>
 6    1  0.1719556E-004  0.1874138E+04  0.7818608E-02  0.8667838E-01
          2   -1    0    0  501    0  0.00000000000E+00  0.00000000000E+00  0.14959542996E+04  0.14959542996E+04  0.00000000000E+00 0.  1.
         -2   -1    0    0    0  501 -0.00000000000E+00 -0.00000000000E+00 -0.58698205325E+03  0.58698205325E+03  0.00000000000E+00 0. -1.
         23    2    1    2    0    0 -0.46782186564E+03  0.77299578443E+03  0.18904336309E+03  0.92765397278E+03  0.91786270023E+02 0.  0.
         11    1    3    3    0    0 -0.18846945456E+03  0.31599939669E+03  0.12316614739E+03  0.38800290446E+03  0.00000000000E+00 0.  1.
        -11    1    3    3    0    0 -0.27935241109E+03  0.45699638774E+03  0.65877215708E+02  0.53965106831E+03  0.00000000000E+00 0. -1.
         22    1    1    2    0    0  0.46782186564E+03 -0.77299578443E+03  0.71992888322E+03  0.11552823800E+04  0.00000000000E+00 0.  1.
<mgrwt>
<rscale>  0 0.18741380E+04</rscale>
<asrwt>0</asrwt>
<pdfrwt beam="1">  1        2 0.23014681E+00 0.18741380E+04</pdfrwt>
<pdfrwt beam="2">  1       -2 0.90304932E-01 0.18741380E+04</pdfrwt>
<totfact> 0.12558581E+01</totfact>
</mgrwt>
</event>
<event>
 6    1  0.1719556E-004  0.1865994E+04  0.7818608E-02  0.8671971E-01
         -2   -1    0    0    0  501 -0.00000000000E+00  0.00000000000E+00  0.28841990990E+03  0.28841990990E+03  0.00000000000E+00 0.  1.
          2   -1    0    0  501    0  0.00000000000E+00 -0.00000000000E+00 -0.30181121386E+04  0.30181121386E+04  0.00000000000E+00 0. -1.
         23    2    1    2    0    0 -0.38923076737E+03 -0.63830421564E+03 -0.23506593331E+04  0.24683203820E+04  0.89851799725E+02 0.  0.
         13    1    3    3    0    0 -0.32324517076E+03 -0.57241783548E+03 -0.19882934948E+04  0.20941491447E+04  0.00000000000E+00 0. -1.
        -13    1    3    3    0    0 -0.65985596608E+02 -0.65886380156E+02 -0.36236583827E+03  0.37417123727E+03  0.00000000000E+00 0.  1.
         22    1    1    2    0    0  0.38923076737E+03  0.63830421564E+03 -0.37903289564E+03  0.83821166655E+03  0.00000000000E+00 0.  1.
<mgrwt>
<rscale>  0 0.18659942E+04</rscale>
<asrwt>0</asrwt>
<pdfrwt beam="1">  1        2 0.46432494E+00 0.18659942E+04</pdfrwt>
<pdfrwt beam="2">  1       -2 0.44372294E-01 0.18659942E+04</pdfrwt>
<totfact> 0.76984064E+00</totfact>
</mgrwt>
</event>
<event>
 6    1  0.1719556E-004  0.9823192E+03  0.7818608E-02  0.9328152E-01
         -2   -1    0    0    0  501 -0.00000000000E+00  0.00000000000E+00  0.17852716172E+03  0.17852716172E+03  0.00000000000E+00 0. -1.
          2   -1    0    0  501    0  0.00000000000E+00 -0.00000000000E+00 -0.13512663730E+04  0.13512663730E+04  0.00000000000E+00 0.  1.
         23    2    1    2    0    0 -0.45806726579E+03  0.15526636212E+03 -0.50251784129E+03  0.70327677870E+03  0.90226290278E+02 0.  0.
         11    1    3    3    0    0 -0.22593360536E+03  0.55488579646E+02 -0.29893080572E+03  0.37879361546E+03  0.00000000000E+00 0.  1.
        -11    1    3    3    0    0 -0.23213366042E+03  0.99777782478E+02 -0.20358703557E+03  0.32448316324E+03  0.00000000000E+00 0. -1.
         22    1    1    2    0    0  0.45806726579E+03 -0.15526636212E+03 -0.67022136999E+03  0.82651675602E+03  0.00000000000E+00 0. -1.
<mgrwt>
<rscale>  0 0.98231920E+03</rscale>
<asrwt>0</asrwt>
<pdfrwt beam="1">  1        2 0.20788714E+00 0.98231920E+03</pdfrwt>
<pdfrwt beam="2">  1       -2 0.27465717E-01 0.98231920E+03</pdfrwt>
<totfact> 0.18605974E+02</totfact>
</mgrwt>
</event>
<event>
 6    1  0.1719556E-004  0.1681989E+04  0.7818608E-02  0.8771704E-01
         -2   -1    0    0    0  501 -0.00000000000E+00  0.00000000000E+00  0.27507578786E+03  0.27507578786E+03  0.00000000000E+00 0. -1.
          2   -1    0    0  501    0  0.00000000000E+00 -0.00000000000E+00 -0.25711890805E+04  0.25711890805E+04  0.00000000000E+00 0.  1.
         23    2    1    2    0    0 -0.11581813441E+03 -0.22100097429E+03 -0.25061196382E+04  0.25201392237E+04  0.90613438625E+02 0.  0.
         11    1    3    3    0    0 -0.48288730897E+02 -0.18019494014E+03 -0.17635841246E+04  0.17734235203E+04  0.00000000000E+00 0. -1.
        -11    1    3    3    0    0 -0.67529403515E+02 -0.40806034148E+02 -0.74253551362E+03  0.74671570343E+03  0.00000000000E+00 0.  1.
         22    1    1    2    0    0  0.11581813441E+03  0.22100097429E+03  0.21000634555E+03  0.32612564460E+03  0.00000000000E+00 0. -1.
<mgrwt>
<rscale>  0 0.16819891E+04</rscale>
<asrwt>0</asrwt>
<pdfrwt beam="1">  1        2 0.39556756E+00 0.16819891E+04</pdfrwt>
<pdfrwt beam="2">  1       -2 0.42319351E-01 0.16819891E+04</pdfrwt>
<totfact> 0.15989952E+01</totfact>
</mgrwt>
</event>
<event>
 6    1  0.1719556E-004  0.3200693E+04  0.7818608E-02  0.8188634E-01
          2   -1    0    0  501    0  0.00000000000E+00  0.00000000000E+00  0.23100415742E+04  0.23100415742E+04  0.00000000000E+00 0. -1.
         -2   -1    0    0    0  501 -0.00000000000E+00 -0.00000000000E+00 -0.11086850497E+04  0.11086850497E+04  0.00000000000E+00 0.  1.
         23    2    1    2    0    0 -0.91641689887E+03  0.53715701486E+03 -0.67538784309E+03  0.12622185640E+04  0.93216809285E+02 0.  0.
         11    1    3    3    0    0 -0.13104915963E+03  0.45087139037E+02 -0.10622172324E+03  0.17461324931E+03  0.00000000000E+00 0. -1.
        -11    1    3    3    0    0 -0.78536773924E+03  0.49206987583E+03 -0.56916611985E+03  0.10876053147E+04  0.00000000000E+00 0.  1.
         22    1    1    2    0    0  0.91641689887E+03 -0.53715701486E+03  0.18767443676E+04  0.21565080599E+04  0.00000000000E+00 0. -1.
<mgrwt>
<rscale>  0 0.32006928E+04</rscale>
<asrwt>0</asrwt>
<pdfrwt beam="1">  1        2 0.35539101E+00 0.32006928E+04</pdfrwt>
<pdfrwt beam="2">  1       -2 0.17056693E+00 0.32006928E+04</pdfrwt>
<totfact> 0.79552227E-01</totfact>
</mgrwt>
</event>
<event>
 6    1  0.1719556E-004  0.1212553E+04  0.7818608E-02  0.9101939E-01
          1   -1    0    0  501    0  0.00000000000E+00  0.00000000000E+00  0.26593564811E+04  0.26593564811E+04  0.00000000000E+00 0.  1.
         -1   -1    0    0    0  501 -0.00000000000E+00 -0.00000000000E+00 -0.13821807581E+03  0.13821807581E+03  0.00000000000E+00 0. -1.
         23    2    1    2    0    0  0.97065855418E+02  0.81606330229E+02  0.26271286325E+04  0.26323011420E+04  0.10546599982E+03 0.  0.
         13    1    3    3    0    0  0.32360846278E+01  0.62333451322E+02  0.69416709518E+03  0.69696763729E+03  0.00000000000E+00 0.  1.
        -13    1    3    3    0    0  0.93829770790E+02  0.19272878908E+02  0.19329615373E+04  0.19353335047E+04  0.00000000000E+00 0. -1.
         22    1    1    2    0    0 -0.97065855418E+02 -0.81606330229E+02 -0.10599022719E+03  0.16527341492E+03  0.00000000000E+00 0. -1.
<mgrwt>
<rscale>  0 0.12125529E+04</rscale>
<asrwt>0</asrwt>
<pdfrwt beam="1">  1        1 0.40913173E+00 0.12125529E+04</pdfrwt>
<pdfrwt beam="2">  1       -1 0.21264321E-01 0.12125529E+04</pdfrwt>
<totfact> 0.19279158E+01</totfact>
</mgrwt>
</event>
<event>
 6    1  0.1719556E-004  0.3812556E+04  0.7818608E-02  0.8043466E-01
         -2   -1    0    0    0  501 -0.00000000000E+00  0.00000000000E+00  0.16317962046E+04  0.16317962046E+04  0.00000000000E+00 0. -1.
          2   -1    0    0  501    0  0.00000000000E+00 -0.00000000000E+00 -0.22269302871E+04  0.22269302871E+04  0.00000000000E+00 0.  1.
         23    2    1    2    0    0  0.24964317972E+03 -0.11208432172E+04 -0.18363810948E+04  0.21677784203E+04  0.91414002083E+02 0.  0.
         13    1    3    3    0    0  0.39648586754E+02 -0.21769713604E+03 -0.42314912019E+03  0.47751359288E+03  0.00000000000E+00 0.  1.
        -13    1    3    3    0    0  0.20999459297E+03 -0.90314608115E+03 -0.14132319746E+04  0.16902648275E+04  0.00000000000E+00 0. -1.
         22    1    1    2    0    0 -0.24964317972E+03  0.11208432172E+04  0.12412470122E+04  0.16909480713E+04  0.00000000000E+00 0. -1.
<mgrwt>
<rscale>  0 0.38125563E+04</rscale>
<asrwt>0</asrwt>
<pdfrwt beam="1">  1        2 0.34260466E+00 0.38125563E+04</pdfrwt>
<pdfrwt beam="2">  1       -2 0.25104557E+00 0.38125563E+04</pdfrwt>
<totfact> 0.25291139E-01</totfact>
</mgrwt>
</event>
<event>
 6    1  0.1719556E-004  0.2034092E+04  0.7818608E-02  0.8590845E-01
         -1   -1    0    0    0  501 -0.00000000000E+00  0.00000000000E+00  0.13800626715E+04  0.13800626715E+04  0.00000000000E+00 0. -1.
          1   -1    0    0  501    0  0.00000000000E+00 -0.00000000000E+00 -0.74951881126E+03  0.74951881126E+03  0.00000000000E+00 0.  1.
         23    2    1    2    0    0  0.96255878536E+03 -0.28004052479E+03  0.48242233669E+03  0.11162295713E+04  0.91077077372E+02 0.  0.
         11    1    3    3    0    0  0.60652507335E+03 -0.13554779092E+03  0.32059724657E+03  0.69930570049E+03  0.00000000000E+00 0. -1.
        -11    1    3    3    0    0  0.35603371201E+03 -0.14449273387E+03  0.16182509012E+03  0.41692387077E+03  0.00000000000E+00 0.  1.
         22    1    1    2    0    0 -0.96255878536E+03  0.28004052479E+03  0.14812152356E+03  0.10133519115E+04  0.00000000000E+00 0. -1.
<mgrwt>
<rscale>  0 0.20340924E+04</rscale>
<asrwt>0</asrwt>
<pdfrwt beam="1">  1        1 0.11531059E+00 0.20340924E+04</pdfrwt>
<pdfrwt beam="2">  1       -1 0.21231733E+00 0.20340924E+04</pdfrwt>
<totfact> 0.28112459E+00</totfact>
</mgrwt>
</event>
<event>
 6    1  0.1719556E-004  0.1502511E+04  0.7818608E-02  0.8882785E-01
          2   -1    0    0  501    0  0.00000000000E+00  0.00000000000E+00  0.67509117861E+03  0.67509117861E+03  0.00000000000E+00 0.  1.
         -2   -1    0    0    0  501 -0.00000000000E+00 -0.00000000000E+00 -0.83601302076E+03  0.83601302076E+03  0.00000000000E+00 0. -1.
         23    2    1    2    0    0 -0.52840861484E+03  0.38957643699E+03  0.28132666997E+03  0.71954295033E+03  0.87246189867E+02 0.  0.
         11    1    3    3    0    0 -0.77666285500E+02  0.98557464288E+02  0.61277569198E+02  0.13964442759E+03  0.00000000000E+00 0. -1.
        -11    1    3    3    0    0 -0.45074232934E+03  0.29101897270E+03  0.22004910077E+03  0.57989852274E+03  0.00000000000E+00 0.  1.
         22    1    1    2    0    0  0.52840861484E+03 -0.38957643699E+03 -0.44224851212E+03  0.79156124903E+03  0.00000000000E+00 0. -1.
<mgrwt>
<rscale>  0 0.15025113E+04</rscale>
<asrwt>0</asrwt>
<pdfrwt beam="1">  1        2 0.10386018E+00 0.15025113E+04</pdfrwt>
<pdfrwt beam="2">  1       -2 0.12861739E+00 0.15025113E+04</pdfrwt>
<totfact> 0.18481796E+01</totfact>
</mgrwt>
</event>
<event>
 6    1  0.1719556E-004  0.2425893E+04  0.7818608E-02  0.8429873E-01
         -1   -1    0    0    0  501 -0.00000000000E+00  0.00000000000E+00  0.67681881760E+03  0.67681881760E+03  0.00000000000E+00 0. -1.
          1   -1    0    0  501    0  0.00000000000E+00 -0.00000000000E+00 -0.21737566860E+04  0.21737566860E+04  0.00000000000E+00 0.  1.
         23    2    1    2    0    0 -0.81038848002E+02 -0.12072287611E+04 -0.81575783043E+03  0.14620601739E+04  0.90501589451E+02 0.  0.
         11    1    3    3    0    0 -0.77797264207E+02 -0.85294157885E+03 -0.61939108756E+03  0.10569801657E+04  0.00000000000E+00 0. -1.
        -11    1    3    3    0    0 -0.32415837951E+01 -0.35428718229E+03 -0.19636674288E+03  0.40508000828E+03  0.00000000000E+00 0.  1.
         22    1    1    2    0    0  0.81038848002E+02  0.12072287611E+04 -0.68118003799E+03  0.13885153297E+04  0.00000000000E+00 0. -1.
<mgrwt>
<rscale>  0 0.24258932E+04</rscale>
<asrwt>0</asrwt>
<pdfrwt beam="1">  1        1 0.33442410E+00 0.24258932E+04</pdfrwt>
<pdfrwt beam="2">  1       -1 0.10412597E+00 0.24258932E+04</pdfrwt>
<totfact> 0.17616502E+00</totfact>
</mgrwt>
</event>
<event>
 6    1  0.1719556E-004  0.2016084E+04  0.7818608E-02  0.8599137E-01
         -2   -1    0    0    0  501 -0.00000000000E+00  0.00000000000E+00  0.37256887688E+03  0.37256887688E+03  0.00000000000E+00 0. -1.
          2   -1    0    0  501    0  0.00000000000E+00 -0.00000000000E+00 -0.27274127796E+04  0.27274127796E+04  0.00000000000E+00 0.  1.
         23    2    1    2    0    0 -0.51154883110E+03  0.86421466521E+03 -0.10919263002E+04  0.14864420490E+04  0.93046901057E+02 0.  0.
         13    1    3    3    0    0 -0.36452485393E+03  0.53985174927E+03 -0.73791978859E+03  0.98429868166E+03  0.00000000000E+00 0. -1.
        -13    1    3    3    0    0 -0.14702397716E+03  0.32436291594E+03 -0.35400651161E+03  0.50214336734E+03  0.00000000000E+00 0.  1.
         22    1    1    2    0    0  0.51154883110E+03 -0.86421466521E+03 -0.12629176025E+04  0.16135396075E+04  0.00000000000E+00 0.  1.
<mgrwt>
<rscale>  0 0.20160844E+04</rscale>
<asrwt>0</asrwt>
<pdfrwt beam="1">  1        2 0.41960197E+00 0.20160844E+04</pdfrwt>
<pdfrwt beam="2">  1       -2 0.57318289E-01 0.20160844E+04</pdfrwt>
<totfact> 0.67747916E+00</totfact>
</mgrwt>
</event>
<event>
 6    1  0.1719556E-004  0.1730830E+04  0.7818608E-02  0.8743973E-01
         -2   -1    0    0    0  501 -0.00000000000E+00  0.00000000000E+00  0.63232796394E+03  0.63232796394E+03  0.00000000000E+00 0. -1.
          2   -1    0    0  501    0  0.00000000000E+00 -0.00000000000E+00 -0.11844225161E+04  0.11844225161E+04  0.00000000000E+00 0.  1.
         23    2    1    2    0    0 -0.64376805602E+03 -0.16963299938E+03  0.29974319380E+03  0.73562134352E+03  0.89889456443E+02 0.  0.
         11    1    3    3    0    0 -0.61015276938E+03 -0.17829397041E+03  0.29427384317E+03  0.70048000445E+03  0.00000000000E+00 0. -1.
        -11    1    3    3    0    0 -0.33615286640E+02  0.86609710275E+01  0.54693506364E+01  0.35141339067E+02  0.00000000000E+00 0.  1.
         22    1    1    2    0    0  0.64376805602E+03  0.16963299938E+03 -0.85183774601E+03  0.10811291366E+04  0.00000000000E+00 0.  1.
<mgrwt>
<rscale>  0 0.17308304E+04</rscale>
<asrwt>0</asrwt>
<pdfrwt beam="1">  1        2 0.18221885E+00 0.17308304E+04</pdfrwt>
<pdfrwt beam="2">  1       -2 0.97281227E-01 0.17308304E+04</pdfrwt>
<totfact> 0.16197438E+01</totfact>
</mgrwt>
</event>
<event>
 6    1  0.1719556E-004  0.1251318E+04  0.7818608E-02  0.9069087E-01
         -1   -1    0    0    0  501 -0.00000000000E+00  0.00000000000E+00  0.20631893107E+03  0.20631893107E+03  0.00000000000E+00 0. -1.
          1   -1    0    0  501    0  0.00000000000E+00 -0.00000000000E+00 -0.18973022161E+04  0.18973022161E+04  0.00000000000E+00 0.  1.
         23    2    1    2    0    0  0.49195159275E+03  0.26826071658E+03 -0.13057276723E+04  0.14236196260E+04  0.88249099704E+02 0.  0.
         11    1    3    3    0    0  0.24003698030E+03  0.16380265060E+03 -0.75692982867E+03  0.81079703119E+03  0.00000000000E+00 0. -1.
        -11    1    3    3    0    0  0.25191461245E+03  0.10445806597E+03 -0.54879784363E+03  0.61282259479E+03  0.00000000000E+00 0.  1.
         22    1    1    2    0    0 -0.49195159275E+03 -0.26826071658E+03 -0.38525561272E+03  0.68000152117E+03  0.00000000000E+00 0. -1.
<mgrwt>
<rscale>  0 0.12513183E+04</rscale>
<asrwt>0</asrwt>
<pdfrwt beam="1">  1        1 0.29189266E+00 0.12513183E+04</pdfrwt>
<pdfrwt beam="2">  1       -1 0.31741372E-01 0.12513183E+04</pdfrwt>
<totfact> 0.31900024E+01</totfact>
</mgrwt>
</event>
<event>
 6    1  0.1719556E-004  0.3066319E+04  0.7818608E-02  0.8225042E-01
         -1   -1    0    0    0  501 -0.00000000000E+00  0.00000000000E+00  0.12828622758E+04  0.12828622758E+04  0.00000000000E+00 0. -1.
          1   -1    0    0  501    0  0.00000000000E+00 -0.00000000000E+00 -0.18322923509E+04  0.18322923509E+04  0.00000000000E+00 0.  1.
         23    2    1    2    0    0 -0.11344904743E+02 -0.15127352983E+04 -0.30242107142E+02  0.15157632000E+04  0.90148233031E+02 0.  0.
         13    1    3    3    0    0  0.32587353393E+02 -0.55267182735E+03 -0.34198323870E+02  0.55468694748E+03  0.00000000000E+00 0.  1.
        -13    1    3    3    0    0 -0.43932258137E+02 -0.96006347093E+03  0.39562167280E+01  0.96107625252E+03  0.00000000000E+00 0. -1.
         22    1    1    2    0    0  0.11344904743E+02  0.15127352983E+04 -0.51918796798E+03  0.15993914266E+04  0.00000000000E+00 0.  1.
<mgrwt>
<rscale>  0 0.30663194E+04</rscale>
<asrwt>0</asrwt>
<pdfrwt beam="1">  1        1 0.28189113E+00 0.30663194E+04</pdfrwt>
<pdfrwt beam="2">  1       -1 0.19736343E+00 0.30663194E+04</pdfrwt>
<totfact> 0.51450902E-01</totfact>
</mgrwt>
</event>
<event>
 6    1  0.1719556E-004  0.2654516E+04  0.7818608E-02  0.8349916E-01
          1   -1    0    0  501    0  0.00000000000E+00  0.00000000000E+00  0.14271355307E+04  0.14271355307E+04  0.00000000000E+00 0.  1.
         -1   -1    0    0    0  501 -0.00000000000E+00 -0.00000000000E+00 -0.12343699789E+04  0.12343699789E+04  0.00000000000E+00 0. -1.
         23    2    1    2    0    0  0.27967226986E+03 -0.57689935178E+03  0.12599361489E+04  0.14165627302E+04  0.90451249523E+02 0.  0.
         13    1    3    3    0    0  0.11256957608E+03 -0.21080528185E+03  0.37888821671E+03  0.44795876716E+03  0.00000000000E+00 0. -1.
        -13    1    3    3    0    0  0.16710269378E+03 -0.36609406993E+03  0.88104793222E+03  0.96860396302E+03  0.00000000000E+00 0.  1.
         22    1    1    2    0    0 -0.27967226986E+03  0.57689935178E+03 -0.10671705971E+04  0.12449427794E+04  0.00000000000E+00 0. -1.
<mgrwt>
<rscale>  0 0.26545156E+04</rscale>
<asrwt>0</asrwt>
<pdfrwt beam="1">  1        1 0.21955931E+00 0.26545156E+04</pdfrwt>
<pdfrwt beam="2">  1       -1 0.18990307E+00 0.26545156E+04</pdfrwt>
<totfact> 0.11408110E+00</totfact>
</mgrwt>
</event>
<event>
 6    1  0.1719556E-004  0.2505690E+04  0.7818608E-02  0.8400961E-01
          2   -1    0    0  501    0  0.00000000000E+00  0.00000000000E+00  0.19850464384E+04  0.19850464384E+04  0.00000000000E+00 0.  1.
         -2   -1    0    0    0  501 -0.00000000000E+00 -0.00000000000E+00 -0.79072247606E+03  0.79072247606E+03  0.00000000000E+00 0. -1.
         23    2    1    2    0    0 -0.70801653749E+03 -0.10313716690E+04  0.57332091413E+03  0.13791087114E+04  0.90714002115E+02 0.  0.
         11    1    3    3    0    0 -0.33283646294E+03 -0.44326280766E+03  0.21172777926E+03  0.59337229479E+03  0.00000000000E+00 0.  1.
        -11    1    3    3    0    0 -0.37518007455E+03 -0.58810886136E+03  0.36159313487E+03  0.78573641658E+03  0.00000000000E+00 0. -1.
         22    1    1    2    0    0  0.70801653749E+03  0.10313716690E+04  0.62100304821E+03  0.13966602031E+04  0.00000000000E+00 0. -1.
<mgrwt>
<rscale>  0 0.25056902E+04</rscale>
<asrwt>0</asrwt>
<pdfrwt beam="1">  1        2 0.30539176E+00 0.25056902E+04</pdfrwt>
<pdfrwt beam="2">  1       -2 0.12164961E+00 0.25056902E+04</pdfrwt>
<totfact> 0.31160533E+00</totfact>
</mgrwt>
</event>
<event>
 6    1  0.1719556E-004  0.8239426E+03  0.7818608E-02  0.9525993E-01
         -2   -1    0    0    0  501 -0.00000000000E+00  0.00000000000E+00  0.14695396639E+03  0.14695396639E+03  0.00000000000E+00 0. -1.
          2   -1    0    0  501    0  0.00000000000E+00 -0.00000000000E+00 -0.11549218350E+04  0.11549218350E+04  0.00000000000E+00 0.  1.
         23    2    1    2    0    0  0.83757777342E+02  0.37011940076E+03 -0.28520695593E+03  0.48555045389E+03  0.10204165562E+03 0.  0.
         11    1    3    3    0    0 -0.19133486163E+02  0.13129294810E+03 -0.10428389152E+03  0.16875739552E+03  0.00000000000E+00 0. -1.
        -11    1    3    3    0    0  0.10289126350E+03  0.23882645266E+03 -0.18092306441E+03  0.31679305837E+03  0.00000000000E+00 0.  1.
         22    1    1    2    0    0 -0.83757777342E+02 -0.37011940076E+03 -0.72276091269E+03  0.81632534752E+03  0.00000000000E+00 0.  1.
<mgrwt>
<rscale>  0 0.82394258E+03</rscale>
<asrwt>0</asrwt>
<pdfrwt beam="1">  1        2 0.17768028E+00 0.82394258E+03</pdfrwt>
<pdfrwt beam="2">  1       -2 0.22608303E-01 0.82394258E+03</pdfrwt>
<totfact> 0.34795331E+02</totfact>
</mgrwt>
</event>
<event>
 6    1  0.1719556E-004  0.2136721E+04  0.7818608E-02  0.8545238E-01
          2   -1    0    0  501    0  0.00000000000E+00  0.00000000000E+00  0.19928864712E+04  0.19928864712E+04  0.00000000000E+00 0.  1.
         -2   -1    0    0    0  501 -0.00000000000E+00 -0.00000000000E+00 -0.57273427914E+03  0.57273427914E+03  0.00000000000E+00 0. -1.
         23    2    1    2    0    0 -0.53302028892E+03  0.19152824653E+03 -0.37358376538E+03  0.68458848516E+03  0.91120067129E+02 0.  0.
         11    1    3    3    0    0 -0.10915291200E+03  0.41778071836E+02 -0.35641905390E+02  0.12218883298E+03  0.00000000000E+00 0. -1.
        -11    1    3    3    0    0 -0.42386737693E+03  0.14975017469E+03 -0.33794185999E+03  0.56239965218E+03  0.00000000000E+00 0.  1.
         22    1    1    2    0    0  0.53302028892E+03 -0.19152824653E+03  0.17937359574E+04  0.18810322652E+04  0.00000000000E+00 0.  1.
<mgrwt>
<rscale>  0 0.21367212E+04</rscale>
<asrwt>0</asrwt>
<pdfrwt beam="1">  1        2 0.30659791E+00 0.21367212E+04</pdfrwt>
<pdfrwt beam="2">  1       -2 0.88112967E-01 0.21367212E+04</pdfrwt>
<totfact> 0.68737310E+00</totfact>
</mgrwt>
</event>
<event>
 6    1  0.1719556E-004  0.1603520E+04  0.7818608E-02  0.8818388E-01
         -2   -1    0    0    0  501 -0.00000000000E+00  0.00000000000E+00  0.96189018069E+03  0.96189018069E+03  0.00000000000E+00 0. -1.
          2   -1    0    0  501    0  0.00000000000E+00 -0.00000000000E+00 -0.66828771246E+03  0.66828771246E+03  0.00000000000E+00 0.  1.
         23    2    1    2    0    0  0.78209686536E+03  0.48280745646E+02  0.30700514340E+03  0.84647758761E+03  0.90915405922E+02 0.  0.
         13    1    3    3    0    0  0.50477426807E+02  0.57049483204E+01 -0.26910075068E+01  0.50870016452E+02  0.00000000000E+00 0. -1.
        -13    1    3    3    0    0  0.73161943856E+03  0.42575797325E+02  0.30969615091E+03  0.79560757116E+03  0.00000000000E+00 0.  1.
         22    1    1    2    0    0 -0.78209686536E+03 -0.48280745646E+02 -0.13402675176E+02  0.78370030555E+03  0.00000000000E+00 0. -1.
<mgrwt>
<rscale>  0 0.16035204E+04</rscale>
<asrwt>0</asrwt>
<pdfrwt beam="1">  1        2 0.10281349E+00 0.16035204E+04</pdfrwt>
<pdfrwt beam="2">  1       -2 0.14798311E+00 0.16035204E+04</pdfrwt>
<totfact> 0.12924244E+01</totfact>
</mgrwt>
</event>
<event>
 6    1  0.1719556E-004  0.3023017E+04  0.7818608E-02  0.8237189E-01
         -2   -1    0    0    0  501 -0.00000000000E+00  0.00000000000E+00  0.88426071295E+03  0.88426071295E+03  0.00000000000E+00 0. -1.
          2   -1    0    0  501    0  0.00000000000E+00 -0.00000000000E+00 -0.25836929781E+04  0.25836929781E+04  0.00000000000E+00 0.  1.
         23    2    1    2    0    0  0.89329005799E+03  0.70039608355E+03  0.29151993581E+03  0.11761394603E+04  0.98986643654E+02 0.  0.
         13    1    3    3    0    0  0.22707876872E+03  0.12689165561E+03  0.76987629721E+02  0.27128095141E+03  0.00000000000E+00 0. -1.
        -13    1    3    3    0    0  0.66621128927E+03  0.57350442794E+03  0.21453230609E+03  0.90485850893E+03  0.00000000000E+00 0.  1.
         22    1    1    2    0    0 -0.89329005799E+03 -0.70039608355E+03 -0.19909522009E+04  0.22918142307E+04  0.00000000000E+00 0.  1.
<mgrwt>
<rscale>  0 0.30230172E+04</rscale>
<asrwt>0</asrwt>
<pdfrwt beam="1">  1        2 0.39749122E+00 0.30230172E+04</pdfrwt>
<pdfrwt beam="2">  1       -2 0.13604011E+00 0.30230172E+04</pdfrwt>
<totfact> 0.10279687E+00</totfact>
</mgrwt>
</event>
<event>
 6    1  0.1719556E-004  0.5195595E+03  0.7818608E-02  0.1008796E+00
         -3   -1    0    0    0  501 -0.00000000000E+00  0.00000000000E+00  0.52172133745E+02  0.52172133745E+02  0.00000000000E+00 0. -1.
          3   -1    0    0  501    0  0.00000000000E+00 -0.00000000000E+00 -0.12935166989E+04  0.12935166989E+04  0.00000000000E+00 0.  1.
         23    2    1    2    0    0  0.14655027147E+03  0.14020263462E+03 -0.10265421250E+04  0.10502673556E+04  0.90216533874E+02 0.  0.
         11    1    3    3    0    0  0.50467790767E+02  0.17804617366E+01 -0.31664589837E+03  0.32064745891E+03  0.00000000000E+00 0. -1.
        -11    1    3    3    0    0  0.96082480705E+02  0.13842217288E+03 -0.70989622659E+03  0.72961989664E+03  0.00000000000E+00 0.  1.
         22    1    1    2    0    0 -0.14655027147E+03 -0.14020263462E+03 -0.21480244023E+03  0.29542147713E+03  0.00000000000E+00 0. -1.
<mgrwt>
<rscale>  0 0.51955953E+03</rscale>
<asrwt>0</asrwt>
<pdfrwt beam="1">  1        3 0.19900257E+00 0.51955953E+03</pdfrwt>
<pdfrwt beam="2">  1       -3 0.80264822E-02 0.51955953E+03</pdfrwt>
<totfact> 0.44232571E+01</totfact>
</mgrwt>
</event>
<event>
 6    1  0.1719556E-004  0.2467715E+04  0.7818608E-02  0.8414578E-01
         -1   -1    0    0    0  501 -0.00000000000E+00  0.00000000000E+00  0.46517946159E+03  0.46517946159E+03  0.00000000000E+00 0.  1.
          1   -1    0    0  501    0  0.00000000000E+00 -0.00000000000E+00 -0.32727242328E+04  0.32727242328E+04  0.00000000000E+00 0. -1.
         23    2    1    2    0    0 -0.17751624172E+03  0.12183020346E+04 -0.14802012449E+04  0.19274858696E+04  0.91837837032E+02 0.  0.
         13    1    3    3    0    0 -0.14774270702E+03  0.73466898093E+03 -0.86796526066E+03  0.11467040214E+04  0.00000000000E+00 0. -1.
        -13    1    3    3    0    0 -0.29773534694E+02  0.48363305369E+03 -0.61223598425E+03  0.78078184815E+03  0.00000000000E+00 0.  1.
         22    1    1    2    0    0  0.17751624172E+03 -0.12183020346E+04 -0.13273435263E+04  0.18104178248E+04  0.00000000000E+00 0. -1.
<mgrwt>
<rscale>  0 0.24677148E+04</rscale>
<asrwt>0</asrwt>
<pdfrwt beam="1">  1        1 0.50349602E+00 0.24677148E+04</pdfrwt>
<pdfrwt beam="2">  1       -1 0.71566073E-01 0.24677148E+04</pdfrwt>
<totfact> 0.65818746E-01</totfact>
</mgrwt>
</event>
<event>
 6    1  0.1719556E-004  0.2270532E+04  0.7818608E-02  0.8489632E-01
         -2   -1    0    0    0  501 -0.00000000000E+00  0.00000000000E+00  0.51856676605E+03  0.51856676605E+03  0.00000000000E+00 0. -1.
          2   -1    0    0  501    0  0.00000000000E+00 -0.00000000000E+00 -0.24853662516E+04  0.24853662516E+04  0.00000000000E+00 0.  1.
         23    2    1    2    0    0 -0.51980577060E+03 -0.68076961133E+03 -0.28917777806E+01  0.86136941592E+03  0.91124121059E+02 0.  0.
         11    1    3    3    0    0 -0.17658232825E+03 -0.20535295668E+03 -0.40284744862E+02  0.27381383482E+03  0.00000000000E+00 0. -1.
        -11    1    3    3    0    0 -0.34322344235E+03 -0.47541665465E+03  0.37392967081E+02  0.58755558110E+03  0.00000000000E+00 0.  1.
         22    1    1    2    0    0  0.51980577060E+03  0.68076961133E+03 -0.19639077077E+04  0.21425636017E+04  0.00000000000E+00 0.  1.
<mgrwt>
<rscale>  0 0.22705315E+04</rscale>
<asrwt>0</asrwt>
<pdfrwt beam="1">  1        2 0.38236405E+00 0.22705315E+04</pdfrwt>
<pdfrwt beam="2">  1       -2 0.79779501E-01 0.22705315E+04</pdfrwt>
<totfact> 0.44870574E+00</totfact>
</mgrwt>
</event>
<event>
 6    1  0.1719556E-004  0.2998278E+04  0.7818608E-02  0.8244223E-01
          1   -1    0    0  501    0  0.00000000000E+00  0.00000000000E+00  0.87878135643E+03  0.87878135643E+03  0.00000000000E+00 0. -1.
         -1   -1    0    0    0  501 -0.00000000000E+00 -0.00000000000E+00 -0.25574248357E+04  0.25574248357E+04  0.00000000000E+00 0.  1.
         23    2    1    2    0    0  0.27866771672E+03  0.14651003498E+04 -0.67843492754E+03  0.16404913266E+04  0.82238133152E+02 0.  0.
         11    1    3    3    0    0  0.93572179584E+02  0.31097293688E+03 -0.15008056959E+03  0.35774865147E+03  0.00000000000E+00 0.  1.
        -11    1    3    3    0    0  0.18509553714E+03  0.11541274129E+04 -0.52835435795E+03  0.12827426751E+04  0.00000000000E+00 0. -1.
         22    1    1    2    0    0 -0.27866771672E+03 -0.14651003498E+04 -0.10002085517E+04  0.17957148655E+04  0.00000000000E+00 0.  1.
<mgrwt>
<rscale>  0 0.29982777E+04</rscale>
<asrwt>0</asrwt>
<pdfrwt beam="1">  1        1 0.13519713E+00 0.29982777E+04</pdfrwt>
<pdfrwt beam="2">  1       -1 0.39344997E+00 0.29982777E+04</pdfrwt>
<totfact> 0.12779742E-01</totfact>
</mgrwt>
</event>
<event>
 6    1  0.1719556E-004  0.1795552E+04  0.7818608E-02  0.8708668E-01
         -1   -1    0    0    0  501 -0.00000000000E+00  0.00000000000E+00  0.73892902663E+03  0.73892902663E+03  0.00000000000E+00 0. -1.
          1   -1    0    0  501    0  0.00000000000E+00 -0.00000000000E+00 -0.10907701156E+04  0.10907701156E+04  0.00000000000E+00 0.  1.
         23    2    1    2    0    0 -0.55259210154E+03 -0.70441776349E+03 -0.16685027614E+03  0.91548690372E+03  0.93353307562E+02 0.  0.
         11    1    3    3    0    0 -0.26300709647E+03 -0.35778970659E+03 -0.37406430440E+02  0.44562927189E+03  0.00000000000E+00 0.  1.
        -11    1    3    3    0    0 -0.28958500507E+03 -0.34662805690E+03 -0.12944384570E+03  0.46985763183E+03  0.00000000000E+00 0. -1.
         22    1    1    2    0    0  0.55259210154E+03  0.70441776349E+03 -0.18499081282E+03  0.91421223851E+03  0.00000000000E+00 0.  1.
<mgrwt>
<rscale>  0 0.17955519E+04</rscale>
<asrwt>0</asrwt>
<pdfrwt beam="1">  1        1 0.16781079E+00 0.17955519E+04</pdfrwt>
<pdfrwt beam="2">  1       -1 0.11368139E+00 0.17955519E+04</pdfrwt>
<totfact> 0.85834383E+00</totfact>
</mgrwt>
</event>
<event>
 6    1  0.1719556E-004  0.1875030E+04  0.7818608E-02  0.8667386E-01
         -2   -1    0    0    0  501 -0.00000000000E+00  0.00000000000E+00  0.18859292521E+04  0.18859292521E+04  0.00000000000E+00 0. -1.
          2   -1    0    0  501    0  0.00000000000E+00 -0.00000000000E+00 -0.46604852508E+03  0.46604852508E+03  0.00000000000E+00 0.  1.
         23    2    1    2    0    0 -0.38754081999E+02  0.71102596298E+03 -0.48827569138E+02  0.71975112071E+03  0.92724027902E+02 0.  0.
         13    1    3    3    0    0 -0.61728002463E+02  0.36027359678E+03 -0.44483768049E+02  0.36822033681E+03  0.00000000000E+00 0. -1.
        -13    1    3    3    0    0  0.22973920464E+02  0.35075236621E+03 -0.43438010884E+01  0.35153078390E+03  0.00000000000E+00 0.  1.
         22    1    1    2    0    0  0.38754081999E+02 -0.71102596298E+03  0.14687082962E+04  0.16322266565E+04  0.00000000000E+00 0. -1.
<mgrwt>
<rscale>  0 0.18750302E+04</rscale>
<asrwt>0</asrwt>
<pdfrwt beam="1">  1        2 0.71699774E-01 0.18750302E+04</pdfrwt>
<pdfrwt beam="2">  1       -2 0.29014296E+00 0.18750302E+04</pdfrwt>
<totfact> 0.22916999E+00</totfact>
</mgrwt>
</event>
<event>
 6    1  0.1719556E-004  0.3279566E+04  0.7818608E-02  0.8168114E-01
          1   -1    0    0  501    0  0.00000000000E+00  0.00000000000E+00  0.31521028129E+04  0.31521028129E+04  0.00000000000E+00 0.  1.
         -1   -1    0    0    0  501 -0.00000000000E+00 -0.00000000000E+00 -0.85304571364E+03  0.85304571364E+03  0.00000000000E+00 0. -1.
         23    2    1    2    0    0  0.33811071948E+03 -0.91362195357E+03  0.27597801954E+04  0.29275170014E+04  0.70321646118E+02 0.  0.
         11    1    3    3    0    0  0.78892477310E+02 -0.18940467316E+03  0.66732668544E+03  0.69815690091E+03  0.00000000000E+00 0. -1.
        -11    1    3    3    0    0  0.25921824217E+03 -0.72421728042E+03  0.20924535100E+04  0.22293601005E+04  0.00000000000E+00 0.  1.
         22    1    1    2    0    0 -0.33811071948E+03  0.91362195357E+03 -0.46072309614E+03  0.10776315251E+04  0.00000000000E+00 0. -1.
<mgrwt>
<rscale>  0 0.32795657E+04</rscale>
<asrwt>0</asrwt>
<pdfrwt beam="1">  1        1 0.48493889E+00 0.32795657E+04</pdfrwt>
<pdfrwt beam="2">  1       -1 0.13123780E+00 0.32795657E+04</pdfrwt>
<totfact> 0.18975300E-01</totfact>
</mgrwt>
</event>
<event>
 6    1  0.1719556E-004  0.1622589E+04  0.7818608E-02  0.8806790E-01
          2   -1    0    0  501    0  0.00000000000E+00  0.00000000000E+00  0.23532822131E+04  0.23532822131E+04  0.00000000000E+00 0.  1.
         -2   -1    0    0    0  501 -0.00000000000E+00 -0.00000000000E+00 -0.27969378153E+03  0.27969378153E+03  0.00000000000E+00 0. -1.
         23    2    1    2    0    0 -0.69200102913E+03 -0.36327726229E+03  0.70318427378E+03  0.10553691522E+04  0.92196154496E+02 0.  0.
         13    1    3    3    0    0 -0.61603049813E+03 -0.30602548082E+03  0.64999125686E+03  0.94637931271E+03  0.00000000000E+00 0. -1.
        -13    1    3    3    0    0 -0.75970531001E+02 -0.57251781469E+02  0.53193016926E+02  0.10898983949E+03  0.00000000000E+00 0.  1.
         22    1    1    2    0    0  0.69200102913E+03  0.36327726229E+03  0.13704041577E+04  0.15776068424E+04  0.00000000000E+00 0.  1.
<mgrwt>
<rscale>  0 0.16225886E+04</rscale>
<asrwt>0</asrwt>
<pdfrwt beam="1">  1        2 0.36204340E+00 0.16225886E+04</pdfrwt>
<pdfrwt beam="2">  1       -2 0.43029814E-01 0.16225886E+04</pdfrwt>
<totfact> 0.20751117E+01</totfact>
</mgrwt>
</event>
<event>
 6    1  0.1719556E-004  0.2266111E+04  0.7818608E-02  0.8491404E-01
          2   -1    0    0  501    0  0.00000000000E+00  0.00000000000E+00  0.18272954687E+04  0.18272954687E+04  0.00000000000E+00 0.  1.
         -2   -1    0    0    0  501 -0.00000000000E+00 -0.00000000000E+00 -0.70257663909E+03  0.70257663909E+03  0.00000000000E+00 0. -1.
         23    2    1    2    0    0 -0.50440899444E+03 -0.34999574884E+03  0.16239896826E+04  0.17385461052E+04  0.90964898314E+02 0.  0.
         11    1    3    3    0    0 -0.35583590940E+03 -0.27379515048E+03  0.12731774306E+04  0.13500236104E+04  0.00000000000E+00 0. -1.
        -11    1    3    3    0    0 -0.14857308504E+03 -0.76200598353E+02  0.35081225202E+03  0.38852249478E+03  0.00000000000E+00 0.  1.
         22    1    1    2    0    0  0.50440899444E+03  0.34999574884E+03 -0.49927085295E+03  0.79132600266E+03  0.00000000000E+00 0. -1.
<mgrwt>
<rscale>  0 0.22661113E+04</rscale>
<asrwt>0</asrwt>
<pdfrwt beam="1">  1        2 0.28112238E+00 0.22661113E+04</pdfrwt>
<pdfrwt beam="2">  1       -2 0.10808871E+00 0.22661113E+04</pdfrwt>
<totfact> 0.51931245E+00</totfact>
</mgrwt>
</event>
<event>
 6    1  0.1719556E-004  0.1629321E+04  0.7818608E-02  0.8802735E-01
         -2   -1    0    0    0  501 -0.00000000000E+00  0.00000000000E+00  0.65292251383E+03  0.65292251383E+03  0.00000000000E+00 0. -1.
          2   -1    0    0  501    0  0.00000000000E+00 -0.00000000000E+00 -0.10164637319E+04  0.10164637319E+04  0.00000000000E+00 0.  1.
         23    2    1    2    0    0  0.28509434834E+03 -0.28281324925E+03  0.54088583398E+03  0.67981542266E+03  0.91265558029E+02 0.  0.
         11    1    3    3    0    0  0.10532058575E+03 -0.47131104284E+02  0.14944719965E+03  0.18880739461E+03  0.00000000000E+00 0. -1.
        -11    1    3    3    0    0  0.17977376259E+03 -0.23568214497E+03  0.39143863433E+03  0.49100802806E+03  0.00000000000E+00 0.  1.
         22    1    1    2    0    0 -0.28509434834E+03  0.28281324925E+03 -0.90442705207E+03  0.98957082309E+03  0.00000000000E+00 0.  1.
<mgrwt>
<rscale>  0 0.16293214E+04</rscale>
<asrwt>0</asrwt>
<pdfrwt beam="1">  1        2 0.15637903E+00 0.16293214E+04</pdfrwt>
<pdfrwt beam="2">  1       -2 0.10044962E+00 0.16293214E+04</pdfrwt>
<totfact> 0.19226145E+01</totfact>
</mgrwt>
</event>
<event>
 6    1  0.1719556E-004  0.1324181E+04  0.7818608E-02  0.9010606E-01
         -1   -1    0    0    0  501 -0.00000000000E+00  0.00000000000E+00  0.41933329207E+03  0.41933329207E+03  0.00000000000E+00 0. -1.
          1   -1    0    0  501    0  0.00000000000E+00 -0.00000000000E+00 -0.10453830107E+04  0.10453830107E+04  0.00000000000E+00 0.  1.
         23    2    1    2    0    0 -0.95885826958E+02 -0.51591680456E+03  0.12727099459E+03  0.54664422609E+03  0.85192504447E+02 0.  0.
         13    1    3    3    0    0 -0.92690868281E+02 -0.30408147229E+03  0.98714634833E+02  0.33286892012E+03  0.00000000000E+00 0.  1.
        -13    1    3    3    0    0 -0.31949586777E+01 -0.21183533227E+03  0.28556359755E+02  0.21377530597E+03  0.00000000000E+00 0. -1.
         22    1    1    2    0    0  0.95885826958E+02  0.51591680456E+03 -0.75332071324E+03  0.91807207671E+03  0.00000000000E+00 0.  1.
<mgrwt>
<rscale>  0 0.13241811E+04</rscale>
<asrwt>0</asrwt>
<pdfrwt beam="1">  1        1 0.16082816E+00 0.13241811E+04</pdfrwt>
<pdfrwt beam="2">  1       -1 0.64512814E-01 0.13241811E+04</pdfrwt>
<totfact> 0.33342328E+01</totfact>
</mgrwt>
</event>
<event>
 6    1  0.1719556E-004  0.1345963E+04  0.7818608E-02  0.8993890E-01
          1   -1    0    0  501    0  0.00000000000E+00  0.00000000000E+00  0.24069933874E+04  0.24069933874E+04  0.00000000000E+00 0.  1.
         -1   -1    0    0    0  501 -0.00000000000E+00 -0.00000000000E+00 -0.18816180016E+03  0.18816180016E+03  0.00000000000E+00 0. -1.
         23    2    1    2    0    0  0.36479497527E+03 -0.45544841775E+03  0.48024839071E+03  0.76125765322E+03  0.91466182798E+02 0.  0.
         11    1    3    3    0    0  0.78843989187E+02 -0.14924784292E+03  0.17306808045E+03  0.24175163643E+03  0.00000000000E+00 0. -1.
        -11    1    3    3    0    0  0.28595098608E+03 -0.30620057483E+03  0.30718031025E+03  0.51950601679E+03  0.00000000000E+00 0.  1.
         22    1    1    2    0    0 -0.36479497527E+03  0.45544841775E+03  0.17385831965E+04  0.18338975343E+04  0.00000000000E+00 0.  1.
<mgrwt>
<rscale>  0 0.13459632E+04</rscale>
<asrwt>0</asrwt>
<pdfrwt beam="1">  1        1 0.37030665E+00 0.13459632E+04</pdfrwt>
<pdfrwt beam="2">  1       -1 0.28947971E-01 0.13459632E+04</pdfrwt>
<totfact> 0.16768291E+01</totfact>
</mgrwt>
</event>
<event>
 6    1  0.1719556E-004  0.4766670E+04  0.7818608E-02  0.7865544E-01
         -1   -1    0    0    0  501 -0.00000000000E+00  0.00000000000E+00  0.17143930822E+04  0.17143930822E+04  0.00000000000E+00 0. -1.
          1   -1    0    0  501    0  0.00000000000E+00 -0.00000000000E+00 -0.33132926046E+04  0.33132926046E+04  0.00000000000E+00 0.  1.
         23    2    1    2    0    0 -0.10707896103E+04  0.20862050771E+04 -0.35565615167E+03  0.23735387255E+04  0.91393488161E+02 0.  0.
         13    1    3    3    0    0 -0.54505141837E+03  0.96201928944E+03 -0.16819165219E+03  0.11184143212E+04  0.00000000000E+00 0. -1.
        -13    1    3    3    0    0 -0.52573819196E+03  0.11241857877E+04 -0.18746449947E+03  0.12551244043E+04  0.00000000000E+00 0.  1.
         22    1    1    2    0    0  0.10707896103E+04 -0.20862050771E+04 -0.12432433707E+04  0.26541469613E+04  0.00000000000E+00 0. -1.
<mgrwt>
<rscale>  0 0.47666701E+04</rscale>
<asrwt>0</asrwt>
<pdfrwt beam="1">  1        1 0.50973732E+00 0.47666701E+04</pdfrwt>
<pdfrwt beam="2">  1       -1 0.26375278E+00 0.47666701E+04</pdfrwt>
<totfact> 0.14543975E-02</totfact>
</mgrwt>
</event>
<event>
 6    1  0.1719556E-004  0.1379469E+04  0.7818608E-02  0.8968816E-01
          2   -1    0    0  501    0  0.00000000000E+00  0.00000000000E+00  0.17087031780E+04  0.17087031780E+04  0.00000000000E+00 0.  1.
         -2   -1    0    0    0  501 -0.00000000000E+00 -0.00000000000E+00 -0.27841794820E+03  0.27841794820E+03  0.00000000000E+00 0. -1.
         23    2    1    2    0    0  0.21708114090E+03  0.22539500038E+03  0.15988291345E+04  0.16316859342E+04  0.90649096952E+02 0.  0.
         11    1    3    3    0    0  0.14128662669E+03  0.14614037851E+03  0.80261224790E+03  0.82795249960E+03  0.00000000000E+00 0. -1.
        -11    1    3    3    0    0  0.75794514208E+02  0.79254621866E+02  0.79621688657E+03  0.80373343462E+03  0.00000000000E+00 0.  1.
         22    1    1    2    0    0 -0.21708114090E+03 -0.22539500038E+03 -0.16854390463E+03  0.35543519201E+03  0.00000000000E+00 0. -1.
<mgrwt>
<rscale>  0 0.13794689E+04</rscale>
<asrwt>0</asrwt>
<pdfrwt beam="1">  1        2 0.26287741E+00 0.13794689E+04</pdfrwt>
<pdfrwt beam="2">  1       -2 0.42833531E-01 0.13794689E+04</pdfrwt>
<totfact> 0.48841733E+01</totfact>
</mgrwt>
</event>
<event>
 6    1  0.1719556E-004  0.8335308E+03  0.7818608E-02  0.9512712E-01
          2   -1    0    0  501    0  0.00000000000E+00  0.00000000000E+00  0.18001457526E+04  0.18001457526E+04  0.00000000000E+00 0.  1.
         -2   -1    0    0    0  501 -0.00000000000E+00 -0.00000000000E+00 -0.96488515586E+02  0.96488515586E+02  0.00000000000E+00 0. -1.
         23    2    1    2    0    0 -0.41032575222E+03  0.94849120670E+01  0.80703215510E+03  0.91053400756E+03  0.96509549066E+02 0.  0.
         11    1    3    3    0    0 -0.33720959269E+03  0.39921106763E+02  0.60931557285E+03  0.69754531859E+03  0.00000000000E+00 0. -1.
        -11    1    3    3    0    0 -0.73116159532E+02 -0.30436194696E+02  0.19771658225E+03  0.21298868897E+03  0.00000000000E+00 0.  1.
         22    1    1    2    0    0  0.41032575222E+03 -0.94849120670E+01  0.89662508190E+03  0.98610026061E+03  0.00000000000E+00 0.  1.
<mgrwt>
<rscale>  0 0.83353078E+03</rscale>
<asrwt>0</asrwt>
<pdfrwt beam="1">  1        2 0.27694548E+00 0.83353078E+03</pdfrwt>
<pdfrwt beam="2">  1       -2 0.14844388E-01 0.83353078E+03</pdfrwt>
<totfact> 0.31161400E+02</totfact>
</mgrwt>
</event>
<event>
 6    1  0.1719556E-004  0.3036477E+04  0.7818608E-02  0.8233391E-01
          1   -1    0    0  501    0  0.00000000000E+00  0.00000000000E+00  0.75217096301E+03  0.75217096301E+03  0.00000000000E+00 0.  1.
         -1   -1    0    0    0  501 -0.00000000000E+00 -0.00000000000E+00 -0.30645267634E+04  0.30645267634E+04  0.00000000000E+00 0. -1.
         23    2    1    2    0    0 -0.86728839585E+03 -0.33920025129E+03 -0.26618227534E+04  0.28220253565E+04  0.10621097183E+03 0.  0.
         13    1    3    3    0    0 -0.67837706646E+02 -0.58647506464E+02 -0.23215596294E+03  0.24887321187E+03  0.00000000000E+00 0. -1.
        -13    1    3    3    0    0 -0.79945068920E+03 -0.28055274482E+03 -0.24296667904E+04  0.25731521447E+04  0.00000000000E+00 0.  1.
         22    1    1    2    0    0  0.86728839585E+03  0.33920025129E+03  0.34946695302E+03  0.99467236983E+03  0.00000000000E+00 0.  1.
<mgrwt>
<rscale>  0 0.30364769E+04</rscale>
<asrwt>0</asrwt>
<pdfrwt beam="1">  1        1 0.11571861E+00 0.30364769E+04</pdfrwt>
<pdfrwt beam="2">  1       -1 0.47146565E+00 0.30364769E+04</pdfrwt>
<totfact> 0.47632751E-02</totfact>
</mgrwt>
</event>
<event>
 6    1  0.1719556E-004  0.5654401E+04  0.7818608E-02  0.7734794E-01
         -2   -1    0    0    0  501 -0.00000000000E+00  0.00000000000E+00  0.17684239656E+04  0.17684239656E+04  0.00000000000E+00 0. -1.
          2   -1    0    0  501    0  0.00000000000E+00 -0.00000000000E+00 -0.45198795381E+04  0.45198795381E+04  0.00000000000E+00 0.  1.
         23    2    1    2    0    0 -0.45005952468E+03  0.10826902919E+04  0.14838204879E+04  0.18937233018E+04  0.98452320443E+02 0.  0.
         11    1    3    3    0    0 -0.42124699126E+03  0.99350748827E+03  0.13197532371E+04  0.17047741093E+04  0.00000000000E+00 0.  1.
        -11    1    3    3    0    0 -0.28812533416E+02  0.89182803599E+02  0.16406725086E+03  0.18894919249E+03  0.00000000000E+00 0. -1.
         22    1    1    2    0    0  0.45005952468E+03 -0.10826902919E+04 -0.42352760604E+04  0.43945802020E+04  0.00000000000E+00 0.  1.
<mgrwt>
<rscale>  0 0.56544012E+04</rscale>
<asrwt>0</asrwt>
<pdfrwt beam="1">  1        2 0.69536607E+00 0.56544012E+04</pdfrwt>
<pdfrwt beam="2">  1       -2 0.27206523E+00 0.56544012E+04</pdfrwt>
<totfact> 0.37858208E-03</totfact>
</mgrwt>
</event>
<event>
 6    1  0.1719556E-004  0.2882319E+04  0.7818608E-02  0.8278158E-01
         -2   -1    0    0    0  501 -0.00000000000E+00  0.00000000000E+00  0.12884556810E+04  0.12884556810E+04  0.00000000000E+00 0. -1.
          2   -1    0    0  501    0  0.00000000000E+00 -0.00000000000E+00 -0.16119614431E+04  0.16119614431E+04  0.00000000000E+00 0.  1.
         23    2    1    2    0    0  0.68300234655E+03  0.80041674821E+03 -0.11507170303E+04  0.15619711377E+04  0.91896544834E+02 0.  0.
         13    1    3    3    0    0  0.20406947190E+03  0.30640243647E+03 -0.39631014297E+03  0.54091453286E+03  0.00000000000E+00 0.  1.
        -13    1    3    3    0    0  0.47893287465E+03  0.49401431174E+03 -0.75440688731E+03  0.10210566048E+04  0.00000000000E+00 0. -1.
         22    1    1    2    0    0 -0.68300234655E+03 -0.80041674821E+03  0.82721126819E+03  0.13384459864E+04  0.00000000000E+00 0. -1.
<mgrwt>
<rscale>  0 0.28823191E+04</rscale>
<asrwt>0</asrwt>
<pdfrwt beam="1">  1        2 0.24799407E+00 0.28823191E+04</pdfrwt>
<pdfrwt beam="2">  1       -2 0.19822395E+00 0.28823191E+04</pdfrwt>
<totfact> 0.12969566E+00</totfact>
</mgrwt>
</event>
<event>
 6    1  0.1719556E-004  0.1991737E+04  0.7818608E-02  0.8610494E-01
          1   -1    0    0  501    0  0.00000000000E+00  0.00000000000E+00  0.92497707515E+03  0.92497707515E+03  0.00000000000E+00 0.  1.
         -1   -1    0    0    0  501 -0.00000000000E+00 -0.00000000000E+00 -0.10721933023E+04  0.10721933023E+04  0.00000000000E+00 0. -1.
         23    2    1    2    0    0  0.42284527588E+03 -0.40521803113E+03 -0.87881646430E+03  0.10600264786E+04  0.91312525950E+02 0.  0.
         11    1    3    3    0    0  0.19848821363E+03 -0.16471918628E+03 -0.46139806127E+03  0.52860018183E+03  0.00000000000E+00 0. -1.
        -11    1    3    3    0    0  0.22435706225E+03 -0.24049884485E+03 -0.41741840303E+03  0.53142629681E+03  0.00000000000E+00 0.  1.
         22    1    1    2    0    0 -0.42284527588E+03  0.40521803113E+03  0.73160023715E+03  0.93714389882E+03  0.00000000000E+00 0.  1.
<mgrwt>
<rscale>  0 0.19917372E+04</rscale>
<asrwt>0</asrwt>
<pdfrwt beam="1">  1        1 0.14230417E+00 0.19917372E+04</pdfrwt>
<pdfrwt beam="2">  1       -1 0.16495282E+00 0.19917372E+04</pdfrwt>
<totfact> 0.43229155E+00</totfact>
</mgrwt>
</event>
<event>
 6    1  0.1719556E-004  0.1187364E+04  0.7818608E-02  0.9123989E-01
         -2   -1    0    0    0  501 -0.00000000000E+00  0.00000000000E+00  0.60823632700E+03  0.60823632700E+03  0.00000000000E+00 0. -1.
          2   -1    0    0  501    0  0.00000000000E+00 -0.00000000000E+00 -0.57947642688E+03  0.57947642688E+03  0.00000000000E+00 0.  1.
         23    2    1    2    0    0 -0.37856185398E+03  0.44790955602E+03  0.79754642248E+02  0.59904263286E+03  0.92516081624E+02 0.  0.
         11    1    3    3    0    0 -0.15921117588E+03  0.24819764832E+03  0.65456593978E+02  0.30205105008E+03  0.00000000000E+00 0.  1.
        -11    1    3    3    0    0 -0.21935067809E+03  0.19971190770E+03  0.14298048270E+02  0.29699158278E+03  0.00000000000E+00 0. -1.
         22    1    1    2    0    0  0.37856185398E+03 -0.44790955602E+03 -0.50994742134E+02  0.58867012102E+03  0.00000000000E+00 0.  1.
<mgrwt>
<rscale>  0 0.11873645E+04</rscale>
<asrwt>0</asrwt>
<pdfrwt beam="1">  1        2 0.89150219E-01 0.11873645E+04</pdfrwt>
<pdfrwt beam="2">  1       -2 0.93574820E-01 0.11873645E+04</pdfrwt>
<totfact> 0.49335593E+01</totfact>
</mgrwt>
</event>
<event>
 6    1  0.1719556E-004  0.2087201E+04  0.7818608E-02  0.8566902E-01
         -2   -1    0    0    0  501 -0.00000000000E+00  0.00000000000E+00  0.73055743542E+03  0.73055743542E+03  0.00000000000E+00 0. -1.
          2   -1    0    0  501    0  0.00000000000E+00 -0.00000000000E+00 -0.14907826925E+04  0.14907826925E+04  0.00000000000E+00 0.  1.
         23    2    1    2    0    0  0.84556379522E+03 -0.60647675992E+03 -0.42576722766E+03  0.11283376734E+04  0.95267943111E+02 0.  0.
         13    1    3    3    0    0  0.68531846870E+03 -0.44998191655E+03 -0.35536832600E+03  0.89355009702E+03  0.00000000000E+00 0. -1.
        -13    1    3    3    0    0  0.16024532652E+03 -0.15649484337E+03 -0.70398901657E+02  0.23478757639E+03  0.00000000000E+00 0.  1.
         22    1    1    2    0    0 -0.84556379522E+03  0.60647675992E+03 -0.33445802942E+03  0.10930024545E+04  0.00000000000E+00 0. -1.
<mgrwt>
<rscale>  0 0.20872014E+04</rscale>
<asrwt>0</asrwt>
<pdfrwt beam="1">  1        2 0.22935118E+00 0.20872014E+04</pdfrwt>
<pdfrwt beam="2">  1       -2 0.11239345E+00 0.20872014E+04</pdfrwt>
<totfact> 0.73912264E+00</totfact>
</mgrwt>
</event>
<event>
 6    1  0.1719556E-004  0.2062945E+04  0.7818608E-02  0.8577744E-01
          2   -1    0    0  501    0  0.00000000000E+00  0.00000000000E+00  0.11931931250E+04  0.11931931250E+04  0.00000000000E+00 0.  1.
         -2   -1    0    0    0  501 -0.00000000000E+00 -0.00000000000E+00 -0.89167092490E+03  0.89167092490E+03  0.00000000000E+00 0. -1.
         23    2    1    2    0    0  0.40813168697E+03  0.84834045522E+03 -0.26992877779E+03  0.98358787109E+03  0.91271864249E+02 0.  0.
         11    1    3    3    0    0  0.18736701476E+03  0.31399632339E+03 -0.13601877157E+03  0.39012971630E+03  0.00000000000E+00 0.  1.
        -11    1    3    3    0    0  0.22076467221E+03  0.53434413183E+03 -0.13391000622E+03  0.59345815479E+03  0.00000000000E+00 0. -1.
         22    1    1    2    0    0 -0.40813168697E+03 -0.84834045522E+03  0.57145097789E+03  0.11012761788E+04  0.00000000000E+00 0.  1.
<mgrwt>
<rscale>  0 0.20629451E+04</rscale>
<asrwt>0</asrwt>
<pdfrwt beam="1">  1        2 0.18356817E+00 0.20629451E+04</pdfrwt>
<pdfrwt beam="2">  1       -2 0.13718014E+00 0.20629451E+04</pdfrwt>
<totfact> 0.66920758E+00</totfact>
</mgrwt>
</event>
<event>
 6    1  0.1719556E-004  0.2771336E+04  0.7818608E-02  0.8312223E-01
         -1   -1    0    0    0  501 -0.00000000000E+00  0.00000000000E+00  0.44939978020E+03  0.44939978020E+03  0.00000000000E+00 0. -1.
          1   -1    0    0  501    0  0.00000000000E+00 -0.00000000000E+00 -0.42725335555E+04  0.42725335555E+04  0.00000000000E+00 0.  1.
         23    2    1    2    0    0  0.11338286778E+04 -0.21398554748E+03 -0.32174755095E+04  0.34187912790E+04  0.68028449133E+02 0.  0.
         11    1    3    3    0    0  0.47357613740E+03 -0.10960807965E+03 -0.14352902481E+04  0.15153700490E+04  0.00000000000E+00 0. -1.
        -11    1    3    3    0    0  0.66025254042E+03 -0.10437746783E+03 -0.17821852614E+04  0.19034212300E+04  0.00000000000E+00 0.  1.
         22    1    1    2    0    0 -0.11338286778E+04  0.21398554748E+03 -0.60565826587E+03  0.13031420568E+04  0.00000000000E+00 0.  1.
<mgrwt>
<rscale>  0 0.27713359E+04</rscale>
<asrwt>0</asrwt>
<pdfrwt beam="1">  1        1 0.65731289E+00 0.27713359E+04</pdfrwt>
<pdfrwt beam="2">  1       -1 0.69138424E-01 0.27713359E+04</pdfrwt>
<totfact> 0.99384055E-02</totfact>
</mgrwt>
</event>
<event>
 6    1  0.1719556E-004  0.1383941E+04  0.7818608E-02  0.8965526E-01
         -1   -1    0    0    0  501 -0.00000000000E+00  0.00000000000E+00  0.30094691530E+03  0.30094691530E+03  0.00000000000E+00 0. -1.
          1   -1    0    0  501    0  0.00000000000E+00 -0.00000000000E+00 -0.15910554992E+04  0.15910554992E+04  0.00000000000E+00 0.  1.
         23    2    1    2    0    0  0.45886714360E+03 -0.13575774182E+03 -0.13253394306E+04  0.14121790798E+04  0.93466182511E+02 0.  0.
         13    1    3    3    0    0  0.21828852487E+03 -0.11029880903E+03 -0.61937653592E+03  0.66591516023E+03  0.00000000000E+00 0.  1.
        -13    1    3    3    0    0  0.24057861873E+03 -0.25458932786E+02 -0.70596289466E+03  0.74626391959E+03  0.00000000000E+00 0. -1.
         22    1    1    2    0    0 -0.45886714360E+03  0.13575774182E+03  0.35230846702E+02  0.47982333467E+03  0.00000000000E+00 0. -1.
<mgrwt>
<rscale>  0 0.13839411E+04</rscale>
<asrwt>0</asrwt>
<pdfrwt beam="1">  1        1 0.24477777E+00 0.13839411E+04</pdfrwt>
<pdfrwt beam="2">  1       -1 0.46299526E-01 0.13839411E+04</pdfrwt>
<totfact> 0.25653494E+01</totfact>
</mgrwt>
</event>
<event>
 6    1  0.1719556E-004  0.1997438E+04  0.7818608E-02  0.8607819E-01
         -2   -1    0    0    0  501 -0.00000000000E+00  0.00000000000E+00  0.10659383547E+04  0.10659383547E+04  0.00000000000E+00 0. -1.
          2   -1    0    0  501    0  0.00000000000E+00 -0.00000000000E+00 -0.93573844445E+03  0.93573844445E+03  0.00000000000E+00 0.  1.
         23    2    1    2    0    0  0.30767459356E+03 -0.24743081057E+03  0.98253314165E+03  0.10623378834E+04  0.85467785972E+02 0.  0.
         13    1    3    3    0    0  0.76319700975E+02 -0.11305520165E+03  0.33625257699E+03  0.36286632650E+03  0.00000000000E+00 0. -1.
        -13    1    3    3    0    0  0.23135489259E+03 -0.13437560893E+03  0.64628056466E+03  0.69947155686E+03  0.00000000000E+00 0.  1.
         22    1    1    2    0    0 -0.30767459356E+03  0.24743081057E+03 -0.85233323135E+03  0.93933891584E+03  0.00000000000E+00 0.  1.
<mgrwt>
<rscale>  0 0.19974379E+04</rscale>
<asrwt>0</asrwt>
<pdfrwt beam="1">  1        2 0.14395976E+00 0.19974379E+04</pdfrwt>
<pdfrwt beam="2">  1       -2 0.16399051E+00 0.19974379E+04</pdfrwt>
<totfact> 0.60695215E+00</totfact>
</mgrwt>
</event>
<event>
 6    1  0.1719556E-004  0.2761669E+04  0.7818608E-02  0.8315268E-01
          1   -1    0    0  501    0  0.00000000000E+00  0.00000000000E+00  0.11325543017E+04  0.11325543017E+04  0.00000000000E+00 0.  1.
         -1   -1    0    0    0  501 -0.00000000000E+00 -0.00000000000E+00 -0.16835431834E+04  0.16835431834E+04  0.00000000000E+00 0. -1.
         23    2    1    2    0    0  0.39289814071E+03 -0.96646600824E+03 -0.11958891589E+04  0.15895894902E+04  0.90655241048E+02 0.  0.
         13    1    3    3    0    0  0.34127243256E+03 -0.78562357889E+03 -0.93565443825E+03  0.12685111386E+04  0.00000000000E+00 0. -1.
        -13    1    3    3    0    0  0.51625708150E+02 -0.18084242935E+03 -0.26023472067E+03  0.32107835155E+03  0.00000000000E+00 0.  1.
         22    1    1    2    0    0 -0.39289814071E+03  0.96646600824E+03  0.64490027721E+03  0.12265079949E+04  0.00000000000E+00 0.  1.
<mgrwt>
<rscale>  0 0.27616691E+04</rscale>
<asrwt>0</asrwt>
<pdfrwt beam="1">  1        1 0.17423912E+00 0.27616691E+04</pdfrwt>
<pdfrwt beam="2">  1       -1 0.25900664E+00 0.27616691E+04</pdfrwt>
<totfact> 0.63395362E-01</totfact>
</mgrwt>
</event>
<event>
 6    1  0.1719556E-004  0.1255658E+04  0.7818608E-02  0.9065488E-01
         -2   -1    0    0    0  501 -0.00000000000E+00  0.00000000000E+00  0.12594003657E+04  0.12594003657E+04  0.00000000000E+00 0.  1.
          2   -1    0    0  501    0  0.00000000000E+00 -0.00000000000E+00 -0.31298145804E+03  0.31298145804E+03  0.00000000000E+00 0. -1.
         23    2    1    2    0    0  0.14544242197E+03 -0.59409309168E+03  0.31724551235E+03  0.69490859850E+03  0.90294769870E+02 0.  0.
         11    1    3    3    0    0  0.10630781809E+03 -0.30164785931E+03  0.12868331135E+03  0.34474944211E+03  0.00000000000E+00 0.  1.
        -11    1    3    3    0    0  0.39134603884E+02 -0.29244523237E+03  0.18856220100E+03  0.35015915639E+03  0.00000000000E+00 0. -1.
         22    1    1    2    0    0 -0.14544242197E+03  0.59409309168E+03  0.62917339535E+03  0.87747322529E+03  0.00000000000E+00 0.  1.
<mgrwt>
<rscale>  0 0.12556575E+04</rscale>
<asrwt>0</asrwt>
<pdfrwt beam="1">  1        2 0.48150994E-01 0.12556575E+04</pdfrwt>
<pdfrwt beam="2">  1       -2 0.19375390E+00 0.12556575E+04</pdfrwt>
<totfact> 0.15046794E+01</totfact>
</mgrwt>
</event>
<event>
 6    1  0.1719556E-004  0.2901182E+04  0.7818608E-02  0.8272526E-01
          2   -1    0    0  501    0  0.00000000000E+00  0.00000000000E+00  0.14729556281E+04  0.14729556281E+04  0.00000000000E+00 0.  1.
         -2   -1    0    0    0  501 -0.00000000000E+00 -0.00000000000E+00 -0.14285662888E+04  0.14285662888E+04  0.00000000000E+00 0. -1.
         23    2    1    2    0    0 -0.22604016365E+03 -0.13892307793E+04  0.36753430906E+03  0.14574031596E+04  0.88804208600E+02 0.  0.
         11    1    3    3    0    0 -0.16622286131E+03 -0.74769758853E+03  0.19477654984E+03  0.79032880998E+03  0.00000000000E+00 0.  1.
        -11    1    3    3    0    0 -0.59817302349E+02 -0.64153319076E+03  0.17275775923E+03  0.66707434959E+03  0.00000000000E+00 0. -1.
         22    1    1    2    0    0  0.22604016365E+03  0.13892307793E+04 -0.32314496977E+03  0.14441187573E+04  0.00000000000E+00 0. -1.
<mgrwt>
<rscale>  0 0.29011823E+04</rscale>
<asrwt>0</asrwt>
<pdfrwt beam="1">  1        2 0.22660856E+00 0.29011823E+04</pdfrwt>
<pdfrwt beam="2">  1       -2 0.21977943E+00 0.29011823E+04</pdfrwt>
<totfact> 0.11252385E+00</totfact>
</mgrwt>
</event>
<event>
 6    1  0.1719556E-004  0.1382443E+04  0.7818608E-02  0.8966626E-01
          2   -1    0    0  501    0  0.00000000000E+00  0.00000000000E+00  0.12512483067E+04  0.12512483067E+04  0.00000000000E+00 0.  1.
         -2   -1    0    0    0  501 -0.00000000000E+00 -0.00000000000E+00 -0.38184856590E+03  0.38184856590E+03  0.00000000000E+00 0. -1.
         23    2    1    2    0    0  0.47332153372E+03  0.19080037493E+03  0.98205004774E+03  0.11104802358E+04  0.91137262042E+02 0.  0.
         11    1    3    3    0    0  0.30451828396E+03  0.15430909542E+03  0.58183219221E+03  0.67458978801E+03  0.00000000000E+00 0. -1.
        -11    1    3    3    0    0  0.16880324976E+03  0.36491279506E+02  0.40021785554E+03  0.43589044782E+03  0.00000000000E+00 0.  1.
         22    1    1    2    0    0 -0.47332153372E+03 -0.19080037493E+03 -0.11265030696E+03  0.52261663675E+03  0.00000000000E+00 0. -1.
<mgrwt>
<rscale>  0 0.13824433E+04</rscale>
<asrwt>0</asrwt>
<pdfrwt beam="1">  1        2 0.19249974E+00 0.13824433E+04</pdfrwt>
<pdfrwt beam="2">  1       -2 0.58745934E-01 0.13824433E+04</pdfrwt>
<totfact> 0.46598788E+01</totfact>
</mgrwt>
</event>
<event>
 6    1  0.1719556E-004  0.3181758E+04  0.7818608E-02  0.8193652E-01
         -2   -1    0    0    0  501 -0.00000000000E+00  0.00000000000E+00  0.10898759613E+04  0.10898759613E+04  0.00000000000E+00 0. -1.
          2   -1    0    0  501    0  0.00000000000E+00 -0.00000000000E+00 -0.23221864620E+04  0.23221864620E+04  0.00000000000E+00 0.  1.
         23    2    1    2    0    0 -0.66691423349E+03 -0.10452849175E+04  0.44996757569E+03  0.13222168118E+04  0.91604173034E+02 0.  0.
         11    1    3    3    0    0 -0.95125495499E+02 -0.20665604689E+03  0.64330750425E+02  0.23641917660E+03  0.00000000000E+00 0. -1.
        -11    1    3    3    0    0 -0.57178873799E+03 -0.83862887062E+03  0.38563682527E+03  0.10857976352E+04  0.00000000000E+00 0.  1.
         22    1    1    2    0    0  0.66691423349E+03  0.10452849175E+04 -0.16822780764E+04  0.20898456115E+04  0.00000000000E+00 0.  1.
<mgrwt>
<rscale>  0 0.31817575E+04</rscale>
<asrwt>0</asrwt>
<pdfrwt beam="1">  1        2 0.35725945E+00 0.31817575E+04</pdfrwt>
<pdfrwt beam="2">  1       -2 0.16767323E+00 0.31817575E+04</pdfrwt>
<totfact> 0.82241358E-01</totfact>
</mgrwt>
</event>
<event>
 6    1  0.1719556E-004  0.1705318E+04  0.7818608E-02  0.8758337E-01
         -2   -1    0    0    0  501 -0.00000000000E+00  0.00000000000E+00  0.38121340896E+03  0.38121340896E+03  0.00000000000E+00 0. -1.
          2   -1    0    0  501    0  0.00000000000E+00 -0.00000000000E+00 -0.19071398771E+04  0.19071398771E+04  0.00000000000E+00 0.  1.
         23    2    1    2    0    0 -0.82276991358E+03  0.21008982809E+03 -0.72024651171E+03  0.11177943347E+04  0.98087055270E+02 0.  0.
         11    1    3    3    0    0 -0.47813237209E+03  0.11887354199E+03 -0.35393714618E+03  0.60664074021E+03  0.00000000000E+00 0. -1.
        -11    1    3    3    0    0 -0.34463754148E+03  0.91216286101E+02 -0.36630936553E+03  0.51115359445E+03  0.00000000000E+00 0.  1.
         22    1    1    2    0    0  0.82276991358E+03 -0.21008982809E+03 -0.80567995645E+03  0.11705589514E+04  0.00000000000E+00 0. -1.
<mgrwt>
<rscale>  0 0.17053179E+04</rscale>
<asrwt>0</asrwt>
<pdfrwt beam="1">  1        2 0.29340613E+00 0.17053179E+04</pdfrwt>
<pdfrwt beam="2">  1       -2 0.58648217E-01 0.17053179E+04</pdfrwt>
<totfact> 0.19449742E+01</totfact>
</mgrwt>
</event>
<event>
 6    1  0.1719556E-004  0.2449194E+04  0.7818608E-02  0.8421312E-01
         -2   -1    0    0    0  501 -0.00000000000E+00  0.00000000000E+00  0.11328941822E+04  0.11328941822E+04  0.00000000000E+00 0. -1.
          2   -1    0    0  501    0  0.00000000000E+00 -0.00000000000E+00 -0.13237222447E+04  0.13237222447E+04  0.00000000000E+00 0.  1.
         23    2    1    2    0    0 -0.44714487734E+02  0.42273192037E+03 -0.12456601979E+04  0.13193510684E+04  0.91193481037E+02 0.  0.
         13    1    3    3    0    0 -0.99550430531E+00  0.12765635176E+03 -0.50482257147E+03  0.52071389825E+03  0.00000000000E+00 0.  1.
        -13    1    3    3    0    0 -0.43718983429E+02  0.29507556861E+03 -0.74083762645E+03  0.79863717010E+03  0.00000000000E+00 0. -1.
         22    1    1    2    0    0  0.44714487734E+02 -0.42273192037E+03  0.10548321354E+04  0.11372653586E+04  0.00000000000E+00 0. -1.
<mgrwt>
<rscale>  0 0.24491935E+04</rscale>
<asrwt>0</asrwt>
<pdfrwt beam="1">  1        2 0.20364957E+00 0.24491935E+04</pdfrwt>
<pdfrwt beam="2">  1       -2 0.17429141E+00 0.24491935E+04</pdfrwt>
<totfact> 0.28506918E+00</totfact>
</mgrwt>
</event>
<event>
 6    1  0.1719556E-004  0.7855921E+03  0.7818608E-02  0.9581109E-01
         -2   -1    0    0    0  501 -0.00000000000E+00  0.00000000000E+00  0.11469202830E+03  0.11469202830E+03  0.00000000000E+00 0. -1.
          2   -1    0    0  501    0  0.00000000000E+00 -0.00000000000E+00 -0.13452438151E+04  0.13452438151E+04  0.00000000000E+00 0.  1.
         23    2    1    2    0    0  0.28471806584E+03  0.25253444718E+03 -0.48964464796E+03  0.62700042429E+03  0.92410100946E+02 0.  0.
         13    1    3    3    0    0  0.21460151515E+03  0.13321734692E+03 -0.29878436827E+03  0.39124515403E+03  0.00000000000E+00 0.  1.
        -13    1    3    3    0    0  0.70116550689E+02  0.11931710025E+03 -0.19086027969E+03  0.23575527026E+03  0.00000000000E+00 0. -1.
         22    1    1    2    0    0 -0.28471806584E+03 -0.25253444718E+03 -0.74090713885E+03  0.83293541912E+03  0.00000000000E+00 0. -1.
<mgrwt>
<rscale>  0 0.78559211E+03</rscale>
<asrwt>0</asrwt>
<pdfrwt beam="1">  1        2 0.20696058E+00 0.78559211E+03</pdfrwt>
<pdfrwt beam="2">  1       -2 0.17644928E-01 0.78559211E+03</pdfrwt>
<totfact> 0.41637953E+02</totfact>
</mgrwt>
</event>
<event>
 6    1  0.1719556E-004  0.3365422E+04  0.7818608E-02  0.8146445E-01
          2   -1    0    0  501    0  0.00000000000E+00  0.00000000000E+00  0.27695508737E+04  0.27695508737E+04  0.00000000000E+00 0.  1.
         -2   -1    0    0    0  501 -0.00000000000E+00 -0.00000000000E+00 -0.10223738602E+04  0.10223738602E+04  0.00000000000E+00 0. -1.
         23    2    1    2    0    0 -0.93134632048E+03 -0.76702248514E+03  0.21938564688E+04  0.25053587631E+04  0.89926997526E+02 0.  0.
         11    1    3    3    0    0 -0.66973169080E+03 -0.51587215088E+03  0.15974006833E+04  0.18073056069E+04  0.00000000000E+00 0. -1.
        -11    1    3    3    0    0 -0.26161462968E+03 -0.25115033426E+03  0.59645578550E+03  0.69805315622E+03  0.00000000000E+00 0.  1.
         22    1    1    2    0    0  0.93134632048E+03  0.76702248514E+03 -0.44667945524E+03  0.12865659708E+04  0.00000000000E+00 0. -1.
<mgrwt>
<rscale>  0 0.33654221E+04</rscale>
<asrwt>0</asrwt>
<pdfrwt beam="1">  1        2 0.42608475E+00 0.33654221E+04</pdfrwt>
<pdfrwt beam="2">  1       -2 0.15728829E+00 0.33654221E+04</pdfrwt>
<totfact> 0.52862371E-01</totfact>
</mgrwt>
</event>
<event>
 6    1  0.1719556E-004  0.2472721E+04  0.7818608E-02  0.8412769E-01
          2   -1    0    0  501    0  0.00000000000E+00  0.00000000000E+00  0.87291632164E+03  0.87291632164E+03  0.00000000000E+00 0.  1.
         -2   -1    0    0    0  501 -0.00000000000E+00 -0.00000000000E+00 -0.17511275332E+04  0.17511275332E+04  0.00000000000E+00 0. -1.
         23    2    1    2    0    0 -0.41994567790E+03 -0.11478829375E+04 -0.62460458856E+03  0.13757226102E+04  0.92153119948E+02 0.  0.
         13    1    3    3    0    0 -0.19582082857E+03 -0.51551262615E+03 -0.33285111250E+03  0.64411872175E+03  0.00000000000E+00 0. -1.
        -13    1    3    3    0    0 -0.22412484933E+03 -0.63237031135E+03 -0.29175347606E+03  0.73160388843E+03  0.00000000000E+00 0.  1.
         22    1    1    2    0    0  0.41994567790E+03  0.11478829375E+04 -0.25360662299E+03  0.12483212446E+04  0.00000000000E+00 0. -1.
<mgrwt>
<rscale>  0 0.24727214E+04</rscale>
<asrwt>0</asrwt>
<pdfrwt beam="1">  1        2 0.13429482E+00 0.24727214E+04</pdfrwt>
<pdfrwt beam="2">  1       -2 0.26940424E+00 0.24727214E+04</pdfrwt>
<totfact> 0.13367147E+00</totfact>
</mgrwt>
</event>
<event>
 6    1  0.1719556E-004  0.2550467E+04  0.7818608E-02  0.8385224E-01
         -2   -1    0    0    0  501 -0.00000000000E+00  0.00000000000E+00  0.55935304801E+03  0.55935304801E+03  0.00000000000E+00 0. -1.
          2   -1    0    0  501    0  0.00000000000E+00 -0.00000000000E+00 -0.29073239636E+04  0.29073239636E+04  0.00000000000E+00 0.  1.
         23    2    1    2    0    0  0.69261796215E+03 -0.91329905844E+03 -0.42080498450E+03  0.12244006376E+04  0.90803494711E+02 0.  0.
         11    1    3    3    0    0  0.63958723437E+03 -0.80536359978E+03 -0.39300262855E+03  0.11009693112E+04  0.00000000000E+00 0.  1.
        -11    1    3    3    0    0  0.53030727778E+02 -0.10793545866E+03 -0.27802355954E+02  0.12343132634E+03  0.00000000000E+00 0. -1.
         22    1    1    2    0    0 -0.69261796215E+03  0.91329905844E+03 -0.19271659311E+04  0.22422763741E+04  0.00000000000E+00 0.  1.
<mgrwt>
<rscale>  0 0.25504670E+04</rscale>
<asrwt>0</asrwt>
<pdfrwt beam="1">  1        2 0.44728061E+00 0.25504670E+04</pdfrwt>
<pdfrwt beam="2">  1       -2 0.86054316E-01 0.25504670E+04</pdfrwt>
<totfact> 0.20686672E+00</totfact>
</mgrwt>
</event>
<event>
 6    1  0.1719556E-004  0.1143628E+04  0.7818608E-02  0.9163682E-01
          1   -1    0    0  501    0  0.00000000000E+00  0.00000000000E+00  0.12115240816E+04  0.12115240816E+04  0.00000000000E+00 0. -1.
         -1   -1    0    0    0  501 -0.00000000000E+00 -0.00000000000E+00 -0.26988445048E+03  0.26988445048E+03  0.00000000000E+00 0.  1.
         23    2    1    2    0    0 -0.27598314846E+03  0.46170048271E+03  0.71082510543E+03  0.89608009502E+03  0.91395690353E+02 0.  0.
         13    1    3    3    0    0 -0.93186090783E+02  0.15539387486E+03  0.31375971228E+03  0.36232038434E+03  0.00000000000E+00 0. -1.
        -13    1    3    3    0    0 -0.18279705767E+03  0.30630660785E+03  0.39706539315E+03  0.53375971068E+03  0.00000000000E+00 0.  1.
         22    1    1    2    0    0  0.27598314846E+03 -0.46170048271E+03  0.23081452569E+03  0.58532843707E+03  0.00000000000E+00 0. -1.
<mgrwt>
<rscale>  0 0.11436285E+04</rscale>
<asrwt>0</asrwt>
<pdfrwt beam="1">  1        1 0.18638832E+00 0.11436285E+04</pdfrwt>
<pdfrwt beam="2">  1       -1 0.41520685E-01 0.11436285E+04</pdfrwt>
<totfact> 0.59186112E+01</totfact>
</mgrwt>
</event>
<event>
 6    1  0.1719556E-004  0.5206886E+04  0.7818608E-02  0.7797362E-01
          2   -1    0    0  501    0  0.00000000000E+00  0.00000000000E+00  0.22396233860E+04  0.22396233860E+04  0.00000000000E+00 0.  1.
         -2   -1    0    0    0  501 -0.00000000000E+00 -0.00000000000E+00 -0.30263635642E+04  0.30263635642E+04  0.00000000000E+00 0. -1.
         23    2    1    2    0    0  0.76164846489E+03 -0.19756659842E+04 -0.19240897455E+04  0.28624627661E+04  0.90594003259E+02 0.  0.
         13    1    3    3    0    0  0.34871992139E+03 -0.78151350268E+03 -0.77141917037E+03  0.11521529737E+04  0.00000000000E+00 0.  1.
        -13    1    3    3    0    0  0.41292854350E+03 -0.11941524816E+04 -0.11526705751E+04  0.17103097924E+04  0.00000000000E+00 0. -1.
         22    1    1    2    0    0 -0.76164846489E+03  0.19756659842E+04  0.11373495672E+04  0.24035241841E+04  0.00000000000E+00 0.  1.
<mgrwt>
<rscale>  0 0.52068857E+04</rscale>
<asrwt>0</asrwt>
<pdfrwt beam="1">  1        2 0.34455744E+00 0.52068857E+04</pdfrwt>
<pdfrwt beam="2">  1       -2 0.46559439E+00 0.52068857E+04</pdfrwt>
<totfact> 0.96683681E-03</totfact>
</mgrwt>
</event>
<event>
 6    1  0.1719556E-004  0.2991582E+04  0.7818608E-02  0.8246139E-01
         -2   -1    0    0    0  501 -0.00000000000E+00  0.00000000000E+00  0.89991229130E+03  0.89991229130E+03  0.00000000000E+00 0. -1.
          2   -1    0    0  501    0  0.00000000000E+00 -0.00000000000E+00 -0.24862315562E+04  0.24862315562E+04  0.00000000000E+00 0.  1.
         23    2    1    2    0    0 -0.79713209301E+03 -0.36359698668E+03  0.57644652190E+03  0.10526532881E+04  0.90365977276E+02 0.  0.
         13    1    3    3    0    0 -0.51571978435E+03 -0.25829935202E+03  0.33356869342E+03  0.66629837495E+03  0.00000000000E+00 0. -1.
        -13    1    3    3    0    0 -0.28141230866E+03 -0.10529763466E+03  0.24287782848E+03  0.38635491313E+03  0.00000000000E+00 0.  1.
         22    1    1    2    0    0  0.79713209301E+03  0.36359698668E+03 -0.21627657868E+04  0.23334905595E+04  0.00000000000E+00 0.  1.
<mgrwt>
<rscale>  0 0.29915817E+04</rscale>
<asrwt>0</asrwt>
<pdfrwt beam="1">  1        2 0.38249717E+00 0.29915817E+04</pdfrwt>
<pdfrwt beam="2">  1       -2 0.13844804E+00 0.29915817E+04</pdfrwt>
<totfact> 0.11226778E+00</totfact>
</mgrwt>
</event>
<event>
 6    1  0.1719556E-004  0.1782564E+04  0.7818608E-02  0.8715627E-01
          2   -1    0    0  501    0  0.00000000000E+00  0.00000000000E+00  0.16197162706E+04  0.16197162706E+04  0.00000000000E+00 0.  1.
         -2   -1    0    0    0  501 -0.00000000000E+00 -0.00000000000E+00 -0.49044602449E+03  0.49044602449E+03  0.00000000000E+00 0. -1.
         23    2    1    2    0    0 -0.25224337716E+03  0.66720398035E+03 -0.61505277306E+02  0.72209377377E+03  0.94067243300E+02 0.  0.
         11    1    3    3    0    0 -0.89459438022E+02  0.20112536171E+03 -0.60947757858E+02  0.22840541010E+03  0.00000000000E+00 0. -1.
        -11    1    3    3    0    0 -0.16278393913E+03  0.46607861864E+03 -0.55751944767E+00  0.49368836367E+03  0.00000000000E+00 0.  1.
         22    1    1    2    0    0  0.25224337716E+03 -0.66720398035E+03  0.11907755234E+04  0.13880685213E+04  0.00000000000E+00 0.  1.
<mgrwt>
<rscale>  0 0.17825638E+04</rscale>
<asrwt>0</asrwt>
<pdfrwt beam="1">  1        2 0.24918712E+00 0.17825638E+04</pdfrwt>
<pdfrwt beam="2">  1       -2 0.75453235E-01 0.17825638E+04</pdfrwt>
<totfact> 0.16193205E+01</totfact>
</mgrwt>
</event>
<event>
 6    1  0.1719556E-004  0.1723951E+04  0.7818608E-02  0.8747821E-01
         -2   -1    0    0    0  501 -0.00000000000E+00  0.00000000000E+00  0.68969513140E+03  0.68969513140E+03  0.00000000000E+00 0. -1.
          2   -1    0    0  501    0  0.00000000000E+00 -0.00000000000E+00 -0.10772904517E+04  0.10772904517E+04  0.00000000000E+00 0.  1.
         23    2    1    2    0    0 -0.10520269151E+03  0.68201091220E+03  0.33097652589E+03  0.77071654875E+03  0.90840779162E+02 0.  0.
         11    1    3    3    0    0 -0.41900308748E+02  0.76628450837E+02  0.40061940346E+02  0.96085974082E+02  0.00000000000E+00 0. -1.
        -11    1    3    3    0    0 -0.63302382764E+02  0.60538246137E+03  0.29091458554E+03  0.67463057467E+03  0.00000000000E+00 0.  1.
         22    1    1    2    0    0  0.10520269151E+03 -0.68201091220E+03 -0.71857184616E+03  0.99626903433E+03  0.00000000000E+00 0.  1.
<mgrwt>
<rscale>  0 0.17239513E+04</rscale>
<asrwt>0</asrwt>
<pdfrwt beam="1">  1        2 0.16573699E+00 0.17239513E+04</pdfrwt>
<pdfrwt beam="2">  1       -2 0.10610694E+00 0.17239513E+04</pdfrwt>
<totfact> 0.15323048E+01</totfact>
</mgrwt>
</event>
<event>
 6    1  0.1719556E-004  0.2986312E+04  0.7818608E-02  0.8247650E-01
          2   -1    0    0  501    0  0.00000000000E+00  0.00000000000E+00  0.17081939667E+04  0.17081939667E+04  0.00000000000E+00 0.  1.
         -2   -1    0    0    0  501 -0.00000000000E+00 -0.00000000000E+00 -0.13051887687E+04  0.13051887687E+04  0.00000000000E+00 0. -1.
         23    2    1    2    0    0  0.98335015172E+03  0.70273548024E+03 -0.68064992201E+03  0.13900765120E+04  0.90629557501E+02 0.  0.
         11    1    3    3    0    0  0.56739149783E+03  0.45113682217E+03 -0.37936911984E+03  0.81815553119E+03  0.00000000000E+00 0.  1.
        -11    1    3    3    0    0  0.41595865389E+03  0.25159865807E+03 -0.30128080217E+03  0.57192098077E+03  0.00000000000E+00 0. -1.
         22    1    1    2    0    0 -0.98335015172E+03 -0.70273548024E+03  0.10836551200E+04  0.16233062235E+04  0.00000000000E+00 0.  1.
<mgrwt>
<rscale>  0 0.29863125E+04</rscale>
<asrwt>0</asrwt>
<pdfrwt beam="1">  1        2 0.26279907E+00 0.29863125E+04</pdfrwt>
<pdfrwt beam="2">  1       -2 0.20079827E+00 0.29863125E+04</pdfrwt>
<totfact> 0.10929501E+00</totfact>
</mgrwt>
</event>
<event>
 6    1  0.1719556E-004  0.1204888E+04  0.7818608E-02  0.9108589E-01
          2   -1    0    0  501    0  0.00000000000E+00  0.00000000000E+00  0.84698179839E+03  0.84698179839E+03  0.00000000000E+00 0.  1.
         -2   -1    0    0    0  501 -0.00000000000E+00 -0.00000000000E+00 -0.42850835876E+03  0.42850835876E+03  0.00000000000E+00 0. -1.
         23    2    1    2    0    0 -0.17789091844E+03 -0.45329492483E+03  0.58002335726E+03  0.76244060436E+03  0.88131222974E+02 0.  0.
         13    1    3    3    0    0 -0.86360970927E+02 -0.30796975187E+03  0.41795241406E+03  0.52629630987E+03  0.00000000000E+00 0.  1.
        -13    1    3    3    0    0 -0.91529947512E+02 -0.14532517296E+03  0.16207094320E+03  0.23614429448E+03  0.00000000000E+00 0. -1.
         22    1    1    2    0    0  0.17789091844E+03  0.45329492483E+03 -0.16154991764E+03  0.51304955280E+03  0.00000000000E+00 0. -1.
<mgrwt>
<rscale>  0 0.12048880E+04</rscale>
<asrwt>0</asrwt>
<pdfrwt beam="1">  1        2 0.13030489E+00 0.12048880E+04</pdfrwt>
<pdfrwt beam="2">  1       -2 0.65924363E-01 0.12048880E+04</pdfrwt>
<totfact> 0.66648215E+01</totfact>
</mgrwt>
</event>
<event>
 6    1  0.1719556E-004  0.2467406E+04  0.7818608E-02  0.8414690E-01
          2   -1    0    0  501    0  0.00000000000E+00  0.00000000000E+00  0.11584773652E+04  0.11584773652E+04  0.00000000000E+00 0.  1.
         -2   -1    0    0    0  501 -0.00000000000E+00 -0.00000000000E+00 -0.13138136407E+04  0.13138136407E+04  0.00000000000E+00 0. -1.
         23    2    1    2    0    0 -0.34193136927E+03  0.10306584611E+04  0.50532207301E+03  0.12012113946E+04  0.91566874081E+02 0.  0.
         13    1    3    3    0    0 -0.11286060642E+03  0.38549581343E+03  0.14114029259E+03  0.42575241731E+03  0.00000000000E+00 0. -1.
        -13    1    3    3    0    0 -0.22907076284E+03  0.64516264767E+03  0.36418178042E+03  0.77545897733E+03  0.00000000000E+00 0.  1.
         22    1    1    2    0    0  0.34193136927E+03 -0.10306584611E+04 -0.66065834855E+03  0.12710796113E+04  0.00000000000E+00 0. -1.
<mgrwt>
<rscale>  0 0.24674062E+04</rscale>
<asrwt>0</asrwt>
<pdfrwt beam="1">  1        2 0.17822729E+00 0.24674062E+04</pdfrwt>
<pdfrwt beam="2">  1       -2 0.20212518E+00 0.24674062E+04</pdfrwt>
<totfact> 0.23108028E+00</totfact>
</mgrwt>
</event>
<event>
 6    1  0.1719556E-004  0.2674167E+04  0.7818608E-02  0.8343436E-01
          2   -1    0    0  501    0  0.00000000000E+00  0.00000000000E+00  0.11750168116E+04  0.11750168116E+04  0.00000000000E+00 0.  1.
         -2   -1    0    0    0  501 -0.00000000000E+00 -0.00000000000E+00 -0.15215038576E+04  0.15215038576E+04  0.00000000000E+00 0. -1.
         23    2    1    2    0    0 -0.84746625227E+03  0.94556212121E+03 -0.58761863038E+03  0.14040690396E+04  0.11759013292E+03 0.  0.
         11    1    3    3    0    0 -0.33979433141E+03  0.30633647194E+03 -0.17967663850E+03  0.49151390227E+03  0.00000000000E+00 0.  1.
        -11    1    3    3    0    0 -0.50767192086E+03  0.63922564928E+03 -0.40794199188E+03  0.91255513733E+03  0.00000000000E+00 0. -1.
         22    1    1    2    0    0  0.84746625227E+03 -0.94556212121E+03  0.24113158436E+03  0.12924516296E+04  0.00000000000E+00 0. -1.
<mgrwt>
<rscale>  0 0.26741672E+04</rscale>
<asrwt>0</asrwt>
<pdfrwt beam="1">  1        2 0.18077182E+00 0.26741672E+04</pdfrwt>
<pdfrwt beam="2">  1       -2 0.23407752E+00 0.26741672E+04</pdfrwt>
<totfact> 0.13897536E+00</totfact>
</mgrwt>
</event>
<event>
 6    1  0.1719556E-004  0.3948016E+03  0.7818608E-02  0.1045595E+00
          2   -1    0    0  501    0  0.00000000000E+00  0.00000000000E+00  0.53233521159E+03  0.53233521159E+03  0.00000000000E+00 0.  1.
         -2   -1    0    0    0  501 -0.00000000000E+00 -0.00000000000E+00 -0.73200244693E+02  0.73200244693E+02  0.00000000000E+00 0. -1.
         23    2    1    2    0    0 -0.22810692073E+02 -0.64028671078E+02  0.50873687625E+03  0.52139065369E+03  0.91733342385E+02 0.  0.
         11    1    3    3    0    0  0.63155243922E+01 -0.52032452341E+02  0.11483518905E+03  0.12623146434E+03  0.00000000000E+00 0.  1.
        -11    1    3    3    0    0 -0.29126216465E+02 -0.11996218737E+02  0.39390168719E+03  0.39515918934E+03  0.00000000000E+00 0. -1.
         22    1    1    2    0    0  0.22810692073E+02  0.64028671078E+02 -0.49601909350E+02  0.84144802597E+02  0.00000000000E+00 0. -1.
<mgrwt>
<rscale>  0 0.39480156E+03</rscale>
<asrwt>0</asrwt>
<pdfrwt beam="1">  1        2 0.81897722E-01 0.39480156E+03</pdfrwt>
<pdfrwt beam="2">  1       -2 0.11261576E-01 0.39480156E+03</pdfrwt>
<totfact> 0.31950339E+03</totfact>
</mgrwt>
</event>
<event>
 6    1  0.1719556E-004  0.1890357E+04  0.7818608E-02  0.8659671E-01
         -1   -1    0    0    0  501 -0.00000000000E+00  0.00000000000E+00  0.12790643649E+04  0.12790643649E+04  0.00000000000E+00 0. -1.
          1   -1    0    0  501    0  0.00000000000E+00 -0.00000000000E+00 -0.69844974959E+03  0.69844974959E+03  0.00000000000E+00 0.  1.
         23    2    1    2    0    0 -0.87795253069E+03  0.24056547501E+03  0.54879921708E+03  0.10666438639E+04  0.88747720066E+02 0.  0.
         11    1    3    3    0    0 -0.57834143440E+03  0.20054341273E+03  0.35600050887E+03  0.70811922545E+03  0.00000000000E+00 0.  1.
        -11    1    3    3    0    0 -0.29961109629E+03  0.40022062271E+02  0.19279870820E+03  0.35852463844E+03  0.00000000000E+00 0. -1.
         22    1    1    2    0    0  0.87795253069E+03 -0.24056547501E+03  0.31815398268E+02  0.91087025063E+03  0.00000000000E+00 0.  1.
<mgrwt>
<rscale>  0 0.18903568E+04</rscale>
<asrwt>0</asrwt>
<pdfrwt beam="1">  1        1 0.10745381E+00 0.18903568E+04</pdfrwt>
<pdfrwt beam="2">  1       -1 0.19677913E+00 0.18903568E+04</pdfrwt>
<totfact> 0.40549405E+00</totfact>
</mgrwt>
</event>
<event>
 6    1  0.1719556E-004  0.6014999E+03  0.7818608E-02  0.9902299E-01
         -2   -1    0    0    0  501 -0.00000000000E+00  0.00000000000E+00  0.45755918340E+03  0.45755918340E+03  0.00000000000E+00 0. -1.
          2   -1    0    0  501    0  0.00000000000E+00 -0.00000000000E+00 -0.19768047979E+03  0.19768047979E+03  0.00000000000E+00 0.  1.
         23    2    1    2    0    0  0.42513404850E+02  0.91257632847E+02 -0.16785920686E+03  0.21581382735E+03  0.90904068150E+02 0.  0.
         11    1    3    3    0    0 -0.50174485120E+00  0.20567132233E+02 -0.11675986923E+03  0.11855853297E+03  0.00000000000E+00 0. -1.
        -11    1    3    3    0    0  0.43015149701E+02  0.70690500614E+02 -0.51099337625E+02  0.97255294388E+02  0.00000000000E+00 0.  1.
         22    1    1    2    0    0 -0.42513404850E+02 -0.91257632847E+02  0.42773791047E+03  0.43942583583E+03  0.00000000000E+00 0. -1.
<mgrwt>
<rscale>  0 0.60149986E+03</rscale>
<asrwt>0</asrwt>
<pdfrwt beam="1">  1        2 0.30412382E-01 0.60149986E+03</pdfrwt>
<pdfrwt beam="2">  1       -2 0.70393720E-01 0.60149986E+03</pdfrwt>
<totfact> 0.32514624E+02</totfact>
</mgrwt>
</event>
<event>
 6    1  0.1719556E-004  0.5280073E+03  0.7818608E-02  0.1006717E+00
         -1   -1    0    0    0  501 -0.00000000000E+00  0.00000000000E+00  0.10901617495E+03  0.10901617495E+03  0.00000000000E+00 0. -1.
          1   -1    0    0  501    0  0.00000000000E+00 -0.00000000000E+00 -0.63933573058E+03  0.63933573058E+03  0.00000000000E+00 0.  1.
         23    2    1    2    0    0  0.23091115875E+03 -0.50148898740E+02 -0.41234244490E+03  0.48424307582E+03  0.92898812322E+02 0.  0.
         13    1    3    3    0    0  0.19434915692E+03 -0.11600733793E+02 -0.27466958306E+03  0.33667425158E+03  0.00000000000E+00 0.  1.
        -13    1    3    3    0    0  0.36562001827E+02 -0.38548164947E+02 -0.13767286185E+03  0.14756882424E+03  0.00000000000E+00 0. -1.
         22    1    1    2    0    0 -0.23091115875E+03  0.50148898740E+02 -0.11797711073E+03  0.26410882971E+03  0.00000000000E+00 0. -1.
<mgrwt>
<rscale>  0 0.52800733E+03</rscale>
<asrwt>0</asrwt>
<pdfrwt beam="1">  1        1 0.98359343E-01 0.52800733E+03</pdfrwt>
<pdfrwt beam="2">  1       -1 0.16771719E-01 0.52800733E+03</pdfrwt>
<totfact> 0.86131939E+02</totfact>
</mgrwt>
</event>
<event>
 6    1  0.1719556E-004  0.2025625E+04  0.7818608E-02  0.8594733E-01
         -2   -1    0    0    0  501 -0.00000000000E+00  0.00000000000E+00  0.94830434484E+03  0.94830434484E+03  0.00000000000E+00 0. -1.
          2   -1    0    0  501    0  0.00000000000E+00 -0.00000000000E+00 -0.10817085607E+04  0.10817085607E+04  0.00000000000E+00 0.  1.
         23    2    1    2    0    0  0.88341372501E+03  0.76204835466E+02  0.41920947902E+03  0.98521202392E+03  0.93162000267E+02 0.  0.
         13    1    3    3    0    0  0.36203716442E+03 -0.85641558801E+01  0.19585906586E+03  0.41170988192E+03  0.00000000000E+00 0. -1.
        -13    1    3    3    0    0  0.52137656058E+03  0.84768991346E+02  0.22335041316E+03  0.57350214200E+03  0.00000000000E+00 0.  1.
         22    1    1    2    0    0 -0.88341372501E+03 -0.76204835466E+02 -0.55261369489E+03  0.10448008816E+04  0.00000000000E+00 0. -1.
<mgrwt>
<rscale>  0 0.20256248E+04</rscale>
<asrwt>0</asrwt>
<pdfrwt beam="1">  1        2 0.16641670E+00 0.20256248E+04</pdfrwt>
<pdfrwt beam="2">  1       -2 0.14589298E+00 0.20256248E+04</pdfrwt>
<totfact> 0.66849726E+00</totfact>
</mgrwt>
</event>
<event>
 6    1  0.1719556E-004  0.1307241E+04  0.7818608E-02  0.9023843E-01
          1   -1    0    0  501    0  0.00000000000E+00  0.00000000000E+00  0.27908880708E+03  0.27908880708E+03  0.00000000000E+00 0.  1.
         -1   -1    0    0    0  501 -0.00000000000E+00 -0.00000000000E+00 -0.15307660493E+04  0.15307660493E+04  0.00000000000E+00 0. -1.
         23    2    1    2    0    0  0.73109169056E+02 -0.28864663933E+02 -0.15226389720E+04  0.15277230105E+04  0.96592124361E+02 0.  0.
         11    1    3    3    0    0  0.21978888166E+02 -0.41976962609E+02 -0.28133533915E+03  0.28529758143E+03  0.00000000000E+00 0. -1.
        -11    1    3    3    0    0  0.51130280889E+02  0.13112298676E+02 -0.12413036328E+04  0.12424254291E+04  0.00000000000E+00 0.  1.
         22    1    1    2    0    0 -0.73109169056E+02  0.28864663933E+02  0.27096172978E+03  0.28213184583E+03  0.00000000000E+00 0.  1.
<mgrwt>
<rscale>  0 0.13072409E+04</rscale>
<asrwt>0</asrwt>
<pdfrwt beam="1">  1        1 0.42936739E-01 0.13072409E+04</pdfrwt>
<pdfrwt beam="2">  1       -1 0.23550247E+00 0.13072409E+04</pdfrwt>
<totfact> 0.82198181E+00</totfact>
</mgrwt>
</event>
<event>
 6    1  0.1719556E-004  0.2512442E+04  0.7818608E-02  0.8398566E-01
         -2   -1    0    0    0  501 -0.00000000000E+00  0.00000000000E+00  0.95943718406E+03  0.95943718406E+03  0.00000000000E+00 0. -1.
          2   -1    0    0  501    0  0.00000000000E+00 -0.00000000000E+00 -0.16448095101E+04  0.16448095101E+04  0.00000000000E+00 0.  1.
         23    2    1    2    0    0  0.39542234758E+02  0.12446268710E+04 -0.50075527836E+03  0.13453808988E+04  0.92920813614E+02 0.  0.
         11    1    3    3    0    0  0.24754256272E+02  0.36837258272E+03 -0.10541302003E+03  0.38395707793E+03  0.00000000000E+00 0.  1.
        -11    1    3    3    0    0  0.14787978486E+02  0.87625428833E+03 -0.39534225832E+03  0.96142382087E+03  0.00000000000E+00 0. -1.
         22    1    1    2    0    0 -0.39542234758E+02 -0.12446268710E+04 -0.18461704770E+03  0.12588657954E+04  0.00000000000E+00 0. -1.
<mgrwt>
<rscale>  0 0.25124422E+04</rscale>
<asrwt>0</asrwt>
<pdfrwt beam="1">  1        2 0.25304762E+00 0.25124422E+04</pdfrwt>
<pdfrwt beam="2">  1       -2 0.14760572E+00 0.25124422E+04</pdfrwt>
<totfact> 0.29329139E+00</totfact>
</mgrwt>
</event>
<event>
 6    1  0.1719556E-004  0.1070402E+04  0.7818608E-02  0.9234530E-01
          2   -1    0    0  501    0  0.00000000000E+00  0.00000000000E+00  0.35224729631E+03  0.35224729631E+03  0.00000000000E+00 0.  1.
         -2   -1    0    0    0  501 -0.00000000000E+00 -0.00000000000E+00 -0.81317842323E+03  0.81317842323E+03  0.00000000000E+00 0. -1.
         23    2    1    2    0    0  0.17552494834E+03  0.38325837262E+03  0.11968442850E+03  0.44792281999E+03  0.92814344646E+02 0.  0.
         13    1    3    3    0    0  0.75278392585E+02  0.20619834945E+03  0.10662323910E+03  0.24403506064E+03  0.00000000000E+00 0.  1.
        -13    1    3    3    0    0  0.10024655576E+03  0.17706002317E+03  0.13061189407E+02  0.20388775935E+03  0.00000000000E+00 0. -1.
         22    1    1    2    0    0 -0.17552494834E+03 -0.38325837262E+03 -0.58061555542E+03  0.71750289955E+03  0.00000000000E+00 0. -1.
<mgrwt>
<rscale>  0 0.10704016E+04</rscale>
<asrwt>0</asrwt>
<pdfrwt beam="1">  1        2 0.54191892E-01 0.10704016E+04</pdfrwt>
<pdfrwt beam="2">  1       -2 0.12510437E+00 0.10704016E+04</pdfrwt>
<totfact> 0.43636993E+01</totfact>
</mgrwt>
</event>
<event>
 6    1  0.1719556E-004  0.4010254E+04  0.7818608E-02  0.8002481E-01
         -2   -1    0    0    0  501 -0.00000000000E+00  0.00000000000E+00  0.13065341554E+04  0.13065341554E+04  0.00000000000E+00 0. -1.
          2   -1    0    0  501    0  0.00000000000E+00 -0.00000000000E+00 -0.30772514980E+04  0.30772514980E+04  0.00000000000E+00 0.  1.
         23    2    1    2    0    0  0.18426078214E+04 -0.41491152855E+03 -0.16183723263E+04  0.24889072499E+04  0.90416549507E+02 0.  0.
         11    1    3    3    0    0  0.15991533445E+04 -0.34719867157E+03 -0.14377755238E+04  0.21783105365E+04  0.00000000000E+00 0.  1.
        -11    1    3    3    0    0  0.24345447685E+03 -0.67712856986E+02 -0.18059680251E+03  0.31059671340E+03  0.00000000000E+00 0. -1.
         22    1    1    2    0    0 -0.18426078214E+04  0.41491152855E+03 -0.15234501637E+03  0.18948784034E+04  0.00000000000E+00 0. -1.
<mgrwt>
<rscale>  0 0.40102540E+04</rscale>
<asrwt>0</asrwt>
<pdfrwt beam="1">  1        2 0.47342330E+00 0.40102540E+04</pdfrwt>
<pdfrwt beam="2">  1       -2 0.20100526E+00 0.40102540E+04</pdfrwt>
<totfact> 0.16054388E-01</totfact>
</mgrwt>
</event>
<event>
 6    1  0.1719556E-004  0.2962176E+04  0.7818608E-02  0.8254615E-01
         -2   -1    0    0    0  501 -0.00000000000E+00  0.00000000000E+00  0.16246216312E+04  0.16246216312E+04  0.00000000000E+00 0. -1.
          2   -1    0    0  501    0  0.00000000000E+00 -0.00000000000E+00 -0.13502349640E+04  0.13502349640E+04  0.00000000000E+00 0.  1.
         23    2    1    2    0    0  0.11588949854E+03  0.14378010564E+04  0.46739448900E+03  0.15195372924E+04  0.99165119373E+02 0.  0.
         11    1    3    3    0    0  0.58175235918E+02  0.11145046020E+04  0.38929398500E+03  0.11819706734E+04  0.00000000000E+00 0. -1.
        -11    1    3    3    0    0  0.57714262622E+02  0.32329645440E+03  0.78100504005E+02  0.33756661900E+03  0.00000000000E+00 0.  1.
         22    1    1    2    0    0 -0.11588949854E+03 -0.14378010564E+04 -0.19300782180E+03  0.14553193027E+04  0.00000000000E+00 0.  1.
<mgrwt>
<rscale>  0 0.29621755E+04</rscale>
<asrwt>0</asrwt>
<pdfrwt beam="1">  1        2 0.20772846E+00 0.29621755E+04</pdfrwt>
<pdfrwt beam="2">  1       -2 0.24994179E+00 0.29621755E+04</pdfrwt>
<totfact> 0.85363492E-01</totfact>
</mgrwt>
</event>
<event>
 6    1  0.1719556E-004  0.2521480E+04  0.7818608E-02  0.8395373E-01
         -2   -1    0    0    0  501 -0.00000000000E+00  0.00000000000E+00  0.44093029671E+03  0.44093029671E+03  0.00000000000E+00 0. -1.
          2   -1    0    0  501    0  0.00000000000E+00 -0.00000000000E+00 -0.36047997480E+04  0.36047997480E+04  0.00000000000E+00 0.  1.
         23    2    1    2    0    0 -0.62306834517E+03  0.91222210470E+03 -0.25531247719E+04  0.27834414903E+04  0.93472445607E+02 0.  0.
         11    1    3    3    0    0 -0.39919962637E+03  0.64730364075E+03 -0.18149500374E+04  0.19678429773E+04  0.00000000000E+00 0.  1.
        -11    1    3    3    0    0 -0.22386871881E+03  0.26491846395E+03 -0.73817473457E+03  0.81559851309E+03  0.00000000000E+00 0. -1.
         22    1    1    2    0    0  0.62306834517E+03 -0.91222210470E+03 -0.61074467931E+03  0.12622885543E+04  0.00000000000E+00 0. -1.
<mgrwt>
<rscale>  0 0.25214801E+04</rscale>
<asrwt>0</asrwt>
<pdfrwt beam="1">  1        2 0.55458457E+00 0.25214801E+04</pdfrwt>
<pdfrwt beam="2">  1       -2 0.67835431E-01 0.25214801E+04</pdfrwt>
<totfact> 0.12157114E+00</totfact>
</mgrwt>
</event>
<event>
 6    1  0.1719556E-004  0.3670207E+04  0.7818608E-02  0.8074597E-01
          1   -1    0    0  501    0  0.00000000000E+00  0.00000000000E+00  0.17931519187E+04  0.17931519187E+04  0.00000000000E+00 0. -1.
         -1   -1    0    0    0  501 -0.00000000000E+00 -0.00000000000E+00 -0.18780366592E+04  0.18780366592E+04  0.00000000000E+00 0.  1.
         23    2    1    2    0    0 -0.99448495393E+03  0.77398230708E+03  0.12903203023E+04  0.18059170575E+04  0.91438508852E+02 0.  0.
         11    1    3    3    0    0 -0.15587433027E+03  0.16574982938E+03  0.23308494048E+03  0.32572749693E+03  0.00000000000E+00 0. -1.
        -11    1    3    3    0    0 -0.83861062366E+03  0.60823247769E+03  0.10572353618E+04  0.14801895606E+04  0.00000000000E+00 0.  1.
         22    1    1    2    0    0  0.99448495393E+03 -0.77398230708E+03 -0.13752050427E+04  0.18652715204E+04  0.00000000000E+00 0.  1.
<mgrwt>
<rscale>  0 0.36702071E+04</rscale>
<asrwt>0</asrwt>
<pdfrwt beam="1">  1        1 0.27586953E+00 0.36702071E+04</pdfrwt>
<pdfrwt beam="2">  1       -1 0.28892872E+00 0.36702071E+04</pdfrwt>
<totfact> 0.12903106E-01</totfact>
</mgrwt>
</event>
<event>
 6    1  0.1719556E-004  0.1224829E+04  0.7818608E-02  0.9091397E-01
         -2   -1    0    0    0  501 -0.00000000000E+00  0.00000000000E+00  0.13392940246E+03  0.13392940246E+03  0.00000000000E+00 0. -1.
          2   -1    0    0  501    0  0.00000000000E+00 -0.00000000000E+00 -0.28003687978E+04  0.28003687978E+04  0.00000000000E+00 0.  1.
         23    2    1    2    0    0  0.56809616629E+02 -0.22589905429E+03 -0.26887927511E+04  0.27002952350E+04  0.87921454563E+02 0.  0.
         13    1    3    3    0    0  0.72928496326E+02 -0.14577348815E+03 -0.15410958190E+04  0.15496918399E+04  0.00000000000E+00 0. -1.
        -13    1    3    3    0    0 -0.16118879697E+02 -0.80125566149E+02 -0.11476969321E+04  0.11506033950E+04  0.00000000000E+00 0.  1.
         22    1    1    2    0    0 -0.56809616629E+02  0.22589905429E+03  0.22353355750E+02  0.23400296534E+03  0.00000000000E+00 0. -1.
<mgrwt>
<rscale>  0 0.12248293E+04</rscale>
<asrwt>0</asrwt>
<pdfrwt beam="1">  1        2 0.43082597E+00 0.12248293E+04</pdfrwt>
<pdfrwt beam="2">  1       -2 0.20604524E-01 0.12248293E+04</pdfrwt>
<totfact> 0.46654469E+01</totfact>
</mgrwt>
</event>
<event>
 6    1  0.1719556E-004  0.1393555E+04  0.7818608E-02  0.8958497E-01
         -2   -1    0    0    0  501 -0.00000000000E+00  0.00000000000E+00  0.27482400764E+03  0.27482400764E+03  0.00000000000E+00 0. -1.
          2   -1    0    0  501    0  0.00000000000E+00 -0.00000000000E+00 -0.17665800245E+04  0.17665800245E+04  0.00000000000E+00 0.  1.
         23    2    1    2    0    0  0.67224761894E+03  0.36933919080E+02 -0.51060689739E+03  0.85147354249E+03  0.10491336594E+03 0.  0.
         11    1    3    3    0    0  0.58536629723E+03  0.57020741462E+02 -0.47280500352E+03  0.75461886952E+03  0.00000000000E+00 0. -1.
        -11    1    3    3    0    0  0.86881321713E+02 -0.20086822382E+02 -0.37801893871E+02  0.96854672971E+02  0.00000000000E+00 0.  1.
         22    1    1    2    0    0 -0.67224761894E+03 -0.36933919080E+02 -0.98114911950E+03  0.11899304897E+04  0.00000000000E+00 0.  1.
<mgrwt>
<rscale>  0 0.13935546E+04</rscale>
<asrwt>0</asrwt>
<pdfrwt beam="1">  1        2 0.27178156E+00 0.13935546E+04</pdfrwt>
<pdfrwt beam="2">  1       -2 0.42280614E-01 0.13935546E+04</pdfrwt>
<totfact> 0.46494611E+01</totfact>
</mgrwt>
</event>
<event>
 6    1  0.1719556E-004  0.3514509E+04  0.7818608E-02  0.8110360E-01
          2   -1    0    0  501    0  0.00000000000E+00  0.00000000000E+00  0.20427941232E+04  0.20427941232E+04  0.00000000000E+00 0.  1.
         -2   -1    0    0    0  501 -0.00000000000E+00 -0.00000000000E+00 -0.15116272234E+04  0.15116272234E+04  0.00000000000E+00 0. -1.
         23    2    1    2    0    0  0.11160220339E+04 -0.33028894297E+03  0.15956683868E+04  0.19771580898E+04  0.91654489549E+02 0.  0.
         11    1    3    3    0    0  0.16386562335E+03 -0.76114667818E+02  0.21470996660E+03  0.28061674029E+03  0.00000000000E+00 0. -1.
        -11    1    3    3    0    0  0.95215641051E+03 -0.25417427515E+03  0.13809584202E+04  0.16965413495E+04  0.00000000000E+00 0.  1.
         22    1    1    2    0    0 -0.11160220339E+04  0.33028894297E+03 -0.10645014869E+04  0.15772632569E+04  0.00000000000E+00 0. -1.
<mgrwt>
<rscale>  0 0.35145089E+04</rscale>
<asrwt>0</asrwt>
<pdfrwt beam="1">  1        2 0.31427602E+00 0.35145089E+04</pdfrwt>
<pdfrwt beam="2">  1       -2 0.23255804E+00 0.35145089E+04</pdfrwt>
<totfact> 0.42777011E-01</totfact>
</mgrwt>
</event>
<event>
 6    1  0.1719556E-004  0.1750556E+04  0.7818608E-02  0.8733044E-01
          2   -1    0    0  501    0  0.00000000000E+00  0.00000000000E+00  0.23048493858E+04  0.23048493858E+04  0.00000000000E+00 0.  1.
         -2   -1    0    0    0  501 -0.00000000000E+00 -0.00000000000E+00 -0.33239130956E+03  0.33239130956E+03  0.00000000000E+00 0. -1.
         23    2    1    2    0    0 -0.15749847314E+03 -0.44722179706E+03 -0.11539358595E+03  0.49622746137E+03  0.90071687742E+02 0.  0.
         11    1    3    3    0    0 -0.50589222412E+02 -0.27698794570E+03 -0.70227029264E+02  0.29019549811E+03  0.00000000000E+00 0. -1.
        -11    1    3    3    0    0 -0.10690925073E+03 -0.17023385137E+03 -0.45166556681E+02  0.20603196326E+03  0.00000000000E+00 0.  1.
         22    1    1    2    0    0  0.15749847314E+03  0.44722179706E+03  0.20878516622E+04  0.21410132340E+04  0.00000000000E+00 0.  1.
<mgrwt>
<rscale>  0 0.17505564E+04</rscale>
<asrwt>0</asrwt>
<pdfrwt beam="1">  1        2 0.35459220E+00 0.17505564E+04</pdfrwt>
<pdfrwt beam="2">  1       -2 0.51137126E-01 0.17505564E+04</pdfrwt>
<totfact> 0.15441010E+01</totfact>
</mgrwt>
</event>
<event>
 6    1  0.1719556E-004  0.4447957E+04  0.7818608E-02  0.7919812E-01
          2   -1    0    0  501    0  0.00000000000E+00  0.00000000000E+00  0.21905378542E+04  0.21905378542E+04  0.00000000000E+00 0.  1.
         -2   -1    0    0    0  501 -0.00000000000E+00 -0.00000000000E+00 -0.22579300377E+04  0.22579300377E+04  0.00000000000E+00 0. -1.
         23    2    1    2    0    0  0.21198252778E+04  0.26463589624E+02  0.63512503644E+03  0.22151094401E+04  0.94691550392E+02 0.  0.
         11    1    3    3    0    0  0.83298256058E+03  0.34940923609E+02  0.29072302865E+03  0.88294999505E+03  0.00000000000E+00 0. -1.
        -11    1    3    3    0    0  0.12868427172E+04 -0.84773339853E+01  0.34440200779E+03  0.13321594451E+04  0.00000000000E+00 0.  1.
         22    1    1    2    0    0 -0.21198252778E+04 -0.26463589624E+02 -0.70251721997E+03  0.22333584518E+04  0.00000000000E+00 0.  1.
<mgrwt>
<rscale>  0 0.44479574E+04</rscale>
<asrwt>0</asrwt>
<pdfrwt beam="1">  1        2 0.33700582E+00 0.44479574E+04</pdfrwt>
<pdfrwt beam="2">  1       -2 0.34737385E+00 0.44479574E+04</pdfrwt>
<totfact> 0.64285600E-02</totfact>
</mgrwt>
</event>
<event>
 6    1  0.1719556E-004  0.6240825E+04  0.7818608E-02  0.7661239E-01
         -2   -1    0    0    0  501 -0.00000000000E+00  0.00000000000E+00  0.24493154758E+04  0.24493154758E+04  0.00000000000E+00 0. -1.
          2   -1    0    0  501    0  0.00000000000E+00 -0.00000000000E+00 -0.39753857807E+04  0.39753857807E+04  0.00000000000E+00 0.  1.
         23    2    1    2    0    0 -0.14566138624E+04 -0.27284725172E+04 -0.11832382438E+04  0.33128175757E+04  0.91767790051E+02 0.  0.
         13    1    3    3    0    0 -0.13021445074E+03 -0.30344528621E+03 -0.13050719182E+03  0.35505911060E+03  0.00000000000E+00 0. -1.
        -13    1    3    3    0    0 -0.13263994117E+04 -0.24250272310E+04 -0.10527310519E+04  0.29577584651E+04  0.00000000000E+00 0.  1.
         22    1    1    2    0    0  0.14566138624E+04  0.27284725172E+04 -0.34283206113E+03  0.31118836809E+04  0.00000000000E+00 0. -1.
<mgrwt>
<rscale>  0 0.62408249E+04</rscale>
<asrwt>0</asrwt>
<pdfrwt beam="1">  1        2 0.61159781E+00 0.62408249E+04</pdfrwt>
<pdfrwt beam="2">  1       -2 0.37681777E+00 0.62408249E+04</pdfrwt>
<totfact> 0.24721361E-03</totfact>
</mgrwt>
</event>
<event>
 6    1  0.1719556E-004  0.1820370E+04  0.7818608E-02  0.8695541E-01
          2   -1    0    0  501    0  0.00000000000E+00  0.00000000000E+00  0.21922399502E+04  0.21922399502E+04  0.00000000000E+00 0.  1.
         -2   -1    0    0    0  501 -0.00000000000E+00 -0.00000000000E+00 -0.37789526178E+03  0.37789526178E+03  0.00000000000E+00 0. -1.
         23    2    1    2    0    0 -0.65247966995E+03 -0.39733876085E+02  0.17990424091E+04  0.19162677480E+04  0.90664170660E+02 0.  0.
         11    1    3    3    0    0 -0.39160174227E+03  0.64461384667E+01  0.97663984921E+03  0.10522446827E+04  0.00000000000E+00 0. -1.
        -11    1    3    3    0    0 -0.26087792769E+03 -0.46180014551E+02  0.82240255989E+03  0.86402306533E+03  0.00000000000E+00 0.  1.
         22    1    1    2    0    0  0.65247966995E+03  0.39733876085E+02  0.15302279299E+02  0.65386746391E+03  0.00000000000E+00 0. -1.
<mgrwt>
<rscale>  0 0.18203704E+04</rscale>
<asrwt>0</asrwt>
<pdfrwt beam="1">  1        2 0.33726768E+00 0.18203704E+04</pdfrwt>
<pdfrwt beam="2">  1       -2 0.58137734E-01 0.18203704E+04</pdfrwt>
<totfact> 0.13612166E+01</totfact>
</mgrwt>
</event>
<event>
 6    1  0.1719556E-004  0.5769763E+03  0.7818608E-02  0.9954359E-01
         -2   -1    0    0    0  501 -0.00000000000E+00  0.00000000000E+00  0.42017045800E+03  0.42017045800E+03  0.00000000000E+00 0. -1.
          2   -1    0    0  501    0  0.00000000000E+00 -0.00000000000E+00 -0.19807534025E+03  0.19807534025E+03  0.00000000000E+00 0.  1.
         23    2    1    2    0    0  0.70062729945E+02  0.12840074163E+03  0.37137388160E+03  0.40924894202E+03  0.90391371451E+02 0.  0.
         11    1    3    3    0    0 -0.32725885744E+01  0.73987007318E+02  0.22350634336E+03  0.23545673193E+03  0.00000000000E+00 0. -1.
        -11    1    3    3    0    0  0.73335318520E+02  0.54413734316E+02  0.14786753824E+03  0.17379221009E+03  0.00000000000E+00 0.  1.
         22    1    1    2    0    0 -0.70062729945E+02 -0.12840074163E+03 -0.14927876384E+03  0.20899685623E+03  0.00000000000E+00 0.  1.
<mgrwt>
<rscale>  0 0.57697628E+03</rscale>
<asrwt>0</asrwt>
<pdfrwt beam="1">  1        2 0.30473129E-01 0.57697628E+03</pdfrwt>
<pdfrwt beam="2">  1       -2 0.64641609E-01 0.57697628E+03</pdfrwt>
<totfact> 0.39007635E+02</totfact>
</mgrwt>
</event>
<event>
 6    1  0.1719556E-004  0.2760950E+04  0.7818608E-02  0.8315496E-01
         -2   -1    0    0    0  501 -0.00000000000E+00  0.00000000000E+00  0.11724884572E+04  0.11724884572E+04  0.00000000000E+00 0. -1.
          2   -1    0    0  501    0  0.00000000000E+00 -0.00000000000E+00 -0.16253554919E+04  0.16253554919E+04  0.00000000000E+00 0.  1.
         23    2    1    2    0    0  0.23117109842E+03 -0.87591167907E+03 -0.12802593282E+04  0.15709619851E+04  0.90533225260E+02 0.  0.
         11    1    3    3    0    0  0.13743626259E+03 -0.50665716171E+03 -0.81775674527E+03  0.97175938391E+03  0.00000000000E+00 0. -1.
        -11    1    3    3    0    0  0.93734835832E+02 -0.36925451736E+03 -0.46250258290E+03  0.59920260115E+03  0.00000000000E+00 0.  1.
         22    1    1    2    0    0 -0.23117109842E+03  0.87591167907E+03  0.82739229351E+03  0.12268819640E+04  0.00000000000E+00 0.  1.
<mgrwt>
<rscale>  0 0.27609495E+04</rscale>
<asrwt>0</asrwt>
<pdfrwt beam="1">  1        2 0.25005469E+00 0.27609495E+04</pdfrwt>
<pdfrwt beam="2">  1       -2 0.18038284E+00 0.27609495E+04</pdfrwt>
<totfact> 0.16983694E+00</totfact>
</mgrwt>
</event>
<event>
 6    1  0.1719556E-004  0.3444149E+04  0.7818608E-02  0.8127155E-01
          2   -1    0    0  501    0  0.00000000000E+00  0.00000000000E+00  0.31769519012E+04  0.31769519012E+04  0.00000000000E+00 0.  1.
         -2   -1    0    0    0  501 -0.00000000000E+00 -0.00000000000E+00 -0.93345452139E+03  0.93345452139E+03  0.00000000000E+00 0. -1.
         23    2    1    2    0    0 -0.48756781799E+03 -0.55337885939E+03  0.29780000121E+04  0.30695199466E+04  0.97560704184E+02 0.  0.
         13    1    3    3    0    0 -0.28283966507E+02 -0.11869009139E+02  0.19335414102E+03  0.19577201023E+03  0.00000000000E+00 0.  1.
        -13    1    3    3    0    0 -0.45928385148E+03 -0.54150985025E+03  0.27846458711E+04  0.28737479364E+04  0.00000000000E+00 0. -1.
         22    1    1    2    0    0  0.48756781799E+03  0.55337885939E+03 -0.73450263230E+03  0.10408864760E+04  0.00000000000E+00 0. -1.
<mgrwt>
<rscale>  0 0.34441487E+04</rscale>
<asrwt>0</asrwt>
<pdfrwt beam="1">  1        2 0.48876183E+00 0.34441487E+04</pdfrwt>
<pdfrwt beam="2">  1       -2 0.14360839E+00 0.34441487E+04</pdfrwt>
<totfact> 0.37202918E-01</totfact>
</mgrwt>
</event>
<event>
 6    1  0.1719556E-004  0.2132778E+04  0.7818608E-02  0.8546940E-01
          2   -1    0    0  501    0  0.00000000000E+00  0.00000000000E+00  0.27969625115E+04  0.27969625115E+04  0.00000000000E+00 0.  1.
         -2   -1    0    0    0  501 -0.00000000000E+00 -0.00000000000E+00 -0.40657874338E+03  0.40657874338E+03  0.00000000000E+00 0. -1.
         23    2    1    2    0    0  0.96635124617E+03  0.41925460034E+03  0.14281449332E+04  0.17768272939E+04  0.88927675151E+02 0.  0.
         13    1    3    3    0    0  0.75408568033E+03  0.35091078698E+03  0.10754710506E+04  0.13595666863E+04  0.00000000000E+00 0.  1.
        -13    1    3    3    0    0  0.21226556584E+03  0.68343813358E+02  0.35267388251E+03  0.41726060762E+03  0.00000000000E+00 0. -1.
         22    1    1    2    0    0 -0.96635124617E+03 -0.41925460034E+03  0.96223883492E+03  0.14267139609E+04  0.00000000000E+00 0. -1.
<mgrwt>
<rscale>  0 0.21327780E+04</rscale>
<asrwt>0</asrwt>
<pdfrwt beam="1">  1        2 0.43030191E+00 0.21327780E+04</pdfrwt>
<pdfrwt beam="2">  1       -2 0.62550578E-01 0.21327780E+04</pdfrwt>
<totfact> 0.50641191E+00</totfact>
</mgrwt>
</event>
<event>
 6    1  0.1719556E-004  0.1297276E+04  0.7818608E-02  0.9031728E-01
          1   -1    0    0  501    0  0.00000000000E+00  0.00000000000E+00  0.98060086899E+03  0.98060086899E+03  0.00000000000E+00 0.  1.
         -1   -1    0    0    0  501 -0.00000000000E+00 -0.00000000000E+00 -0.42905438620E+03  0.42905438620E+03  0.00000000000E+00 0. -1.
         23    2    1    2    0    0 -0.16279646279E+03  0.80298556206E+02  0.95022733883E+03  0.97159478973E+03  0.90077153391E+02 0.  0.
         13    1    3    3    0    0 -0.62149348856E+01  0.18853840795E+02  0.27560097035E+03  0.27631501513E+03  0.00000000000E+00 0.  1.
        -13    1    3    3    0    0 -0.15658152790E+03  0.61444715411E+02  0.67462636848E+03  0.69527977460E+03  0.00000000000E+00 0. -1.
         22    1    1    2    0    0  0.16279646279E+03 -0.80298556206E+02 -0.39868085603E+03  0.43806046545E+03  0.00000000000E+00 0. -1.
<mgrwt>
<rscale>  0 0.12972758E+04</rscale>
<asrwt>0</asrwt>
<pdfrwt beam="1">  1        1 0.15086167E+00 0.12972758E+04</pdfrwt>
<pdfrwt beam="2">  1       -1 0.66008367E-01 0.12972758E+04</pdfrwt>
<totfact> 0.35828738E+01</totfact>
</mgrwt>
</event>
<event>
 6    1  0.1719556E-004  0.5865430E+04  0.7818608E-02  0.7707314E-01
          2   -1    0    0  501    0  0.00000000000E+00  0.00000000000E+00  0.33910224579E+04  0.33910224579E+04  0.00000000000E+00 0. -1.
         -2   -1    0    0    0  501 -0.00000000000E+00 -0.00000000000E+00 -0.25363494780E+04  0.25363494780E+04  0.00000000000E+00 0.  1.
         23    2    1    2    0    0 -0.20410004797E+04  0.61003894500E+02  0.25537719152E+04  0.32709943977E+04  0.90823574669E+02 0.  0.
         13    1    3    3    0    0 -0.12938514749E+04  0.28564810899E+02  0.16859986163E+04  0.21254314672E+04  0.00000000000E+00 0.  1.
        -13    1    3    3    0    0 -0.74714900484E+03  0.32439083601E+02  0.86777329892E+03  0.11455629306E+04  0.00000000000E+00 0. -1.
         22    1    1    2    0    0  0.20410004797E+04 -0.61003894500E+02 -0.16990989352E+04  0.26563775382E+04  0.00000000000E+00 0.  1.
<mgrwt>
<rscale>  0 0.58654303E+04</rscale>
<asrwt>0</asrwt>
<pdfrwt beam="1">  1        2 0.52169576E+00 0.58654303E+04</pdfrwt>
<pdfrwt beam="2">  1       -2 0.39020761E+00 0.58654303E+04</pdfrwt>
<totfact> 0.56504162E-03</totfact>
</mgrwt>
</event>
<event>
 6    1  0.1719556E-004  0.2919485E+04  0.7818608E-02  0.8267104E-01
         -2   -1    0    0    0  501 -0.00000000000E+00  0.00000000000E+00  0.72128920584E+03  0.72128920584E+03  0.00000000000E+00 0. -1.
          2   -1    0    0  501    0  0.00000000000E+00 -0.00000000000E+00 -0.29542223263E+04  0.29542223263E+04  0.00000000000E+00 0.  1.
         23    2    1    2    0    0  0.64059853714E+03  0.94696290088E+03  0.22058123588E+02  0.11472530936E+04  0.92724745821E+02 0.  0.
         13    1    3    3    0    0  0.11048779464E+03  0.19429364961E+03  0.36805033547E+02  0.22652193170E+03  0.00000000000E+00 0. -1.
        -13    1    3    3    0    0  0.53011074250E+03  0.75266925127E+03 -0.14746909959E+02  0.92073116189E+03  0.00000000000E+00 0.  1.
         22    1    1    2    0    0 -0.64059853714E+03 -0.94696290088E+03 -0.22549912441E+04  0.25282584386E+04  0.00000000000E+00 0. -1.
<mgrwt>
<rscale>  0 0.29194853E+04</rscale>
<asrwt>0</asrwt>
<pdfrwt beam="1">  1        2 0.45449574E+00 0.29194853E+04</pdfrwt>
<pdfrwt beam="2">  1       -2 0.11096757E+00 0.29194853E+04</pdfrwt>
<totfact> 0.10301657E+00</totfact>
</mgrwt>
</event>
<event>
 6    1  0.1719556E-004  0.1872684E+04  0.7818608E-02  0.8668574E-01
         -2   -1    0    0    0  501 -0.00000000000E+00  0.00000000000E+00  0.89249341340E+03  0.89249341340E+03  0.00000000000E+00 0. -1.
          2   -1    0    0  501    0  0.00000000000E+00 -0.00000000000E+00 -0.98234491941E+03  0.98234491941E+03  0.00000000000E+00 0.  1.
         23    2    1    2    0    0  0.20457366670E+03 -0.38488275308E+03 -0.87212007953E+03  0.97933331338E+03  0.92277770162E+02 0.  0.
         11    1    3    3    0    0  0.12448760776E+03 -0.14439747790E+03 -0.41334930092E+03  0.45519824327E+03  0.00000000000E+00 0. -1.
        -11    1    3    3    0    0  0.80086058941E+02 -0.24048527518E+03 -0.45877077860E+03  0.52413507011E+03  0.00000000000E+00 0.  1.
         22    1    1    2    0    0 -0.20457366670E+03  0.38488275308E+03  0.78226857351E+03  0.89550501943E+03  0.00000000000E+00 0. -1.
<mgrwt>
<rscale>  0 0.18726840E+04</rscale>
<asrwt>0</asrwt>
<pdfrwt beam="1">  1        2 0.15112999E+00 0.18726840E+04</pdfrwt>
<pdfrwt beam="2">  1       -2 0.13730668E+00 0.18726840E+04</pdfrwt>
<totfact> 0.91673046E+00</totfact>
</mgrwt>
</event>
<event>
 6    1  0.1719556E-004  0.2250872E+04  0.7818608E-02  0.8497548E-01
          2   -1    0    0  501    0  0.00000000000E+00  0.00000000000E+00  0.16194538576E+04  0.16194538576E+04  0.00000000000E+00 0.  1.
         -2   -1    0    0    0  501 -0.00000000000E+00 -0.00000000000E+00 -0.78211913875E+03  0.78211913875E+03  0.00000000000E+00 0. -1.
         23    2    1    2    0    0  0.77004614792E+03 -0.70428655552E+03 -0.24766431015E+02  0.10479818414E+04  0.93069552476E+02 0.  0.
         11    1    3    3    0    0  0.45336928181E+03 -0.36302739482E+03 -0.39978901331E+02  0.58217772856E+03  0.00000000000E+00 0. -1.
        -11    1    3    3    0    0  0.31667686611E+03 -0.34125916070E+03  0.15212470316E+02  0.46580411284E+03  0.00000000000E+00 0.  1.
         22    1    1    2    0    0 -0.77004614792E+03  0.70428655552E+03  0.86210114991E+03  0.13535911550E+04  0.00000000000E+00 0.  1.
<mgrwt>
<rscale>  0 0.22508717E+04</rscale>
<asrwt>0</asrwt>
<pdfrwt beam="1">  1        2 0.24914675E+00 0.22508717E+04</pdfrwt>
<pdfrwt beam="2">  1       -2 0.12032602E+00 0.22508717E+04</pdfrwt>
<totfact> 0.52221401E+00</totfact>
</mgrwt>
</event>
<event>
 6    1  0.1719556E-004  0.5794851E+04  0.7818608E-02  0.7716371E-01
         -2   -1    0    0    0  501 -0.00000000000E+00  0.00000000000E+00  0.30139866966E+04  0.30139866966E+04  0.00000000000E+00 0. -1.
          2   -1    0    0  501    0  0.00000000000E+00 -0.00000000000E+00 -0.27853721499E+04  0.27853721499E+04  0.00000000000E+00 0.  1.
         23    2    1    2    0    0  0.69418158508E+03  0.67825686392E+03  0.28457663087E+04  0.30080502301E+04  0.89776706719E+02 0.  0.
         13    1    3    3    0    0  0.36622799464E+03  0.34150892722E+03  0.16012151115E+04  0.16776892217E+04  0.00000000000E+00 0. -1.
        -13    1    3    3    0    0  0.32795359044E+03  0.33674793670E+03  0.12445511972E+04  0.13303610084E+04  0.00000000000E+00 0.  1.
         22    1    1    2    0    0 -0.69418158508E+03 -0.67825686392E+03 -0.26171517620E+04  0.27913086164E+04  0.00000000000E+00 0.  1.
<mgrwt>
<rscale>  0 0.57948510E+04</rscale>
<asrwt>0</asrwt>
<pdfrwt beam="1">  1        2 0.42851879E+00 0.57948510E+04</pdfrwt>
<pdfrwt beam="2">  1       -2 0.46369026E+00 0.57948510E+04</pdfrwt>
<totfact> 0.45769752E-03</totfact>
</mgrwt>
</event>
<event>
 6    1  0.1719556E-004  0.3200489E+04  0.7818608E-02  0.8188688E-01
          2   -1    0    0  501    0  0.00000000000E+00  0.00000000000E+00  0.12234328671E+04  0.12234328671E+04  0.00000000000E+00 0.  1.
         -2   -1    0    0    0  501 -0.00000000000E+00 -0.00000000000E+00 -0.20931122484E+04  0.20931122484E+04  0.00000000000E+00 0. -1.
         23    2    1    2    0    0 -0.48207465831E+02 -0.48098791959E+03 -0.20143241946E+04  0.20740133907E+04  0.10176563921E+03 0.  0.
         11    1    3    3    0    0 -0.56197731004E+02 -0.12743738114E+03 -0.50948422090E+03  0.52817860845E+03  0.00000000000E+00 0. -1.
        -11    1    3    3    0    0  0.79902651731E+01 -0.35355053845E+03 -0.15048399737E+04  0.15458347823E+04  0.00000000000E+00 0.  1.
         22    1    1    2    0    0  0.48207465831E+02  0.48098791959E+03  0.11446448133E+04  0.12425317248E+04  0.00000000000E+00 0.  1.
<mgrwt>
<rscale>  0 0.32004889E+04</rscale>
<asrwt>0</asrwt>
<pdfrwt beam="1">  1        2 0.18822045E+00 0.32004889E+04</pdfrwt>
<pdfrwt beam="2">  1       -2 0.32201726E+00 0.32004889E+04</pdfrwt>
<totfact> 0.35923219E-01</totfact>
</mgrwt>
</event>
<event>
 6    1  0.1719556E-004  0.3571715E+03  0.7818608E-02  0.1059709E+00
         -2   -1    0    0    0  501 -0.00000000000E+00  0.00000000000E+00  0.75842193987E+03  0.75842193987E+03  0.00000000000E+00 0. -1.
          2   -1    0    0  501    0  0.00000000000E+00 -0.00000000000E+00 -0.42051623727E+02  0.42051623727E+02  0.00000000000E+00 0.  1.
         23    2    1    2    0    0  0.16157125717E+03 -0.64401354554E+01  0.47367251908E+03  0.50884200291E+03  0.91693958946E+02 0.  0.
         13    1    3    3    0    0  0.12104360254E+03  0.31021613064E+02  0.26480974449E+03  0.29281068111E+03  0.00000000000E+00 0.  1.
        -13    1    3    3    0    0  0.40527654634E+02 -0.37461748520E+02  0.20886277458E+03  0.21603132180E+03  0.00000000000E+00 0. -1.
         22    1    1    2    0    0 -0.16157125717E+03  0.64401354554E+01  0.24269779707E+03  0.29163156069E+03  0.00000000000E+00 0.  1.
<mgrwt>
<rscale>  0 0.35717152E+03</rscale>
<asrwt>0</asrwt>
<pdfrwt beam="1">  1        2 0.64694811E-02 0.35717152E+03</pdfrwt>
<pdfrwt beam="2">  1       -2 0.11668029E+00 0.35717152E+03</pdfrwt>
<totfact> 0.66892156E+02</totfact>
</mgrwt>
</event>
<event>
 6    1  0.1719556E-004  0.3733857E+04  0.7818608E-02  0.8060500E-01
          1   -1    0    0  501    0  0.00000000000E+00  0.00000000000E+00  0.18825327867E+04  0.18825327867E+04  0.00000000000E+00 0. -1.
         -1   -1    0    0    0  501 -0.00000000000E+00 -0.00000000000E+00 -0.18514534795E+04  0.18514534795E+04  0.00000000000E+00 0.  1.
         23    2    1    2    0    0  0.62415998285E+03 -0.10910691200E+04 -0.13633532765E+04  0.18566344773E+04  0.91388823433E+02 0.  0.
         13    1    3    3    0    0  0.24662861912E+03 -0.47984564741E+03 -0.64139239669E+03  0.83812989902E+03  0.00000000000E+00 0. -1.
        -13    1    3    3    0    0  0.37753136373E+03 -0.61122347264E+03 -0.72196087978E+03  0.10185045783E+04  0.00000000000E+00 0.  1.
         22    1    1    2    0    0 -0.62415998285E+03  0.10910691200E+04  0.13944325836E+04  0.18773517889E+04  0.00000000000E+00 0. -1.
<mgrwt>
<rscale>  0 0.37338569E+04</rscale>
<asrwt>0</asrwt>
<pdfrwt beam="1">  1        1 0.28962043E+00 0.37338569E+04</pdfrwt>
<pdfrwt beam="2">  1       -1 0.28483900E+00 0.37338569E+04</pdfrwt>
<totfact> 0.11862340E-01</totfact>
</mgrwt>
</event>
<event>
 6    1  0.1719556E-004  0.1136374E+04  0.7818608E-02  0.9170447E-01
          2   -1    0    0  501    0  0.00000000000E+00  0.00000000000E+00  0.13284701975E+04  0.13284701975E+04  0.00000000000E+00 0.  1.
         -2   -1    0    0    0  501 -0.00000000000E+00 -0.00000000000E+00 -0.24301388664E+03  0.24301388664E+03  0.00000000000E+00 0. -1.
         23    2    1    2    0    0 -0.32288753458E+02 -0.37246419453E+03 -0.40135050962E+02  0.38542841360E+03  0.84688251146E+02 0.  0.
         11    1    3    3    0    0 -0.60111516829E+02 -0.25523889861E+03 -0.37731861112E+02  0.26492259844E+03  0.00000000000E+00 0. -1.
        -11    1    3    3    0    0  0.27822763371E+02 -0.11722529592E+03 -0.24031898506E+01  0.12050581516E+03  0.00000000000E+00 0.  1.
         22    1    1    2    0    0  0.32288753458E+02  0.37246419453E+03  0.11255913618E+04  0.11860556705E+04  0.00000000000E+00 0.  1.
<mgrwt>
<rscale>  0 0.11363744E+04</rscale>
<asrwt>0</asrwt>
<pdfrwt beam="1">  1        2 0.20438003E+00 0.11363744E+04</pdfrwt>
<pdfrwt beam="2">  1       -2 0.37386753E-01 0.11363744E+04</pdfrwt>
<totfact> 0.10626956E+02</totfact>
</mgrwt>
</event>
<event>
 6    1  0.1719556E-004  0.1400848E+04  0.7818608E-02  0.8953205E-01
          2   -1    0    0  501    0  0.00000000000E+00  0.00000000000E+00  0.14308906704E+04  0.14308906704E+04  0.00000000000E+00 0.  1.
         -2   -1    0    0    0  501 -0.00000000000E+00 -0.00000000000E+00 -0.34285906519E+03  0.34285906519E+03  0.00000000000E+00 0. -1.
         23    2    1    2    0    0  0.64280136858E+03 -0.16939926694E+03  0.81335960357E+03  0.10544901027E+04  0.92227006945E+02 0.  0.
         11    1    3    3    0    0  0.15246550888E+03 -0.38315523702E+02  0.25812043383E+03  0.30222503059E+03  0.00000000000E+00 0. -1.
        -11    1    3    3    0    0  0.49033585971E+03 -0.13108374324E+03  0.55523916974E+03  0.75226507208E+03  0.00000000000E+00 0.  1.
         22    1    1    2    0    0 -0.64280136858E+03  0.16939926694E+03  0.27467200167E+03  0.71925963295E+03  0.00000000000E+00 0. -1.
<mgrwt>
<rscale>  0 0.14008481E+04</rscale>
<asrwt>0</asrwt>
<pdfrwt beam="1">  1        2 0.22013702E+00 0.14008481E+04</pdfrwt>
<pdfrwt beam="2">  1       -2 0.52747549E-01 0.14008481E+04</pdfrwt>
<totfact> 0.45838345E+01</totfact>
</mgrwt>
</event>
<event>
 6    1  0.1719556E-004  0.2593726E+04  0.7818608E-02  0.8370335E-01
          2   -1    0    0  501    0  0.00000000000E+00  0.00000000000E+00  0.14118467820E+04  0.14118467820E+04  0.00000000000E+00 0.  1.
         -2   -1    0    0    0  501 -0.00000000000E+00 -0.00000000000E+00 -0.11912440300E+04  0.11912440300E+04  0.00000000000E+00 0. -1.
         23    2    1    2    0    0 -0.12565492861E+04 -0.19251206058E+03  0.35985082159E+03  0.13242761160E+04  0.90761310822E+02 0.  0.
         13    1    3    3    0    0 -0.38449165299E+03 -0.52866307558E+02  0.15321350989E+03  0.41725658450E+03  0.00000000000E+00 0.  1.
        -13    1    3    3    0    0 -0.87205763314E+03 -0.13964575303E+03  0.20663731170E+03  0.90701953146E+03  0.00000000000E+00 0. -1.
         22    1    1    2    0    0  0.12565492861E+04  0.19251206058E+03 -0.13924806966E+03  0.12788146961E+04  0.00000000000E+00 0.  1.
<mgrwt>
<rscale>  0 0.25937263E+04</rscale>
<asrwt>0</asrwt>
<pdfrwt beam="1">  1        2 0.21720720E+00 0.25937263E+04</pdfrwt>
<pdfrwt beam="2">  1       -2 0.18326831E+00 0.25937263E+04</pdfrwt>
<totfact> 0.21711085E+00</totfact>
</mgrwt>
</event>
<event>
 6    1  0.1719556E-004  0.1040574E+04  0.7818608E-02  0.9265131E-01
         -2   -1    0    0    0  501 -0.00000000000E+00  0.00000000000E+00  0.17657907741E+03  0.17657907741E+03  0.00000000000E+00 0. -1.
          2   -1    0    0  501    0  0.00000000000E+00 -0.00000000000E+00 -0.15330149759E+04  0.15330149759E+04  0.00000000000E+00 0.  1.
         23    2    1    2    0    0  0.43339222204E+03 -0.30410670164E+02 -0.22510848353E+03  0.49771314050E+03  0.91054455599E+02 0.  0.
         11    1    3    3    0    0  0.57693555590E+02  0.17912164676E+02 -0.75292916523E+01  0.60877600419E+02  0.00000000000E+00 0.  1.
        -11    1    3    3    0    0  0.37569866645E+03 -0.48322834840E+02 -0.21757919188E+03  0.43683554008E+03  0.00000000000E+00 0. -1.
         22    1    1    2    0    0 -0.43339222204E+03  0.30410670164E+02 -0.11313274149E+04  0.12118809128E+04  0.00000000000E+00 0.  1.
<mgrwt>
<rscale>  0 0.10405736E+04</rscale>
<asrwt>0</asrwt>
<pdfrwt beam="1">  1        2 0.23584847E+00 0.10405736E+04</pdfrwt>
<pdfrwt beam="2">  1       -2 0.27166011E-01 0.10405736E+04</pdfrwt>
<totfact> 0.14921379E+02</totfact>
</mgrwt>
</event>
<event>
 6    1  0.1719556E-004  0.2363537E+04  0.7818608E-02  0.8453282E-01
          1   -1    0    0  501    0  0.00000000000E+00  0.00000000000E+00  0.87261853463E+03  0.87261853463E+03  0.00000000000E+00 0.  1.
         -1   -1    0    0    0  501 -0.00000000000E+00 -0.00000000000E+00 -0.16004439561E+04  0.16004439561E+04  0.00000000000E+00 0. -1.
         23    2    1    2    0    0 -0.10004827849E+04  0.57331979372E+03 -0.62610321421E+03  0.13154750011E+04  0.93850172793E+02 0.  0.
         13    1    3    3    0    0 -0.63425871924E+03  0.34906570999E+03 -0.44211326329E+03  0.84828953218E+03  0.00000000000E+00 0. -1.
        -13    1    3    3    0    0 -0.36622406562E+03  0.22425408373E+03 -0.18398995091E+03  0.46718546890E+03  0.00000000000E+00 0.  1.
         22    1    1    2    0    0  0.10004827849E+04 -0.57331979372E+03 -0.10172220722E+03  0.11575874896E+04  0.00000000000E+00 0.  1.
<mgrwt>
<rscale>  0 0.23635372E+04</rscale>
<asrwt>0</asrwt>
<pdfrwt beam="1">  1        1 0.13424901E+00 0.23635372E+04</pdfrwt>
<pdfrwt beam="2">  1       -1 0.24622214E+00 0.23635372E+04</pdfrwt>
<totfact> 0.12718287E+00</totfact>
</mgrwt>
</event>
<event>
 6    1  0.1719556E-004  0.2478649E+04  0.7818608E-02  0.8410632E-01
         -2   -1    0    0    0  501 -0.00000000000E+00  0.00000000000E+00  0.95086994078E+03  0.95086994078E+03  0.00000000000E+00 0. -1.
          2   -1    0    0  501    0  0.00000000000E+00 -0.00000000000E+00 -0.16152837845E+04  0.16152837845E+04  0.00000000000E+00 0.  1.
         23    2    1    2    0    0 -0.16823094649E+02 -0.44080090801E+03  0.86460586972E+03  0.97477390226E+03  0.89735130000E+02 0.  0.
         11    1    3    3    0    0 -0.10493969018E+01 -0.27815516317E+03  0.44876570555E+03  0.52797921788E+03  0.00000000000E+00 0.  1.
        -11    1    3    3    0    0 -0.15773697747E+02 -0.16264574484E+03  0.41584016418E+03  0.44679468439E+03  0.00000000000E+00 0. -1.
         22    1    1    2    0    0  0.16823094649E+02  0.44080090801E+03 -0.15290197135E+04  0.15913798230E+04  0.00000000000E+00 0.  1.
<mgrwt>
<rscale>  0 0.24786487E+04</rscale>
<asrwt>0</asrwt>
<pdfrwt beam="1">  1        2 0.24850519E+00 0.24786487E+04</pdfrwt>
<pdfrwt beam="2">  1       -2 0.14628769E+00 0.24786487E+04</pdfrwt>
<totfact> 0.31280995E+00</totfact>
</mgrwt>
</event>
<event>
 6    1  0.1719556E-004  0.1680902E+04  0.7818608E-02  0.8772332E-01
         -2   -1    0    0    0  501 -0.00000000000E+00  0.00000000000E+00  0.11144921903E+04  0.11144921903E+04  0.00000000000E+00 0. -1.
          2   -1    0    0  501    0  0.00000000000E+00 -0.00000000000E+00 -0.63379353911E+03  0.63379353911E+03  0.00000000000E+00 0.  1.
         23    2    1    2    0    0  0.68701543026E+03  0.33831195583E+03 -0.11326765301E+03  0.77914118320E+03  0.88239680793E+02 0.  0.
         13    1    3    3    0    0  0.60249025336E+03  0.29281109370E+03 -0.12808410724E+03  0.68201054282E+03  0.00000000000E+00 0. -1.
        -13    1    3    3    0    0  0.84525176905E+02  0.45500862133E+02  0.14816454237E+02  0.97130640386E+02  0.00000000000E+00 0.  1.
         22    1    1    2    0    0 -0.68701543026E+03 -0.33831195583E+03  0.59396630416E+03  0.96914454616E+03  0.00000000000E+00 0. -1.
<mgrwt>
<rscale>  0 0.16809021E+04</rscale>
<asrwt>0</asrwt>
<pdfrwt beam="1">  1        2 0.97506698E-01 0.16809021E+04</pdfrwt>
<pdfrwt beam="2">  1       -2 0.17146034E+00 0.16809021E+04</pdfrwt>
<totfact> 0.91915028E+00</totfact>
</mgrwt>
</event>
<event>
 6    1  0.1719556E-004  0.1890481E+04  0.7818608E-02  0.8659609E-01
         -2   -1    0    0    0  501 -0.00000000000E+00  0.00000000000E+00  0.61513945897E+03  0.61513945897E+03  0.00000000000E+00 0. -1.
          2   -1    0    0  501    0  0.00000000000E+00 -0.00000000000E+00 -0.14524836293E+04  0.14524836293E+04  0.00000000000E+00 0.  1.
         23    2    1    2    0    0 -0.84006306918E+03 -0.41344926221E+03 -0.29648009624E+03  0.98633672507E+03  0.91178040898E+02 0.  0.
         13    1    3    3    0    0 -0.73910449925E+03 -0.36119059325E+03 -0.29075953299E+03  0.87251086611E+03  0.00000000000E+00 0.  1.
        -13    1    3    3    0    0 -0.10095856993E+03 -0.52258668957E+02 -0.57205632456E+01  0.11382585896E+03  0.00000000000E+00 0. -1.
         22    1    1    2    0    0  0.84006306918E+03  0.41344926221E+03 -0.54086407409E+03  0.10812863632E+04  0.00000000000E+00 0. -1.
<mgrwt>
<rscale>  0 0.18904814E+04</rscale>
<asrwt>0</asrwt>
<pdfrwt beam="1">  1        2 0.22345902E+00 0.18904814E+04</pdfrwt>
<pdfrwt beam="2">  1       -2 0.94636841E-01 0.18904814E+04</pdfrwt>
<totfact> 0.11905502E+01</totfact>
</mgrwt>
</event>
<event>
 6    1  0.1719556E-004  0.2006669E+04  0.7818608E-02  0.8603509E-01
         -2   -1    0    0    0  501 -0.00000000000E+00  0.00000000000E+00  0.19419214340E+04  0.19419214340E+04  0.00000000000E+00 0. -1.
          2   -1    0    0  501    0  0.00000000000E+00 -0.00000000000E+00 -0.51839407712E+03  0.51839407712E+03  0.00000000000E+00 0.  1.
         23    2    1    2    0    0 -0.10490008211E+03  0.46944919831E+03  0.17898819334E+04  0.18556649899E+04  0.91807637521E+02 0.  0.
         13    1    3    3    0    0 -0.10763857798E+03  0.35257769667E+03  0.12475225408E+04  0.13008495630E+04  0.00000000000E+00 0. -1.
        -13    1    3    3    0    0  0.27384958690E+01  0.11687150164E+03  0.54235939256E+03  0.55481542693E+03  0.00000000000E+00 0.  1.
         22    1    1    2    0    0  0.10490008211E+03 -0.46944919831E+03 -0.36635457652E+03  0.60465052118E+03  0.00000000000E+00 0.  1.
<mgrwt>
<rscale>  0 0.20066694E+04</rscale>
<asrwt>0</asrwt>
<pdfrwt beam="1">  1        2 0.79752936E-01 0.20066694E+04</pdfrwt>
<pdfrwt beam="2">  1       -2 0.29875714E+00 0.20066694E+04</pdfrwt>
<totfact> 0.17747868E+00</totfact>
</mgrwt>
</event>
<event>
 6    1  0.1719556E-004  0.2019357E+04  0.7818608E-02  0.8597624E-01
          2   -1    0    0  501    0  0.00000000000E+00  0.00000000000E+00  0.23657390427E+04  0.23657390427E+04  0.00000000000E+00 0.  1.
         -2   -1    0    0    0  501 -0.00000000000E+00 -0.00000000000E+00 -0.43092263925E+03  0.43092263925E+03  0.00000000000E+00 0. -1.
         23    2    1    2    0    0 -0.57007524495E+03 -0.48919724653E+03  0.18994288740E+04  0.20446297623E+04  0.91548275830E+02 0.  0.
         11    1    3    3    0    0 -0.48431463725E+03 -0.36791871898E+03  0.15236783488E+04  0.16405854327E+04  0.00000000000E+00 0. -1.
        -11    1    3    3    0    0 -0.85760607695E+02 -0.12127852755E+03  0.37575052524E+03  0.40404432961E+03  0.00000000000E+00 0.  1.
         22    1    1    2    0    0  0.57007524495E+03  0.48919724653E+03  0.35387529498E+02  0.75203191964E+03  0.00000000000E+00 0. -1.
<mgrwt>
<rscale>  0 0.20193568E+04</rscale>
<asrwt>0</asrwt>
<pdfrwt beam="1">  1        2 0.36395985E+00 0.20193568E+04</pdfrwt>
<pdfrwt beam="2">  1       -2 0.66295792E-01 0.20193568E+04</pdfrwt>
<totfact> 0.80734427E+00</totfact>
</mgrwt>
</event>
<event>
 6    1  0.1719556E-004  0.9837959E+03  0.7818608E-02  0.9326498E-01
         -2   -1    0    0    0  501 -0.00000000000E+00  0.00000000000E+00  0.23937321698E+03  0.23937321698E+03  0.00000000000E+00 0. -1.
          2   -1    0    0  501    0  0.00000000000E+00 -0.00000000000E+00 -0.10108215307E+04  0.10108215307E+04  0.00000000000E+00 0.  1.
         23    2    1    2    0    0 -0.13659836522E+03 -0.11479883494E+03  0.18725294474E+03  0.27503015189E+03  0.93488144980E+02 0.  0.
         11    1    3    3    0    0 -0.12260847244E+03 -0.13070812610E+03  0.17535383798E+03  0.25073176950E+03  0.00000000000E+00 0. -1.
        -11    1    3    3    0    0 -0.13989892775E+02  0.15909291160E+02  0.11899106765E+02  0.24298382392E+02  0.00000000000E+00 0.  1.
         22    1    1    2    0    0  0.13659836522E+03  0.11479883494E+03 -0.95870125844E+03  0.97516459575E+03  0.00000000000E+00 0.  1.
<mgrwt>
<rscale>  0 0.98379592E+03</rscale>
<asrwt>0</asrwt>
<pdfrwt beam="1">  1        2 0.15551100E+00 0.98379592E+03</pdfrwt>
<pdfrwt beam="2">  1       -2 0.36826649E-01 0.98379592E+03</pdfrwt>
<totfact> 0.17185867E+02</totfact>
</mgrwt>
</event>
<event>
 6    1  0.1719556E-004  0.3806154E+04  0.7818608E-02  0.8044836E-01
          2   -1    0    0  501    0  0.00000000000E+00  0.00000000000E+00  0.22685604464E+04  0.22685604464E+04  0.00000000000E+00 0.  1.
         -2   -1    0    0    0  501 -0.00000000000E+00 -0.00000000000E+00 -0.15964759548E+04  0.15964759548E+04  0.00000000000E+00 0. -1.
         23    2    1    2    0    0  0.34960448435E+03 -0.20030799349E+03  0.22237750678E+04  0.22618863048E+04  0.92776699694E+02 0.  0.
         11    1    3    3    0    0  0.10454275135E+03 -0.52363231576E+02  0.43914505985E+03  0.45444414230E+03  0.00000000000E+00 0. -1.
        -11    1    3    3    0    0  0.24506173301E+03 -0.14794476191E+03  0.17846300079E+04  0.18074421625E+04  0.00000000000E+00 0.  1.
         22    1    1    2    0    0 -0.34960448435E+03  0.20030799349E+03 -0.15516905761E+04  0.16031500964E+04  0.00000000000E+00 0. -1.
<mgrwt>
<rscale>  0 0.38061541E+04</rscale>
<asrwt>0</asrwt>
<pdfrwt beam="1">  1        2 0.34900930E+00 0.38061541E+04</pdfrwt>
<pdfrwt beam="2">  1       -2 0.24561168E+00 0.38061541E+04</pdfrwt>
<totfact> 0.25890599E-01</totfact>
</mgrwt>
</event>
<event>
 6    1  0.1719556E-004  0.3328470E+04  0.7818608E-02  0.8155689E-01
         -4   -1    0    0    0  501 -0.00000000000E+00  0.00000000000E+00  0.24194036130E+04  0.24194036130E+04  0.00000000000E+00 0. -1.
          4   -1    0    0  501    0  0.00000000000E+00 -0.00000000000E+00 -0.11447773325E+04  0.11447773325E+04  0.00000000000E+00 0.  1.
         23    2    1    2    0    0 -0.48464408998E+03  0.74412650315E+03  0.21433260396E+04  0.23219074579E+04  0.93827417745E+02 0.  0.
         11    1    3    3    0    0 -0.26714112202E+03  0.45228053492E+03  0.11604059808E+04  0.12737598289E+04  0.00000000000E+00 0. -1.
        -11    1    3    3    0    0 -0.21750296796E+03  0.29184596823E+03  0.98292005878E+03  0.10481476290E+04  0.00000000000E+00 0.  1.
         22    1    1    2    0    0  0.48464408998E+03 -0.74412650315E+03 -0.86869975913E+03  0.12422734877E+04  0.00000000000E+00 0.  1.
<mgrwt>
<rscale>  0 0.33284702E+04</rscale>
<asrwt>0</asrwt>
<pdfrwt beam="1">  1        4 0.17611959E+00 0.33284702E+04</pdfrwt>
<pdfrwt beam="2">  1       -4 0.37221594E+00 0.33284702E+04</pdfrwt>
<totfact> 0.33279201E-03</totfact>
</mgrwt>
</event>
<event>
 6    1  0.1719556E-004  0.2063841E+04  0.7818608E-02  0.8577341E-01
          2   -1    0    0  501    0  0.00000000000E+00  0.00000000000E+00  0.18005298855E+04  0.18005298855E+04  0.00000000000E+00 0.  1.
         -2   -1    0    0    0  501 -0.00000000000E+00 -0.00000000000E+00 -0.59141471541E+03  0.59141471541E+03  0.00000000000E+00 0. -1.
         23    2    1    2    0    0 -0.54640685567E+03 -0.86039147651E+03  0.77755466169E+03  0.12851119952E+04  0.89931326191E+02 0.  0.
         11    1    3    3    0    0 -0.27604771195E+03 -0.38393820119E+03  0.40515324507E+03  0.62270380888E+03  0.00000000000E+00 0. -1.
        -11    1    3    3    0    0 -0.27035914372E+03 -0.47645327532E+03  0.37240141662E+03  0.66240818628E+03  0.00000000000E+00 0.  1.
         22    1    1    2    0    0  0.54640685567E+03  0.86039147651E+03  0.43156050842E+03  0.11068326058E+04  0.00000000000E+00 0. -1.
<mgrwt>
<rscale>  0 0.20638410E+04</rscale>
<asrwt>0</asrwt>
<pdfrwt beam="1">  1        2 0.27700460E+00 0.20638410E+04</pdfrwt>
<pdfrwt beam="2">  1       -2 0.90986880E-01 0.20638410E+04</pdfrwt>
<totfact> 0.82126494E+00</totfact>
</mgrwt>
</event>
<event>
 6    1  0.1719556E-004  0.3957011E+03  0.7818608E-02  0.1045278E+00
         -1   -1    0    0    0  501 -0.00000000000E+00  0.00000000000E+00  0.35504375251E+02  0.35504375251E+02  0.00000000000E+00 0. -1.
          1   -1    0    0  501    0  0.00000000000E+00 -0.00000000000E+00 -0.11025357251E+04  0.11025357251E+04  0.00000000000E+00 0.  1.
         23    2    1    2    0    0  0.97159607659E+02 -0.15010916818E+03 -0.40386623349E+03  0.45119170130E+03  0.92158911829E+02 0.  0.
         11    1    3    3    0    0  0.11486613215E+03 -0.13803952684E+03 -0.36599541901E+03  0.40767853270E+03  0.00000000000E+00 0. -1.
        -11    1    3    3    0    0 -0.17706524496E+02 -0.12069641346E+02 -0.37870814482E+02  0.43513168598E+02  0.00000000000E+00 0.  1.
         22    1    1    2    0    0 -0.97159607659E+02  0.15010916818E+03 -0.66316511634E+03  0.68684839904E+03  0.00000000000E+00 0. -1.
<mgrwt>
<rscale>  0 0.39570111E+03</rscale>
<asrwt>0</asrwt>
<pdfrwt beam="1">  1        1 0.16962084E+00 0.39570111E+03</pdfrwt>
<pdfrwt beam="2">  1       -1 0.54622129E-02 0.39570111E+03</pdfrwt>
<totfact> 0.20707814E+03</totfact>
</mgrwt>
</event>
<event>
 6    1  0.1719556E-004  0.2064972E+04  0.7818608E-02  0.8576832E-01
          2   -1    0    0  501    0  0.00000000000E+00  0.00000000000E+00  0.22682966951E+04  0.22682966951E+04  0.00000000000E+00 0.  1.
         -2   -1    0    0    0  501 -0.00000000000E+00 -0.00000000000E+00 -0.46996837428E+03  0.46996837428E+03  0.00000000000E+00 0. -1.
         23    2    1    2    0    0 -0.25338968308E+03 -0.90309243961E+03  0.33536351909E+03  0.10004364538E+04  0.92855383145E+02 0.  0.
         13    1    3    3    0    0 -0.15943887496E+03 -0.46731853446E+03  0.21599729220E+03  0.53894544969E+03  0.00000000000E+00 0. -1.
        -13    1    3    3    0    0 -0.93950808120E+02 -0.43577390515E+03  0.11936622690E+03  0.46149100411E+03  0.00000000000E+00 0.  1.
         22    1    1    2    0    0  0.25338968308E+03  0.90309243961E+03  0.14629648017E+04  0.17378286155E+04  0.00000000000E+00 0.  1.
<mgrwt>
<rscale>  0 0.20649724E+04</rscale>
<asrwt>0</asrwt>
<pdfrwt beam="1">  1        2 0.34896872E+00 0.20649724E+04</pdfrwt>
<pdfrwt beam="2">  1       -2 0.72302828E-01 0.20649724E+04</pdfrwt>
<totfact> 0.75614039E+00</totfact>
</mgrwt>
</event>
<event>
 6    1  0.1719556E-004  0.1203299E+04  0.7818608E-02  0.9109974E-01
         -2   -1    0    0    0  501 -0.00000000000E+00  0.00000000000E+00  0.53017343985E+03  0.53017343985E+03  0.00000000000E+00 0. -1.
          2   -1    0    0  501    0  0.00000000000E+00 -0.00000000000E+00 -0.68276178875E+03  0.68276178875E+03  0.00000000000E+00 0.  1.
         23    2    1    2    0    0  0.12770314914E+03 -0.17322900661E+03 -0.63928106502E+03  0.68078282284E+03  0.92024935491E+02 0.  0.
         13    1    3    3    0    0  0.95511804154E+02 -0.10122410842E+03 -0.27677516069E+03  0.30979560106E+03  0.00000000000E+00 0. -1.
        -13    1    3    3    0    0  0.32191344985E+02 -0.72004898195E+02 -0.36250590433E+03  0.37098722179E+03  0.00000000000E+00 0.  1.
         22    1    1    2    0    0 -0.12770314914E+03  0.17322900661E+03  0.48669271612E+03  0.53215240576E+03  0.00000000000E+00 0.  1.
<mgrwt>
<rscale>  0 0.12032991E+04</rscale>
<asrwt>0</asrwt>
<pdfrwt beam="1">  1        2 0.10504027E+00 0.12032991E+04</pdfrwt>
<pdfrwt beam="2">  1       -2 0.81565145E-01 0.12032991E+04</pdfrwt>
<totfact> 0.55224333E+01</totfact>
</mgrwt>
</event>
<event>
 6    1  0.1719556E-004  0.1562033E+04  0.7818608E-02  0.8844218E-01
          1   -1    0    0  501    0  0.00000000000E+00  0.00000000000E+00  0.13671869860E+04  0.13671869860E+04  0.00000000000E+00 0.  1.
         -1   -1    0    0    0  501 -0.00000000000E+00 -0.00000000000E+00 -0.44616202025E+03  0.44616202025E+03  0.00000000000E+00 0. -1.
         23    2    1    2    0    0 -0.21577691792E+03  0.21219392413E+03  0.12944708587E+04  0.13326747146E+04  0.93707797605E+02 0.  0.
         13    1    3    3    0    0 -0.37697942266E+02  0.17309696195E+01  0.10221910094E+03  0.10896272621E+03  0.00000000000E+00 0. -1.
        -13    1    3    3    0    0 -0.17807897565E+03  0.21046295451E+03  0.11922517577E+04  0.12237119884E+04  0.00000000000E+00 0.  1.
         22    1    1    2    0    0  0.21577691792E+03 -0.21219392413E+03 -0.37344589288E+03  0.48067429165E+03  0.00000000000E+00 0. -1.
<mgrwt>
<rscale>  0 0.15620332E+04</rscale>
<asrwt>0</asrwt>
<pdfrwt beam="1">  1        1 0.21033646E+00 0.15620332E+04</pdfrwt>
<pdfrwt beam="2">  1       -1 0.68640312E-01 0.15620332E+04</pdfrwt>
<totfact> 0.16752616E+01</totfact>
</mgrwt>
</event>
<event>
 6    1  0.1719556E-004  0.2121486E+04  0.7818608E-02  0.8551837E-01
         -2   -1    0    0    0  501 -0.00000000000E+00  0.00000000000E+00  0.27364348249E+04  0.27364348249E+04  0.00000000000E+00 0.  1.
          2   -1    0    0  501    0  0.00000000000E+00 -0.00000000000E+00 -0.41118302530E+03  0.41118302530E+03  0.00000000000E+00 0. -1.
         23    2    1    2    0    0 -0.46411327017E+03  0.70704826768E+03  0.22129520556E+03  0.88003064571E+03  0.10081661070E+03 0.  0.
         11    1    3    3    0    0 -0.36327370066E+03  0.61976143644E+03  0.18620491985E+03  0.74212148053E+03  0.00000000000E+00 0. -1.
        -11    1    3    3    0    0 -0.10083956952E+03  0.87286831245E+02  0.35090285708E+02  0.13790916518E+03  0.00000000000E+00 0.  1.
         22    1    1    2    0    0  0.46411327017E+03 -0.70704826768E+03  0.21039565940E+04  0.22675872045E+04  0.00000000000E+00 0.  1.
<mgrwt>
<rscale>  0 0.21214858E+04</rscale>
<asrwt>0</asrwt>
<pdfrwt beam="1">  1        2 0.63258928E-01 0.21214858E+04</pdfrwt>
<pdfrwt beam="2">  1       -2 0.42098996E+00 0.21214858E+04</pdfrwt>
<totfact> 0.38364290E-01</totfact>
</mgrwt>
</event>
<event>
 6    1  0.1719556E-004  0.1637883E+04  0.7818608E-02  0.8797607E-01
         -2   -1    0    0    0  501 -0.00000000000E+00  0.00000000000E+00  0.20606883754E+03  0.20606883754E+03  0.00000000000E+00 0. -1.
          2   -1    0    0  501    0  0.00000000000E+00 -0.00000000000E+00 -0.32545701549E+04  0.32545701549E+04  0.00000000000E+00 0.  1.
         23    2    1    2    0    0  0.24203818172E+03 -0.54962379415E+03 -0.36035278977E+03  0.70622230231E+03  0.90702870301E+02 0.  0.
         13    1    3    3    0    0  0.71180667379E+02 -0.18505285593E+03 -0.16862912856E+03  0.26028259622E+03  0.00000000000E+00 0. -1.
        -13    1    3    3    0    0  0.17085751434E+03 -0.36457093822E+03 -0.19172366122E+03  0.44593970610E+03  0.00000000000E+00 0.  1.
         22    1    1    2    0    0 -0.24203818172E+03  0.54962379415E+03 -0.26881485276E+04  0.27544166901E+04  0.00000000000E+00 0.  1.
<mgrwt>
<rscale>  0 0.16378834E+04</rscale>
<asrwt>0</asrwt>
<pdfrwt beam="1">  1        2 0.50070311E+00 0.16378834E+04</pdfrwt>
<pdfrwt beam="2">  1       -2 0.31702898E-01 0.16378834E+04</pdfrwt>
<totfact> 0.10640815E+01</totfact>
</mgrwt>
</event>
<event>
 6    1  0.1719556E-004  0.3176102E+04  0.7818608E-02  0.8195157E-01
          1   -1    0    0  501    0  0.00000000000E+00  0.00000000000E+00  0.38768876126E+04  0.38768876126E+04  0.00000000000E+00 0.  1.
         -1   -1    0    0    0  501 -0.00000000000E+00 -0.00000000000E+00 -0.65049747131E+03  0.65049747131E+03  0.00000000000E+00 0. -1.
         23    2    1    2    0    0 -0.64477080716E+03 -0.13979085978E+04  0.10662640156E+04  0.18748348543E+04  0.90603193092E+02 0.  0.
         11    1    3    3    0    0 -0.36381753389E+03 -0.86745490157E+03  0.61493956688E+03  0.11238291130E+04  0.00000000000E+00 0. -1.
        -11    1    3    3    0    0 -0.28095327327E+03 -0.53045369619E+03  0.45132444868E+03  0.75100574135E+03  0.00000000000E+00 0.  1.
         22    1    1    2    0    0  0.64477080716E+03  0.13979085978E+04  0.21601261258E+04  0.26525502296E+04  0.00000000000E+00 0. -1.
<mgrwt>
<rscale>  0 0.31761018E+04</rscale>
<asrwt>0</asrwt>
<pdfrwt beam="1">  1        1 0.59644423E+00 0.31761018E+04</pdfrwt>
<pdfrwt beam="2">  1       -1 0.10007654E+00 0.31761018E+04</pdfrwt>
<totfact> 0.97722897E-02</totfact>
</mgrwt>
</event>
<event>
 6    1  0.1719556E-004  0.3267325E+04  0.7818608E-02  0.8171260E-01
         -2   -1    0    0    0  501 -0.00000000000E+00  0.00000000000E+00  0.12919289594E+04  0.12919289594E+04  0.00000000000E+00 0. -1.
          2   -1    0    0  501    0  0.00000000000E+00 -0.00000000000E+00 -0.20657899316E+04  0.20657899316E+04  0.00000000000E+00 0.  1.
         23    2    1    2    0    0 -0.54491921713E+03 -0.13928503505E+04  0.28485673507E+03  0.15252745575E+04  0.91378686085E+02 0.  0.
         13    1    3    3    0    0 -0.85980560812E+02 -0.31310477349E+03  0.45395663115E+02  0.32785365981E+03  0.00000000000E+00 0. -1.
        -13    1    3    3    0    0 -0.45893865632E+03 -0.10797455770E+04  0.23946107196E+03  0.11974208977E+04  0.00000000000E+00 0.  1.
         22    1    1    2    0    0  0.54491921713E+03  0.13928503505E+04 -0.10587177073E+04  0.18324443336E+04  0.00000000000E+00 0.  1.
<mgrwt>
<rscale>  0 0.32673254E+04</rscale>
<asrwt>0</asrwt>
<pdfrwt beam="1">  1        2 0.31781383E+00 0.32673254E+04</pdfrwt>
<pdfrwt beam="2">  1       -2 0.19875830E+00 0.32673254E+04</pdfrwt>
<totfact> 0.69692158E-01</totfact>
</mgrwt>
</event>
<event>
 6    1  0.1719556E-004  0.1043523E+04  0.7818608E-02  0.9262057E-01
         -2   -1    0    0    0  501 -0.00000000000E+00  0.00000000000E+00  0.21660091269E+03  0.21660091269E+03  0.00000000000E+00 0. -1.
          2   -1    0    0  501    0  0.00000000000E+00 -0.00000000000E+00 -0.12568506432E+04  0.12568506432E+04  0.00000000000E+00 0.  1.
         23    2    1    2    0    0 -0.17143162463E+03 -0.25142011070E+03  0.67157042421E+02  0.32499579500E+03  0.92256839465E+02 0.  0.
         13    1    3    3    0    0 -0.11021649643E+03 -0.14887140433E+03 -0.52972240483E+01  0.18530631855E+03  0.00000000000E+00 0.  1.
        -13    1    3    3    0    0 -0.61215128204E+02 -0.10254870637E+03  0.72454266469E+02  0.13968947644E+03  0.00000000000E+00 0. -1.
         22    1    1    2    0    0  0.17143162463E+03  0.25142011070E+03 -0.11074067729E+04  0.11484557609E+04  0.00000000000E+00 0.  1.
<mgrwt>
<rscale>  0 0.10435229E+04</rscale>
<asrwt>0</asrwt>
<pdfrwt beam="1">  1        2 0.19336164E+00 0.10435229E+04</pdfrwt>
<pdfrwt beam="2">  1       -2 0.33323217E-01 0.10435229E+04</pdfrwt>
<totfact> 0.14667191E+02</totfact>
</mgrwt>
</event>
<event>
 6    1  0.1719556E-004  0.1736434E+04  0.7818608E-02  0.8740853E-01
          2   -1    0    0  501    0  0.00000000000E+00  0.00000000000E+00  0.15088353589E+04  0.15088353589E+04  0.00000000000E+00 0.  1.
         -2   -1    0    0    0  501 -0.00000000000E+00 -0.00000000000E+00 -0.49959093749E+03  0.49959093749E+03  0.00000000000E+00 0. -1.
         23    2    1    2    0    0  0.25500776823E+03  0.66156396262E+03  0.10807652311E+04  0.12958176628E+04  0.91619276596E+02 0.  0.
         11    1    3    3    0    0  0.16301602351E+03  0.52677215416E+03  0.84935126474E+03  0.10126503332E+04  0.00000000000E+00 0.  1.
        -11    1    3    3    0    0  0.91991744720E+02  0.13479180846E+03  0.23141396638E+03  0.28316732962E+03  0.00000000000E+00 0. -1.
         22    1    1    2    0    0 -0.25500776823E+03 -0.66156396262E+03 -0.71520809705E+02  0.71260863362E+03  0.00000000000E+00 0. -1.
<mgrwt>
<rscale>  0 0.17364337E+04</rscale>
<asrwt>0</asrwt>
<pdfrwt beam="1">  1        2 0.23212852E+00 0.17364337E+04</pdfrwt>
<pdfrwt beam="2">  1       -2 0.76860145E-01 0.17364337E+04</pdfrwt>
<totfact> 0.18003267E+01</totfact>
</mgrwt>
</event>
<event>
 6    1  0.1719556E-004  0.1749423E+04  0.7818608E-02  0.8733668E-01
         -1   -1    0    0    0  501 -0.00000000000E+00  0.00000000000E+00  0.73480798754E+03  0.73480798754E+03  0.00000000000E+00 0.  1.
          1   -1    0    0  501    0  0.00000000000E+00 -0.00000000000E+00 -0.10412521501E+04  0.10412521501E+04  0.00000000000E+00 0. -1.
         23    2    1    2    0    0 -0.22857084292E+02  0.50423974982E+03 -0.87590408182E+03  0.10150970825E+04  0.91836565131E+02 0.  0.
         13    1    3    3    0    0 -0.17816404529E+01  0.14035986621E+03 -0.33090683806E+03  0.35944874705E+03  0.00000000000E+00 0.  1.
        -13    1    3    3    0    0 -0.21075443839E+02  0.36387988361E+03 -0.54499724376E+03  0.65564833542E+03  0.00000000000E+00 0. -1.
         22    1    1    2    0    0  0.22857084292E+02 -0.50423974982E+03  0.56945991929E+03  0.76096305513E+03  0.00000000000E+00 0.  1.
<mgrwt>
<rscale>  0 0.17494232E+04</rscale>
<asrwt>0</asrwt>
<pdfrwt beam="1">  1        1 0.16019264E+00 0.17494232E+04</pdfrwt>
<pdfrwt beam="2">  1       -1 0.11304738E+00 0.17494232E+04</pdfrwt>
<totfact> 0.95272975E+00</totfact>
</mgrwt>
</event>
<event>
 6    1  0.1719556E-004  0.2013780E+04  0.7818608E-02  0.8600205E-01
         -1   -1    0    0    0  501 -0.00000000000E+00  0.00000000000E+00  0.47700450179E+03  0.47700450179E+03  0.00000000000E+00 0. -1.
          1   -1    0    0  501    0  0.00000000000E+00 -0.00000000000E+00 -0.21254043365E+04  0.21254043365E+04  0.00000000000E+00 0.  1.
         23    2    1    2    0    0  0.22404428815E+03  0.58076916114E+03 -0.18452629719E+04  0.19495353771E+04  0.90576429289E+02 0.  0.
         13    1    3    3    0    0  0.25607240061E+02  0.15170455190E+03 -0.53099639983E+03  0.55283557994E+03  0.00000000000E+00 0.  1.
        -13    1    3    3    0    0  0.19843704809E+03  0.42906460924E+03 -0.13142665720E+04  0.13966997971E+04  0.00000000000E+00 0. -1.
         22    1    1    2    0    0 -0.22404428815E+03 -0.58076916114E+03  0.19686313716E+03  0.65287346121E+03  0.00000000000E+00 0. -1.
<mgrwt>
<rscale>  0 0.20137800E+04</rscale>
<asrwt>0</asrwt>
<pdfrwt beam="1">  1        1 0.32698529E+00 0.20137800E+04</pdfrwt>
<pdfrwt beam="2">  1       -1 0.73385306E-01 0.20137800E+04</pdfrwt>
<totfact> 0.42456800E+00</totfact>
</mgrwt>
</event>
<event>
 6    1  0.1719556E-004  0.3826635E+04  0.7818608E-02  0.8040463E-01
         -2   -1    0    0    0  501 -0.00000000000E+00  0.00000000000E+00  0.21171634912E+04  0.21171634912E+04  0.00000000000E+00 0. -1.
          2   -1    0    0  501    0  0.00000000000E+00 -0.00000000000E+00 -0.17290979954E+04  0.17290979954E+04  0.00000000000E+00 0.  1.
         23    2    1    2    0    0  0.88479674159E+03 -0.11801756545E+04  0.14173084655E+04  0.20476450906E+04  0.91691228262E+02 0.  0.
         11    1    3    3    0    0  0.60154569162E+03 -0.78570650639E+03  0.10079313969E+04  0.14124863306E+04  0.00000000000E+00 0.  1.
        -11    1    3    3    0    0  0.28325104997E+03 -0.39446914809E+03  0.40937706857E+03  0.63515875998E+03  0.00000000000E+00 0. -1.
         22    1    1    2    0    0 -0.88479674159E+03  0.11801756545E+04 -0.10292429696E+04  0.17986163960E+04  0.00000000000E+00 0.  1.
<mgrwt>
<rscale>  0 0.38266346E+04</rscale>
<asrwt>0</asrwt>
<pdfrwt beam="1">  1        2 0.26601508E+00 0.38266346E+04</pdfrwt>
<pdfrwt beam="2">  1       -2 0.32571746E+00 0.38266346E+04</pdfrwt>
<totfact> 0.16679954E-01</totfact>
</mgrwt>
</event>
<event>
 6    1  0.1719556E-004  0.1913458E+04  0.7818608E-02  0.8648186E-01
         -2   -1    0    0    0  501 -0.00000000000E+00  0.00000000000E+00  0.26325811558E+03  0.26325811558E+03  0.00000000000E+00 0. -1.
          2   -1    0    0  501    0  0.00000000000E+00 -0.00000000000E+00 -0.34769310530E+04  0.34769310530E+04  0.00000000000E+00 0.  1.
         23    2    1    2    0    0  0.69359883144E+02  0.88281172921E+03 -0.23067832761E+04  0.24726655197E+04  0.93050238400E+02 0.  0.
         13    1    3    3    0    0  0.44122720086E+02  0.80241386492E+03 -0.20278532499E+04  0.21812848572E+04  0.00000000000E+00 0. -1.
        -13    1    3    3    0    0  0.25237163058E+02  0.80397864295E+02 -0.27893002620E+03  0.29138066253E+03  0.00000000000E+00 0.  1.
         22    1    1    2    0    0 -0.69359883144E+02 -0.88281172921E+03 -0.90688966134E+03  0.12675236489E+04  0.00000000000E+00 0. -1.
<mgrwt>
<rscale>  0 0.19134579E+04</rscale>
<asrwt>0</asrwt>
<pdfrwt beam="1">  1        2 0.53491248E+00 0.19134579E+04</pdfrwt>
<pdfrwt beam="2">  1       -2 0.40501248E-01 0.19134579E+04</pdfrwt>
<totfact> 0.45852012E+00</totfact>
</mgrwt>
</event>
<event>
 6    1  0.1719556E-004  0.2205327E+04  0.7818608E-02  0.8516214E-01
         -2   -1    0    0    0  501 -0.00000000000E+00  0.00000000000E+00  0.54282441488E+03  0.54282441488E+03  0.00000000000E+00 0. -1.
          2   -1    0    0  501    0  0.00000000000E+00 -0.00000000000E+00 -0.22398892111E+04  0.22398892111E+04  0.00000000000E+00 0.  1.
         23    2    1    2    0    0 -0.86558793883E+03 -0.39473636136E+03 -0.15486160720E+04  0.18198552259E+04  0.92747129818E+02 0.  0.
         11    1    3    3    0    0 -0.45003430784E+03 -0.25592470226E+03 -0.83340136700E+03  0.98111475882E+03  0.00000000000E+00 0. -1.
        -11    1    3    3    0    0 -0.41555363099E+03 -0.13881165910E+03 -0.71521470496E+03  0.83874046708E+03  0.00000000000E+00 0.  1.
         22    1    1    2    0    0  0.86558793883E+03  0.39473636136E+03 -0.14844872425E+03  0.96285840006E+03  0.00000000000E+00 0. -1.
<mgrwt>
<rscale>  0 0.22053268E+04</rscale>
<asrwt>0</asrwt>
<pdfrwt beam="1">  1        2 0.34459834E+00 0.22053268E+04</pdfrwt>
<pdfrwt beam="2">  1       -2 0.83511447E-01 0.22053268E+04</pdfrwt>
<totfact> 0.56184722E+00</totfact>
</mgrwt>
</event>
<event>
 6    1  0.1719556E-004  0.8768731E+03  0.7818608E-02  0.9454962E-01
          2   -1    0    0  501    0  0.00000000000E+00  0.00000000000E+00  0.19448139916E+04  0.19448139916E+04  0.00000000000E+00 0.  1.
         -2   -1    0    0    0  501 -0.00000000000E+00 -0.00000000000E+00 -0.98840617180E+02  0.98840617180E+02  0.00000000000E+00 0. -1.
         23    2    1    2    0    0  0.83095719687E+02  0.35087040188E+03  0.14944711888E+04  0.15400985304E+04  0.91893480681E+02 0.  0.
         11    1    3    3    0    0  0.20457245554E+01  0.20102176532E+03  0.85594491828E+03  0.87923582630E+03  0.00000000000E+00 0. -1.
        -11    1    3    3    0    0  0.81049995132E+02  0.14984863656E+03  0.63852627051E+03  0.66086270414E+03  0.00000000000E+00 0.  1.
         22    1    1    2    0    0 -0.83095719687E+02 -0.35087040188E+03  0.35150218568E+03  0.50355607839E+03  0.00000000000E+00 0. -1.
<mgrwt>
<rscale>  0 0.87687312E+03</rscale>
<asrwt>0</asrwt>
<pdfrwt beam="1">  1        2 0.29920212E+00 0.87687312E+03</pdfrwt>
<pdfrwt beam="2">  1       -2 0.15206250E-01 0.87687312E+03</pdfrwt>
<totfact> 0.24853742E+02</totfact>
</mgrwt>
</event>
<event>
 6    1  0.1719556E-004  0.5055621E+04  0.7818608E-02  0.7819984E-01
         -2   -1    0    0    0  501 -0.00000000000E+00  0.00000000000E+00  0.24677634494E+04  0.24677634494E+04  0.00000000000E+00 0. -1.
          2   -1    0    0  501    0  0.00000000000E+00 -0.00000000000E+00 -0.25893187533E+04  0.25893187533E+04  0.00000000000E+00 0.  1.
         23    2    1    2    0    0  0.14587886847E+04  0.58980076400E+03  0.19170987598E+04  0.24818075067E+04  0.90396227498E+02 0.  0.
         11    1    3    3    0    0  0.70758168419E+03  0.24754567871E+03  0.95589809766E+03  0.12147805876E+04  0.00000000000E+00 0.  1.
        -11    1    3    3    0    0  0.75120700050E+03  0.34225508530E+03  0.96120066213E+03  0.12670269192E+04  0.00000000000E+00 0. -1.
         22    1    1    2    0    0 -0.14587886847E+04 -0.58980076400E+03 -0.20386540637E+04  0.25752746959E+04  0.00000000000E+00 0.  1.
<mgrwt>
<rscale>  0 0.50556211E+04</rscale>
<asrwt>0</asrwt>
<pdfrwt beam="1">  1        2 0.39835673E+00 0.50556211E+04</pdfrwt>
<pdfrwt beam="2">  1       -2 0.37965592E+00 0.50556211E+04</pdfrwt>
<totfact> 0.22529001E-02</totfact>
</mgrwt>
</event>
<event>
 6    1  0.1719556E-004  0.1011911E+04  0.7818608E-02  0.9295576E-01
          2   -1    0    0  501    0  0.00000000000E+00  0.00000000000E+00  0.17113094291E+04  0.17113094291E+04  0.00000000000E+00 0.  1.
         -2   -1    0    0    0  501 -0.00000000000E+00 -0.00000000000E+00 -0.14958783595E+03  0.14958783595E+03  0.00000000000E+00 0. -1.
         23    2    1    2    0    0  0.42496184782E+03  0.24939552712E+03  0.61389106628E+03  0.79264008219E+03  0.92872803273E+02 0.  0.
         11    1    3    3    0    0  0.59297855841E+02  0.47354839115E+02  0.50092899873E+02  0.90928626476E+02  0.00000000000E+00 0.  1.
        -11    1    3    3    0    0  0.36566399198E+03  0.20204068800E+03  0.56379816641E+03  0.70171145572E+03  0.00000000000E+00 0. -1.
         22    1    1    2    0    0 -0.42496184782E+03 -0.24939552712E+03  0.94783052690E+03  0.10682571829E+04  0.00000000000E+00 0. -1.
<mgrwt>
<rscale>  0 0.10119112E+04</rscale>
<asrwt>0</asrwt>
<pdfrwt beam="1">  1        2 0.26327836E+00 0.10119112E+04</pdfrwt>
<pdfrwt beam="2">  1       -2 0.23013515E-01 0.10119112E+04</pdfrwt>
<totfact> 0.16072700E+02</totfact>
</mgrwt>
</event>
<event>
 6    1  0.1719556E-004  0.1843216E+04  0.7818608E-02  0.8683649E-01
          2   -1    0    0  501    0  0.00000000000E+00  0.00000000000E+00  0.19912322556E+04  0.19912322556E+04  0.00000000000E+00 0. -1.
         -2   -1    0    0    0  501 -0.00000000000E+00 -0.00000000000E+00 -0.42655079970E+03  0.42655079970E+03  0.00000000000E+00 0.  1.
         23    2    1    2    0    0 -0.43013565602E+03 -0.20625259117E+03 -0.24589153784E+03  0.54542321285E+03  0.97298606339E+02 0.  0.
         13    1    3    3    0    0 -0.15676016837E+03 -0.52673343613E+02 -0.39476299255E+02  0.17001943924E+03  0.00000000000E+00 0.  1.
        -13    1    3    3    0    0 -0.27337548765E+03 -0.15357924755E+03 -0.20641523858E+03  0.37540377362E+03  0.00000000000E+00 0. -1.
         22    1    1    2    0    0  0.43013565602E+03  0.20625259117E+03  0.18105729938E+04  0.18723598425E+04  0.00000000000E+00 0. -1.
<mgrwt>
<rscale>  0 0.18432164E+04</rscale>
<asrwt>0</asrwt>
<pdfrwt beam="1">  1        2 0.30634342E+00 0.18432164E+04</pdfrwt>
<pdfrwt beam="2">  1       -2 0.65623201E-01 0.18432164E+04</pdfrwt>
<totfact> 0.13594787E+01</totfact>
</mgrwt>
</event>
<event>
 6    1  0.1719556E-004  0.2588242E+04  0.7818608E-02  0.8372206E-01
         -2   -1    0    0    0  501 -0.00000000000E+00  0.00000000000E+00  0.77756849137E+03  0.77756849137E+03  0.00000000000E+00 0. -1.
          2   -1    0    0  501    0  0.00000000000E+00 -0.00000000000E+00 -0.21538286400E+04  0.21538286400E+04  0.00000000000E+00 0.  1.
         23    2    1    2    0    0  0.12191287343E+04  0.29222011672E+03 -0.10450091510E+04  0.16347110896E+04  0.92567560826E+02 0.  0.
         11    1    3    3    0    0  0.36582841861E+03  0.56053965204E+02 -0.34617432270E+03  0.50676339704E+03  0.00000000000E+00 0. -1.
        -11    1    3    3    0    0  0.85330031571E+03  0.23616615151E+03 -0.69883482834E+03  0.11279476926E+04  0.00000000000E+00 0.  1.
         22    1    1    2    0    0 -0.12191287343E+04 -0.29222011672E+03 -0.33125099758E+03  0.12966860417E+04  0.00000000000E+00 0. -1.
<mgrwt>
<rscale>  0 0.25882421E+04</rscale>
<asrwt>0</asrwt>
<pdfrwt beam="1">  1        2 0.33135825E+00 0.25882421E+04</pdfrwt>
<pdfrwt beam="2">  1       -2 0.11962592E+00 0.25882421E+04</pdfrwt>
<totfact> 0.25972176E+00</totfact>
</mgrwt>
</event>
<event>
 6    1  0.1719556E-004  0.1651565E+04  0.7818608E-02  0.8789481E-01
          2   -1    0    0  501    0  0.00000000000E+00  0.00000000000E+00  0.23275656157E+04  0.23275656157E+04  0.00000000000E+00 0.  1.
         -2   -1    0    0    0  501 -0.00000000000E+00 -0.00000000000E+00 -0.29297426525E+03  0.29297426525E+03  0.00000000000E+00 0. -1.
         23    2    1    2    0    0 -0.70603238353E+03  0.30160769819E+03  0.54944056169E+03  0.94867810568E+03  0.93039170047E+02 0.  0.
         13    1    3    3    0    0 -0.24289076649E+03  0.12022593737E+03  0.24612384517E+03  0.36609718330E+03  0.00000000000E+00 0. -1.
        -13    1    3    3    0    0 -0.46314161705E+03  0.18138176083E+03  0.30331671652E+03  0.58258092238E+03  0.00000000000E+00 0.  1.
         22    1    1    2    0    0  0.70603238353E+03 -0.30160769819E+03  0.14851507888E+04  0.16718617753E+04  0.00000000000E+00 0.  1.
<mgrwt>
<rscale>  0 0.16515651E+04</rscale>
<asrwt>0</asrwt>
<pdfrwt beam="1">  1        2 0.35808701E+00 0.16515651E+04</pdfrwt>
<pdfrwt beam="2">  1       -2 0.45072965E-01 0.16515651E+04</pdfrwt>
<totfact> 0.19518319E+01</totfact>
</mgrwt>
</event>
<event>
 6    1  0.1719556E-004  0.5328126E+04  0.7818608E-02  0.7779792E-01
          2   -1    0    0  501    0  0.00000000000E+00  0.00000000000E+00  0.29311442887E+04  0.29311442887E+04  0.00000000000E+00 0.  1.
         -2   -1    0    0    0  501 -0.00000000000E+00 -0.00000000000E+00 -0.24213174453E+04  0.24213174453E+04  0.00000000000E+00 0. -1.
         23    2    1    2    0    0  0.11634255110E+04  0.48777639866E+03  0.26112451695E+04  0.29014530199E+04  0.91343071766E+02 0.  0.
         13    1    3    3    0    0  0.14014686233E+03  0.91971795469E+02  0.35513584729E+03  0.39271035664E+03  0.00000000000E+00 0. -1.
        -13    1    3    3    0    0  0.10232786487E+04  0.39580460320E+03  0.22561093222E+04  0.25087426633E+04  0.00000000000E+00 0.  1.
         22    1    1    2    0    0 -0.11634255110E+04 -0.48777639866E+03 -0.21014183262E+04  0.24510087141E+04  0.00000000000E+00 0. -1.
<mgrwt>
<rscale>  0 0.53281257E+04</rscale>
<asrwt>0</asrwt>
<pdfrwt beam="1">  1        2 0.45094527E+00 0.53281257E+04</pdfrwt>
<pdfrwt beam="2">  1       -2 0.37251038E+00 0.53281257E+04</pdfrwt>
<totfact> 0.15253261E-02</totfact>
</mgrwt>
</event>
<event>
 6    1  0.1719556E-004  0.3622475E+03  0.7818608E-02  0.1057697E+00
          2   -1    0    0  501    0  0.00000000000E+00  0.00000000000E+00  0.69935725236E+03  0.69935725236E+03  0.00000000000E+00 0.  1.
         -2   -1    0    0    0  501 -0.00000000000E+00 -0.00000000000E+00 -0.46908520633E+02  0.46908520633E+02  0.00000000000E+00 0. -1.
         23    2    1    2    0    0 -0.99772661160E+02 -0.11013535405E+03  0.51711828582E+03  0.54527147030E+03  0.88460582558E+02 0.  0.
         13    1    3    3    0    0 -0.37301602791E+02 -0.70193762368E+02  0.14053610546E+03  0.16145888265E+03  0.00000000000E+00 0. -1.
        -13    1    3    3    0    0 -0.62471058369E+02 -0.39941591680E+02  0.37658218035E+03  0.38381258765E+03  0.00000000000E+00 0.  1.
         22    1    1    2    0    0  0.99772661160E+02  0.11013535405E+03  0.13533044591E+03  0.20099430270E+03  0.00000000000E+00 0. -1.
<mgrwt>
<rscale>  0 0.36224751E+03</rscale>
<asrwt>0</asrwt>
<pdfrwt beam="1">  1        2 0.10759342E+00 0.36224751E+03</pdfrwt>
<pdfrwt beam="2">  1       -2 0.72166960E-02 0.36224751E+03</pdfrwt>
<totfact> 0.46877778E+03</totfact>
</mgrwt>
</event>
<event>
 6    1  0.1719556E-004  0.1673654E+04  0.7818608E-02  0.8776535E-01
          1   -1    0    0  501    0  0.00000000000E+00  0.00000000000E+00  0.39553898120E+04  0.39553898120E+04  0.00000000000E+00 0.  1.
         -1   -1    0    0    0  501 -0.00000000000E+00 -0.00000000000E+00 -0.17704425313E+03  0.17704425313E+03  0.00000000000E+00 0. -1.
         23    2    1    2    0    0  0.70210496039E+03  0.37832932736E+02  0.30044429567E+04  0.30868203965E+04  0.86023104366E+02 0.  0.
         13    1    3    3    0    0  0.37907103922E+03  0.36995597672E+02  0.17964315553E+04  0.18363632157E+04  0.00000000000E+00 0.  1.
        -13    1    3    3    0    0  0.32303392117E+03  0.83733506468E+00  0.12080114013E+04  0.12504571808E+04  0.00000000000E+00 0. -1.
         22    1    1    2    0    0 -0.70210496039E+03 -0.37832932736E+02  0.77390260219E+03  0.10456136686E+04  0.00000000000E+00 0. -1.
<mgrwt>
<rscale>  0 0.16736535E+04</rscale>
<asrwt>0</asrwt>
<pdfrwt beam="1">  1        1 0.60852144E+00 0.16736535E+04</pdfrwt>
<pdfrwt beam="2">  1       -1 0.27237580E-01 0.16736535E+04</pdfrwt>
<totfact> 0.12263430E+00</totfact>
</mgrwt>
</event>
<event>
 6    1  0.1719556E-004  0.1030736E+04  0.7818608E-02  0.9275462E-01
          1   -1    0    0  501    0  0.00000000000E+00  0.00000000000E+00  0.62416933301E+03  0.62416933301E+03  0.00000000000E+00 0. -1.
         -1   -1    0    0    0  501 -0.00000000000E+00 -0.00000000000E+00 -0.42553197991E+03  0.42553197991E+03  0.00000000000E+00 0.  1.
         23    2    1    2    0    0  0.44225014585E+03 -0.20991159671E+03 -0.50163329496E+02  0.50056576536E+03  0.91660547037E+02 0.  0.
         13    1    3    3    0    0  0.17821382514E+03 -0.96305796278E+02  0.23245934159E+02  0.20390033674E+03  0.00000000000E+00 0. -1.
        -13    1    3    3    0    0  0.26403632072E+03 -0.11360580043E+03 -0.73409263654E+02  0.29666542862E+03  0.00000000000E+00 0.  1.
         22    1    1    2    0    0 -0.44225014585E+03  0.20991159671E+03  0.24880068259E+03  0.54913554756E+03  0.00000000000E+00 0. -1.
<mgrwt>
<rscale>  0 0.10307357E+04</rscale>
<asrwt>0</asrwt>
<pdfrwt beam="1">  1        1 0.96026051E-01 0.10307357E+04</pdfrwt>
<pdfrwt beam="2">  1       -1 0.65466458E-01 0.10307357E+04</pdfrwt>
<totfact> 0.76563400E+01</totfact>
</mgrwt>
</event>
<event>
 6    1  0.1719556E-004  0.1485998E+04  0.7818608E-02  0.8893818E-01
         -2   -1    0    0    0  501 -0.00000000000E+00  0.00000000000E+00  0.73068440703E+03  0.73068440703E+03  0.00000000000E+00 0. -1.
          2   -1    0    0  501    0  0.00000000000E+00 -0.00000000000E+00 -0.75552149214E+03  0.75552149214E+03  0.00000000000E+00 0.  1.
         23    2    1    2    0    0 -0.22299184537E+03 -0.62583767023E+03 -0.33842673195E+03  0.75153820613E+03  0.94227754918E+02 0.  0.
         11    1    3    3    0    0 -0.18926148835E+03 -0.41380021549E+03 -0.25148739151E+03  0.51990041105E+03  0.00000000000E+00 0. -1.
        -11    1    3    3    0    0 -0.33730357014E+02 -0.21203745474E+03 -0.86939340430E+02  0.23163779509E+03  0.00000000000E+00 0.  1.
         22    1    1    2    0    0  0.22299184537E+03  0.62583767023E+03  0.31358964684E+03  0.73466769303E+03  0.00000000000E+00 0. -1.
<mgrwt>
<rscale>  0 0.14859983E+04</rscale>
<asrwt>0</asrwt>
<pdfrwt beam="1">  1        2 0.11623408E+00 0.14859983E+04</pdfrwt>
<pdfrwt beam="2">  1       -2 0.11241299E+00 0.14859983E+04</pdfrwt>
<totfact> 0.22392873E+01</totfact>
</mgrwt>
</event>
<event>
 6    1  0.1719556E-004  0.8556932E+03  0.7818608E-02  0.9482727E-01
         -2   -1    0    0    0  501 -0.00000000000E+00  0.00000000000E+00  0.19417177554E+03  0.19417177554E+03  0.00000000000E+00 0. -1.
          2   -1    0    0  501    0  0.00000000000E+00 -0.00000000000E+00 -0.94273593843E+03  0.94273593843E+03  0.00000000000E+00 0.  1.
         23    2    1    2    0    0  0.26829063457E+03  0.59517462884E+02  0.48864484271E+02  0.29345371978E+03  0.90582309774E+02 0.  0.
         13    1    3    3    0    0  0.18805863592E+03  0.96574085506E+01  0.27277607121E+01  0.18832619776E+03  0.00000000000E+00 0.  1.
        -13    1    3    3    0    0  0.80231998647E+02  0.49860054334E+02  0.46136723559E+02  0.10512752202E+03  0.00000000000E+00 0. -1.
         22    1    1    2    0    0 -0.26829063457E+03 -0.59517462884E+02 -0.79742864717E+03  0.84345399419E+03  0.00000000000E+00 0.  1.
<mgrwt>
<rscale>  0 0.85569320E+03</rscale>
<asrwt>0</asrwt>
<pdfrwt beam="1">  1        2 0.14503630E+00 0.85569320E+03</pdfrwt>
<pdfrwt beam="2">  1       -2 0.29872581E-01 0.85569320E+03</pdfrwt>
<totfact> 0.28450126E+02</totfact>
</mgrwt>
</event>
<event>
 6    1  0.1719556E-004  0.2778677E+04  0.7818608E-02  0.8309919E-01
          1   -1    0    0  501    0  0.00000000000E+00  0.00000000000E+00  0.20239829254E+04  0.20239829254E+04  0.00000000000E+00 0.  1.
         -1   -1    0    0    0  501 -0.00000000000E+00 -0.00000000000E+00 -0.95369443673E+03  0.95369443673E+03  0.00000000000E+00 0. -1.
         23    2    1    2    0    0  0.10988775927E+04  0.54082492132E+03 -0.16372590928E+03  0.12390528790E+04  0.91773113266E+02 0.  0.
         11    1    3    3    0    0  0.23507943143E+03  0.14894841672E+03 -0.61667460731E+02  0.28504533962E+03  0.00000000000E+00 0. -1.
        -11    1    3    3    0    0  0.86379816124E+03  0.39187650460E+03 -0.10205844855E+03  0.95400753935E+03  0.00000000000E+00 0.  1.
         22    1    1    2    0    0 -0.10988775927E+04 -0.54082492132E+03  0.12340143980E+04  0.17386244832E+04  0.00000000000E+00 0.  1.
<mgrwt>
<rscale>  0 0.27786768E+04</rscale>
<asrwt>0</asrwt>
<pdfrwt beam="1">  1        1 0.31138199E+00 0.27786768E+04</pdfrwt>
<pdfrwt beam="2">  1       -1 0.14672222E+00 0.27786768E+04</pdfrwt>
<totfact> 0.92158040E-01</totfact>
</mgrwt>
</event>
<event>
 6    1  0.1719556E-004  0.2014532E+04  0.7818608E-02  0.8599856E-01
         -2   -1    0    0    0  501 -0.00000000000E+00  0.00000000000E+00  0.11921944328E+04  0.11921944328E+04  0.00000000000E+00 0. -1.
          2   -1    0    0  501    0  0.00000000000E+00 -0.00000000000E+00 -0.85102299793E+03  0.85102299793E+03  0.00000000000E+00 0.  1.
         23    2    1    2    0    0  0.10503919816E+03 -0.26613119862E+03 -0.80648064396E+03  0.86043920042E+03  0.89919633628E+02 0.  0.
         11    1    3    3    0    0  0.55620388334E+02 -0.72906158934E+02 -0.35895087145E+03  0.37047896529E+03  0.00000000000E+00 0.  1.
        -11    1    3    3    0    0  0.49418809821E+02 -0.19322503969E+03 -0.44752977251E+03  0.48996023513E+03  0.00000000000E+00 0. -1.
         22    1    1    2    0    0 -0.10503919816E+03  0.26613119862E+03  0.11476520788E+04  0.11827782303E+04  0.00000000000E+00 0. -1.
<mgrwt>
<rscale>  0 0.20145321E+04</rscale>
<asrwt>0</asrwt>
<pdfrwt beam="1">  1        2 0.13092661E+00 0.20145321E+04</pdfrwt>
<pdfrwt beam="2">  1       -2 0.18341453E+00 0.20145321E+04</pdfrwt>
<totfact> 0.50488611E+00</totfact>
</mgrwt>
</event>
<event>
 6    1  0.1719556E-004  0.8346710E+03  0.7818608E-02  0.9511145E-01
         -1   -1    0    0    0  501 -0.00000000000E+00  0.00000000000E+00  0.20817364267E+03  0.20817364267E+03  0.00000000000E+00 0. -1.
          1   -1    0    0  501    0  0.00000000000E+00 -0.00000000000E+00 -0.83665214298E+03  0.83665214298E+03  0.00000000000E+00 0.  1.
         23    2    1    2    0    0 -0.32724502571E+03  0.45185190908E+02 -0.62634864092E+03  0.71446909262E+03  0.94986609616E+02 0.  0.
         11    1    3    3    0    0 -0.27716279417E+03  0.52733720665E+01 -0.53960291920E+03  0.60664514614E+03  0.00000000000E+00 0. -1.
        -11    1    3    3    0    0 -0.50082231541E+02  0.39911818841E+02 -0.86745721717E+02  0.10782394648E+03  0.00000000000E+00 0.  1.
         22    1    1    2    0    0  0.32724502571E+03 -0.45185190908E+02 -0.21298593849E+01  0.33035669303E+03  0.00000000000E+00 0. -1.
<mgrwt>
<rscale>  0 0.83467101E+03</rscale>
<asrwt>0</asrwt>
<pdfrwt beam="1">  1        1 0.12871571E+00 0.83467101E+03</pdfrwt>
<pdfrwt beam="2">  1       -1 0.32026715E-01 0.83467101E+03</pdfrwt>
<totfact> 0.18852904E+02</totfact>
</mgrwt>
</event>
<event>
 6    1  0.1719556E-004  0.7094661E+03  0.7818608E-02  0.9701180E-01
         -2   -1    0    0    0  501 -0.00000000000E+00  0.00000000000E+00  0.46073994866E+03  0.46073994866E+03  0.00000000000E+00 0. -1.
          2   -1    0    0  501    0  0.00000000000E+00 -0.00000000000E+00 -0.27311614869E+03  0.27311614869E+03  0.00000000000E+00 0.  1.
         23    2    1    2    0    0  0.11028084556E+03 -0.30220188177E+03 -0.43361972151E+02  0.33782293060E+03  0.93574727182E+02 0.  0.
         13    1    3    3    0    0  0.38857470349E+02 -0.17921021976E+03 -0.63756793469E+02  0.19414204743E+03  0.00000000000E+00 0.  1.
        -13    1    3    3    0    0  0.71423375214E+02 -0.12299166201E+03  0.20394821318E+02  0.14368088317E+03  0.00000000000E+00 0. -1.
         22    1    1    2    0    0 -0.11028084556E+03  0.30220188177E+03  0.23098577212E+03  0.39603316675E+03  0.00000000000E+00 0. -1.
<mgrwt>
<rscale>  0 0.70946605E+03</rscale>
<asrwt>0</asrwt>
<pdfrwt beam="1">  1        2 0.42017869E-01 0.70946605E+03</pdfrwt>
<pdfrwt beam="2">  1       -2 0.70883069E-01 0.70946605E+03</pdfrwt>
<totfact> 0.22264639E+02</totfact>
</mgrwt>
</event>
<event>
 6    1  0.1719556E-004  0.3704307E+04  0.7818608E-02  0.8067008E-01
         -1   -1    0    0    0  501 -0.00000000000E+00  0.00000000000E+00  0.14597385508E+04  0.14597385508E+04  0.00000000000E+00 0. -1.
          1   -1    0    0  501    0  0.00000000000E+00 -0.00000000000E+00 -0.23500591118E+04  0.23500591118E+04  0.00000000000E+00 0.  1.
         23    2    1    2    0    0 -0.53294929264E+03 -0.48891738774E+03  0.13068568621E+04  0.14966474752E+04  0.94887546676E+02 0.  0.
         13    1    3    3    0    0 -0.48182351282E+03 -0.44525106221E+03  0.11191976310E+04  0.12973071121E+04  0.00000000000E+00 0.  1.
        -13    1    3    3    0    0 -0.51125779822E+02 -0.43666325529E+02  0.18765923111E+03  0.19934036311E+03  0.00000000000E+00 0. -1.
         22    1    1    2    0    0  0.53294929264E+03  0.48891738774E+03 -0.21971774231E+04  0.23131501873E+04  0.00000000000E+00 0.  1.
<mgrwt>
<rscale>  0 0.37043066E+04</rscale>
<asrwt>0</asrwt>
<pdfrwt beam="1">  1        1 0.36154756E+00 0.37043066E+04</pdfrwt>
<pdfrwt beam="2">  1       -1 0.22457516E+00 0.37043066E+04</pdfrwt>
<totfact> 0.14145997E-01</totfact>
</mgrwt>
</event>
<event>
 6    1  0.1719556E-004  0.2609339E+04  0.7818608E-02  0.8365036E-01
         -2   -1    0    0    0  501 -0.00000000000E+00  0.00000000000E+00  0.57902953434E+03  0.57902953434E+03  0.00000000000E+00 0. -1.
          2   -1    0    0  501    0  0.00000000000E+00 -0.00000000000E+00 -0.29396822964E+04  0.29396822964E+04  0.00000000000E+00 0.  1.
         23    2    1    2    0    0  0.99647358312E+03  0.68914118541E+03 -0.53424325961E+03  0.13269894838E+04  0.87235626252E+02 0.  0.
         13    1    3    3    0    0  0.74236113217E+03  0.55629783227E+03 -0.39578891416E+03  0.10085713625E+04  0.00000000000E+00 0. -1.
        -13    1    3    3    0    0  0.25411245095E+03  0.13284335314E+03 -0.13845434544E+03  0.31841812130E+03  0.00000000000E+00 0.  1.
         22    1    1    2    0    0 -0.99647358312E+03 -0.68914118541E+03 -0.18264095025E+04  0.21917223469E+04  0.00000000000E+00 0.  1.
<mgrwt>
<rscale>  0 0.26093393E+04</rscale>
<asrwt>0</asrwt>
<pdfrwt beam="1">  1        2 0.45225881E+00 0.26093393E+04</pdfrwt>
<pdfrwt beam="2">  1       -2 0.89081467E-01 0.26093393E+04</pdfrwt>
<totfact> 0.18157953E+00</totfact>
</mgrwt>
</event>
<event>
 6    1  0.1719556E-004  0.2656842E+04  0.7818608E-02  0.8349146E-01
          2   -1    0    0  501    0  0.00000000000E+00  0.00000000000E+00  0.23240999277E+04  0.23240999277E+04  0.00000000000E+00 0.  1.
         -2   -1    0    0    0  501 -0.00000000000E+00 -0.00000000000E+00 -0.75930561858E+03  0.75930561858E+03  0.00000000000E+00 0. -1.
         23    2    1    2    0    0  0.52830177767E+03 -0.12092173409E+04  0.62260606264E+03  0.14619777688E+04  0.91822337020E+02 0.  0.
         11    1    3    3    0    0  0.87673113961E+02 -0.26658089939E+03  0.10314530780E+03  0.29898311884E+03  0.00000000000E+00 0. -1.
        -11    1    3    3    0    0  0.44062866371E+03 -0.94263644146E+03  0.51946075484E+03  0.11629946500E+04  0.00000000000E+00 0.  1.
         22    1    1    2    0    0 -0.52830177767E+03  0.12092173409E+04  0.94218824651E+03  0.16214277775E+04  0.00000000000E+00 0.  1.
<mgrwt>
<rscale>  0 0.26568418E+04</rscale>
<asrwt>0</asrwt>
<pdfrwt beam="1">  1        2 0.35755383E+00 0.26568418E+04</pdfrwt>
<pdfrwt beam="2">  1       -2 0.11681625E+00 0.26568418E+04</pdfrwt>
<totfact> 0.21943369E+00</totfact>
</mgrwt>
</event>
<event>
 6    1  0.1719556E-004  0.9402629E+03  0.7818608E-02  0.9376605E-01
          2   -1    0    0  501    0  0.00000000000E+00  0.00000000000E+00  0.25333377497E+03  0.25333377497E+03  0.00000000000E+00 0.  1.
         -2   -1    0    0    0  501 -0.00000000000E+00 -0.00000000000E+00 -0.87246004250E+03  0.87246004250E+03  0.00000000000E+00 0. -1.
         23    2    1    2    0    0 -0.24406093623E+03  0.57093171593E+02  0.15710183993E+03  0.31010058735E+03  0.93037709150E+02 0.  0.
         13    1    3    3    0    0 -0.97682849201E+02 -0.21723849633E+01  0.17376420618E+02  0.99240104182E+02  0.00000000000E+00 0.  1.
        -13    1    3    3    0    0 -0.14637808703E+03  0.59265556556E+02  0.13972541932E+03  0.21086048316E+03  0.00000000000E+00 0. -1.
         22    1    1    2    0    0  0.24406093623E+03 -0.57093171593E+02 -0.77622810747E+03  0.81569323012E+03  0.00000000000E+00 0. -1.
<mgrwt>
<rscale>  0 0.94026293E+03</rscale>
<asrwt>0</asrwt>
<pdfrwt beam="1">  1        2 0.38974427E-01 0.94026293E+03</pdfrwt>
<pdfrwt beam="2">  1       -2 0.13422462E+00 0.94026293E+03</pdfrwt>
<totfact> 0.53125451E+01</totfact>
</mgrwt>
</event>
<event>
 6    1  0.1719556E-004  0.4961955E+04  0.7818608E-02  0.7834403E-01
         -2   -1    0    0    0  501 -0.00000000000E+00  0.00000000000E+00  0.21408679647E+04  0.21408679647E+04  0.00000000000E+00 0. -1.
          2   -1    0    0  501    0  0.00000000000E+00 -0.00000000000E+00 -0.28751184512E+04  0.28751184512E+04  0.00000000000E+00 0.  1.
         23    2    1    2    0    0  0.97757302926E+03  0.15332439482E+04 -0.20721997577E+04  0.27584226217E+04  0.91637828901E+02 0.  0.
         11    1    3    3    0    0  0.27759487857E+03  0.38466557213E+03 -0.58577068990E+03  0.75375978942E+03  0.00000000000E+00 0.  1.
        -11    1    3    3    0    0  0.69997815069E+03  0.11485783761E+04 -0.14864290678E+04  0.20046628323E+04  0.00000000000E+00 0. -1.
         22    1    1    2    0    0 -0.97757302926E+03 -0.15332439482E+04  0.13379492713E+04  0.22575637942E+04  0.00000000000E+00 0. -1.
<mgrwt>
<rscale>  0 0.49619549E+04</rscale>
<asrwt>0</asrwt>
<pdfrwt beam="1">  1        2 0.44232591E+00 0.49619549E+04</pdfrwt>
<pdfrwt beam="2">  1       -2 0.32936430E+00 0.49619549E+04</pdfrwt>
<totfact> 0.31825741E-02</totfact>
</mgrwt>
</event>
<event>
 6    1  0.1719556E-004  0.3625155E+04  0.7818608E-02  0.8084754E-01
          1   -1    0    0  501    0  0.00000000000E+00  0.00000000000E+00  0.28860896347E+04  0.28860896347E+04  0.00000000000E+00 0.  1.
         -1   -1    0    0    0  501 -0.00000000000E+00 -0.00000000000E+00 -0.11383694963E+04  0.11383694963E+04  0.00000000000E+00 0. -1.
         23    2    1    2    0    0  0.17589817367E+04  0.47594890590E+02  0.13521314929E+04  0.22209147317E+04  0.88998019020E+02 0.  0.
         11    1    3    3    0    0  0.71904718212E+03  0.62495027500E+02  0.54382454036E+03  0.90370327502E+03  0.00000000000E+00 0. -1.
        -11    1    3    3    0    0  0.10399345546E+04 -0.14900136910E+02  0.80830695257E+03  0.13172114567E+04  0.00000000000E+00 0.  1.
         22    1    1    2    0    0 -0.17589817367E+04 -0.47594890590E+02  0.39558864543E+03  0.18035443993E+04  0.00000000000E+00 0.  1.
<mgrwt>
<rscale>  0 0.36251546E+04</rscale>
<asrwt>0</asrwt>
<pdfrwt beam="1">  1        1 0.44401379E+00 0.36251546E+04</pdfrwt>
<pdfrwt beam="2">  1       -1 0.17513377E+00 0.36251546E+04</pdfrwt>
<totfact> 0.13166118E-01</totfact>
</mgrwt>
</event>
<event>
 6    1  0.1719556E-004  0.2653195E+04  0.7818608E-02  0.8350353E-01
         -2   -1    0    0    0  501 -0.00000000000E+00  0.00000000000E+00  0.44612108500E+03  0.44612108500E+03  0.00000000000E+00 0. -1.
          2   -1    0    0  501    0  0.00000000000E+00 -0.00000000000E+00 -0.39448054562E+04  0.39448054562E+04  0.00000000000E+00 0.  1.
         23    2    1    2    0    0  0.13390135138E+03 -0.11237920592E+04 -0.60785516735E+03  0.12864569166E+04  0.68156655322E+02 0.  0.
         11    1    3    3    0    0  0.42852040542E+02 -0.58726338622E+03 -0.33952694420E+03  0.67970076358E+03  0.00000000000E+00 0.  1.
        -11    1    3    3    0    0  0.91049310834E+02 -0.53652867296E+03 -0.26832822315E+03  0.60675615304E+03  0.00000000000E+00 0. -1.
         22    1    1    2    0    0 -0.13390135138E+03  0.11237920592E+04 -0.28908292039E+04  0.31044696246E+04  0.00000000000E+00 0. -1.
<mgrwt>
<rscale>  0 0.26531950E+04</rscale>
<asrwt>0</asrwt>
<pdfrwt beam="1">  1        2 0.60689316E+00 0.26531950E+04</pdfrwt>
<pdfrwt beam="2">  1       -2 0.68634012E-01 0.26531950E+04</pdfrwt>
<totfact> 0.64862481E-01</totfact>
</mgrwt>
</event>
<event>
 6    1  0.1719556E-004  0.1122603E+04  0.7818608E-02  0.9183437E-01
          1   -1    0    0  501    0  0.00000000000E+00  0.00000000000E+00  0.86299471852E+03  0.86299471852E+03  0.00000000000E+00 0.  1.
         -1   -1    0    0    0  501 -0.00000000000E+00 -0.00000000000E+00 -0.36507708074E+03  0.36507708074E+03  0.00000000000E+00 0. -1.
         23    2    1    2    0    0 -0.72342687547E+02 -0.41676542346E+03  0.64807235235E+03  0.77921400337E+03  0.90828445614E+02 0.  0.
         11    1    3    3    0    0 -0.61462822641E+02 -0.11314273249E+03  0.18689178090E+03  0.22695262556E+03  0.00000000000E+00 0. -1.
        -11    1    3    3    0    0 -0.10879864906E+02 -0.30362269097E+03  0.46118057145E+03  0.55226137781E+03  0.00000000000E+00 0.  1.
         22    1    1    2    0    0  0.72342687547E+02  0.41676542346E+03 -0.15015471457E+03  0.44885779590E+03  0.00000000000E+00 0. -1.
<mgrwt>
<rscale>  0 0.11226034E+04</rscale>
<asrwt>0</asrwt>
<pdfrwt beam="1">  1        1 0.13276842E+00 0.11226034E+04</pdfrwt>
<pdfrwt beam="2">  1       -1 0.56165705E-01 0.11226034E+04</pdfrwt>
<totfact> 0.62320468E+01</totfact>
</mgrwt>
</event>
<event>
 6    1  0.2999770E-004  0.4205573E+04  0.7818608E-02  0.7964313E-01
          1   -1    0    0  501    0  0.00000000000E+00  0.00000000000E+00  0.23162840964E+04  0.23162840964E+04  0.00000000000E+00 0.  1.
         -1   -1    0    0    0  501 -0.00000000000E+00 -0.00000000000E+00 -0.19089675048E+04  0.19089675048E+04  0.00000000000E+00 0. -1.
         23    2    1    2    0    0  0.94445803511E+03  0.11986119886E+04 -0.12483710308E+04  0.19735915065E+04  0.89227377066E+02 0.  0.
         13    1    3    3    0    0  0.63786129636E+03  0.74283988858E+03 -0.81439073978E+03  0.12735424651E+04  0.00000000000E+00 0. -1.
        -13    1    3    3    0    0  0.30659673874E+03  0.45577210002E+03 -0.43398029101E+03  0.70004904139E+03  0.00000000000E+00 0.  1.
         22    1    1    2    0    0 -0.94445803511E+03 -0.11986119886E+04  0.16556876224E+04  0.22516600947E+04  0.00000000000E+00 0.  1.
<mgrwt>
<rscale>  0 0.42055730E+04</rscale>
<asrwt>0</asrwt>
<pdfrwt beam="1">  1        1 0.35635140E+00 0.42055730E+04</pdfrwt>
<pdfrwt beam="2">  1       -1 0.29368731E+00 0.42055730E+04</pdfrwt>
<totfact> 0.50662443E-02</totfact>
</mgrwt>
</event>
<event>
 6    1  0.1719556E-004  0.3091711E+04  0.7818608E-02  0.8218016E-01
          2   -1    0    0  501    0  0.00000000000E+00  0.00000000000E+00  0.15279058572E+04  0.15279058572E+04  0.00000000000E+00 0. -1.
         -2   -1    0    0    0  501 -0.00000000000E+00 -0.00000000000E+00 -0.15640164194E+04  0.15640164194E+04  0.00000000000E+00 0.  1.
         23    2    1    2    0    0 -0.15407640475E+04 -0.31561582425E+01  0.89657732305E+02  0.15460304708E+04  0.90597440062E+02 0.  0.
         13    1    3    3    0    0 -0.52104300472E+03  0.26174269023E+02  0.63521613215E+02  0.52555294735E+03  0.00000000000E+00 0. -1.
        -13    1    3    3    0    0 -0.10197210428E+04 -0.29330427266E+02  0.26136119089E+02  0.10204775234E+04  0.00000000000E+00 0.  1.
         22    1    1    2    0    0  0.15407640475E+04  0.31561582425E+01 -0.12576829447E+03  0.15458918058E+04  0.00000000000E+00 0.  1.
<mgrwt>
<rscale>  0 0.30917114E+04</rscale>
<asrwt>0</asrwt>
<pdfrwt beam="1">  1        2 0.23506244E+00 0.30917114E+04</pdfrwt>
<pdfrwt beam="2">  1       -2 0.24061791E+00 0.30917114E+04</pdfrwt>
<totfact> 0.76369537E-01</totfact>
</mgrwt>
</event>
<event>
 6    1  0.1719556E-004  0.2702301E+04  0.7818608E-02  0.8334259E-01
         -2   -1    0    0    0  501 -0.00000000000E+00  0.00000000000E+00  0.11933726559E+04  0.11933726559E+04  0.00000000000E+00 0. -1.
          2   -1    0    0  501    0  0.00000000000E+00 -0.00000000000E+00 -0.15297888155E+04  0.15297888155E+04  0.00000000000E+00 0.  1.
         23    2    1    2    0    0  0.65851213601E+03 -0.86433716023E+03 -0.97489705115E+03  0.14628540451E+04  0.93812244514E+02 0.  0.
         13    1    3    3    0    0  0.25270693864E+03 -0.39022868155E+03 -0.37630542953E+03  0.59811787888E+03  0.00000000000E+00 0.  1.
        -13    1    3    3    0    0  0.40580519737E+03 -0.47410847868E+03 -0.59859162163E+03  0.86473616626E+03  0.00000000000E+00 0. -1.
         22    1    1    2    0    0 -0.65851213601E+03  0.86433716023E+03  0.63848089149E+03  0.12603074262E+04  0.00000000000E+00 0. -1.
<mgrwt>
<rscale>  0 0.27023013E+04</rscale>
<asrwt>0</asrwt>
<pdfrwt beam="1">  1        2 0.23535213E+00 0.27023013E+04</pdfrwt>
<pdfrwt beam="2">  1       -2 0.18359579E+00 0.27023013E+04</pdfrwt>
<totfact> 0.18350273E+00</totfact>
</mgrwt>
</event>
<event>
 6    1  0.1719556E-004  0.2581788E+04  0.7818608E-02  0.8374414E-01
         -2   -1    0    0    0  501 -0.00000000000E+00  0.00000000000E+00  0.23382088308E+04  0.23382088308E+04  0.00000000000E+00 0. -1.
          2   -1    0    0  501    0  0.00000000000E+00 -0.00000000000E+00 -0.71268562348E+03  0.71268562348E+03  0.00000000000E+00 0.  1.
         23    2    1    2    0    0 -0.11861179843E+03 -0.11082516296E+04  0.15797877902E+04  0.19353756684E+04  0.87516185400E+02 0.  0.
         13    1    3    3    0    0 -0.40617568201E+02 -0.54275165529E+03  0.70165983905E+03  0.88800657425E+03  0.00000000000E+00 0. -1.
        -13    1    3    3    0    0 -0.77994230231E+02 -0.56549997428E+03  0.87812795114E+03  0.10473690942E+04  0.00000000000E+00 0.  1.
         22    1    1    2    0    0  0.11861179843E+03  0.11082516296E+04  0.45735417111E+02  0.11155187858E+04  0.00000000000E+00 0.  1.
<mgrwt>
<rscale>  0 0.25817884E+04</rscale>
<asrwt>0</asrwt>
<pdfrwt beam="1">  1        2 0.10964394E+00 0.25817884E+04</pdfrwt>
<pdfrwt beam="2">  1       -2 0.35972443E+00 0.25817884E+04</pdfrwt>
<totfact> 0.47916374E-01</totfact>
</mgrwt>
</event>
<event>
 6    1  0.1719556E-004  0.2913084E+04  0.7818608E-02  0.8268995E-01
          2   -1    0    0  501    0  0.00000000000E+00  0.00000000000E+00  0.35578397637E+04  0.35578397637E+04  0.00000000000E+00 0.  1.
         -2   -1    0    0    0  501 -0.00000000000E+00 -0.00000000000E+00 -0.59629303779E+03  0.59629303779E+03  0.00000000000E+00 0. -1.
         23    2    1    2    0    0 -0.82502330025E+03  0.11981851857E+04  0.15290144804E+04  0.21124521654E+04  0.90871803794E+02 0.  0.
         13    1    3    3    0    0 -0.34023856878E+03  0.51504783958E+03  0.58634156076E+03  0.85137123901E+03  0.00000000000E+00 0.  1.
        -13    1    3    3    0    0 -0.48478473147E+03  0.68313734614E+03  0.94267291961E+03  0.12610809264E+04  0.00000000000E+00 0. -1.
         22    1    1    2    0    0  0.82502330025E+03 -0.11981851857E+04  0.14325322455E+04  0.20416806361E+04  0.00000000000E+00 0.  1.
<mgrwt>
<rscale>  0 0.29130843E+04</rscale>
<asrwt>0</asrwt>
<pdfrwt beam="1">  1        2 0.54735995E+00 0.29130843E+04</pdfrwt>
<pdfrwt beam="2">  1       -2 0.91737393E-01 0.29130843E+04</pdfrwt>
<totfact> 0.64473286E-01</totfact>
</mgrwt>
</event>
<event>
 6    1  0.1719556E-004  0.2887664E+04  0.7818608E-02  0.8276557E-01
          1   -1    0    0  501    0  0.00000000000E+00  0.00000000000E+00  0.25013028983E+04  0.25013028983E+04  0.00000000000E+00 0.  1.
         -1   -1    0    0    0  501 -0.00000000000E+00 -0.00000000000E+00 -0.83342613928E+03  0.83342613928E+03  0.00000000000E+00 0. -1.
         23    2    1    2    0    0  0.60532563999E+03 -0.73989309358E+03 -0.41249925964E+03  0.10452257510E+04  0.92088603678E+02 0.  0.
         13    1    3    3    0    0  0.46753283716E+03 -0.54410851588E+03 -0.34766232427E+03  0.79718888765E+03  0.00000000000E+00 0. -1.
        -13    1    3    3    0    0  0.13779280284E+03 -0.19578457770E+03 -0.64836935372E+02  0.24803686332E+03  0.00000000000E+00 0.  1.
         22    1    1    2    0    0 -0.60532563999E+03  0.73989309358E+03  0.20803760187E+04  0.22895032866E+04  0.00000000000E+00 0.  1.
<mgrwt>
<rscale>  0 0.28876643E+04</rscale>
<asrwt>0</asrwt>
<pdfrwt beam="1">  1        1 0.38481583E+00 0.28876643E+04</pdfrwt>
<pdfrwt beam="2">  1       -1 0.12821941E+00 0.28876643E+04</pdfrwt>
<totfact> 0.60972799E-01</totfact>
</mgrwt>
</event>
<event>
 6    1  0.1719556E-004  0.1794180E+04  0.7818608E-02  0.8709400E-01
          2   -1    0    0  501    0  0.00000000000E+00  0.00000000000E+00  0.21638032710E+04  0.21638032710E+04  0.00000000000E+00 0.  1.
         -2   -1    0    0    0  501 -0.00000000000E+00 -0.00000000000E+00 -0.37192424349E+03  0.37192424349E+03  0.00000000000E+00 0. -1.
         23    2    1    2    0    0 -0.55301226113E+03  0.32402975391E+03  0.16829323669E+02  0.64850222496E+03  0.97232027975E+02 0.  0.
         13    1    3    3    0    0 -0.41654500308E+03  0.28969082377E+03  0.19585325905E+02  0.50775397385E+03  0.00000000000E+00 0.  1.
        -13    1    3    3    0    0 -0.13646725805E+03  0.34338930139E+02 -0.27560022367E+01  0.14074825111E+03  0.00000000000E+00 0. -1.
         22    1    1    2    0    0  0.55301226113E+03 -0.32402975391E+03  0.17750497039E+04  0.18872252896E+04  0.00000000000E+00 0.  1.
<mgrwt>
<rscale>  0 0.17941805E+04</rscale>
<asrwt>0</asrwt>
<pdfrwt beam="1">  1        2 0.33289280E+00 0.17941805E+04</pdfrwt>
<pdfrwt beam="2">  1       -2 0.57219116E-01 0.17941805E+04</pdfrwt>
<totfact> 0.14633383E+01</totfact>
</mgrwt>
</event>
<event>
 6    1  0.1719556E-004  0.4635818E+04  0.7818608E-02  0.7887281E-01
          2   -1    0    0  501    0  0.00000000000E+00  0.00000000000E+00  0.24947127300E+04  0.24947127300E+04  0.00000000000E+00 0.  1.
         -2   -1    0    0    0  501 -0.00000000000E+00 -0.00000000000E+00 -0.21536359834E+04  0.21536359834E+04  0.00000000000E+00 0. -1.
         23    2    1    2    0    0 -0.19346569436E+04  0.11694375922E+04  0.68021697727E+03  0.23624139227E+04  0.88445659894E+02 0.  0.
         11    1    3    3    0    0 -0.26093442183E+03  0.17612069332E+03  0.12241970657E+03  0.33777485943E+03  0.00000000000E+00 0.  1.
        -11    1    3    3    0    0 -0.16737225217E+04  0.99331689888E+03  0.55779727070E+03  0.20246390633E+04  0.00000000000E+00 0. -1.
         22    1    1    2    0    0  0.19346569436E+04 -0.11694375922E+04 -0.33914023070E+03  0.22859347907E+04  0.00000000000E+00 0. -1.
<mgrwt>
<rscale>  0 0.46358184E+04</rscale>
<asrwt>0</asrwt>
<pdfrwt beam="1">  1        2 0.38380196E+00 0.46358184E+04</pdfrwt>
<pdfrwt beam="2">  1       -2 0.33132861E+00 0.46358184E+04</pdfrwt>
<totfact> 0.53513401E-02</totfact>
</mgrwt>
</event>
<event>
 6    1  0.1719556E-004  0.8959918E+03  0.7818608E-02  0.9430606E-01
         -2   -1    0    0    0  501 -0.00000000000E+00  0.00000000000E+00  0.60532122598E+02  0.60532122598E+02  0.00000000000E+00 0. -1.
          2   -1    0    0  501    0  0.00000000000E+00 -0.00000000000E+00 -0.33155999769E+04  0.33155999769E+04  0.00000000000E+00 0.  1.
         23    2    1    2    0    0  0.13903836427E+02  0.42854483259E+03 -0.20691535534E+04  0.21150862164E+04  0.91374422261E+02 0.  0.
         11    1    3    3    0    0 -0.73367237052E+01  0.39038306129E+03 -0.19350646924E+04  0.19740638606E+04  0.00000000000E+00 0. -1.
        -11    1    3    3    0    0  0.21240560132E+02  0.38161771297E+02 -0.13408886102E+03  0.14102235579E+03  0.00000000000E+00 0.  1.
         22    1    1    2    0    0 -0.13903836427E+02 -0.42854483259E+03 -0.11859143009E+04  0.12610458831E+04  0.00000000000E+00 0. -1.
<mgrwt>
<rscale>  0 0.89599175E+03</rscale>
<asrwt>0</asrwt>
<pdfrwt beam="1">  1        2 0.51009237E+00 0.89599175E+03</pdfrwt>
<pdfrwt beam="2">  1       -2 0.93126330E-02 0.89599175E+03</pdfrwt>
<totfact> 0.87844147E+01</totfact>
</mgrwt>
</event>
<event>
 6    1  0.1719556E-004  0.2096659E+04  0.7818608E-02  0.8562716E-01
         -1   -1    0    0    0  501 -0.00000000000E+00  0.00000000000E+00  0.10765783010E+04  0.10765783010E+04  0.00000000000E+00 0. -1.
          1   -1    0    0  501    0  0.00000000000E+00 -0.00000000000E+00 -0.10208222825E+04  0.10208222825E+04  0.00000000000E+00 0.  1.
         23    2    1    2    0    0 -0.75801505418E+03 -0.33546622010E+03  0.66683768433E+03  0.10675728263E+04  0.88965358451E+02 0.  0.
         13    1    3    3    0    0 -0.54448144803E+03 -0.27399134564E+03  0.52027035128E+03  0.80138164638E+03  0.00000000000E+00 0. -1.
        -13    1    3    3    0    0 -0.21353360615E+03 -0.61474874453E+02  0.14656733305E+03  0.26619117991E+03  0.00000000000E+00 0.  1.
         22    1    1    2    0    0  0.75801505418E+03  0.33546622010E+03 -0.61108166580E+03  0.10298277572E+04  0.00000000000E+00 0. -1.
<mgrwt>
<rscale>  0 0.20966594E+04</rscale>
<asrwt>0</asrwt>
<pdfrwt beam="1">  1        1 0.15704958E+00 0.20966594E+04</pdfrwt>
<pdfrwt beam="2">  1       -1 0.16562743E+00 0.20966594E+04</pdfrwt>
<totfact> 0.35550631E+00</totfact>
</mgrwt>
</event>
<event>
 6    1  0.1719556E-004  0.1871195E+04  0.7818608E-02  0.8669329E-01
          1   -1    0    0  501    0  0.00000000000E+00  0.00000000000E+00  0.13745388346E+04  0.13745388346E+04  0.00000000000E+00 0. -1.
         -1   -1    0    0    0  501 -0.00000000000E+00 -0.00000000000E+00 -0.63682647550E+03  0.63682647550E+03  0.00000000000E+00 0.  1.
         23    2    1    2    0    0 -0.47089418012E+03 -0.59413335275E+03  0.95493306524E+03  0.12227458804E+04  0.92057369186E+02 0.  0.
         13    1    3    3    0    0 -0.33628731576E+03 -0.35602507162E+03  0.59308552916E+03  0.76915112641E+03  0.00000000000E+00 0. -1.
        -13    1    3    3    0    0 -0.13460686436E+03 -0.23810828113E+03  0.36184753608E+03  0.45359475398E+03  0.00000000000E+00 0.  1.
         22    1    1    2    0    0  0.47089418012E+03  0.59413335275E+03 -0.21722070615E+03  0.78861942970E+03  0.00000000000E+00 0.  1.
<mgrwt>
<rscale>  0 0.18711950E+04</rscale>
<asrwt>0</asrwt>
<pdfrwt beam="1">  1        1 0.21146751E+00 0.18711950E+04</pdfrwt>
<pdfrwt beam="2">  1       -1 0.97973305E-01 0.18711950E+04</pdfrwt>
<totfact> 0.75000143E+00</totfact>
</mgrwt>
</event>
<event>
 6    1  0.1719556E-004  0.2352817E+04  0.7818608E-02  0.8457382E-01
          2   -1    0    0  501    0  0.00000000000E+00  0.00000000000E+00  0.12887821517E+04  0.12887821517E+04  0.00000000000E+00 0.  1.
         -2   -1    0    0    0  501 -0.00000000000E+00 -0.00000000000E+00 -0.10738330047E+04  0.10738330047E+04  0.00000000000E+00 0. -1.
         23    2    1    2    0    0  0.26923408207E+02 -0.99885481146E+03 -0.51245778868E+03  0.11266715273E+04  0.91323277303E+02 0.  0.
         11    1    3    3    0    0 -0.95779978433E+01 -0.75676213229E+03 -0.35830759242E+03  0.83735595400E+03  0.00000000000E+00 0. -1.
        -11    1    3    3    0    0  0.36501406050E+02 -0.24209267916E+03 -0.15415019626E+03  0.28931557330E+03  0.00000000000E+00 0.  1.
         22    1    1    2    0    0 -0.26923408207E+02  0.99885481146E+03  0.72740693563E+03  0.12359436291E+04  0.00000000000E+00 0.  1.
<mgrwt>
<rscale>  0 0.23528169E+04</rscale>
<asrwt>0</asrwt>
<pdfrwt beam="1">  1        2 0.19827418E+00 0.23528169E+04</pdfrwt>
<pdfrwt beam="2">  1       -2 0.16520508E+00 0.23528169E+04</pdfrwt>
<totfact> 0.34958627E+00</totfact>
</mgrwt>
</event>
<event>
 6    1  0.1719556E-004  0.1642284E+04  0.7818608E-02  0.8794984E-01
         -1   -1    0    0    0  501 -0.00000000000E+00  0.00000000000E+00  0.61382824227E+03  0.61382824227E+03  0.00000000000E+00 0.  1.
          1   -1    0    0  501    0  0.00000000000E+00 -0.00000000000E+00 -0.10984736763E+04  0.10984736763E+04  0.00000000000E+00 0. -1.
         23    2    1    2    0    0  0.48492203266E+03  0.65723188574E+03 -0.30067866047E+03  0.87507620042E+03  0.90816134465E+02 0.  0.
         13    1    3    3    0    0  0.20655472793E+03  0.26940439349E+03 -0.78063840595E+02  0.34833539308E+03  0.00000000000E+00 0. -1.
        -13    1    3    3    0    0  0.27836730473E+03  0.38782749225E+03 -0.22261481987E+03  0.52674080734E+03  0.00000000000E+00 0.  1.
         22    1    1    2    0    0 -0.48492203266E+03 -0.65723188574E+03 -0.18396677358E+03  0.83722571818E+03  0.00000000000E+00 0.  1.
<mgrwt>
<rscale>  0 0.16422840E+04</rscale>
<asrwt>0</asrwt>
<pdfrwt beam="1">  1        1 0.16899595E+00 0.16422840E+04</pdfrwt>
<pdfrwt beam="2">  1       -1 0.94435115E-01 0.16422840E+04</pdfrwt>
<totfact> 0.13193515E+01</totfact>
</mgrwt>
</event>
<event>
 6    1  0.1719556E-004  0.1317854E+04  0.7818608E-02  0.9015525E-01
          1   -1    0    0  501    0  0.00000000000E+00  0.00000000000E+00  0.51751265883E+03  0.51751265883E+03  0.00000000000E+00 0.  1.
         -1   -1    0    0    0  501 -0.00000000000E+00 -0.00000000000E+00 -0.83898438507E+03  0.83898438507E+03  0.00000000000E+00 0. -1.
         23    2    1    2    0    0  0.92693820072E+02 -0.64443505668E+03 -0.24207651676E+03  0.70060659128E+03  0.91432320471E+02 0.  0.
         11    1    3    3    0    0  0.76674462902E+02 -0.22482582288E+03 -0.87076230137E+02  0.25299781372E+03  0.00000000000E+00 0.  1.
        -11    1    3    3    0    0  0.16019357170E+02 -0.41960923380E+03 -0.15500028663E+03  0.44760877756E+03  0.00000000000E+00 0. -1.
         22    1    1    2    0    0 -0.92693820072E+02  0.64443505668E+03 -0.79395209481E+02  0.65589045262E+03  0.00000000000E+00 0.  1.
<mgrwt>
<rscale>  0 0.13178544E+04</rscale>
<asrwt>0</asrwt>
<pdfrwt beam="1">  1        1 0.79617333E-01 0.13178544E+04</pdfrwt>
<pdfrwt beam="2">  1       -1 0.12907452E+00 0.13178544E+04</pdfrwt>
<totfact> 0.21415121E+01</totfact>
</mgrwt>
</event>
<event>
 6    1  0.1719556E-004  0.2493644E+04  0.7818608E-02  0.8405253E-01
          2   -1    0    0  501    0  0.00000000000E+00  0.00000000000E+00  0.13435344576E+04  0.13435344576E+04  0.00000000000E+00 0.  1.
         -2   -1    0    0    0  501 -0.00000000000E+00 -0.00000000000E+00 -0.11570714386E+04  0.11570714386E+04  0.00000000000E+00 0. -1.
         23    2    1    2    0    0 -0.24990816960E+03  0.10800631658E+04 -0.47518499837E+03  0.12095719562E+04  0.90956029593E+02 0.  0.
         13    1    3    3    0    0 -0.19014148570E+03  0.62331349385E+03 -0.28096360601E+03  0.70965769502E+03  0.00000000000E+00 0. -1.
        -13    1    3    3    0    0 -0.59766683901E+02  0.45674967192E+03 -0.19422139236E+03  0.49991426121E+03  0.00000000000E+00 0.  1.
         22    1    1    2    0    0  0.24990816960E+03 -0.10800631658E+04  0.66164801736E+03  0.12910339400E+04  0.00000000000E+00 0. -1.
<mgrwt>
<rscale>  0 0.24936442E+04</rscale>
<asrwt>0</asrwt>
<pdfrwt beam="1">  1        2 0.20669761E+00 0.24936442E+04</pdfrwt>
<pdfrwt beam="2">  1       -2 0.17801099E+00 0.24936442E+04</pdfrwt>
<totfact> 0.26051806E+00</totfact>
</mgrwt>
</event>
<event>
 6    1  0.1719556E-004  0.3337408E+04  0.7818608E-02  0.8153442E-01
          2   -1    0    0  501    0  0.00000000000E+00  0.00000000000E+00  0.30680212510E+04  0.30680212510E+04  0.00000000000E+00 0.  1.
         -2   -1    0    0    0  501 -0.00000000000E+00 -0.00000000000E+00 -0.90761219405E+03  0.90761219405E+03  0.00000000000E+00 0. -1.
         23    2    1    2    0    0  0.10501743034E+04  0.12111554959E+04  0.53416978510E+03  0.16921234556E+04  0.90447372025E+02 0.  0.
         13    1    3    3    0    0  0.72198212815E+03  0.78162270790E+03  0.32603493194E+03  0.11128751177E+04  0.00000000000E+00 0.  1.
        -13    1    3    3    0    0  0.32819217521E+03  0.42953278798E+03  0.20813485316E+03  0.57924833786E+03  0.00000000000E+00 0. -1.
         22    1    1    2    0    0 -0.10501743034E+04 -0.12111554959E+04  0.16262392719E+04  0.22835099895E+04  0.00000000000E+00 0.  1.
<mgrwt>
<rscale>  0 0.33374083E+04</rscale>
<asrwt>0</asrwt>
<pdfrwt beam="1">  1        2 0.47200326E+00 0.33374083E+04</pdfrwt>
<pdfrwt beam="2">  1       -2 0.13963265E+00 0.33374083E+04</pdfrwt>
<totfact> 0.47452324E-01</totfact>
</mgrwt>
</event>
<event>
 6    1  0.1719556E-004  0.1794463E+04  0.7818608E-02  0.8709250E-01
         -2   -1    0    0    0  501 -0.00000000000E+00  0.00000000000E+00  0.92582880742E+03  0.92582880742E+03  0.00000000000E+00 0.  1.
          2   -1    0    0  501    0  0.00000000000E+00 -0.00000000000E+00 -0.86951753968E+03  0.86951753968E+03  0.00000000000E+00 0. -1.
         23    2    1    2    0    0  0.39257071310E+03 -0.30537462391E+03  0.77276077838E+03  0.92318505066E+03  0.88011314331E+02 0.  0.
         13    1    3    3    0    0  0.22540501513E+03 -0.12425677678E+03  0.36253383615E+03  0.44460988493E+03  0.00000000000E+00 0. -1.
        -13    1    3    3    0    0  0.16716569797E+03 -0.18111784712E+03  0.41022694223E+03  0.47857516573E+03  0.00000000000E+00 0.  1.
         22    1    1    2    0    0 -0.39257071310E+03  0.30537462391E+03 -0.71644951063E+03  0.87216129644E+03  0.00000000000E+00 0. -1.
<mgrwt>
<rscale>  0 0.17944630E+04</rscale>
<asrwt>0</asrwt>
<pdfrwt beam="1">  1        2 0.13377193E+00 0.17944630E+04</pdfrwt>
<pdfrwt beam="2">  1       -2 0.14243520E+00 0.17944630E+04</pdfrwt>
<totfact> 0.99744763E+00</totfact>
</mgrwt>
</event>
<event>
 6    1  0.1719556E-004  0.1507294E+04  0.7818608E-02  0.8879617E-01
          2   -1    0    0  501    0  0.00000000000E+00  0.00000000000E+00  0.21231081165E+04  0.21231081165E+04  0.00000000000E+00 0.  1.
         -2   -1    0    0    0  501 -0.00000000000E+00 -0.00000000000E+00 -0.26752470049E+03  0.26752470049E+03  0.00000000000E+00 0. -1.
         23    2    1    2    0    0 -0.68390690250E+03 -0.30465380905E+03  0.84224902672E+03  0.11307164788E+04  0.92702415330E+02 0.  0.
         11    1    3    3    0    0 -0.39984873249E+03 -0.14065775431E+03  0.42844318651E+03  0.60268331385E+03  0.00000000000E+00 0. -1.
        -11    1    3    3    0    0 -0.28405817001E+03 -0.16399605474E+03  0.41380584021E+03  0.52803316497E+03  0.00000000000E+00 0.  1.
         22    1    1    2    0    0  0.68390690250E+03  0.30465380905E+03  0.10133343893E+04  0.12599163382E+04  0.00000000000E+00 0.  1.
<mgrwt>
<rscale>  0 0.15072941E+04</rscale>
<asrwt>0</asrwt>
<pdfrwt beam="1">  1        2 0.32663201E+00 0.15072941E+04</pdfrwt>
<pdfrwt beam="2">  1       -2 0.41157648E-01 0.15072941E+04</pdfrwt>
<totfact> 0.30820556E+01</totfact>
</mgrwt>
</event>
<event>
 6    1  0.1719556E-004  0.8835524E+03  0.7818608E-02  0.9446379E-01
          1   -1    0    0  501    0  0.00000000000E+00  0.00000000000E+00  0.37515686750E+03  0.37515686750E+03  0.00000000000E+00 0. -1.
         -1   -1    0    0    0  501 -0.00000000000E+00 -0.00000000000E+00 -0.52022556427E+03  0.52022556427E+03  0.00000000000E+00 0.  1.
         23    2    1    2    0    0 -0.35254494505E+03 -0.16455359625E+03  0.12846574629E+03  0.41979130920E+03  0.91408265428E+02 0.  0.
         11    1    3    3    0    0 -0.28802857180E+03 -0.16404784920E+03  0.85643181882E+02  0.34235494681E+03  0.00000000000E+00 0.  1.
        -11    1    3    3    0    0 -0.64516373255E+02 -0.50574704489E+00  0.42822564408E+02  0.77436362393E+02  0.00000000000E+00 0. -1.
         22    1    1    2    0    0  0.35254494505E+03  0.16455359625E+03 -0.27353444306E+03  0.47559112256E+03  0.00000000000E+00 0.  1.
<mgrwt>
<rscale>  0 0.88355236E+03</rscale>
<asrwt>0</asrwt>
<pdfrwt beam="1">  1        1 0.57716441E-01 0.88355236E+03</pdfrwt>
<pdfrwt beam="2">  1       -1 0.80034702E-01 0.88355236E+03</pdfrwt>
<totfact> 0.10277139E+02</totfact>
</mgrwt>
</event>
<event>
 6    1  0.1719556E-004  0.1068656E+04  0.7818608E-02  0.9236292E-01
          3   -1    0    0  501    0  0.00000000000E+00  0.00000000000E+00  0.87916533166E+03  0.87916533166E+03  0.00000000000E+00 0.  1.
         -3   -1    0    0    0  501 -0.00000000000E+00 -0.00000000000E+00 -0.32474733529E+03  0.32474733529E+03  0.00000000000E+00 0. -1.
         23    2    1    2    0    0  0.19953622758E+03 -0.33051381391E+03 -0.13062486860E+03  0.41756807700E+03  0.90808343937E+02 0.  0.
         11    1    3    3    0    0  0.13862666537E+03 -0.15604992783E+03 -0.95181682532E+02  0.22940899071E+03  0.00000000000E+00 0. -1.
        -11    1    3    3    0    0  0.60909562210E+02 -0.17446388608E+03 -0.35443186064E+02  0.18815908629E+03  0.00000000000E+00 0.  1.
         22    1    1    2    0    0 -0.19953622758E+03  0.33051381391E+03  0.68504286496E+03  0.78634458995E+03  0.00000000000E+00 0.  1.
<mgrwt>
<rscale>  0 0.10686564E+04</rscale>
<asrwt>0</asrwt>
<pdfrwt beam="1">  1        3 0.13525620E+00 0.10686564E+04</pdfrwt>
<pdfrwt beam="2">  1       -3 0.49961129E-01 0.10686564E+04</pdfrwt>
<totfact> 0.43660438E+00</totfact>
</mgrwt>
</event>
<event>
 6    1  0.1719556E-004  0.2144509E+04  0.7818608E-02  0.8541886E-01
          2   -1    0    0  501    0  0.00000000000E+00  0.00000000000E+00  0.23702562507E+04  0.23702562507E+04  0.00000000000E+00 0.  1.
         -2   -1    0    0    0  501 -0.00000000000E+00 -0.00000000000E+00 -0.48506563344E+03  0.48506563344E+03  0.00000000000E+00 0. -1.
         23    2    1    2    0    0 -0.13288254638E+03 -0.10485886526E+04  0.71985113276E+03  0.12820412202E+04  0.90819070170E+02 0.  0.
         11    1    3    3    0    0 -0.90496111561E+02 -0.37448971216E+03  0.27254749369E+03  0.47192608218E+03  0.00000000000E+00 0. -1.
        -11    1    3    3    0    0 -0.42386434815E+02 -0.67409894040E+03  0.44730363907E+03  0.81011513801E+03  0.00000000000E+00 0.  1.
         22    1    1    2    0    0  0.13288254638E+03  0.10485886526E+04  0.11653394845E+04  0.15732806639E+04  0.00000000000E+00 0.  1.
<mgrwt>
<rscale>  0 0.21445091E+04</rscale>
<asrwt>0</asrwt>
<pdfrwt beam="1">  1        2 0.36465480E+00 0.21445091E+04</pdfrwt>
<pdfrwt beam="2">  1       -2 0.74625483E-01 0.21445091E+04</pdfrwt>
<totfact> 0.61298984E+00</totfact>
</mgrwt>
</event>
<event>
 6    1  0.1719556E-004  0.4400012E+04  0.7818608E-02  0.7928379E-01
          2   -1    0    0  501    0  0.00000000000E+00  0.00000000000E+00  0.40371755412E+04  0.40371755412E+04  0.00000000000E+00 0.  1.
         -2   -1    0    0    0  501 -0.00000000000E+00 -0.00000000000E+00 -0.11988643627E+04  0.11988643627E+04  0.00000000000E+00 0. -1.
         23    2    1    2    0    0 -0.16875261802E+04 -0.12728002376E+04  0.69768592893E+03  0.22277112130E+04  0.90368904921E+02 0.  0.
         13    1    3    3    0    0 -0.15083758738E+04 -0.11015055754E+04  0.61286144562E+03  0.19657343311E+04  0.00000000000E+00 0.  1.
        -13    1    3    3    0    0 -0.17915030646E+03 -0.17129466228E+03  0.84824483314E+02  0.26197688181E+03  0.00000000000E+00 0. -1.
         22    1    1    2    0    0  0.16875261802E+04  0.12728002376E+04  0.21406252496E+04  0.30083286910E+04  0.00000000000E+00 0. -1.
<mgrwt>
<rscale>  0 0.44000118E+04</rscale>
<asrwt>0</asrwt>
<pdfrwt beam="1">  1        2 0.62110392E+00 0.44000118E+04</pdfrwt>
<pdfrwt beam="2">  1       -2 0.18444067E+00 0.44000118E+04</pdfrwt>
<totfact> 0.41015695E-02</totfact>
</mgrwt>
</event>
<event>
 6    1  0.1719556E-004  0.1412258E+04  0.7818608E-02  0.8944993E-01
          2   -1    0    0  501    0  0.00000000000E+00  0.00000000000E+00  0.62688669361E+03  0.62688669361E+03  0.00000000000E+00 0.  1.
         -2   -1    0    0    0  501 -0.00000000000E+00 -0.00000000000E+00 -0.79538770708E+03  0.79538770708E+03  0.00000000000E+00 0. -1.
         23    2    1    2    0    0 -0.15558934889E+03  0.12729056897E+02  0.60611543755E+03  0.63208409413E+03  0.88228703010E+02 0.  0.
         11    1    3    3    0    0 -0.39043561833E+02 -0.35888725232E+02  0.17723062447E+03  0.18499485012E+03  0.00000000000E+00 0.  1.
        -11    1    3    3    0    0 -0.11654578706E+03  0.48617782129E+02  0.42888481308E+03  0.44708924401E+03  0.00000000000E+00 0. -1.
         22    1    1    2    0    0  0.15558934889E+03 -0.12729056897E+02 -0.77461645102E+03  0.79019030655E+03  0.00000000000E+00 0. -1.
<mgrwt>
<rscale>  0 0.14122577E+04</rscale>
<asrwt>0</asrwt>
<pdfrwt beam="1">  1        2 0.96444107E-01 0.14122577E+04</pdfrwt>
<pdfrwt beam="2">  1       -2 0.12236734E+00 0.14122577E+04</pdfrwt>
<totfact> 0.23117398E+01</totfact>
</mgrwt>
</event>
<event>
 6    1  0.1719556E-004  0.4598556E+04  0.7818608E-02  0.7893606E-01
          2   -1    0    0  501    0  0.00000000000E+00  0.00000000000E+00  0.29196878351E+04  0.29196878351E+04  0.00000000000E+00 0.  1.
         -2   -1    0    0    0  501 -0.00000000000E+00 -0.00000000000E+00 -0.18107001171E+04  0.18107001171E+04  0.00000000000E+00 0. -1.
         23    2    1    2    0    0 -0.12680019785E+04  0.42937182358E+03 -0.13670103767E+04  0.19156489332E+04  0.93831151770E+02 0.  0.
         11    1    3    3    0    0 -0.65785014988E+03  0.17914723099E+03 -0.66315278521E+03  0.95112153093E+03  0.00000000000E+00 0. -1.
        -11    1    3    3    0    0 -0.61015182865E+03  0.25022459258E+03 -0.70385759146E+03  0.96452740230E+03  0.00000000000E+00 0.  1.
         22    1    1    2    0    0  0.12680019785E+04 -0.42937182358E+03  0.24759980947E+04  0.28147390190E+04  0.00000000000E+00 0.  1.
<mgrwt>
<rscale>  0 0.45985559E+04</rscale>
<asrwt>0</asrwt>
<pdfrwt beam="1">  1        2 0.44918274E+00 0.45985559E+04</pdfrwt>
<pdfrwt beam="2">  1       -2 0.27856925E+00 0.45985559E+04</pdfrwt>
<totfact> 0.63076147E-02</totfact>
</mgrwt>
</event>
<event>
 6    1  0.2113936E-004  0.3488959E+04  0.7818608E-02  0.8116411E-01
          2   -1    0    0  501    0  0.00000000000E+00  0.00000000000E+00  0.21530380944E+04  0.21530380944E+04  0.00000000000E+00 0.  1.
         -2   -1    0    0    0  501 -0.00000000000E+00 -0.00000000000E+00 -0.14134489714E+04  0.14134489714E+04  0.00000000000E+00 0. -1.
         23    2    1    2    0    0 -0.13762183608E+03 -0.15153151766E+04  0.12395316290E+04  0.19649058585E+04  0.96418457972E+02 0.  0.
         13    1    3    3    0    0 -0.10996723672E+03 -0.83027434620E+03  0.63840527855E+03  0.10530952392E+04  0.00000000000E+00 0. -1.
        -13    1    3    3    0    0 -0.27654599359E+02 -0.68504083042E+03  0.60112635050E+03  0.91181061930E+03  0.00000000000E+00 0.  1.
         22    1    1    2    0    0  0.13762183608E+03  0.15153151766E+04 -0.49994250603E+03  0.16015812073E+04  0.00000000000E+00 0. -1.
<mgrwt>
<rscale>  0 0.34889594E+04</rscale>
<asrwt>0</asrwt>
<pdfrwt beam="1">  1        2 0.33123663E+00 0.34889594E+04</pdfrwt>
<pdfrwt beam="2">  1       -2 0.21745369E+00 0.34889594E+04</pdfrwt>
<totfact> 0.46300096E-01</totfact>
</mgrwt>
</event>
<event>
 6    1  0.1719556E-004  0.1105766E+04  0.7818608E-02  0.9199590E-01
          1   -1    0    0  501    0  0.00000000000E+00  0.00000000000E+00  0.74580642432E+03  0.74580642432E+03  0.00000000000E+00 0.  1.
         -1   -1    0    0    0  501 -0.00000000000E+00 -0.00000000000E+00 -0.40986460154E+03  0.40986460154E+03  0.00000000000E+00 0. -1.
         23    2    1    2    0    0  0.21623078563E+02  0.31868237675E+03 -0.29725638148E+03  0.44647008066E+03  0.94594724065E+02 0.  0.
         13    1    3    3    0    0  0.48848878410E+02  0.22600206365E+03 -0.17142040998E+03  0.28783346340E+03  0.00000000000E+00 0. -1.
        -13    1    3    3    0    0 -0.27225799846E+02  0.92680313104E+02 -0.12583597150E+03  0.15863661727E+03  0.00000000000E+00 0.  1.
         22    1    1    2    0    0 -0.21623078563E+02 -0.31868237675E+03  0.63319820426E+03  0.70920094519E+03  0.00000000000E+00 0.  1.
<mgrwt>
<rscale>  0 0.11057661E+04</rscale>
<asrwt>0</asrwt>
<pdfrwt beam="1">  1        1 0.11473945E+00 0.11057661E+04</pdfrwt>
<pdfrwt beam="2">  1       -1 0.63056093E-01 0.11057661E+04</pdfrwt>
<totfact> 0.62794432E+01</totfact>
</mgrwt>
</event>
<event>
 6    1  0.1719556E-004  0.3570247E+04  0.7818608E-02  0.8097341E-01
         -1   -1    0    0    0  501 -0.00000000000E+00  0.00000000000E+00  0.20288216165E+04  0.20288216165E+04  0.00000000000E+00 0. -1.
          1   -1    0    0  501    0  0.00000000000E+00 -0.00000000000E+00 -0.15706978644E+04  0.15706978644E+04  0.00000000000E+00 0.  1.
         23    2    1    2    0    0  0.17444406168E+03  0.11991250889E+04  0.15494261482E+04  0.19687918429E+04  0.84191582868E+02 0.  0.
         11    1    3    3    0    0  0.74835781856E+02  0.27775329683E+03  0.34955017560E+03  0.45269483475E+03  0.00000000000E+00 0.  1.
        -11    1    3    3    0    0  0.99608279824E+02  0.92137179204E+03  0.11998759726E+04  0.15160970082E+04  0.00000000000E+00 0. -1.
         22    1    1    2    0    0 -0.17444406168E+03 -0.11991250889E+04 -0.10913023961E+04  0.16307276379E+04  0.00000000000E+00 0. -1.
<mgrwt>
<rscale>  0 0.35702469E+04</rscale>
<asrwt>0</asrwt>
<pdfrwt beam="1">  1        1 0.24164583E+00 0.35702469E+04</pdfrwt>
<pdfrwt beam="2">  1       -1 0.31212640E+00 0.35702469E+04</pdfrwt>
<totfact> 0.13056423E-01</totfact>
</mgrwt>
</event>
<event>
 6    1  0.1719556E-004  0.1335711E+04  0.7818608E-02  0.9001715E-01
          1   -1    0    0  501    0  0.00000000000E+00  0.00000000000E+00  0.69624559384E+03  0.69624559384E+03  0.00000000000E+00 0.  1.
         -1   -1    0    0    0  501 -0.00000000000E+00 -0.00000000000E+00 -0.64062341829E+03  0.64062341829E+03  0.00000000000E+00 0. -1.
         23    2    1    2    0    0 -0.20101532755E+03 -0.13266395759E+03  0.64807519822E+03  0.69733209245E+03  0.90904879190E+02 0.  0.
         11    1    3    3    0    0 -0.17301804419E+03 -0.10092298283E+03  0.41944008222E+03  0.46481251559E+03  0.00000000000E+00 0. -1.
        -11    1    3    3    0    0 -0.27997283362E+02 -0.31740974760E+02  0.22863511600E+03  0.23251957686E+03  0.00000000000E+00 0.  1.
         22    1    1    2    0    0  0.20101532755E+03  0.13266395759E+03 -0.59245302267E+03  0.63953691967E+03  0.00000000000E+00 0. -1.
<mgrwt>
<rscale>  0 0.13357114E+04</rscale>
<asrwt>0</asrwt>
<pdfrwt beam="1">  1        1 0.10711471E+00 0.13357114E+04</pdfrwt>
<pdfrwt beam="2">  1       -1 0.98557448E-01 0.13357114E+04</pdfrwt>
<totfact> 0.26532255E+01</totfact>
</mgrwt>
</event>
<event>
 6    1  0.1719556E-004  0.2011065E+04  0.7818608E-02  0.8601465E-01
          2   -1    0    0  501    0  0.00000000000E+00  0.00000000000E+00  0.39449115795E+04  0.39449115795E+04  0.00000000000E+00 0.  1.
         -2   -1    0    0    0  501 -0.00000000000E+00 -0.00000000000E+00 -0.25630375572E+03  0.25630375572E+03  0.00000000000E+00 0. -1.
         23    2    1    2    0    0 -0.94012504291E+03  0.32521700878E+03  0.21231786444E+04  0.23464458846E+04  0.91211482099E+02 0.  0.
         13    1    3    3    0    0 -0.80797958204E+03  0.25237463182E+03  0.17521111971E+04  0.19458719399E+04  0.00000000000E+00 0. -1.
        -13    1    3    3    0    0 -0.13214546088E+03  0.72842376960E+02  0.37106744732E+03  0.40057394470E+03  0.00000000000E+00 0.  1.
         22    1    1    2    0    0  0.94012504291E+03 -0.32521700878E+03  0.15654291794E+04  0.18547694506E+04  0.00000000000E+00 0. -1.
<mgrwt>
<rscale>  0 0.20110650E+04</rscale>
<asrwt>0</asrwt>
<pdfrwt beam="1">  1        2 0.60690943E+00 0.20110650E+04</pdfrwt>
<pdfrwt beam="2">  1       -2 0.39431350E-01 0.20110650E+04</pdfrwt>
<totfact> 0.21596672E+00</totfact>
</mgrwt>
</event>
<event>
 6    1  0.1719556E-004  0.3618514E+04  0.7818608E-02  0.8086264E-01
         -1   -1    0    0    0  501 -0.00000000000E+00  0.00000000000E+00  0.10579913691E+04  0.10579913691E+04  0.00000000000E+00 0. -1.
          1   -1    0    0  501    0  0.00000000000E+00 -0.00000000000E+00 -0.30939872161E+04  0.30939872161E+04  0.00000000000E+00 0.  1.
         23    2    1    2    0    0  0.15505940335E+04  0.88865291103E+03 -0.70455393870E+03  0.19233504403E+04  0.93993673313E+02 0.  0.
         11    1    3    3    0    0  0.10420683987E+04  0.56986196567E+03 -0.50812678786E+03  0.12918366925E+04  0.00000000000E+00 0. -1.
        -11    1    3    3    0    0  0.50852563484E+03  0.31879094536E+03 -0.19642715084E+03  0.63151374785E+03  0.00000000000E+00 0.  1.
         22    1    1    2    0    0 -0.15505940335E+04 -0.88865291103E+03 -0.13314419083E+04  0.22286281449E+04  0.00000000000E+00 0.  1.
<mgrwt>
<rscale>  0 0.36185145E+04</rscale>
<asrwt>0</asrwt>
<pdfrwt beam="1">  1        1 0.47599804E+00 0.36185145E+04</pdfrwt>
<pdfrwt beam="2">  1       -1 0.16276790E+00 0.36185145E+04</pdfrwt>
<totfact> 0.11460912E-01</totfact>
</mgrwt>
</event>
<event>
 6    1  0.1719556E-004  0.3289787E+04  0.7818608E-02  0.8165499E-01
         -2   -1    0    0    0  501 -0.00000000000E+00  0.00000000000E+00  0.21230564776E+04  0.21230564776E+04  0.00000000000E+00 0. -1.
          2   -1    0    0  501    0  0.00000000000E+00 -0.00000000000E+00 -0.12744239834E+04  0.12744239834E+04  0.00000000000E+00 0.  1.
         23    2    1    2    0    0 -0.89187909587E+03  0.12028358651E+04 -0.27519963867E+03  0.15252462067E+04  0.91535293115E+02 0.  0.
         11    1    3    3    0    0 -0.69223642140E+02  0.91475050350E+02 -0.46357050818E+02  0.12372782075E+03  0.00000000000E+00 0.  1.
        -11    1    3    3    0    0 -0.82265545373E+03  0.11113608147E+04 -0.22884258785E+03  0.14015183859E+04  0.00000000000E+00 0. -1.
         22    1    1    2    0    0  0.89187909587E+03 -0.12028358651E+04  0.11238321330E+04  0.18722342543E+04  0.00000000000E+00 0. -1.
<mgrwt>
<rscale>  0 0.32897867E+04</rscale>
<asrwt>0</asrwt>
<pdfrwt beam="1">  1        2 0.19606523E+00 0.32897867E+04</pdfrwt>
<pdfrwt beam="2">  1       -2 0.32662407E+00 0.32897867E+04</pdfrwt>
<totfact> 0.31153164E-01</totfact>
</mgrwt>
</event>
<event>
 6    1  0.1719556E-004  0.2726911E+04  0.7818608E-02  0.8326326E-01
         -2   -1    0    0    0  501 -0.00000000000E+00  0.00000000000E+00  0.61094032031E+03  0.61094032031E+03  0.00000000000E+00 0. -1.
          2   -1    0    0  501    0  0.00000000000E+00 -0.00000000000E+00 -0.30428671671E+04  0.30428671671E+04  0.00000000000E+00 0.  1.
         23    2    1    2    0    0 -0.32459625311E+02  0.13530547334E+04 -0.14199642267E+04  0.19638728486E+04  0.93206339068E+02 0.  0.
         11    1    3    3    0    0 -0.20100445161E+02  0.12999991709E+04 -0.13397066997E+04  0.18668732987E+04  0.00000000000E+00 0. -1.
        -11    1    3    3    0    0 -0.12359180150E+02  0.53055562540E+02 -0.80257526960E+02  0.96999549917E+02  0.00000000000E+00 0.  1.
         22    1    1    2    0    0  0.32459625311E+02 -0.13530547334E+04 -0.10119626201E+04  0.16899346388E+04  0.00000000000E+00 0. -1.
<mgrwt>
<rscale>  0 0.27269105E+04</rscale>
<asrwt>0</asrwt>
<pdfrwt beam="1">  1        2 0.46813340E+00 0.27269105E+04</pdfrwt>
<pdfrwt beam="2">  1       -2 0.93990821E-01 0.27269105E+04</pdfrwt>
<totfact> 0.13681936E+00</totfact>
</mgrwt>
</event>
<event>
 6    1  0.1719556E-004  0.3045832E+04  0.7818608E-02  0.8230763E-01
         -4   -1    0    0    0  501 -0.00000000000E+00  0.00000000000E+00  0.14659387432E+04  0.14659387432E+04  0.00000000000E+00 0. -1.
          4   -1    0    0  501    0  0.00000000000E+00 -0.00000000000E+00 -0.15821078907E+04  0.15821078907E+04  0.00000000000E+00 0.  1.
         23    2    1    2    0    0 -0.31045975235E+03 -0.14335848613E+04  0.34633583223E+03  0.15100408899E+04  0.93403256241E+02 0.  0.
         13    1    3    3    0    0 -0.25919650683E+03 -0.99696859838E+03  0.24902254821E+03  0.10597836783E+04  0.00000000000E+00 0. -1.
        -13    1    3    3    0    0 -0.51263245520E+02 -0.43661626290E+03  0.97313284023E+02  0.45025721163E+03  0.00000000000E+00 0.  1.
         22    1    1    2    0    0  0.31045975235E+03  0.14335848613E+04 -0.46250497974E+03  0.15380057440E+04  0.00000000000E+00 0.  1.
<mgrwt>
<rscale>  0 0.30458321E+04</rscale>
<asrwt>0</asrwt>
<pdfrwt beam="1">  1        4 0.24340121E+00 0.30458321E+04</pdfrwt>
<pdfrwt beam="2">  1       -4 0.22552904E+00 0.30458321E+04</pdfrwt>
<totfact> 0.10562781E-02</totfact>
</mgrwt>
</event>
<event>
 6    1  0.1719556E-004  0.3442230E+04  0.7818608E-02  0.8127619E-01
         -2   -1    0    0    0  501 -0.00000000000E+00  0.00000000000E+00  0.45549508140E+04  0.45549508140E+04  0.00000000000E+00 0. -1.
          2   -1    0    0  501    0  0.00000000000E+00 -0.00000000000E+00 -0.65033329360E+03  0.65033329360E+03  0.00000000000E+00 0.  1.
         23    2    1    2    0    0  0.82153588054E+03  0.11352290447E+04  0.34615457881E+04  0.37355974924E+04  0.93398048469E+02 0.  0.
         13    1    3    3    0    0  0.41680621796E+03  0.51018428553E+03  0.15554085179E+04  0.16891746760E+04  0.00000000000E+00 0. -1.
        -13    1    3    3    0    0  0.40472966258E+03  0.62504475919E+03  0.19061372702E+04  0.20464228164E+04  0.00000000000E+00 0.  1.
         22    1    1    2    0    0 -0.82153588054E+03 -0.11352290447E+04  0.44307173237E+03  0.14696866152E+04  0.00000000000E+00 0.  1.
<mgrwt>
<rscale>  0 0.34422296E+04</rscale>
<asrwt>0</asrwt>
<pdfrwt beam="1">  1        2 0.10005128E+00 0.34422296E+04</pdfrwt>
<pdfrwt beam="2">  1       -2 0.70076164E+00 0.34422296E+04</pdfrwt>
<totfact> 0.83476966E-03</totfact>
</mgrwt>
</event>
<event>
 6    1  0.1719556E-004  0.2595114E+04  0.7818608E-02  0.8369863E-01
          1   -1    0    0  501    0  0.00000000000E+00  0.00000000000E+00  0.25603861187E+04  0.25603861187E+04  0.00000000000E+00 0.  1.
         -1   -1    0    0    0  501 -0.00000000000E+00 -0.00000000000E+00 -0.65757840760E+03  0.65757840760E+03  0.00000000000E+00 0. -1.
         23    2    1    2    0    0  0.38184213548E+03  0.16655671668E+03  0.24743357255E+04  0.25107242366E+04  0.88624790610E+02 0.  0.
         11    1    3    3    0    0  0.95711937308E+02  0.41408986982E+02  0.87409211590E+03  0.88029114856E+03  0.00000000000E+00 0.  1.
        -11    1    3    3    0    0  0.28613019817E+03  0.12514772970E+03  0.16002436096E+04  0.16304330880E+04  0.00000000000E+00 0. -1.
         22    1    1    2    0    0 -0.38184213548E+03 -0.16655671668E+03 -0.57152801433E+03  0.70724028976E+03  0.00000000000E+00 0. -1.
<mgrwt>
<rscale>  0 0.25951144E+04</rscale>
<asrwt>0</asrwt>
<pdfrwt beam="1">  1        1 0.39390555E+00 0.25951144E+04</pdfrwt>
<pdfrwt beam="2">  1       -1 0.10116591E+00 0.25951144E+04</pdfrwt>
<totfact> 0.10052268E+00</totfact>
</mgrwt>
</event>
<event>
 6    1  0.2828991E-004  0.3090758E+04  0.7818608E-02  0.8218279E-01
         -2   -1    0    0    0  501 -0.00000000000E+00  0.00000000000E+00  0.11994064454E+04  0.11994064454E+04  0.00000000000E+00 0. -1.
          2   -1    0    0  501    0  0.00000000000E+00 -0.00000000000E+00 -0.19911482463E+04  0.19911482463E+04  0.00000000000E+00 0.  1.
         23    2    1    2    0    0  0.53695577551E+03  0.50085389497E+03 -0.17983799060E+04  0.19445625555E+04  0.89314707667E+02 0.  0.
         11    1    3    3    0    0  0.34485923472E+03  0.35497915003E+03 -0.11163665575E+04  0.12211520705E+04  0.00000000000E+00 0. -1.
        -11    1    3    3    0    0  0.19209654079E+03  0.14587474494E+03 -0.68201334854E+03  0.72341048498E+03  0.00000000000E+00 0.  1.
         22    1    1    2    0    0 -0.53695577551E+03 -0.50085389497E+03  0.10066381051E+04  0.12459921362E+04  0.00000000000E+00 0. -1.
<mgrwt>
<rscale>  0 0.30907579E+04</rscale>
<asrwt>0</asrwt>
<pdfrwt beam="1">  1        2 0.30633050E+00 0.30907579E+04</pdfrwt>
<pdfrwt beam="2">  1       -2 0.18452407E+00 0.30907579E+04</pdfrwt>
<totfact> 0.96929991E-01</totfact>
</mgrwt>
</event>
<event>
 6    1  0.1719556E-004  0.2134951E+04  0.7818608E-02  0.8546002E-01
         -3   -1    0    0    0  501 -0.00000000000E+00  0.00000000000E+00  0.85343788754E+03  0.85343788754E+03  0.00000000000E+00 0. -1.
          3   -1    0    0  501    0  0.00000000000E+00 -0.00000000000E+00 -0.13351924426E+04  0.13351924426E+04  0.00000000000E+00 0.  1.
         23    2    1    2    0    0 -0.33189243354E+02 -0.74893990697E+03 -0.10176133078E+04  0.12671331175E+04  0.89872037358E+02 0.  0.
         11    1    3    3    0    0 -0.42672443205E+02 -0.35030393271E+03 -0.41809323750E+03  0.54711583593E+03  0.00000000000E+00 0.  1.
        -11    1    3    3    0    0  0.94831998515E+01 -0.39863597426E+03 -0.59952007026E+03  0.72001728152E+03  0.00000000000E+00 0. -1.
         22    1    1    2    0    0  0.33189243354E+02  0.74893990697E+03  0.53585875270E+03  0.92149721268E+03  0.00000000000E+00 0. -1.
<mgrwt>
<rscale>  0 0.21349509E+04</rscale>
<asrwt>0</asrwt>
<pdfrwt beam="1">  1        3 0.20541422E+00 0.21349509E+04</pdfrwt>
<pdfrwt beam="2">  1       -3 0.13129814E+00 0.21349509E+04</pdfrwt>
<totfact> 0.14796551E-01</totfact>
</mgrwt>
</event>
<event>
 6    1  0.1719556E-004  0.2361141E+04  0.7818608E-02  0.8454197E-01
          1   -1    0    0  501    0  0.00000000000E+00  0.00000000000E+00  0.14844480954E+04  0.14844480954E+04  0.00000000000E+00 0. -1.
         -1   -1    0    0    0  501 -0.00000000000E+00 -0.00000000000E+00 -0.93889879453E+03  0.93889879453E+03  0.00000000000E+00 0.  1.
         23    2    1    2    0    0 -0.11430339090E+04  0.21501880605E+02 -0.21861637350E+02  0.11470459768E+04  0.90816814682E+02 0.  0.
         13    1    3    3    0    0 -0.63837050698E+03  0.13147971977E+02  0.32890383377E+02  0.63935244636E+03  0.00000000000E+00 0.  1.
        -13    1    3    3    0    0 -0.50466340200E+03  0.83539086287E+01 -0.54752020727E+02  0.50769353047E+03  0.00000000000E+00 0. -1.
         22    1    1    2    0    0  0.11430339090E+04 -0.21501880605E+02  0.56741093822E+03  0.12763009131E+04  0.00000000000E+00 0.  1.
<mgrwt>
<rscale>  0 0.23611408E+04</rscale>
<asrwt>0</asrwt>
<pdfrwt beam="1">  1        1 0.22837663E+00 0.23611408E+04</pdfrwt>
<pdfrwt beam="2">  1       -1 0.14444597E+00 0.23611408E+04</pdfrwt>
<totfact> 0.23275709E+00</totfact>
</mgrwt>
</event>
<event>
 6    1  0.1719556E-004  0.1485719E+04  0.7818608E-02  0.8894006E-01
          1   -1    0    0  501    0  0.00000000000E+00  0.00000000000E+00  0.24334594335E+04  0.24334594335E+04  0.00000000000E+00 0. -1.
         -1   -1    0    0    0  501 -0.00000000000E+00 -0.00000000000E+00 -0.22677177421E+03  0.22677177421E+03  0.00000000000E+00 0.  1.
         23    2    1    2    0    0 -0.39068218681E+03  0.37502853037E+03  0.20403776707E+03  0.58565039211E+03  0.89866577242E+02 0.  0.
         13    1    3    3    0    0 -0.30106713506E+03  0.31510461765E+03  0.12970682893E+03  0.45470452093E+03  0.00000000000E+00 0. -1.
        -13    1    3    3    0    0 -0.89615051749E+02  0.59923912713E+02  0.74330938134E+02  0.13094587118E+03  0.00000000000E+00 0.  1.
         22    1    1    2    0    0  0.39068218681E+03 -0.37502853037E+03  0.20026498922E+04  0.20745808156E+04  0.00000000000E+00 0. -1.
<mgrwt>
<rscale>  0 0.14857186E+04</rscale>
<asrwt>0</asrwt>
<pdfrwt beam="1">  1        1 0.37437836E+00 0.14857186E+04</pdfrwt>
<pdfrwt beam="2">  1       -1 0.34887967E-01 0.14857186E+04</pdfrwt>
<totfact> 0.11413494E+01</totfact>
</mgrwt>
</event>
<event>
 6    1  0.1719556E-004  0.3396399E+03  0.7818608E-02  0.1066949E+00
         -2   -1    0    0    0  501 -0.00000000000E+00  0.00000000000E+00  0.41343242732E+02  0.41343242732E+02  0.00000000000E+00 0.  1.
          2   -1    0    0  501    0  0.00000000000E+00 -0.00000000000E+00 -0.69754611449E+03  0.69754611449E+03  0.00000000000E+00 0. -1.
         23    2    1    2    0    0  0.58171146552E+02  0.14656987548E+03 -0.36224257952E+03  0.40530388976E+03  0.90470691099E+02 0.  0.
         11    1    3    3    0    0  0.55158844528E+02  0.99786283937E+02 -0.32799306677E+03  0.34724523386E+03  0.00000000000E+00 0. -1.
        -11    1    3    3    0    0  0.30123020234E+01  0.46783591542E+02 -0.34249512755E+02  0.58058655901E+02  0.00000000000E+00 0.  1.
         22    1    1    2    0    0 -0.58171146552E+02 -0.14656987548E+03 -0.29396029224E+03  0.33358546746E+03  0.00000000000E+00 0.  1.
<mgrwt>
<rscale>  0 0.33963992E+03</rscale>
<asrwt>0</asrwt>
<pdfrwt beam="1">  1        2 0.10731477E+00 0.33963992E+03</pdfrwt>
<pdfrwt beam="2">  1       -2 0.63604996E-02 0.33963992E+03</pdfrwt>
<totfact> 0.57169118E+03</totfact>
</mgrwt>
</event>
<event>
 6    1  0.1719556E-004  0.3886066E+04  0.7818608E-02  0.8027933E-01
         -1   -1    0    0    0  501 -0.00000000000E+00  0.00000000000E+00  0.12333723507E+04  0.12333723507E+04  0.00000000000E+00 0. -1.
          1   -1    0    0  501    0  0.00000000000E+00 -0.00000000000E+00 -0.30610203880E+04  0.30610203880E+04  0.00000000000E+00 0.  1.
         23    2    1    2    0    0 -0.80134734066E+03 -0.16196390981E+04 -0.12837297248E+03  0.18138838969E+04  0.91141663683E+02 0.  0.
         11    1    3    3    0    0 -0.33726823118E+03 -0.59741959428E+03 -0.72422621133E+02  0.68985873007E+03  0.00000000000E+00 0.  1.
        -11    1    3    3    0    0 -0.46407910948E+03 -0.10222195038E+04 -0.55950351346E+02  0.11240251668E+04  0.00000000000E+00 0. -1.
         22    1    1    2    0    0  0.80134734066E+03  0.16196390981E+04 -0.16992750649E+04  0.24805088418E+04  0.00000000000E+00 0.  1.
<mgrwt>
<rscale>  0 0.38860663E+04</rscale>
<asrwt>0</asrwt>
<pdfrwt beam="1">  1        1 0.47092621E+00 0.38860663E+04</pdfrwt>
<pdfrwt beam="2">  1       -1 0.18974959E+00 0.38860663E+04</pdfrwt>
<totfact> 0.75525017E-02</totfact>
</mgrwt>
</event>
<event>
 6    1  0.1719556E-004  0.4245155E+04  0.7818608E-02  0.7956838E-01
          2   -1    0    0  501    0  0.00000000000E+00  0.00000000000E+00  0.31975193396E+04  0.31975193396E+04  0.00000000000E+00 0.  1.
         -2   -1    0    0    0  501 -0.00000000000E+00 -0.00000000000E+00 -0.14090092808E+04  0.14090092808E+04  0.00000000000E+00 0. -1.
         23    2    1    2    0    0  0.22708212231E+03 -0.16144155553E+04 -0.57863395321E+03  0.17322853028E+04  0.89951335584E+02 0.  0.
         11    1    3    3    0    0  0.40631545940E+02 -0.39805363665E+03 -0.18013622486E+03  0.43880141259E+03  0.00000000000E+00 0.  1.
        -11    1    3    3    0    0  0.18645057637E+03 -0.12163619187E+04 -0.39849772835E+03  0.12934838902E+04  0.00000000000E+00 0. -1.
         22    1    1    2    0    0 -0.22708212231E+03  0.16144155553E+04  0.23671440120E+04  0.28742433177E+04  0.00000000000E+00 0.  1.
<mgrwt>
<rscale>  0 0.42451546E+04</rscale>
<asrwt>0</asrwt>
<pdfrwt beam="1">  1        2 0.49192605E+00 0.42451546E+04</pdfrwt>
<pdfrwt beam="2">  1       -2 0.21677066E+00 0.42451546E+04</pdfrwt>
<totfact> 0.10421277E-01</totfact>
</mgrwt>
</event>
<event>
 6    1  0.1719556E-004  0.3801952E+04  0.7818608E-02  0.8045736E-01
         -1   -1    0    0    0  501 -0.00000000000E+00  0.00000000000E+00  0.11573281399E+04  0.11573281399E+04  0.00000000000E+00 0. -1.
          1   -1    0    0  501    0  0.00000000000E+00 -0.00000000000E+00 -0.31224587128E+04  0.31224587128E+04  0.00000000000E+00 0.  1.
         23    2    1    2    0    0  0.25969447500E+03  0.12841629678E+04  0.56556243329E+03  0.14300635610E+04  0.93301523238E+02 0.  0.
         11    1    3    3    0    0  0.24007686376E+03  0.10551260739E+04  0.49210206216E+03  0.11887356190E+04  0.00000000000E+00 0. -1.
        -11    1    3    3    0    0  0.19617611240E+02  0.22903689393E+03  0.73460371132E+02  0.24132794198E+03  0.00000000000E+00 0.  1.
         22    1    1    2    0    0 -0.25969447500E+03 -0.12841629678E+04 -0.25306930062E+04  0.28497232918E+04  0.00000000000E+00 0. -1.
<mgrwt>
<rscale>  0 0.38019518E+04</rscale>
<asrwt>0</asrwt>
<pdfrwt beam="1">  1        1 0.48037826E+00 0.38019518E+04</pdfrwt>
<pdfrwt beam="2">  1       -1 0.17805049E+00 0.38019518E+04</pdfrwt>
<totfact> 0.82985183E-02</totfact>
</mgrwt>
</event>
<event>
 6    1  0.1719556E-004  0.4021533E+04  0.7818608E-02  0.8000217E-01
         -2   -1    0    0    0  501 -0.00000000000E+00  0.00000000000E+00  0.11269187115E+04  0.11269187115E+04  0.00000000000E+00 0. -1.
          2   -1    0    0  501    0  0.00000000000E+00 -0.00000000000E+00 -0.35878197311E+04  0.35878197311E+04  0.00000000000E+00 0.  1.
         23    2    1    2    0    0  0.15169651395E+04 -0.93661132361E+03 -0.23187121068E+04  0.29262637593E+04  0.90386663859E+02 0.  0.
         11    1    3    3    0    0  0.40202487946E+03 -0.20619707572E+03 -0.61396048932E+03  0.76229175529E+03  0.00000000000E+00 0.  1.
        -11    1    3    3    0    0  0.11149402600E+04 -0.73041424790E+03 -0.17047516175E+04  0.21639720040E+04  0.00000000000E+00 0. -1.
         22    1    1    2    0    0 -0.15169651395E+04  0.93661132361E+03 -0.14218891282E+03  0.17884746833E+04  0.00000000000E+00 0. -1.
<mgrwt>
<rscale>  0 0.40215326E+04</rscale>
<asrwt>0</asrwt>
<pdfrwt beam="1">  1        2 0.55197227E+00 0.40215326E+04</pdfrwt>
<pdfrwt beam="2">  1       -2 0.17337211E+00 0.40215326E+04</pdfrwt>
<totfact> 0.11167857E-01</totfact>
</mgrwt>
</event>
<event>
 6    1  0.1719556E-004  0.3786039E+04  0.7818608E-02  0.8049157E-01
          2   -1    0    0  501    0  0.00000000000E+00  0.00000000000E+00  0.30791710827E+04  0.30791710827E+04  0.00000000000E+00 0.  1.
         -2   -1    0    0    0  501 -0.00000000000E+00 -0.00000000000E+00 -0.11637947300E+04  0.11637947300E+04  0.00000000000E+00 0. -1.
         23    2    1    2    0    0  0.93410726849E+03  0.48925929624E+03  0.27186786599E+04  0.29173619334E+04  0.88633777581E+02 0.  0.
         11    1    3    3    0    0  0.48357798921E+03  0.30259143033E+03  0.14473558256E+04  0.15557146689E+04  0.00000000000E+00 0. -1.
        -11    1    3    3    0    0  0.45052927929E+03  0.18666786591E+03  0.12713228344E+04  0.13616472645E+04  0.00000000000E+00 0.  1.
         22    1    1    2    0    0 -0.93410726849E+03 -0.48925929624E+03 -0.80330230718E+03  0.13256038793E+04  0.00000000000E+00 0. -1.
<mgrwt>
<rscale>  0 0.37860391E+04</rscale>
<asrwt>0</asrwt>
<pdfrwt beam="1">  1        2 0.47371862E+00 0.37860391E+04</pdfrwt>
<pdfrwt beam="2">  1       -2 0.17904534E+00 0.37860391E+04</pdfrwt>
<totfact> 0.22913433E-01</totfact>
</mgrwt>
</event>
<event>
 6    1  0.1719556E-004  0.1534772E+04  0.7818608E-02  0.8861654E-01
          2   -1    0    0  501    0  0.00000000000E+00  0.00000000000E+00  0.92009215904E+03  0.92009215904E+03  0.00000000000E+00 0. -1.
         -2   -1    0    0    0  501 -0.00000000000E+00 -0.00000000000E+00 -0.64002421460E+03  0.64002421460E+03  0.00000000000E+00 0.  1.
         23    2    1    2    0    0 -0.68536374180E+03  0.31710203206E+03  0.26300241322E+03  0.80475659866E+03  0.90475170147E+02 0.  0.
         13    1    3    3    0    0 -0.38644506165E+03  0.15231381829E+03  0.10395906917E+03  0.42819011313E+03  0.00000000000E+00 0. -1.
        -13    1    3    3    0    0 -0.29891868015E+03  0.16478821377E+03  0.15904334405E+03  0.37656648553E+03  0.00000000000E+00 0.  1.
         22    1    1    2    0    0  0.68536374180E+03 -0.31710203206E+03  0.17065531222E+02  0.75535977499E+03  0.00000000000E+00 0. -1.
<mgrwt>
<rscale>  0 0.15347720E+04</rscale>
<asrwt>0</asrwt>
<pdfrwt beam="1">  1        2 0.14155264E+00 0.15347720E+04</pdfrwt>
<pdfrwt beam="2">  1       -2 0.98465264E-01 0.15347720E+04</pdfrwt>
<totfact> 0.23471448E+01</totfact>
</mgrwt>
</event>
<event>
 6    1  0.1719556E-004  0.3379116E+04  0.7818608E-02  0.8143051E-01
         -2   -1    0    0    0  501 -0.00000000000E+00  0.00000000000E+00  0.12157974514E+04  0.12157974514E+04  0.00000000000E+00 0. -1.
          2   -1    0    0  501    0  0.00000000000E+00 -0.00000000000E+00 -0.23479287219E+04  0.23479287219E+04  0.00000000000E+00 0.  1.
         23    2    1    2    0    0 -0.40915851156E+03  0.97980120184E+03 -0.19509516600E+04  0.22228727461E+04  0.86774322781E+02 0.  0.
         11    1    3    3    0    0 -0.19282600821E+03  0.56863853867E+03 -0.11258265357E+04  0.12759377123E+04  0.00000000000E+00 0. -1.
        -11    1    3    3    0    0 -0.21633250335E+03  0.41116266317E+03 -0.82512512428E+03  0.94693503383E+03  0.00000000000E+00 0.  1.
         22    1    1    2    0    0  0.40915851156E+03 -0.97980120184E+03  0.81882038952E+03  0.13408534271E+04  0.00000000000E+00 0. -1.
<mgrwt>
<rscale>  0 0.33791157E+04</rscale>
<asrwt>0</asrwt>
<pdfrwt beam="1">  1        2 0.36121980E+00 0.33791157E+04</pdfrwt>
<pdfrwt beam="2">  1       -2 0.18704576E+00 0.33791157E+04</pdfrwt>
<totfact> 0.57332944E-01</totfact>
</mgrwt>
</event>
<event>
 6    1  0.1719556E-004  0.2166286E+04  0.7818608E-02  0.8532593E-01
          2   -1    0    0  501    0  0.00000000000E+00  0.00000000000E+00  0.18060667761E+04  0.18060667761E+04  0.00000000000E+00 0.  1.
         -2   -1    0    0    0  501 -0.00000000000E+00 -0.00000000000E+00 -0.64958776649E+03  0.64958776649E+03  0.00000000000E+00 0. -1.
         23    2    1    2    0    0 -0.86843725748E+03 -0.25544860574E+03 -0.90982334137E+02  0.91435734071E+03  0.91292393046E+02 0.  0.
         11    1    3    3    0    0 -0.55341244815E+03 -0.20213833979E+03 -0.37083161585E+02  0.59033923048E+03  0.00000000000E+00 0.  1.
        -11    1    3    3    0    0 -0.31502480934E+03 -0.53310265954E+02 -0.53899172552E+02  0.32401811023E+03  0.00000000000E+00 0. -1.
         22    1    1    2    0    0  0.86843725748E+03  0.25544860574E+03  0.12474613438E+04  0.15412972019E+04  0.00000000000E+00 0.  1.
<mgrwt>
<rscale>  0 0.21662861E+04</rscale>
<asrwt>0</asrwt>
<pdfrwt beam="1">  1        2 0.27785642E+00 0.21662861E+04</pdfrwt>
<pdfrwt beam="2">  1       -2 0.99936580E-01 0.21662861E+04</pdfrwt>
<totfact> 0.64922079E+00</totfact>
</mgrwt>
</event>
<event>
 6    1  0.1719556E-004  0.1231919E+04  0.7818608E-02  0.9085368E-01
         -2   -1    0    0    0  501 -0.00000000000E+00  0.00000000000E+00  0.23118875051E+03  0.23118875051E+03  0.00000000000E+00 0. -1.
          2   -1    0    0  501    0  0.00000000000E+00 -0.00000000000E+00 -0.16411085202E+04  0.16411085202E+04  0.00000000000E+00 0.  1.
         23    2    1    2    0    0 -0.41542573807E+03  0.37521220552E+03 -0.10866815344E+04  0.12258874164E+04  0.92522740167E+02 0.  0.
         13    1    3    3    0    0 -0.28993199823E+03  0.27324802175E+03 -0.67813261538E+03  0.78650422060E+03  0.00000000000E+00 0.  1.
        -13    1    3    3    0    0 -0.12549373984E+03  0.10196418377E+03 -0.40854891899E+03  0.43938319576E+03  0.00000000000E+00 0. -1.
         22    1    1    2    0    0  0.41542573807E+03 -0.37521220552E+03 -0.32323823533E+03  0.64640985435E+03  0.00000000000E+00 0. -1.
<mgrwt>
<rscale>  0 0.12319185E+04</rscale>
<asrwt>0</asrwt>
<pdfrwt beam="1">  1        2 0.25247824E+00 0.12319185E+04</pdfrwt>
<pdfrwt beam="2">  1       -2 0.35567500E-01 0.12319185E+04</pdfrwt>
<totfact> 0.77339592E+01</totfact>
</mgrwt>
</event>
<event>
 6    1  0.1719556E-004  0.1081846E+04  0.7818608E-02  0.9223068E-01
          2   -1    0    0  501    0  0.00000000000E+00  0.00000000000E+00  0.67597938554E+03  0.67597938554E+03  0.00000000000E+00 0. -1.
         -2   -1    0    0    0  501 -0.00000000000E+00 -0.00000000000E+00 -0.43285039968E+03  0.43285039968E+03  0.00000000000E+00 0.  1.
         23    2    1    2    0    0 -0.11227993977E+03 -0.40965358639E+03  0.45924522045E+03  0.63224918074E+03  0.91706097537E+02 0.  0.
         13    1    3    3    0    0 -0.60561740686E+02 -0.12351889158E+03  0.99986522357E+02  0.17006453382E+03  0.00000000000E+00 0. -1.
        -13    1    3    3    0    0 -0.51718199081E+02 -0.28613469481E+03  0.35925869809E+03  0.46218464692E+03  0.00000000000E+00 0.  1.
         22    1    1    2    0    0  0.11227993977E+03  0.40965358639E+03 -0.21611623459E+03  0.47658060448E+03  0.00000000000E+00 0.  1.
<mgrwt>
<rscale>  0 0.10818465E+04</rscale>
<asrwt>0</asrwt>
<pdfrwt beam="1">  1        2 0.10399683E+00 0.10818465E+04</pdfrwt>
<pdfrwt beam="2">  1       -2 0.66592369E-01 0.10818465E+04</pdfrwt>
<totfact> 0.88234369E+01</totfact>
</mgrwt>
</event>
<event>
 6    1  0.1719556E-004  0.3213970E+04  0.7818608E-02  0.8185137E-01
          1   -1    0    0  501    0  0.00000000000E+00  0.00000000000E+00  0.35279273698E+04  0.35279273698E+04  0.00000000000E+00 0. -1.
         -1   -1    0    0    0  501 -0.00000000000E+00 -0.00000000000E+00 -0.73198809088E+03  0.73198809088E+03  0.00000000000E+00 0.  1.
         23    2    1    2    0    0 -0.12195323490E+04  0.10040332543E+04  0.10171517077E+04  0.18809604066E+04  0.89847251766E+02 0.  0.
         11    1    3    3    0    0 -0.11025869389E+04  0.88631314610E+03  0.93574039461E+03  0.16961306073E+04  0.00000000000E+00 0. -1.
        -11    1    3    3    0    0 -0.11694541008E+03  0.11772010819E+03  0.81411313094E+02  0.18482979930E+03  0.00000000000E+00 0.  1.
         22    1    1    2    0    0  0.12195323490E+04 -0.10040332543E+04  0.17787875712E+04  0.23789550541E+04  0.00000000000E+00 0. -1.
<mgrwt>
<rscale>  0 0.32139700E+04</rscale>
<asrwt>0</asrwt>
<pdfrwt beam="1">  1        1 0.54275804E+00 0.32139700E+04</pdfrwt>
<pdfrwt beam="2">  1       -1 0.11261355E+00 0.32139700E+04</pdfrwt>
<totfact> 0.14305499E-01</totfact>
</mgrwt>
</event>
<event>
 6    1  0.1719556E-004  0.1233820E+04  0.7818608E-02  0.9083759E-01
         -2   -1    0    0    0  501 -0.00000000000E+00  0.00000000000E+00  0.33089501570E+03  0.33089501570E+03  0.00000000000E+00 0. -1.
          2   -1    0    0  501    0  0.00000000000E+00 -0.00000000000E+00 -0.11501464831E+04  0.11501464831E+04  0.00000000000E+00 0.  1.
         23    2    1    2    0    0  0.11737348665E+02  0.30055177338E+03  0.22988235045E+03  0.38964289995E+03  0.92231017534E+02 0.  0.
         11    1    3    3    0    0  0.30222513121E+02  0.15735508865E+03  0.71908075171E+02  0.17562686440E+03  0.00000000000E+00 0. -1.
        -11    1    3    3    0    0 -0.18485164456E+02  0.14319668473E+03  0.15797427528E+03  0.21401603555E+03  0.00000000000E+00 0.  1.
         22    1    1    2    0    0 -0.11737348665E+02 -0.30055177338E+03 -0.10491338178E+04  0.10913985988E+04  0.00000000000E+00 0.  1.
<mgrwt>
<rscale>  0 0.12338197E+04</rscale>
<asrwt>0</asrwt>
<pdfrwt beam="1">  1        2 0.17694562E+00 0.12338197E+04</pdfrwt>
<pdfrwt beam="2">  1       -2 0.50906924E-01 0.12338197E+04</pdfrwt>
<totfact> 0.72879853E+01</totfact>
</mgrwt>
</event>
<event>
 6    1  0.1719556E-004  0.1871272E+04  0.7818608E-02  0.8669290E-01
          2   -1    0    0  501    0  0.00000000000E+00  0.00000000000E+00  0.21692970161E+04  0.21692970161E+04  0.00000000000E+00 0.  1.
         -2   -1    0    0    0  501 -0.00000000000E+00 -0.00000000000E+00 -0.40354745748E+03  0.40354745748E+03  0.00000000000E+00 0. -1.
         23    2    1    2    0    0 -0.41094703743E+03  0.29219786890E+03 -0.19483760050E+03  0.54845343660E+03  0.92641348164E+02 0.  0.
         13    1    3    3    0    0 -0.29144273040E+03  0.18295009848E+03 -0.90416129466E+02  0.35578740858E+03  0.00000000000E+00 0. -1.
        -13    1    3    3    0    0 -0.11950430702E+03  0.10924777042E+03 -0.10442147103E+03  0.19266602801E+03  0.00000000000E+00 0.  1.
         22    1    1    2    0    0  0.41094703743E+03 -0.29219786890E+03  0.19605871591E+04  0.20243910370E+04  0.00000000000E+00 0.  1.
<mgrwt>
<rscale>  0 0.18712715E+04</rscale>
<asrwt>0</asrwt>
<pdfrwt beam="1">  1        2 0.33373800E+00 0.18712715E+04</pdfrwt>
<pdfrwt beam="2">  1       -2 0.62084225E-01 0.18712715E+04</pdfrwt>
<totfact> 0.12150844E+01</totfact>
</mgrwt>
</event>
<event>
 6    1  0.1719556E-004  0.3212333E+04  0.7818608E-02  0.8185568E-01
          2   -1    0    0  501    0  0.00000000000E+00  0.00000000000E+00  0.25881717642E+04  0.25881717642E+04  0.00000000000E+00 0.  1.
         -2   -1    0    0    0  501 -0.00000000000E+00 -0.00000000000E+00 -0.99675384450E+03  0.99675384450E+03  0.00000000000E+00 0. -1.
         23    2    1    2    0    0 -0.85896084685E+03  0.13477804194E+04  0.63186934481E+03  0.17207745249E+04  0.86488735254E+02 0.  0.
         11    1    3    3    0    0 -0.19159318830E+03  0.36196219543E+03  0.14209891960E+03  0.43349357974E+03  0.00000000000E+00 0.  1.
        -11    1    3    3    0    0 -0.66736765855E+03  0.98581822401E+03  0.48977042521E+03  0.12872809452E+04  0.00000000000E+00 0. -1.
         22    1    1    2    0    0  0.85896084685E+03 -0.13477804194E+04  0.95954857485E+03  0.18641510837E+04  0.00000000000E+00 0.  1.
<mgrwt>
<rscale>  0 0.32123326E+04</rscale>
<asrwt>0</asrwt>
<pdfrwt beam="1">  1        2 0.39818027E+00 0.32123326E+04</pdfrwt>
<pdfrwt beam="2">  1       -2 0.15334675E+00 0.32123326E+04</pdfrwt>
<totfact> 0.73470955E-01</totfact>
</mgrwt>
</event>
<event>
 6    1  0.1719556E-004  0.1836719E+04  0.7818608E-02  0.8687013E-01
          2   -1    0    0  501    0  0.00000000000E+00  0.00000000000E+00  0.36690336824E+04  0.36690336824E+04  0.00000000000E+00 0.  1.
         -2   -1    0    0    0  501 -0.00000000000E+00 -0.00000000000E+00 -0.22986557924E+03  0.22986557924E+03  0.00000000000E+00 0. -1.
         23    2    1    2    0    0  0.84264199613E+03 -0.11482220269E+03  0.24451861704E+04  0.25907594547E+04  0.99345216969E+02 0.  0.
         13    1    3    3    0    0  0.33017656232E+03 -0.51140370766E+02  0.81833219811E+03  0.88391146972E+03  0.00000000000E+00 0.  1.
        -13    1    3    3    0    0  0.51246543381E+03 -0.63681831922E+02  0.16268539723E+04  0.17068479850E+04  0.00000000000E+00 0. -1.
         22    1    1    2    0    0 -0.84264199613E+03  0.11482220269E+03  0.99398193267E+03  0.13081398069E+04  0.00000000000E+00 0. -1.
<mgrwt>
<rscale>  0 0.18367194E+04</rscale>
<asrwt>0</asrwt>
<pdfrwt beam="1">  1        2 0.56446668E+00 0.18367194E+04</pdfrwt>
<pdfrwt beam="2">  1       -2 0.35363938E-01 0.18367194E+04</pdfrwt>
<totfact> 0.43903473E+00</totfact>
</mgrwt>
</event>
<event>
 6    1  0.1719556E-004  0.3503973E+04  0.7818608E-02  0.8112849E-01
         -2   -1    0    0    0  501 -0.00000000000E+00  0.00000000000E+00  0.20959988435E+04  0.20959988435E+04  0.00000000000E+00 0. -1.
          2   -1    0    0  501    0  0.00000000000E+00 -0.00000000000E+00 -0.14644360124E+04  0.14644360124E+04  0.00000000000E+00 0.  1.
         23    2    1    2    0    0 -0.15111093741E+03  0.10766011226E+04 -0.10784469870E+04  0.15340987360E+04  0.92230880774E+02 0.  0.
         11    1    3    3    0    0 -0.57737567478E+02  0.48487494555E+03 -0.54756162101E+03  0.73366277561E+03  0.00000000000E+00 0.  1.
        -11    1    3    3    0    0 -0.93373369930E+02  0.59172617708E+03 -0.53088536603E+03  0.80043596041E+03  0.00000000000E+00 0. -1.
         22    1    1    2    0    0  0.15111093741E+03 -0.10766011226E+04  0.17100098182E+04  0.20263361199E+04  0.00000000000E+00 0. -1.
<mgrwt>
<rscale>  0 0.35039727E+04</rscale>
<asrwt>0</asrwt>
<pdfrwt beam="1">  1        2 0.22529785E+00 0.35039727E+04</pdfrwt>
<pdfrwt beam="2">  1       -2 0.32246136E+00 0.35039727E+04</pdfrwt>
<totfact> 0.25246104E-01</totfact>
</mgrwt>
</event>
<event>
 6    1  0.1719556E-004  0.2849630E+04  0.7818608E-02  0.8288024E-01
         -2   -1    0    0    0  501 -0.00000000000E+00  0.00000000000E+00  0.60189486327E+03  0.60189486327E+03  0.00000000000E+00 0. -1.
          2   -1    0    0  501    0  0.00000000000E+00 -0.00000000000E+00 -0.33728446812E+04  0.33728446812E+04  0.00000000000E+00 0.  1.
         23    2    1    2    0    0  0.11964735046E+04  0.61593820494E+03 -0.20334347751E+04  0.24401851603E+04  0.93369764028E+02 0.  0.
         11    1    3    3    0    0  0.19031692079E+03  0.70397744241E+02 -0.34878435176E+03  0.40351814924E+03  0.00000000000E+00 0. -1.
        -11    1    3    3    0    0  0.10061565838E+04  0.54554046070E+03 -0.16846504233E+04  0.20366670111E+04  0.00000000000E+00 0.  1.
         22    1    1    2    0    0 -0.11964735046E+04 -0.61593820494E+03 -0.73751504284E+03  0.15345543841E+04  0.00000000000E+00 0. -1.
<mgrwt>
<rscale>  0 0.28496301E+04</rscale>
<asrwt>0</asrwt>
<pdfrwt beam="1">  1        2 0.51889918E+00 0.28496301E+04</pdfrwt>
<pdfrwt beam="2">  1       -2 0.92599211E-01 0.28496301E+04</pdfrwt>
<totfact> 0.85265476E-01</totfact>
</mgrwt>
</event>
<event>
 6    1  0.1719556E-004  0.1095380E+04  0.7818608E-02  0.9209707E-01
         -2   -1    0    0    0  501 -0.00000000000E+00  0.00000000000E+00  0.90712625301E+02  0.90712625301E+02  0.00000000000E+00 0. -1.
          2   -1    0    0  501    0  0.00000000000E+00 -0.00000000000E+00 -0.33067529565E+04  0.33067529565E+04  0.00000000000E+00 0.  1.
         23    2    1    2    0    0 -0.32077087575E+03  0.43380331007E+03 -0.18351639283E+04  0.19149343320E+04  0.89819739303E+02 0.  0.
         13    1    3    3    0    0 -0.27346821898E+02  0.89618557023E+02 -0.27421483499E+03  0.28978114183E+03  0.00000000000E+00 0. -1.
        -13    1    3    3    0    0 -0.29342405385E+03  0.34418475305E+03 -0.15609490933E+04  0.16251531902E+04  0.00000000000E+00 0.  1.
         22    1    1    2    0    0  0.32077087575E+03 -0.43380331007E+03 -0.13808764029E+04  0.14825312498E+04  0.00000000000E+00 0. -1.
<mgrwt>
<rscale>  0 0.10953798E+04</rscale>
<asrwt>0</asrwt>
<pdfrwt beam="1">  1        2 0.50873128E+00 0.10953798E+04</pdfrwt>
<pdfrwt beam="2">  1       -2 0.13955787E-01 0.10953798E+04</pdfrwt>
<totfact> 0.44596057E+01</totfact>
</mgrwt>
</event>
<event>
 6    1  0.1719556E-004  0.1736257E+04  0.7818608E-02  0.8740952E-01
         -1   -1    0    0    0  501 -0.00000000000E+00  0.00000000000E+00  0.11515829340E+04  0.11515829340E+04  0.00000000000E+00 0. -1.
          1   -1    0    0  501    0  0.00000000000E+00 -0.00000000000E+00 -0.65444426148E+03  0.65444426148E+03  0.00000000000E+00 0.  1.
         23    2    1    2    0    0 -0.59482922279E+03 -0.24275891497E+03  0.85282231294E+03  0.10716808554E+04  0.91870906101E+02 0.  0.
         13    1    3    3    0    0 -0.18191460337E+03 -0.12105087907E+03  0.28956470533E+03  0.36275881356E+03  0.00000000000E+00 0.  1.
        -13    1    3    3    0    0 -0.41291461942E+03 -0.12170803590E+03  0.56325760762E+03  0.70892204188E+03  0.00000000000E+00 0. -1.
         22    1    1    2    0    0  0.59482922279E+03  0.24275891497E+03 -0.35568364041E+03  0.73434634005E+03  0.00000000000E+00 0.  1.
<mgrwt>
<rscale>  0 0.17362567E+04</rscale>
<asrwt>0</asrwt>
<pdfrwt beam="1">  1        1 0.10068373E+00 0.17362567E+04</pdfrwt>
<pdfrwt beam="2">  1       -1 0.17716660E+00 0.17362567E+04</pdfrwt>
<totfact> 0.62389654E+00</totfact>
</mgrwt>
</event>
<event>
 6    1  0.1719556E-004  0.2010368E+04  0.7818608E-02  0.8601789E-01
          2   -1    0    0  501    0  0.00000000000E+00  0.00000000000E+00  0.86668383232E+03  0.86668383232E+03  0.00000000000E+00 0.  1.
         -2   -1    0    0    0  501 -0.00000000000E+00 -0.00000000000E+00 -0.11658169129E+04  0.11658169129E+04  0.00000000000E+00 0. -1.
         23    2    1    2    0    0 -0.87478275622E+03  0.36619337624E+03  0.18052794408E+03  0.96976034516E+03  0.92208074805E+02 0.  0.
         11    1    3    3    0    0 -0.51826278291E+03  0.23350413929E+03  0.64706844663E+02  0.57210791898E+03  0.00000000000E+00 0. -1.
        -11    1    3    3    0    0 -0.35651997331E+03  0.13268923694E+03  0.11582109941E+03  0.39765242617E+03  0.00000000000E+00 0.  1.
         22    1    1    2    0    0  0.87478275622E+03 -0.36619337624E+03 -0.47966102468E+03  0.10627404001E+04  0.00000000000E+00 0. -1.
<mgrwt>
<rscale>  0 0.20103678E+04</rscale>
<asrwt>0</asrwt>
<pdfrwt beam="1">  1        2 0.13333597E+00 0.20103678E+04</pdfrwt>
<pdfrwt beam="2">  1       -2 0.17935645E+00 0.20103678E+04</pdfrwt>
<totfact> 0.52530831E+00</totfact>
</mgrwt>
</event>
<event>
 6    1  0.1719556E-004  0.1092865E+04  0.7818608E-02  0.9212174E-01
         -2   -1    0    0    0  501 -0.00000000000E+00  0.00000000000E+00  0.12780628311E+03  0.12780628311E+03  0.00000000000E+00 0. -1.
          2   -1    0    0  501    0  0.00000000000E+00 -0.00000000000E+00 -0.23362600413E+04  0.23362600413E+04  0.00000000000E+00 0.  1.
         23    2    1    2    0    0 -0.33828725947E+03  0.29842336473E+03 -0.43378224080E+03  0.63295907218E+03  0.94738482587E+02 0.  0.
         11    1    3    3    0    0 -0.21894355279E+03  0.24300396315E+03 -0.28000701886E+03  0.43057070967E+03  0.00000000000E+00 0.  1.
        -11    1    3    3    0    0 -0.11934370668E+03  0.55419401580E+02 -0.15377522195E+03  0.20238836251E+03  0.00000000000E+00 0. -1.
         22    1    1    2    0    0  0.33828725947E+03 -0.29842336473E+03 -0.17746715174E+04  0.18311072522E+04  0.00000000000E+00 0.  1.
<mgrwt>
<rscale>  0 0.10928654E+04</rscale>
<asrwt>0</asrwt>
<pdfrwt beam="1">  1        2 0.35942464E+00 0.10928654E+04</pdfrwt>
<pdfrwt beam="2">  1       -2 0.19662504E-01 0.10928654E+04</pdfrwt>
<totfact> 0.95184363E+01</totfact>
</mgrwt>
</event>
<event>
 6    1  0.1719556E-004  0.2826859E+04  0.7818608E-02  0.8294978E-01
          2   -1    0    0  501    0  0.00000000000E+00  0.00000000000E+00  0.22763604282E+04  0.22763604282E+04  0.00000000000E+00 0.  1.
         -2   -1    0    0    0  501 -0.00000000000E+00 -0.00000000000E+00 -0.87762133323E+03  0.87762133323E+03  0.00000000000E+00 0. -1.
         23    2    1    2    0    0 -0.52331638717E+03 -0.12314065535E+04  0.12033004804E+04  0.18017915406E+04  0.91096480138E+02 0.  0.
         13    1    3    3    0    0 -0.47285931635E+03 -0.11494246552E+04  0.10902222898E+04  0.16532869116E+04  0.00000000000E+00 0.  1.
        -13    1    3    3    0    0 -0.50457070821E+02 -0.81981898333E+02  0.11307819057E+03  0.14850462899E+03  0.00000000000E+00 0. -1.
         22    1    1    2    0    0  0.52331638717E+03  0.12314065535E+04  0.19543861462E+03  0.13521902208E+04  0.00000000000E+00 0. -1.
<mgrwt>
<rscale>  0 0.28268587E+04</rscale>
<asrwt>0</asrwt>
<pdfrwt beam="1">  1        2 0.35020929E+00 0.28268587E+04</pdfrwt>
<pdfrwt beam="2">  1       -2 0.13501867E+00 0.28268587E+04</pdfrwt>
<totfact> 0.16008973E+00</totfact>
</mgrwt>
</event>
<event>
 6    1  0.1719556E-004  0.2512762E+04  0.7818608E-02  0.8398453E-01
         -1   -1    0    0    0  501 -0.00000000000E+00  0.00000000000E+00  0.17742574252E+04  0.17742574252E+04  0.00000000000E+00 0. -1.
          1   -1    0    0  501    0  0.00000000000E+00 -0.00000000000E+00 -0.88966382612E+03  0.88966382612E+03  0.00000000000E+00 0.  1.
         23    2    1    2    0    0  0.69929496194E+03 -0.80599885752E+03  0.11427793565E+04  0.15660562835E+04  0.89106807824E+02 0.  0.
         13    1    3    3    0    0  0.40237588681E+03 -0.39625897857E+03  0.60948813969E+03  0.83090512383E+03  0.00000000000E+00 0.  1.
        -13    1    3    3    0    0  0.29691907513E+03 -0.40973987895E+03  0.53329121685E+03  0.73515115966E+03  0.00000000000E+00 0. -1.
         22    1    1    2    0    0 -0.69929496194E+03  0.80599885752E+03 -0.25818575750E+03  0.10978649678E+04  0.00000000000E+00 0.  1.
<mgrwt>
<rscale>  0 0.25127615E+04</rscale>
<asrwt>0</asrwt>
<pdfrwt beam="1">  1        1 0.13687136E+00 0.25127615E+04</pdfrwt>
<pdfrwt beam="2">  1       -1 0.27296268E+00 0.25127615E+04</pdfrwt>
<totfact> 0.81404127E-01</totfact>
</mgrwt>
</event>
<event>
 6    1  0.1719556E-004  0.2382688E+04  0.7818608E-02  0.8446014E-01
         -2   -1    0    0    0  501 -0.00000000000E+00  0.00000000000E+00  0.12340157356E+04  0.12340157356E+04  0.00000000000E+00 0. -1.
          2   -1    0    0  501    0  0.00000000000E+00 -0.00000000000E+00 -0.11501475564E+04  0.11501475564E+04  0.00000000000E+00 0.  1.
         23    2    1    2    0    0  0.24347163764E+03  0.73372097201E+03  0.94676818570E+03  0.12256205330E+04  0.90281727761E+02 0.  0.
         13    1    3    3    0    0  0.21218736678E+03  0.56218596555E+03  0.77716180460E+03  0.98237315161E+03  0.00000000000E+00 0. -1.
        -13    1    3    3    0    0  0.31284270867E+02  0.17153500646E+03  0.16960638110E+03  0.24324738139E+03  0.00000000000E+00 0.  1.
         22    1    1    2    0    0 -0.24347163764E+03 -0.73372097201E+03 -0.86290000652E+03  0.11585427590E+04  0.00000000000E+00 0.  1.
<mgrwt>
<rscale>  0 0.23826877E+04</rscale>
<asrwt>0</asrwt>
<pdfrwt beam="1">  1        2 0.17694578E+00 0.23826877E+04</pdfrwt>
<pdfrwt beam="2">  1       -2 0.18984858E+00 0.23826877E+04</pdfrwt>
<totfact> 0.28396828E+00</totfact>
</mgrwt>
</event>
<event>
 6    1  0.1719556E-004  0.1437879E+04  0.7818608E-02  0.8926847E-01
         -1   -1    0    0    0  501 -0.00000000000E+00  0.00000000000E+00  0.37121397785E+03  0.37121397785E+03  0.00000000000E+00 0. -1.
          1   -1    0    0  501    0  0.00000000000E+00 -0.00000000000E+00 -0.13923879526E+04  0.13923879526E+04  0.00000000000E+00 0.  1.
         23    2    1    2    0    0 -0.13369713645E+03 -0.35866643000E+03  0.22981248438E+03  0.45536508140E+03  0.89593789242E+02 0.  0.
         11    1    3    3    0    0 -0.29477155495E+02 -0.17901498326E+03  0.13963721116E+03  0.22894064224E+03  0.00000000000E+00 0.  1.
        -11    1    3    3    0    0 -0.10421998096E+03 -0.17965144674E+03  0.90175273223E+02  0.22642443915E+03  0.00000000000E+00 0. -1.
         22    1    1    2    0    0  0.13369713645E+03  0.35866643000E+03 -0.12509864591E+04  0.13082368491E+04  0.00000000000E+00 0.  1.
<mgrwt>
<rscale>  0 0.14378788E+04</rscale>
<asrwt>0</asrwt>
<pdfrwt beam="1">  1        1 0.21421353E+00 0.14378788E+04</pdfrwt>
<pdfrwt beam="2">  1       -1 0.57109844E-01 0.14378788E+04</pdfrwt>
<totfact> 0.23473154E+01</totfact>
</mgrwt>
</event>
<event>
 6    1  0.1719556E-004  0.2180995E+04  0.7818608E-02  0.8526380E-01
         -1   -1    0    0    0  501 -0.00000000000E+00  0.00000000000E+00  0.97033288821E+03  0.97033288821E+03  0.00000000000E+00 0. -1.
          1   -1    0    0  501    0  0.00000000000E+00 -0.00000000000E+00 -0.12255427152E+04  0.12255427152E+04  0.00000000000E+00 0.  1.
         23    2    1    2    0    0  0.33686642554E+02  0.24236346153E+03  0.94023672547E+03  0.97564312673E+03  0.89216441554E+02 0.  0.
         11    1    3    3    0    0  0.26932195064E+02  0.68523265012E+02  0.15826227564E+03  0.17455007554E+03  0.00000000000E+00 0. -1.
        -11    1    3    3    0    0  0.67544474893E+01  0.17384019651E+03  0.78197444983E+03  0.80109305119E+03  0.00000000000E+00 0.  1.
         22    1    1    2    0    0 -0.33686642554E+02 -0.24236346153E+03 -0.11954465524E+04  0.12202324767E+04  0.00000000000E+00 0.  1.
<mgrwt>
<rscale>  0 0.21809946E+04</rscale>
<asrwt>0</asrwt>
<pdfrwt beam="1">  1        1 0.18854503E+00 0.21809946E+04</pdfrwt>
<pdfrwt beam="2">  1       -1 0.14928198E+00 0.21809946E+04</pdfrwt>
<totfact> 0.33044262E+00</totfact>
</mgrwt>
</event>
<event>
 6    1  0.1719556E-004  0.3557164E+04  0.7818608E-02  0.8100375E-01
          2   -1    0    0  501    0  0.00000000000E+00  0.00000000000E+00  0.33147627146E+04  0.33147627146E+04  0.00000000000E+00 0.  1.
         -2   -1    0    0    0  501 -0.00000000000E+00 -0.00000000000E+00 -0.95432304998E+03  0.95432304998E+03  0.00000000000E+00 0. -1.
         23    2    1    2    0    0  0.68329842463E+03 -0.29356019464E+03 -0.75636188800E+03  0.10647876755E+04  0.92817904481E+02 0.  0.
         13    1    3    3    0    0  0.55845593455E+03 -0.24182340623E+03 -0.56418627820E+03  0.82985405171E+03  0.00000000000E+00 0.  1.
        -13    1    3    3    0    0  0.12484249008E+03 -0.51736788414E+02 -0.19217560980E+03  0.23493362383E+03  0.00000000000E+00 0. -1.
         22    1    1    2    0    0 -0.68329842463E+03  0.29356019464E+03  0.31168015526E+04  0.32042980890E+04  0.00000000000E+00 0.  1.
<mgrwt>
<rscale>  0 0.35571643E+04</rscale>
<asrwt>0</asrwt>
<pdfrwt beam="1">  1        2 0.50996349E+00 0.35571643E+04</pdfrwt>
<pdfrwt beam="2">  1       -2 0.14681893E+00 0.35571643E+04</pdfrwt>
<totfact> 0.28202762E-01</totfact>
</mgrwt>
</event>
<event>
 6    1  0.1719556E-004  0.5320728E+03  0.7818608E-02  0.1005731E+00
          2   -1    0    0  501    0  0.00000000000E+00  0.00000000000E+00  0.14757976331E+04  0.14757976331E+04  0.00000000000E+00 0.  1.
         -2   -1    0    0    0  501 -0.00000000000E+00 -0.00000000000E+00 -0.47957361058E+02  0.47957361058E+02  0.00000000000E+00 0. -1.
         23    2    1    2    0    0  0.20220853092E+02  0.25707483547E+03  0.72901188768E+03  0.77886744243E+03  0.93165479448E+02 0.  0.
         13    1    3    3    0    0  0.57465849796E+02  0.14430964906E+03  0.42328662016E+03  0.45088708288E+03  0.00000000000E+00 0.  1.
        -13    1    3    3    0    0 -0.37244996704E+02  0.11276518641E+03  0.30572526752E+03  0.32798035955E+03  0.00000000000E+00 0. -1.
         22    1    1    2    0    0 -0.20220853092E+02 -0.25707483547E+03  0.69882838437E+03  0.74488755174E+03  0.00000000000E+00 0.  1.
<mgrwt>
<rscale>  0 0.53207278E+03</rscale>
<asrwt>0</asrwt>
<pdfrwt beam="1">  1        2 0.22704575E+00 0.53207278E+03</pdfrwt>
<pdfrwt beam="2">  1       -2 0.73780567E-02 0.53207278E+03</pdfrwt>
<totfact> 0.14945831E+03</totfact>
</mgrwt>
</event>
<event>
 6    1  0.1719556E-004  0.1055209E+04  0.7818608E-02  0.9249982E-01
         -2   -1    0    0    0  501 -0.00000000000E+00  0.00000000000E+00  0.67128211448E+03  0.67128211448E+03  0.00000000000E+00 0. -1.
          2   -1    0    0  501    0  0.00000000000E+00 -0.00000000000E+00 -0.41467925541E+03  0.41467925541E+03  0.00000000000E+00 0.  1.
         23    2    1    2    0    0  0.37723754496E+03 -0.18397871727E+03 -0.19248394410E+03  0.47127828853E+03  0.94322970532E+02 0.  0.
         13    1    3    3    0    0  0.13442204466E+03 -0.17580347309E+02 -0.53252025818E+02  0.14565072247E+03  0.00000000000E+00 0. -1.
        -13    1    3    3    0    0  0.24281550030E+03 -0.16639836996E+03 -0.13923191828E+03  0.32562756606E+03  0.00000000000E+00 0.  1.
         22    1    1    2    0    0 -0.37723754496E+03  0.18397871727E+03  0.44908680316E+03  0.61468308136E+03  0.00000000000E+00 0. -1.
<mgrwt>
<rscale>  0 0.10552095E+04</rscale>
<asrwt>0</asrwt>
<pdfrwt beam="1">  1        2 0.63796809E-01 0.10552095E+04</pdfrwt>
<pdfrwt beam="2">  1       -2 0.10327417E+00 0.10552095E+04</pdfrwt>
<totfact> 0.58133541E+01</totfact>
</mgrwt>
</event>
<event>
 6    1  0.1719556E-004  0.4008088E+04  0.7818608E-02  0.8002917E-01
          1   -1    0    0  501    0  0.00000000000E+00  0.00000000000E+00  0.12135099815E+04  0.12135099815E+04  0.00000000000E+00 0. -1.
         -1   -1    0    0    0  501 -0.00000000000E+00 -0.00000000000E+00 -0.33095663269E+04  0.33095663269E+04  0.00000000000E+00 0.  1.
         23    2    1    2    0    0 -0.23046619766E+03  0.18333590814E+04 -0.19208238914E+04  0.26669980227E+04  0.94835866435E+02 0.  0.
         13    1    3    3    0    0 -0.17774568528E+03  0.15044861294E+04 -0.15231697072E+04  0.21482825696E+04  0.00000000000E+00 0. -1.
        -13    1    3    3    0    0 -0.52720512376E+02  0.32887295207E+03 -0.39765418422E+03  0.51871545307E+03  0.00000000000E+00 0.  1.
         22    1    1    2    0    0  0.23046619766E+03 -0.18333590814E+04 -0.17523245395E+03  0.18560782857E+04  0.00000000000E+00 0. -1.
<mgrwt>
<rscale>  0 0.40080877E+04</rscale>
<asrwt>0</asrwt>
<pdfrwt beam="1">  1        1 0.18669384E+00 0.40080877E+04</pdfrwt>
<pdfrwt beam="2">  1       -1 0.50916405E+00 0.40080877E+04</pdfrwt>
<totfact> 0.10652149E-02</totfact>
</mgrwt>
</event>
<event>
 6    1  0.1719556E-004  0.2306737E+04  0.7818608E-02  0.8475270E-01
         -1   -1    0    0    0  501 -0.00000000000E+00  0.00000000000E+00  0.97978985544E+03  0.97978985544E+03  0.00000000000E+00 0. -1.
          1   -1    0    0  501    0  0.00000000000E+00 -0.00000000000E+00 -0.13576983114E+04  0.13576983114E+04  0.00000000000E+00 0.  1.
         23    2    1    2    0    0  0.69384931571E+03  0.83159368145E+03 -0.58591500159E+03  0.12346547039E+04  0.90005137874E+02 0.  0.
         13    1    3    3    0    0  0.33009941958E+03  0.43184848922E+03 -0.33759490348E+03  0.63986644177E+03  0.00000000000E+00 0. -1.
        -13    1    3    3    0    0  0.36374989613E+03  0.39974519222E+03 -0.24832009811E+03  0.59478826213E+03  0.00000000000E+00 0.  1.
         22    1    1    2    0    0 -0.69384931571E+03 -0.83159368145E+03  0.20800654564E+03  0.11028334629E+04  0.00000000000E+00 0. -1.
<mgrwt>
<rscale>  0 0.23067371E+04</rscale>
<asrwt>0</asrwt>
<pdfrwt beam="1">  1        1 0.20887666E+00 0.23067371E+04</pdfrwt>
<pdfrwt beam="2">  1       -1 0.15073690E+00 0.23067371E+04</pdfrwt>
<totfact> 0.25598200E+00</totfact>
</mgrwt>
</event>
<event>
 6    1  0.1719556E-004  0.2644339E+04  0.7818608E-02  0.8353294E-01
         -1   -1    0    0    0  501 -0.00000000000E+00  0.00000000000E+00  0.23956294196E+04  0.23956294196E+04  0.00000000000E+00 0.  1.
          1   -1    0    0  501    0  0.00000000000E+00 -0.00000000000E+00 -0.72971711575E+03  0.72971711575E+03  0.00000000000E+00 0. -1.
         23    2    1    2    0    0  0.12970186791E+04  0.22075780309E+03  0.69996461346E+03  0.14931558596E+04  0.92587793367E+02 0.  0.
         11    1    3    3    0    0  0.37552476296E+03  0.10562723415E+03  0.21802378587E+03  0.44688961881E+03  0.00000000000E+00 0. -1.
        -11    1    3    3    0    0  0.92149391609E+03  0.11513056894E+03  0.48194082759E+03  0.10462662408E+04  0.00000000000E+00 0.  1.
         22    1    1    2    0    0 -0.12970186791E+04 -0.22075780309E+03  0.96594769034E+03  0.16321906757E+04  0.00000000000E+00 0. -1.
<mgrwt>
<rscale>  0 0.26443387E+04</rscale>
<asrwt>0</asrwt>
<pdfrwt beam="1">  1        1 0.11226417E+00 0.26443387E+04</pdfrwt>
<pdfrwt beam="2">  1       -1 0.36855837E+00 0.26443387E+04</pdfrwt>
<totfact> 0.26200117E-01</totfact>
</mgrwt>
</event>
<event>
 6    1  0.1719556E-004  0.6866230E+03  0.7818608E-02  0.9740386E-01
         -2   -1    0    0    0  501 -0.00000000000E+00  0.00000000000E+00  0.67476157079E+02  0.67476157079E+02  0.00000000000E+00 0. -1.
          2   -1    0    0  501    0  0.00000000000E+00 -0.00000000000E+00 -0.17467325803E+04  0.17467325803E+04  0.00000000000E+00 0.  1.
         23    2    1    2    0    0 -0.69539438880E+01  0.19621129863E+03 -0.15786304093E+04  0.15935895503E+04  0.94374013838E+02 0.  0.
         13    1    3    3    0    0 -0.61783669902E+01  0.12880174034E+03 -0.65938211154E+03  0.67187262897E+03  0.00000000000E+00 0. -1.
        -13    1    3    3    0    0 -0.77557689774E+00  0.67409558293E+02 -0.91924829780E+03  0.92171692133E+03  0.00000000000E+00 0.  1.
         22    1    1    2    0    0  0.69539438880E+01 -0.19621129863E+03 -0.10062601392E+03  0.22061918712E+03  0.00000000000E+00 0. -1.
<mgrwt>
<rscale>  0 0.68662305E+03</rscale>
<asrwt>0</asrwt>
<pdfrwt beam="1">  1        2 0.26872810E+00 0.68662305E+03</pdfrwt>
<pdfrwt beam="2">  1       -2 0.10380947E-01 0.68662305E+03</pdfrwt>
<totfact> 0.60925920E+02</totfact>
</mgrwt>
</event>
<event>
 6    1  0.1719556E-004  0.5506967E+03  0.7818608E-02  0.1001333E+00
         -1   -1    0    0    0  501 -0.00000000000E+00  0.00000000000E+00  0.35178075187E+03  0.35178075187E+03  0.00000000000E+00 0. -1.
          1   -1    0    0  501    0  0.00000000000E+00 -0.00000000000E+00 -0.21552262452E+03  0.21552262452E+03  0.00000000000E+00 0.  1.
         23    2    1    2    0    0 -0.17138702551E+03  0.15185690749E+03  0.21365761523E+03  0.32559132954E+03  0.89028672108E+02 0.  0.
         13    1    3    3    0    0 -0.13776250690E+03  0.68578401669E+02  0.11453060146E+03  0.19183003976E+03  0.00000000000E+00 0. -1.
        -13    1    3    3    0    0 -0.33624518609E+02  0.83278505825E+02  0.99127013777E+02  0.13376128978E+03  0.00000000000E+00 0.  1.
         22    1    1    2    0    0  0.17138702551E+03 -0.15185690749E+03 -0.77399487886E+02  0.24171204685E+03  0.00000000000E+00 0.  1.
<mgrwt>
<rscale>  0 0.55069669E+03</rscale>
<asrwt>0</asrwt>
<pdfrwt beam="1">  1        1 0.33157327E-01 0.55069669E+03</pdfrwt>
<pdfrwt beam="2">  1       -1 0.54120116E-01 0.55069669E+03</pdfrwt>
<totfact> 0.47070265E+02</totfact>
</mgrwt>
</event>
<event>
 6    1  0.1719556E-004  0.2193042E+04  0.7818608E-02  0.8521330E-01
         -2   -1    0    0    0  501 -0.00000000000E+00  0.00000000000E+00  0.98908177164E+03  0.98908177164E+03  0.00000000000E+00 0. -1.
          2   -1    0    0  501    0  0.00000000000E+00 -0.00000000000E+00 -0.12156313504E+04  0.12156313504E+04  0.00000000000E+00 0.  1.
         23    2    1    2    0    0  0.10834991801E+04  0.43947261212E+02  0.37265905054E+02  0.10886932098E+04  0.89231845596E+02 0.  0.
         11    1    3    3    0    0  0.49670074016E+02  0.16601592999E+02  0.14129954313E+02  0.54243753113E+02  0.00000000000E+00 0. -1.
        -11    1    3    3    0    0  0.10338291061E+04  0.27345668213E+02  0.23135950742E+02  0.10344494567E+04  0.00000000000E+00 0.  1.
         22    1    1    2    0    0 -0.10834991801E+04 -0.43947261212E+02 -0.26381548381E+03  0.11160199123E+04  0.00000000000E+00 0.  1.
<mgrwt>
<rscale>  0 0.21930425E+04</rscale>
<asrwt>0</asrwt>
<pdfrwt beam="1">  1        2 0.18702021E+00 0.21930425E+04</pdfrwt>
<pdfrwt beam="2">  1       -2 0.15216643E+00 0.21930425E+04</pdfrwt>
<totfact> 0.48901127E+00</totfact>
</mgrwt>
</event>
<event>
 6    1  0.1719556E-004  0.1101580E+04  0.7818608E-02  0.9203653E-01
         -3   -1    0    0    0  501 -0.00000000000E+00  0.00000000000E+00  0.13196863131E+04  0.13196863131E+04  0.00000000000E+00 0. -1.
          3   -1    0    0  501    0  0.00000000000E+00 -0.00000000000E+00 -0.22988005162E+03  0.22988005162E+03  0.00000000000E+00 0.  1.
         23    2    1    2    0    0  0.19436226357E+03 -0.46702218254E+03  0.25562536919E+03  0.57399260044E+03  0.90756638930E+02 0.  0.
         11    1    3    3    0    0  0.74038566864E+02 -0.17096296320E+03  0.14404498014E+03  0.23549734706E+03  0.00000000000E+00 0.  1.
        -11    1    3    3    0    0  0.12032369671E+03 -0.29605921933E+03  0.11158038905E+03  0.33849525338E+03  0.00000000000E+00 0. -1.
         22    1    1    2    0    0 -0.19436226357E+03  0.46702218254E+03  0.83418089227E+03  0.97557376426E+03  0.00000000000E+00 0.  1.
<mgrwt>
<rscale>  0 0.11015799E+04</rscale>
<asrwt>0</asrwt>
<pdfrwt beam="1">  1        3 0.35366163E-01 0.11015799E+04</pdfrwt>
<pdfrwt beam="2">  1       -3 0.20302866E+00 0.11015799E+04</pdfrwt>
<totfact> 0.28898950E+00</totfact>
</mgrwt>
</event>
<event>
 6    1  0.1719556E-004  0.9157275E+03  0.7818608E-02  0.9406132E-01
         -2   -1    0    0    0  501 -0.00000000000E+00  0.00000000000E+00  0.19196683410E+03  0.19196683410E+03  0.00000000000E+00 0. -1.
          2   -1    0    0  501    0  0.00000000000E+00 -0.00000000000E+00 -0.10920596140E+04  0.10920596140E+04  0.00000000000E+00 0.  1.
         23    2    1    2    0    0 -0.38893477578E+03  0.21913275433E+03 -0.35286688772E+03  0.57780721804E+03  0.10028318374E+03 0.  0.
         13    1    3    3    0    0 -0.12975782867E+03  0.46979293195E+02 -0.59884781471E+02  0.15043382313E+03  0.00000000000E+00 0. -1.
        -13    1    3    3    0    0 -0.25917694711E+03  0.17215346114E+03 -0.29298210625E+03  0.42737339491E+03  0.00000000000E+00 0.  1.
         22    1    1    2    0    0  0.38893477578E+03 -0.21913275433E+03 -0.54722589212E+03  0.70621923001E+03  0.00000000000E+00 0.  1.
<mgrwt>
<rscale>  0 0.91572753E+03</rscale>
<asrwt>0</asrwt>
<pdfrwt beam="1">  1        2 0.16800917E+00 0.91572753E+03</pdfrwt>
<pdfrwt beam="2">  1       -2 0.29533359E-01 0.91572753E+03</pdfrwt>
<totfact> 0.23276945E+02</totfact>
</mgrwt>
</event>
<event>
 6    1  0.1719556E-004  0.4776658E+04  0.7818608E-02  0.7863915E-01
         -2   -1    0    0    0  501 -0.00000000000E+00  0.00000000000E+00  0.25210886390E+04  0.25210886390E+04  0.00000000000E+00 0. -1.
          2   -1    0    0  501    0  0.00000000000E+00 -0.00000000000E+00 -0.22625605190E+04  0.22625605190E+04  0.00000000000E+00 0.  1.
         23    2    1    2    0    0 -0.14141652528E+04 -0.19182718602E+04  0.27207885987E+03  0.24004131406E+04  0.91247181233E+02 0.  0.
         11    1    3    3    0    0 -0.59461898606E+03 -0.79640714552E+03  0.15837424661E+03  0.10064385138E+04  0.00000000000E+00 0. -1.
        -11    1    3    3    0    0 -0.81954626670E+03 -0.11218647147E+04  0.11370461326E+03  0.13939746269E+04  0.00000000000E+00 0.  1.
         22    1    1    2    0    0  0.14141652528E+04  0.19182718602E+04 -0.13550739877E+02  0.23832360173E+04  0.00000000000E+00 0.  1.
<mgrwt>
<rscale>  0 0.47766581E+04</rscale>
<asrwt>0</asrwt>
<pdfrwt beam="1">  1        2 0.34808623E+00 0.47766581E+04</pdfrwt>
<pdfrwt beam="2">  1       -2 0.38785979E+00 0.47766581E+04</pdfrwt>
<totfact> 0.31426218E-02</totfact>
</mgrwt>
</event>
<event>
 6    1  0.1719556E-004  0.4531347E+04  0.7818608E-02  0.7905172E-01
         -2   -1    0    0    0  501 -0.00000000000E+00  0.00000000000E+00  0.22967064054E+04  0.22967064054E+04  0.00000000000E+00 0. -1.
          2   -1    0    0  501    0  0.00000000000E+00 -0.00000000000E+00 -0.22350600165E+04  0.22350600165E+04  0.00000000000E+00 0.  1.
         23    2    1    2    0    0  0.62378028247E+03 -0.16050884850E+04 -0.14403697840E+04  0.22467142412E+04  0.87457885351E+02 0.  0.
         13    1    3    3    0    0  0.40061880283E+03 -0.93691500271E+03 -0.88572872636E+03  0.13501187074E+04  0.00000000000E+00 0.  1.
        -13    1    3    3    0    0  0.22316147964E+03 -0.66817348225E+03 -0.55464105759E+03  0.89659553375E+03  0.00000000000E+00 0. -1.
         22    1    1    2    0    0 -0.62378028247E+03  0.16050884850E+04  0.15020161728E+04  0.22850521807E+04  0.00000000000E+00 0. -1.
<mgrwt>
<rscale>  0 0.45313471E+04</rscale>
<asrwt>0</asrwt>
<pdfrwt beam="1">  1        2 0.34385539E+00 0.45313471E+04</pdfrwt>
<pdfrwt beam="2">  1       -2 0.35333945E+00 0.45313471E+04</pdfrwt>
<totfact> 0.55268360E-02</totfact>
</mgrwt>
</event>
<event>
 6    1  0.1719556E-004  0.7784002E+03  0.7818608E-02  0.9591819E-01
         -2   -1    0    0    0  501 -0.00000000000E+00  0.00000000000E+00  0.92145101517E+02  0.92145101517E+02  0.00000000000E+00 0. -1.
          2   -1    0    0  501    0  0.00000000000E+00 -0.00000000000E+00 -0.16438934422E+04  0.16438934422E+04  0.00000000000E+00 0.  1.
         23    2    1    2    0    0 -0.37718680898E+03 -0.35407390045E+02 -0.91768063556E+03  0.99741453462E+03  0.95783259732E+02 0.  0.
         13    1    3    3    0    0 -0.11368103280E+03 -0.43718904118E+02 -0.21806588094E+03  0.24977479502E+03  0.00000000000E+00 0.  1.
        -13    1    3    3    0    0 -0.26350577618E+03  0.83115140729E+01 -0.69961475462E+03  0.74763973960E+03  0.00000000000E+00 0. -1.
         22    1    1    2    0    0  0.37718680898E+03  0.35407390045E+02 -0.63406770514E+03  0.73862400911E+03  0.00000000000E+00 0. -1.
<mgrwt>
<rscale>  0 0.77840023E+03</rscale>
<asrwt>0</asrwt>
<pdfrwt beam="1">  1        2 0.25290669E+00 0.77840023E+03</pdfrwt>
<pdfrwt beam="2">  1       -2 0.14176169E-01 0.77840023E+03</pdfrwt>
<totfact> 0.41169351E+02</totfact>
</mgrwt>
</event>
<event>
 6    1  0.1719556E-004  0.2818604E+04  0.7818608E-02  0.8297516E-01
          3   -1    0    0  501    0  0.00000000000E+00  0.00000000000E+00  0.11997124580E+04  0.11997124580E+04  0.00000000000E+00 0.  1.
         -3   -1    0    0    0  501 -0.00000000000E+00 -0.00000000000E+00 -0.16555068633E+04  0.16555068633E+04  0.00000000000E+00 0. -1.
         23    2    1    2    0    0  0.35444644211E+03  0.79418778702E+03  0.89343395709E+03  0.12499829850E+04  0.88694451612E+02 0.  0.
         13    1    3    3    0    0  0.95176929457E+02  0.24827780634E+03  0.21977038557E+03  0.34496309860E+03  0.00000000000E+00 0. -1.
        -13    1    3    3    0    0  0.25926951266E+03  0.54590998067E+03  0.67366357152E+03  0.90501988640E+03  0.00000000000E+00 0.  1.
         22    1    1    2    0    0 -0.35444644211E+03 -0.79418778702E+03 -0.13492283624E+04  0.16052363363E+04  0.00000000000E+00 0. -1.
<mgrwt>
<rscale>  0 0.28186041E+04</rscale>
<asrwt>0</asrwt>
<pdfrwt beam="1">  1        3 0.18457115E+00 0.28186041E+04</pdfrwt>
<pdfrwt beam="2">  1       -3 0.25469336E+00 0.28186041E+04</pdfrwt>
<totfact> 0.28704467E-02</totfact>
</mgrwt>
</event>
<event>
 6    1  0.1719556E-004  0.2736887E+04  0.7818608E-02  0.8323135E-01
          2   -1    0    0  501    0  0.00000000000E+00  0.00000000000E+00  0.15055863760E+04  0.15055863760E+04  0.00000000000E+00 0.  1.
         -2   -1    0    0    0  501 -0.00000000000E+00 -0.00000000000E+00 -0.12437925505E+04  0.12437925505E+04  0.00000000000E+00 0. -1.
         23    2    1    2    0    0  0.12738170653E+03  0.13399395203E+04 -0.10854170256E+03  0.13533802085E+04  0.90513370170E+02 0.  0.
         13    1    3    3    0    0  0.16338565837E+02  0.59946421973E+03 -0.28579553332E+02  0.60036746276E+03  0.00000000000E+00 0. -1.
        -13    1    3    3    0    0  0.11104314069E+03  0.74047530062E+03 -0.79962149230E+02  0.75301274573E+03  0.00000000000E+00 0.  1.
         22    1    1    2    0    0 -0.12738170653E+03 -0.13399395203E+04  0.37033552806E+03  0.13959987180E+04  0.00000000000E+00 0.  1.
<mgrwt>
<rscale>  0 0.27368866E+04</rscale>
<asrwt>0</asrwt>
<pdfrwt beam="1">  1        2 0.23162867E+00 0.27368866E+04</pdfrwt>
<pdfrwt beam="2">  1       -2 0.19135270E+00 0.27368866E+04</pdfrwt>
<totfact> 0.16733712E+00</totfact>
</mgrwt>
</event>
<event>
 6    1  0.1719556E-004  0.3439503E+04  0.7818608E-02  0.8128279E-01
         -2   -1    0    0    0  501 -0.00000000000E+00  0.00000000000E+00  0.19550639302E+04  0.19550639302E+04  0.00000000000E+00 0. -1.
          2   -1    0    0  501    0  0.00000000000E+00 -0.00000000000E+00 -0.15127611333E+04  0.15127611333E+04  0.00000000000E+00 0.  1.
         23    2    1    2    0    0 -0.39265844988E+03 -0.19603861820E+03 -0.14535868598E+04  0.15218010688E+04  0.10174446391E+03 0.  0.
         13    1    3    3    0    0 -0.12497943541E+03 -0.24288551381E+02 -0.52662691094E+03  0.54179857542E+03  0.00000000000E+00 0.  1.
        -13    1    3    3    0    0 -0.26767901446E+03 -0.17175006682E+03 -0.92695994883E+03  0.98000249335E+03  0.00000000000E+00 0. -1.
         22    1    1    2    0    0  0.39265844988E+03  0.19603861820E+03  0.18958896567E+04  0.19460239948E+04  0.00000000000E+00 0. -1.
<mgrwt>
<rscale>  0 0.34395027E+04</rscale>
<asrwt>0</asrwt>
<pdfrwt beam="1">  1        2 0.23273248E+00 0.34395027E+04</pdfrwt>
<pdfrwt beam="2">  1       -2 0.30077907E+00 0.34395027E+04</pdfrwt>
<totfact> 0.32406520E-01</totfact>
</mgrwt>
</event>
<event>
 6    1  0.1719556E-004  0.9358849E+03  0.7818608E-02  0.9381803E-01
          2   -1    0    0  501    0  0.00000000000E+00  0.00000000000E+00  0.13189363735E+04  0.13189363735E+04  0.00000000000E+00 0.  1.
         -2   -1    0    0    0  501 -0.00000000000E+00 -0.00000000000E+00 -0.16602024839E+03  0.16602024839E+03  0.00000000000E+00 0. -1.
         23    2    1    2    0    0 -0.83791300947E+02  0.33339584375E+03  0.10748657585E+04  0.11324433165E+04  0.94433550560E+02 0.  0.
         11    1    3    3    0    0 -0.60671817516E+02  0.15882132009E+03  0.66417885030E+03  0.68559377648E+03  0.00000000000E+00 0. -1.
        -11    1    3    3    0    0 -0.23119483432E+02  0.17457452366E+03  0.41068690824E+03  0.44684954003E+03  0.00000000000E+00 0.  1.
         22    1    1    2    0    0  0.83791300947E+02 -0.33339584375E+03  0.78050366541E+02  0.35251330536E+03  0.00000000000E+00 0. -1.
<mgrwt>
<rscale>  0 0.93588492E+03</rscale>
<asrwt>0</asrwt>
<pdfrwt beam="1">  1        2 0.20291328E+00 0.93588492E+03</pdfrwt>
<pdfrwt beam="2">  1       -2 0.25541578E-01 0.93588492E+03</pdfrwt>
<totfact> 0.22235614E+02</totfact>
</mgrwt>
</event>
<event>
 6    1  0.1719556E-004  0.1045073E+04  0.7818608E-02  0.9260446E-01
          2   -1    0    0  501    0  0.00000000000E+00  0.00000000000E+00  0.14083470337E+04  0.14083470337E+04  0.00000000000E+00 0.  1.
         -2   -1    0    0    0  501 -0.00000000000E+00 -0.00000000000E+00 -0.19387578900E+03  0.19387578900E+03  0.00000000000E+00 0. -1.
         23    2    1    2    0    0  0.19459545058E+03  0.38473199869E+03  0.10534618708E+04  0.11419944895E+04  0.92105377880E+02 0.  0.
         11    1    3    3    0    0  0.44520395620E+02  0.14717037978E+03  0.28603515871E+03  0.32474189494E+03  0.00000000000E+00 0. -1.
        -11    1    3    3    0    0  0.15007505496E+03  0.23756161891E+03  0.76742671205E+03  0.81725259453E+03  0.00000000000E+00 0.  1.
         22    1    1    2    0    0 -0.19459545058E+03 -0.38473199869E+03  0.16100937394E+03  0.46022833322E+03  0.00000000000E+00 0. -1.
<mgrwt>
<rscale>  0 0.10450730E+04</rscale>
<asrwt>0</asrwt>
<pdfrwt beam="1">  1        2 0.21666877E+00 0.10450730E+04</pdfrwt>
<pdfrwt beam="2">  1       -2 0.29827045E-01 0.10450730E+04</pdfrwt>
<totfact> 0.14760106E+02</totfact>
</mgrwt>
</event>
<event>
 6    1  0.1719556E-004  0.4390300E+04  0.7818608E-02  0.7930128E-01
         -2   -1    0    0    0  501 -0.00000000000E+00  0.00000000000E+00  0.15301308947E+04  0.15301308947E+04  0.00000000000E+00 0. -1.
          2   -1    0    0  501    0  0.00000000000E+00 -0.00000000000E+00 -0.31491974970E+04  0.31491974970E+04  0.00000000000E+00 0.  1.
         23    2    1    2    0    0  0.17497709685E+04  0.11904866611E+04 -0.19239103267E+03  0.21270039386E+04  0.90413014480E+02 0.  0.
         11    1    3    3    0    0  0.70968093284E+03  0.50864331874E+03 -0.40155198103E+02  0.87405805990E+03  0.00000000000E+00 0.  1.
        -11    1    3    3    0    0  0.10400900356E+04  0.68184334235E+03 -0.15223583457E+03  0.12529458787E+04  0.00000000000E+00 0. -1.
         22    1    1    2    0    0 -0.17497709685E+04 -0.11904866611E+04 -0.14266755697E+04  0.25523244530E+04  0.00000000000E+00 0.  1.
<mgrwt>
<rscale>  0 0.43903004E+04</rscale>
<asrwt>0</asrwt>
<pdfrwt beam="1">  1        2 0.48449192E+00 0.43903004E+04</pdfrwt>
<pdfrwt beam="2">  1       -2 0.23540475E+00 0.43903004E+04</pdfrwt>
<totfact> 0.84537075E-02</totfact>
</mgrwt>
</event>
<event>
 6    1  0.1719556E-004  0.1633716E+04  0.7818608E-02  0.8800098E-01
          2   -1    0    0  501    0  0.00000000000E+00  0.00000000000E+00  0.32347814979E+04  0.32347814979E+04  0.00000000000E+00 0.  1.
         -2   -1    0    0    0  501 -0.00000000000E+00 -0.00000000000E+00 -0.20627579375E+03  0.20627579375E+03  0.00000000000E+00 0. -1.
         23    2    1    2    0    0  0.66986032152E+03 -0.64650925285E+02  0.55359955213E+03  0.87628575137E+03  0.92258665989E+02 0.  0.
         13    1    3    3    0    0  0.27607021878E+03 -0.42100791966E+02  0.17506681644E+03  0.32959919994E+03  0.00000000000E+00 0. -1.
        -13    1    3    3    0    0  0.39379010274E+03 -0.22550133319E+02  0.37853273569E+03  0.54668655144E+03  0.00000000000E+00 0.  1.
         22    1    1    2    0    0 -0.66986032152E+03  0.64650925285E+02  0.24749061520E+04  0.25647715402E+04  0.00000000000E+00 0.  1.
<mgrwt>
<rscale>  0 0.16337162E+04</rscale>
<asrwt>0</asrwt>
<pdfrwt beam="1">  1        2 0.49765865E+00 0.16337162E+04</pdfrwt>
<pdfrwt beam="2">  1       -2 0.31734740E-01 0.16337162E+04</pdfrwt>
<totfact> 0.10946501E+01</totfact>
</mgrwt>
</event>
<event>
 6    1  0.1719556E-004  0.3684330E+04  0.7818608E-02  0.8071443E-01
         -1   -1    0    0    0  501 -0.00000000000E+00  0.00000000000E+00  0.18211627343E+04  0.18211627343E+04  0.00000000000E+00 0. -1.
          1   -1    0    0  501    0  0.00000000000E+00 -0.00000000000E+00 -0.18634093652E+04  0.18634093652E+04  0.00000000000E+00 0.  1.
         23    2    1    2    0    0 -0.48709782735E+03  0.15585154581E+03  0.17475814484E+04  0.18231106975E+04  0.90209195395E+02 0.  0.
         13    1    3    3    0    0 -0.38555293026E+03  0.15167502614E+03  0.14793065113E+04  0.15362304937E+04  0.00000000000E+00 0.  1.
        -13    1    3    3    0    0 -0.10154489709E+03  0.41765196738E+01  0.26827493711E+03  0.28688020379E+03  0.00000000000E+00 0. -1.
         22    1    1    2    0    0  0.48709782735E+03 -0.15585154581E+03 -0.17898280793E+04  0.18614614020E+04  0.00000000000E+00 0.  1.
<mgrwt>
<rscale>  0 0.36843299E+04</rscale>
<asrwt>0</asrwt>
<pdfrwt beam="1">  1        1 0.28667836E+00 0.36843299E+04</pdfrwt>
<pdfrwt beam="2">  1       -1 0.28017888E+00 0.36843299E+04</pdfrwt>
<totfact> 0.13156031E-01</totfact>
</mgrwt>
</event>
<event>
 6    1  0.1719556E-004  0.3888562E+04  0.7818608E-02  0.8027412E-01
         -1   -1    0    0    0  501 -0.00000000000E+00  0.00000000000E+00  0.18211213669E+04  0.18211213669E+04  0.00000000000E+00 0. -1.
          1   -1    0    0  501    0  0.00000000000E+00 -0.00000000000E+00 -0.20757702333E+04  0.20757702333E+04  0.00000000000E+00 0.  1.
         23    2    1    2    0    0  0.67233038366E+03  0.18226806308E+04 -0.82825510027E+02  0.19465798065E+04  0.90111326165E+02 0.  0.
         11    1    3    3    0    0  0.46447027757E+03  0.11338356059E+04 -0.55487861299E+02  0.12265376973E+04  0.00000000000E+00 0.  1.
        -11    1    3    3    0    0  0.20786010609E+03  0.68884502489E+03 -0.27337648728E+02  0.72004210922E+03  0.00000000000E+00 0. -1.
         22    1    1    2    0    0 -0.67233038366E+03 -0.18226806308E+04 -0.17182335639E+03  0.19503117937E+04  0.00000000000E+00 0. -1.
<mgrwt>
<rscale>  0 0.38885625E+04</rscale>
<asrwt>0</asrwt>
<pdfrwt beam="1">  1        1 0.31934927E+00 0.38885625E+04</pdfrwt>
<pdfrwt beam="2">  1       -1 0.28017252E+00 0.38885625E+04</pdfrwt>
<totfact> 0.92813342E-02</totfact>
</mgrwt>
</event>
<event>
 6    1  0.1719556E-004  0.2067821E+04  0.7818608E-02  0.8575553E-01
          2   -1    0    0  501    0  0.00000000000E+00  0.00000000000E+00  0.13715711865E+04  0.13715711865E+04  0.00000000000E+00 0.  1.
         -2   -1    0    0    0  501 -0.00000000000E+00 -0.00000000000E+00 -0.77937675493E+03  0.77937675493E+03  0.00000000000E+00 0. -1.
         23    2    1    2    0    0 -0.90059954156E+03  0.27401767136E+03  0.73640038115E+03  0.11986031643E+04  0.90547256986E+02 0.  0.
         11    1    3    3    0    0 -0.44094655370E+03  0.11385996813E+03  0.30424548293E+03  0.54768902622E+03  0.00000000000E+00 0. -1.
        -11    1    3    3    0    0 -0.45965298786E+03  0.16015770323E+03  0.43215489822E+03  0.65091413813E+03  0.00000000000E+00 0.  1.
         22    1    1    2    0    0  0.90059954156E+03 -0.27401767136E+03 -0.14420594961E+03  0.95234477705E+03  0.00000000000E+00 0. -1.
<mgrwt>
<rscale>  0 0.20678208E+04</rscale>
<asrwt>0</asrwt>
<pdfrwt beam="1">  1        2 0.21101095E+00 0.20678208E+04</pdfrwt>
<pdfrwt beam="2">  1       -2 0.11990412E+00 0.20678208E+04</pdfrwt>
<totfact> 0.73877390E+00</totfact>
</mgrwt>
</event>
<event>
 6    1  0.1719556E-004  0.1124611E+04  0.7818608E-02  0.9181531E-01
         -1   -1    0    0    0  501 -0.00000000000E+00  0.00000000000E+00  0.29698245220E+03  0.29698245220E+03  0.00000000000E+00 0. -1.
          1   -1    0    0  501    0  0.00000000000E+00 -0.00000000000E+00 -0.10646671924E+04  0.10646671924E+04  0.00000000000E+00 0.  1.
         23    2    1    2    0    0  0.50354796474E+03  0.20312576910E+03 -0.54529116267E+03  0.77489626010E+03  0.91110542608E+02 0.  0.
         11    1    3    3    0    0  0.41797552037E+03  0.19802700749E+03 -0.43249597501E+03  0.63322270942E+03  0.00000000000E+00 0. -1.
        -11    1    3    3    0    0  0.85572444373E+02  0.50987616119E+01 -0.11279518765E+03  0.14167355069E+03  0.00000000000E+00 0.  1.
         22    1    1    2    0    0 -0.50354796474E+03 -0.20312576910E+03 -0.22239357749E+03  0.58675338446E+03  0.00000000000E+00 0. -1.
<mgrwt>
<rscale>  0 0.11246110E+04</rscale>
<asrwt>0</asrwt>
<pdfrwt beam="1">  1        1 0.16379495E+00 0.11246110E+04</pdfrwt>
<pdfrwt beam="2">  1       -1 0.45689608E-01 0.11246110E+04</pdfrwt>
<totfact> 0.63830593E+01</totfact>
</mgrwt>
</event>
<event>
 6    1  0.1719556E-004  0.2677052E+04  0.7818608E-02  0.8342489E-01
         -2   -1    0    0    0  501 -0.00000000000E+00  0.00000000000E+00  0.12489950893E+04  0.12489950893E+04  0.00000000000E+00 0. -1.
          2   -1    0    0  501    0  0.00000000000E+00 -0.00000000000E+00 -0.14344751990E+04  0.14344751990E+04  0.00000000000E+00 0.  1.
         23    2    1    2    0    0 -0.37014306814E+03  0.12688078421E+04 -0.29489226994E+03  0.13572537706E+04  0.91088505055E+02 0.  0.
         11    1    3    3    0    0 -0.23006386217E+03  0.65436821845E+03 -0.12826715248E+03  0.70539322963E+03  0.00000000000E+00 0. -1.
        -11    1    3    3    0    0 -0.14007920597E+03  0.61443962369E+03 -0.16662511746E+03  0.65186054097E+03  0.00000000000E+00 0.  1.
         22    1    1    2    0    0  0.37014306814E+03 -0.12688078421E+04  0.10941216024E+03  0.13262165178E+04  0.00000000000E+00 0. -1.
<mgrwt>
<rscale>  0 0.26770525E+04</rscale>
<asrwt>0</asrwt>
<pdfrwt beam="1">  1        2 0.22068849E+00 0.26770525E+04</pdfrwt>
<pdfrwt beam="2">  1       -2 0.19215309E+00 0.26770525E+04</pdfrwt>
<totfact> 0.18226429E+00</totfact>
</mgrwt>
</event>
<event>
 6    1  0.1719556E-004  0.1442603E+04  0.7818608E-02  0.8923545E-01
          1   -1    0    0  501    0  0.00000000000E+00  0.00000000000E+00  0.54047612272E+03  0.54047612272E+03  0.00000000000E+00 0.  1.
         -1   -1    0    0    0  501 -0.00000000000E+00 -0.00000000000E+00 -0.96262552789E+03  0.96262552789E+03  0.00000000000E+00 0. -1.
         23    2    1    2    0    0  0.31949323875E+03  0.88360332255E+02 -0.87500740484E+03  0.94188525225E+03  0.10782574815E+03 0.  0.
         13    1    3    3    0    0  0.25850863943E+03  0.30232972494E+02 -0.59396951915E+03  0.64849097062E+03  0.00000000000E+00 0.  1.
        -13    1    3    3    0    0  0.60984599323E+02  0.58127359761E+02 -0.28103788568E+03  0.29339428164E+03  0.00000000000E+00 0. -1.
         22    1    1    2    0    0 -0.31949323875E+03 -0.88360332255E+02  0.45285799967E+03  0.56121639836E+03  0.00000000000E+00 0.  1.
<mgrwt>
<rscale>  0 0.14426034E+04</rscale>
<asrwt>0</asrwt>
<pdfrwt beam="1">  1        1 0.83150173E-01 0.14426034E+04</pdfrwt>
<pdfrwt beam="2">  1       -1 0.14809623E+00 0.14426034E+04</pdfrwt>
<totfact> 0.13953933E+01</totfact>
</mgrwt>
</event>
<event>
 6    1  0.1719556E-004  0.3472206E+04  0.7818608E-02  0.8120409E-01
         -1   -1    0    0    0  501 -0.00000000000E+00  0.00000000000E+00  0.11680566431E+04  0.11680566431E+04  0.00000000000E+00 0. -1.
          1   -1    0    0  501    0  0.00000000000E+00 -0.00000000000E+00 -0.25804002962E+04  0.25804002962E+04  0.00000000000E+00 0.  1.
         23    2    1    2    0    0 -0.12364660601E+04 -0.80539251543E+03  0.27808959259E+03  0.15045607785E+04  0.94148250246E+02 0.  0.
         13    1    3    3    0    0 -0.90308874413E+03 -0.63388029086E+03  0.22240612348E+03  0.11255389761E+04  0.00000000000E+00 0. -1.
        -13    1    3    3    0    0 -0.33337731602E+03 -0.17151222457E+03  0.55683469112E+02  0.37902180247E+03  0.00000000000E+00 0.  1.
         22    1    1    2    0    0  0.12364660601E+04  0.80539251543E+03 -0.16904332457E+04  0.22438961607E+04  0.00000000000E+00 0.  1.
<mgrwt>
<rscale>  0 0.34722060E+04</rscale>
<asrwt>0</asrwt>
<pdfrwt beam="1">  1        1 0.39698466E+00 0.34722060E+04</pdfrwt>
<pdfrwt beam="2">  1       -1 0.17970102E+00 0.34722060E+04</pdfrwt>
<totfact> 0.20361191E-01</totfact>
</mgrwt>
</event>
<event>
 6    1  0.1719556E-004  0.1557758E+04  0.7818608E-02  0.8846928E-01
         -2   -1    0    0    0  501 -0.00000000000E+00  0.00000000000E+00  0.17752053969E+03  0.17752053969E+03  0.00000000000E+00 0. -1.
          2   -1    0    0  501    0  0.00000000000E+00 -0.00000000000E+00 -0.34173635980E+04  0.34173635980E+04  0.00000000000E+00 0.  1.
         23    2    1    2    0    0 -0.48851018675E+02  0.77459688114E+03 -0.15999962515E+04  0.17806393085E+04  0.91113072698E+02 0.  0.
         11    1    3    3    0    0  0.20139953632E+02  0.40259287539E+03 -0.81868355755E+03  0.91254008594E+03  0.00000000000E+00 0. -1.
        -11    1    3    3    0    0 -0.68990972307E+02  0.37200400575E+03 -0.78131269394E+03  0.86809922259E+03  0.00000000000E+00 0.  1.
         22    1    1    2    0    0  0.48851018675E+02 -0.77459688114E+03 -0.16398468069E+04  0.18142448292E+04  0.00000000000E+00 0.  1.
<mgrwt>
<rscale>  0 0.15577577E+04</rscale>
<asrwt>0</asrwt>
<pdfrwt beam="1">  1        2 0.52574822E+00 0.15577577E+04</pdfrwt>
<pdfrwt beam="2">  1       -2 0.27310853E-01 0.15577577E+04</pdfrwt>
<totfact> 0.11019157E+01</totfact>
</mgrwt>
</event>
<event>
 6    1  0.1719556E-004  0.2828187E+04  0.7818608E-02  0.8294570E-01
         -2   -1    0    0    0  501 -0.00000000000E+00  0.00000000000E+00  0.58328032566E+03  0.58328032566E+03  0.00000000000E+00 0. -1.
          2   -1    0    0  501    0  0.00000000000E+00 -0.00000000000E+00 -0.34283017220E+04  0.34283017220E+04  0.00000000000E+00 0.  1.
         23    2    1    2    0    0 -0.36360257256E+03 -0.13579782128E+04 -0.16208755330E+04  0.21474885007E+04  0.90320041633E+02 0.  0.
         13    1    3    3    0    0 -0.22191073092E+03 -0.95935351136E+03 -0.10967983286E+04  0.14739640789E+04  0.00000000000E+00 0.  1.
        -13    1    3    3    0    0 -0.14169184164E+03 -0.39862470141E+03 -0.52407720437E+03  0.67352442176E+03  0.00000000000E+00 0. -1.
         22    1    1    2    0    0  0.36360257256E+03  0.13579782128E+04 -0.12241458633E+04  0.18640935469E+04  0.00000000000E+00 0.  1.
<mgrwt>
<rscale>  0 0.28281874E+04</rscale>
<asrwt>0</asrwt>
<pdfrwt beam="1">  1        2 0.52743103E+00 0.28281874E+04</pdfrwt>
<pdfrwt beam="2">  1       -2 0.89735436E-01 0.28281874E+04</pdfrwt>
<totfact> 0.84191557E-01</totfact>
</mgrwt>
</event>
<event>
 6    1  0.1719556E-004  0.2997276E+03  0.7818608E-02  0.1085377E+00
         -2   -1    0    0    0  501 -0.00000000000E+00  0.00000000000E+00  0.96903786953E+02  0.96903786953E+02  0.00000000000E+00 0. -1.
          2   -1    0    0  501    0  0.00000000000E+00 -0.00000000000E+00 -0.23176756926E+03  0.23176756926E+03  0.00000000000E+00 0.  1.
         23    2    1    2    0    0 -0.85074112781E+02  0.19524735002E+02 -0.19171864060E+03  0.22450180761E+03  0.77628632115E+02 0.  0.
         11    1    3    3    0    0 -0.92969004452E+02 -0.29004991214E+01 -0.15086208763E+03  0.17723153830E+03  0.00000000000E+00 0.  1.
        -11    1    3    3    0    0  0.78948916718E+01  0.22425234124E+02 -0.40856552976E+02  0.47270269315E+02  0.00000000000E+00 0. -1.
         22    1    1    2    0    0  0.85074112781E+02 -0.19524735002E+02  0.56854858301E+02  0.10416954860E+03  0.00000000000E+00 0. -1.
<mgrwt>
<rscale>  0 0.29972758E+03</rscale>
<asrwt>0</asrwt>
<pdfrwt beam="1">  1        2 0.35656549E-01 0.29972758E+03</pdfrwt>
<pdfrwt beam="2">  1       -2 0.14908275E-01 0.29972758E+03</pdfrwt>
<totfact> 0.49983439E+03</totfact>
</mgrwt>
</event>
<event>
 6    1  0.1719556E-004  0.7074036E+03  0.7818608E-02  0.9704654E-01
          2   -1    0    0  501    0  0.00000000000E+00  0.00000000000E+00  0.97318978966E+03  0.97318978966E+03  0.00000000000E+00 0.  1.
         -2   -1    0    0    0  501 -0.00000000000E+00 -0.00000000000E+00 -0.12855145602E+03  0.12855145602E+03  0.00000000000E+00 0. -1.
         23    2    1    2    0    0  0.68763735756E+02 -0.32017687842E+03  0.24676030549E+03  0.42005229801E+03  0.91167976110E+02 0.  0.
         13    1    3    3    0    0  0.68835163936E+02 -0.14406955381E+03  0.15018441602E+03  0.21920236071E+03  0.00000000000E+00 0. -1.
        -13    1    3    3    0    0 -0.71428180396E-01 -0.17610732461E+03  0.96575889474E+02  0.20084993730E+03  0.00000000000E+00 0.  1.
         22    1    1    2    0    0 -0.68763735756E+02  0.32017687842E+03  0.59787802815E+03  0.68168894767E+03  0.00000000000E+00 0.  1.
<mgrwt>
<rscale>  0 0.70740360E+03</rscale>
<asrwt>0</asrwt>
<pdfrwt beam="1">  1        2 0.14972150E+00 0.70740360E+03</pdfrwt>
<pdfrwt beam="2">  1       -2 0.19777148E-01 0.70740360E+03</pdfrwt>
<totfact> 0.57435011E+02</totfact>
</mgrwt>
</event>
<event>
 6    1  0.1719556E-004  0.3845878E+04  0.7818608E-02  0.8036381E-01
          2   -1    0    0  501    0  0.00000000000E+00  0.00000000000E+00  0.11903308270E+04  0.11903308270E+04  0.00000000000E+00 0.  1.
         -2   -1    0    0    0  501 -0.00000000000E+00 -0.00000000000E+00 -0.31064424144E+04  0.31064424144E+04  0.00000000000E+00 0. -1.
         23    2    1    2    0    0 -0.16191654312E+04 -0.82539161221E+02 -0.21115298809E+04  0.26637705726E+04  0.92767553097E+02 0.  0.
         13    1    3    3    0    0 -0.36003250338E+03 -0.56874941911E+02 -0.46743124569E+03  0.59274794976E+03  0.00000000000E+00 0.  1.
        -13    1    3    3    0    0 -0.12591329279E+04 -0.25664219310E+02 -0.16440986352E+04  0.20710226229E+04  0.00000000000E+00 0. -1.
         22    1    1    2    0    0  0.16191654312E+04  0.82539161221E+02  0.19541829353E+03  0.16330026688E+04  0.00000000000E+00 0.  1.
<mgrwt>
<rscale>  0 0.38458779E+04</rscale>
<asrwt>0</asrwt>
<pdfrwt beam="1">  1        2 0.18312782E+00 0.38458779E+04</pdfrwt>
<pdfrwt beam="2">  1       -2 0.47791421E+00 0.38458779E+04</pdfrwt>
<totfact> 0.34927025E-02</totfact>
</mgrwt>
</event>
<event>
 6    1  0.1719556E-004  0.1532995E+04  0.7818608E-02  0.8862803E-01
          1   -1    0    0  501    0  0.00000000000E+00  0.00000000000E+00  0.10357387221E+04  0.10357387221E+04  0.00000000000E+00 0.  1.
         -1   -1    0    0    0  501 -0.00000000000E+00 -0.00000000000E+00 -0.56724594961E+03  0.56724594961E+03  0.00000000000E+00 0. -1.
         23    2    1    2    0    0 -0.54611053152E+03  0.16160313444E+03 -0.29684027410E+03  0.64899989306E+03  0.93458157328E+02 0.  0.
         11    1    3    3    0    0 -0.11210765417E+03  0.73951375982E+02 -0.64848216761E+02  0.14913826923E+03  0.00000000000E+00 0. -1.
        -11    1    3    3    0    0 -0.43400287735E+03  0.87651758460E+02 -0.23199205733E+03  0.49986162383E+03  0.00000000000E+00 0.  1.
         22    1    1    2    0    0  0.54611053152E+03 -0.16160313444E+03  0.76533304661E+03  0.95398477867E+03  0.00000000000E+00 0.  1.
<mgrwt>
<rscale>  0 0.15329952E+04</rscale>
<asrwt>0</asrwt>
<pdfrwt beam="1">  1        1 0.15934442E+00 0.15329952E+04</pdfrwt>
<pdfrwt beam="2">  1       -1 0.87268608E-01 0.15329952E+04</pdfrwt>
<totfact> 0.17704997E+01</totfact>
</mgrwt>
</event>
<event>
 6    1  0.1719556E-004  0.7799817E+04  0.7818608E-02  0.7500140E-01
         -2   -1    0    0    0  501 -0.00000000000E+00  0.00000000000E+00  0.30719202491E+04  0.30719202491E+04  0.00000000000E+00 0. -1.
          2   -1    0    0  501    0  0.00000000000E+00 -0.00000000000E+00 -0.49510686810E+04  0.49510686810E+04  0.00000000000E+00 0.  1.
         23    2    1    2    0    0  0.20985475140E+04 -0.15162718522E+04  0.20597886943E+04  0.33093695477E+04  0.78837425431E+02 0.  0.
         11    1    3    3    0    0  0.60733569214E+03 -0.45620671031E+03  0.64679619081E+03  0.99766052238E+03  0.00000000000E+00 0. -1.
        -11    1    3    3    0    0  0.14912118219E+04 -0.10600651419E+04  0.14129925035E+04  0.23117090253E+04  0.00000000000E+00 0.  1.
         22    1    1    2    0    0 -0.20985475140E+04  0.15162718522E+04 -0.39389371262E+04  0.47136193824E+04  0.00000000000E+00 0.  1.
<mgrwt>
<rscale>  0 0.77998175E+04</rscale>
<asrwt>0</asrwt>
<pdfrwt beam="1">  1        2 0.76170288E+00 0.77998175E+04</pdfrwt>
<pdfrwt beam="2">  1       -2 0.47260311E+00 0.77998175E+04</pdfrwt>
<totfact> 0.56461327E-05</totfact>
</mgrwt>
</event>
<event>
 6    1  0.1719556E-004  0.2954525E+04  0.7818608E-02  0.8256837E-01
         -1   -1    0    0    0  501 -0.00000000000E+00  0.00000000000E+00  0.56494193622E+03  0.56494193622E+03  0.00000000000E+00 0. -1.
          1   -1    0    0  501    0  0.00000000000E+00 -0.00000000000E+00 -0.38628829927E+04  0.38628829927E+04  0.00000000000E+00 0.  1.
         23    2    1    2    0    0  0.81155669383E+03 -0.71811154042E+03 -0.14913194487E+03  0.10977637774E+04  0.92393301187E+02 0.  0.
         11    1    3    3    0    0  0.24068447184E+03 -0.19348779876E+03 -0.82141439083E+02  0.31955243587E+03  0.00000000000E+00 0.  1.
        -11    1    3    3    0    0  0.57087222199E+03 -0.52462374166E+03 -0.66990505790E+02  0.77821134148E+03  0.00000000000E+00 0. -1.
         22    1    1    2    0    0 -0.81155669383E+03  0.71811154042E+03 -0.31488091116E+04  0.33300611516E+04  0.00000000000E+00 0.  1.
<mgrwt>
<rscale>  0 0.29545251E+04</rscale>
<asrwt>0</asrwt>
<pdfrwt beam="1">  1        1 0.59428965E+00 0.29545251E+04</pdfrwt>
<pdfrwt beam="2">  1       -1 0.86914150E-01 0.29545251E+04</pdfrwt>
<totfact> 0.14044285E-01</totfact>
</mgrwt>
</event>
<event>
 6    1  0.1719556E-004  0.4055047E+04  0.7818608E-02  0.7993533E-01
          1   -1    0    0  501    0  0.00000000000E+00  0.00000000000E+00  0.46042240914E+04  0.46042240914E+04  0.00000000000E+00 0.  1.
         -1   -1    0    0    0  501 -0.00000000000E+00 -0.00000000000E+00 -0.89284341267E+03  0.89284341267E+03  0.00000000000E+00 0. -1.
         23    2    1    2    0    0  0.38397864244E+03  0.18506947031E+04  0.86576215782E+03  0.20809212472E+04  0.90435839888E+02 0.  0.
         11    1    3    3    0    0  0.20993416160E+03  0.11660777858E+04  0.57583919809E+03  0.13173460201E+04  0.00000000000E+00 0. -1.
        -11    1    3    3    0    0  0.17404448084E+03  0.68461691730E+03  0.28992295973E+03  0.76357522704E+03  0.00000000000E+00 0.  1.
         22    1    1    2    0    0 -0.38397864244E+03 -0.18506947031E+04  0.28456185209E+04  0.34161462569E+04  0.00000000000E+00 0.  1.
<mgrwt>
<rscale>  0 0.40550468E+04</rscale>
<asrwt>0</asrwt>
<pdfrwt beam="1">  1        1 0.70834215E+00 0.40550468E+04</pdfrwt>
<pdfrwt beam="2">  1       -1 0.13736053E+00 0.40550468E+04</pdfrwt>
<totfact> 0.85392035E-03</totfact>
</mgrwt>
</event>
<event>
 6    1  0.1719556E-004  0.1095486E+04  0.7818608E-02  0.9209603E-01
         -2   -1    0    0    0  501 -0.00000000000E+00  0.00000000000E+00  0.16235991136E+03  0.16235991136E+03  0.00000000000E+00 0. -1.
          2   -1    0    0  501    0  0.00000000000E+00 -0.00000000000E+00 -0.18478837371E+04  0.18478837371E+04  0.00000000000E+00 0.  1.
         23    2    1    2    0    0  0.53519942068E+03  0.89354244461E+02 -0.92889707715E+03  0.10791654361E+04  0.85590055374E+02 0.  0.
         11    1    3    3    0    0  0.34910999555E+02  0.27457548439E+02 -0.60426467574E+02  0.74993685332E+02  0.00000000000E+00 0.  1.
        -11    1    3    3    0    0  0.50028842113E+03  0.61896696022E+02 -0.86847060958E+03  0.10041717507E+04  0.00000000000E+00 0. -1.
         22    1    1    2    0    0 -0.53519942068E+03 -0.89354244461E+02 -0.75662674859E+03  0.93107821239E+03  0.00000000000E+00 0. -1.
<mgrwt>
<rscale>  0 0.10954857E+04</rscale>
<asrwt>0</asrwt>
<pdfrwt beam="1">  1        2 0.28428983E+00 0.10954857E+04</pdfrwt>
<pdfrwt beam="2">  1       -2 0.24978446E-01 0.10954857E+04</pdfrwt>
<totfact> 0.11592824E+02</totfact>
</mgrwt>
</event>
<event>
 6    1  0.1719556E-004  0.1269995E+04  0.7818608E-02  0.9053703E-01
         -2   -1    0    0    0  501 -0.00000000000E+00  0.00000000000E+00  0.49426744555E+03  0.49426744555E+03  0.00000000000E+00 0. -1.
          2   -1    0    0  501    0  0.00000000000E+00 -0.00000000000E+00 -0.81579726080E+03  0.81579726080E+03  0.00000000000E+00 0.  1.
         23    2    1    2    0    0  0.43346182939E+03  0.22161552817E+03  0.25379082764E+03  0.55640931958E+03  0.90437530160E+02 0.  0.
         13    1    3    3    0    0  0.59609200395E+02  0.39967361858E+02  0.75409875087E+02  0.10410233449E+03  0.00000000000E+00 0. -1.
        -13    1    3    3    0    0  0.37385262899E+03  0.18164816631E+03  0.17838095255E+03  0.45230698509E+03  0.00000000000E+00 0.  1.
         22    1    1    2    0    0 -0.43346182939E+03 -0.22161552817E+03 -0.57532064289E+03  0.75365538677E+03  0.00000000000E+00 0.  1.
<mgrwt>
<rscale>  0 0.12699953E+04</rscale>
<asrwt>0</asrwt>
<pdfrwt beam="1">  1        2 0.12550727E+00 0.12699953E+04</pdfrwt>
<pdfrwt beam="2">  1       -2 0.76041147E-01 0.12699953E+04</pdfrwt>
<totfact> 0.51061322E+01</totfact>
</mgrwt>
</event>
<event>
 6    1  0.1719556E-004  0.3602060E+04  0.7818608E-02  0.8090020E-01
          1   -1    0    0  501    0  0.00000000000E+00  0.00000000000E+00  0.39917964419E+04  0.39917964419E+04  0.00000000000E+00 0.  1.
         -1   -1    0    0    0  501 -0.00000000000E+00 -0.00000000000E+00 -0.81259372282E+03  0.81259372282E+03  0.00000000000E+00 0. -1.
         23    2    1    2    0    0 -0.11866473211E+04  0.58096057762E+03 -0.39647729628E+02  0.13249296794E+04  0.90662315546E+02 0.  0.
         11    1    3    3    0    0 -0.67915634198E+03  0.37610413595E+03 -0.44700499650E+02  0.77762831263E+03  0.00000000000E+00 0. -1.
        -11    1    3    3    0    0 -0.50749097916E+03  0.20485644167E+03  0.50527700226E+01  0.54730136680E+03  0.00000000000E+00 0.  1.
         22    1    1    2    0    0  0.11866473211E+04 -0.58096057762E+03  0.32188504487E+04  0.34794604853E+04  0.00000000000E+00 0.  1.
<mgrwt>
<rscale>  0 0.36020598E+04</rscale>
<asrwt>0</asrwt>
<pdfrwt beam="1">  1        1 0.61412252E+00 0.36020598E+04</pdfrwt>
<pdfrwt beam="2">  1       -1 0.12501442E+00 0.36020598E+04</pdfrwt>
<totfact> 0.44032978E-02</totfact>
</mgrwt>
</event>
<event>
 6    1  0.1719556E-004  0.5031815E+04  0.7818608E-02  0.7823618E-01
         -2   -1    0    0    0  501 -0.00000000000E+00  0.00000000000E+00  0.20330710343E+04  0.20330710343E+04  0.00000000000E+00 0. -1.
          2   -1    0    0  501    0  0.00000000000E+00 -0.00000000000E+00 -0.31134132190E+04  0.31134132190E+04  0.00000000000E+00 0.  1.
         23    2    1    2    0    0 -0.71556045303E+03  0.55430135912E+03  0.18596890488E+04  0.20702754806E+04  0.91216494591E+02 0.  0.
         13    1    3    3    0    0 -0.45470374702E+03  0.33487841276E+03  0.12532252059E+04  0.13745808327E+04  0.00000000000E+00 0. -1.
        -13    1    3    3    0    0 -0.26085670600E+03  0.21942294636E+03  0.60646384292E+03  0.69569464798E+03  0.00000000000E+00 0.  1.
         22    1    1    2    0    0  0.71556045303E+03 -0.55430135912E+03 -0.29400312336E+04  0.30762087727E+04  0.00000000000E+00 0.  1.
<mgrwt>
<rscale>  0 0.50318149E+04</rscale>
<asrwt>0</asrwt>
<pdfrwt beam="1">  1        2 0.47898665E+00 0.50318149E+04</pdfrwt>
<pdfrwt beam="2">  1       -2 0.31278016E+00 0.50318149E+04</pdfrwt>
<totfact> 0.28402779E-02</totfact>
</mgrwt>
</event>
<event>
 6    1  0.1719556E-004  0.2663297E+04  0.7818608E-02  0.8347013E-01
         -2   -1    0    0    0  501 -0.00000000000E+00  0.00000000000E+00  0.64864652681E+03  0.64864652681E+03  0.00000000000E+00 0. -1.
          2   -1    0    0  501    0  0.00000000000E+00 -0.00000000000E+00 -0.27338269167E+04  0.27338269167E+04  0.00000000000E+00 0.  1.
         23    2    1    2    0    0 -0.13639552929E+03 -0.10358986088E+04 -0.20890372259E+04  0.23376267833E+04  0.93449338711E+02 0.  0.
         11    1    3    3    0    0 -0.13353980611E+03 -0.87096242179E+03 -0.16920974064E+04  0.19077741095E+04  0.00000000000E+00 0. -1.
        -11    1    3    3    0    0 -0.28557231856E+01 -0.16493618697E+03 -0.39693981953E+03  0.42985267389E+03  0.00000000000E+00 0.  1.
         22    1    1    2    0    0  0.13639552929E+03  0.10358986088E+04  0.38568360356E+01  0.10448466601E+04  0.00000000000E+00 0. -1.
<mgrwt>
<rscale>  0 0.26632967E+04</rscale>
<asrwt>0</asrwt>
<pdfrwt beam="1">  1        2 0.42058875E+00 0.26632967E+04</pdfrwt>
<pdfrwt beam="2">  1       -2 0.99791775E-01 0.26632967E+04</pdfrwt>
<totfact> 0.18509634E+00</totfact>
</mgrwt>
</event>
<event>
 6    1  0.1719556E-004  0.2019950E+04  0.7818608E-02  0.8597350E-01
         -2   -1    0    0    0  501 -0.00000000000E+00  0.00000000000E+00  0.75142319673E+03  0.75142319673E+03  0.00000000000E+00 0. -1.
          2   -1    0    0  501    0  0.00000000000E+00 -0.00000000000E+00 -0.13574901687E+04  0.13574901687E+04  0.00000000000E+00 0.  1.
         23    2    1    2    0    0 -0.35059042766E+03 -0.15568674251E+03 -0.12767532683E+04  0.13362736578E+04  0.91522513670E+02 0.  0.
         13    1    3    3    0    0 -0.16914722446E+02  0.11536616154E+02 -0.51002474790E+02  0.54958655209E+02  0.00000000000E+00 0. -1.
        -13    1    3    3    0    0 -0.33367570521E+03 -0.16722335866E+03 -0.12257507935E+04  0.12813150025E+04  0.00000000000E+00 0.  1.
         22    1    1    2    0    0  0.35059042766E+03  0.15568674251E+03  0.67068629635E+03  0.77263970767E+03  0.00000000000E+00 0. -1.
<mgrwt>
<rscale>  0 0.20199501E+04</rscale>
<asrwt>0</asrwt>
<pdfrwt beam="1">  1        2 0.20884464E+00 0.20199501E+04</pdfrwt>
<pdfrwt beam="2">  1       -2 0.11560357E+00 0.20199501E+04</pdfrwt>
<totfact> 0.82678201E+00</totfact>
</mgrwt>
</event>
<event>
 6    1  0.1719556E-004  0.1794832E+04  0.7818608E-02  0.8709053E-01
          2   -1    0    0  501    0  0.00000000000E+00  0.00000000000E+00  0.19870485640E+04  0.19870485640E+04  0.00000000000E+00 0.  1.
         -2   -1    0    0    0  501 -0.00000000000E+00 -0.00000000000E+00 -0.40530228226E+03  0.40530228226E+03  0.00000000000E+00 0. -1.
         23    2    1    2    0    0 -0.62456139240E+03  0.62359832384E+03  0.99185410186E+03  0.13307838035E+04  0.90879975107E+02 0.  0.
         13    1    3    3    0    0 -0.18860549665E+03  0.14648464472E+03  0.22762353937E+03  0.32991250383E+03  0.00000000000E+00 0.  1.
        -13    1    3    3    0    0 -0.43595589575E+03  0.47711367912E+03  0.76423056250E+03  0.10008712997E+04  0.00000000000E+00 0. -1.
         22    1    1    2    0    0  0.62456139240E+03 -0.62359832384E+03  0.58989217985E+03  0.10615670427E+04  0.00000000000E+00 0. -1.
<mgrwt>
<rscale>  0 0.17948318E+04</rscale>
<asrwt>0</asrwt>
<pdfrwt beam="1">  1        2 0.30569977E+00 0.17948318E+04</pdfrwt>
<pdfrwt beam="2">  1       -2 0.62354199E-01 0.17948318E+04</pdfrwt>
<totfact> 0.15311011E+01</totfact>
</mgrwt>
</event>
<event>
 6    1  0.1719556E-004  0.2389926E+04  0.7818608E-02  0.8443285E-01
          2   -1    0    0  501    0  0.00000000000E+00  0.00000000000E+00  0.20668817683E+04  0.20668817683E+04  0.00000000000E+00 0. -1.
         -2   -1    0    0    0  501 -0.00000000000E+00 -0.00000000000E+00 -0.69086511233E+03  0.69086511233E+03  0.00000000000E+00 0.  1.
         23    2    1    2    0    0  0.34325492675E+03  0.79477688805E+03  0.16363941412E+04  0.18537055755E+04  0.94574462135E+02 0.  0.
         13    1    3    3    0    0  0.19381628081E+03  0.53384031963E+03  0.10052495182E+04  0.11545894645E+04  0.00000000000E+00 0. -1.
        -13    1    3    3    0    0  0.14943864593E+03  0.26093656842E+03  0.63114462296E+03  0.69911611105E+03  0.00000000000E+00 0.  1.
         22    1    1    2    0    0 -0.34325492675E+03 -0.79477688805E+03 -0.26037748522E+03  0.90404130510E+03  0.00000000000E+00 0.  1.
<mgrwt>
<rscale>  0 0.23899259E+04</rscale>
<asrwt>0</asrwt>
<pdfrwt beam="1">  1        2 0.31798181E+00 0.23899259E+04</pdfrwt>
<pdfrwt beam="2">  1       -2 0.10628694E+00 0.23899259E+04</pdfrwt>
<totfact> 0.39389783E+00</totfact>
</mgrwt>
</event>
<event>
 6    1  0.1719556E-004  0.2113844E+04  0.7818608E-02  0.8555170E-01
          1   -1    0    0  501    0  0.00000000000E+00  0.00000000000E+00  0.18787414496E+04  0.18787414496E+04  0.00000000000E+00 0.  1.
         -1   -1    0    0    0  501 -0.00000000000E+00 -0.00000000000E+00 -0.59459157350E+03  0.59459157350E+03  0.00000000000E+00 0. -1.
         23    2    1    2    0    0  0.76873897574E+03 -0.36491488496E+03  0.13728503263E+04  0.16177687322E+04  0.91297132847E+02 0.  0.
         13    1    3    3    0    0  0.31303629197E+03 -0.11784065557E+03  0.47355441371E+03  0.57976885303E+03  0.00000000000E+00 0. -1.
        -13    1    3    3    0    0  0.45570268377E+03 -0.24707422939E+03  0.89929591255E+03  0.10379998792E+04  0.00000000000E+00 0.  1.
         22    1    1    2    0    0 -0.76873897574E+03  0.36491488496E+03 -0.88700450131E+02  0.85556429094E+03  0.00000000000E+00 0.  1.
<mgrwt>
<rscale>  0 0.21138437E+04</rscale>
<asrwt>0</asrwt>
<pdfrwt beam="1">  1        1 0.28903714E+00 0.21138437E+04</pdfrwt>
<pdfrwt beam="2">  1       -1 0.91475628E-01 0.21138437E+04</pdfrwt>
<totfact> 0.38545400E+00</totfact>
</mgrwt>
</event>
<event>
 6    1  0.1719556E-004  0.1909261E+04  0.7818608E-02  0.8650260E-01
         -1   -1    0    0    0  501 -0.00000000000E+00  0.00000000000E+00  0.33295527879E+03  0.33295527879E+03  0.00000000000E+00 0. -1.
          1   -1    0    0  501    0  0.00000000000E+00 -0.00000000000E+00 -0.27370624363E+04  0.27370624363E+04  0.00000000000E+00 0.  1.
         23    2    1    2    0    0  0.70267200224E+03  0.87370251275E+02 -0.22290891893E+04  0.23406256445E+04  0.91149822502E+02 0.  0.
         13    1    3    3    0    0  0.49435401924E+03  0.39659818894E+02 -0.16699311306E+04  0.17420185931E+04  0.00000000000E+00 0. -1.
        -13    1    3    3    0    0  0.20831798301E+03  0.47710432381E+02 -0.55915805866E+03  0.59860705138E+03  0.00000000000E+00 0.  1.
         22    1    1    2    0    0 -0.70267200224E+03 -0.87370251275E+02 -0.17501796826E+03  0.72939207067E+03  0.00000000000E+00 0. -1.
<mgrwt>
<rscale>  0 0.19092610E+04</rscale>
<asrwt>0</asrwt>
<pdfrwt beam="1">  1        1 0.42108651E+00 0.19092610E+04</pdfrwt>
<pdfrwt beam="2">  1       -1 0.51223891E-01 0.19092610E+04</pdfrwt>
<totfact> 0.33148405E+00</totfact>
</mgrwt>
</event>
<event>
 6    1  0.1719556E-004  0.3363044E+04  0.7818608E-02  0.8147037E-01
          2   -1    0    0  501    0  0.00000000000E+00  0.00000000000E+00  0.81354313407E+03  0.81354313407E+03  0.00000000000E+00 0.  1.
         -2   -1    0    0    0  501 -0.00000000000E+00 -0.00000000000E+00 -0.34755571589E+04  0.34755571589E+04  0.00000000000E+00 0. -1.
         23    2    1    2    0    0  0.10743304998E+03  0.13118422003E+04 -0.12543901046E+01  0.13205798446E+04  0.10704080444E+03 0.  0.
         11    1    3    3    0    0  0.73787874565E+02  0.41434655950E+03 -0.30581813895E+02  0.42197508119E+03  0.00000000000E+00 0.  1.
        -11    1    3    3    0    0  0.33645175415E+02  0.89749564077E+03  0.29327423790E+02  0.89860476340E+03  0.00000000000E+00 0. -1.
         22    1    1    2    0    0 -0.10743304998E+03 -0.13118422003E+04 -0.26607596347E+04  0.29685204484E+04  0.00000000000E+00 0. -1.
<mgrwt>
<rscale>  0 0.33630437E+04</rscale>
<asrwt>0</asrwt>
<pdfrwt beam="1">  1        2 0.12516048E+00 0.33630437E+04</pdfrwt>
<pdfrwt beam="2">  1       -2 0.53470111E+00 0.33630437E+04</pdfrwt>
<totfact> 0.28731139E-02</totfact>
</mgrwt>
</event>
<event>
 6    1  0.1719556E-004  0.2879609E+04  0.7818608E-02  0.8278970E-01
         -2   -1    0    0    0  501 -0.00000000000E+00  0.00000000000E+00  0.67773156288E+03  0.67773156288E+03  0.00000000000E+00 0. -1.
          2   -1    0    0  501    0  0.00000000000E+00 -0.00000000000E+00 -0.30587874377E+04  0.30587874377E+04  0.00000000000E+00 0.  1.
         23    2    1    2    0    0  0.41717895848E+03 -0.65790117441E+03 -0.27608298318E+04  0.28698584574E+04  0.83868745413E+02 0.  0.
         13    1    3    3    0    0  0.18706747931E+03 -0.36961990043E+03 -0.15061308364E+04  0.15620637660E+04  0.00000000000E+00 0. -1.
        -13    1    3    3    0    0  0.23011147917E+03 -0.28828127398E+03 -0.12546989954E+04  0.13077946914E+04  0.00000000000E+00 0.  1.
         22    1    1    2    0    0 -0.41717895848E+03  0.65790117441E+03  0.37977395701E+03  0.86666054319E+03  0.00000000000E+00 0. -1.
<mgrwt>
<rscale>  0 0.28796089E+04</rscale>
<asrwt>0</asrwt>
<pdfrwt beam="1">  1        2 0.47058268E+00 0.28796089E+04</pdfrwt>
<pdfrwt beam="2">  1       -2 0.10426640E+00 0.28796089E+04</pdfrwt>
<totfact> 0.10326192E+00</totfact>
</mgrwt>
</event>
<event>
 6    1  0.1719556E-004  0.6763099E+04  0.7818608E-02  0.7602373E-01
          1   -1    0    0  501    0  0.00000000000E+00  0.00000000000E+00  0.41113467972E+04  0.41113467972E+04  0.00000000000E+00 0.  1.
         -1   -1    0    0    0  501 -0.00000000000E+00 -0.00000000000E+00 -0.27812967524E+04  0.27812967524E+04  0.00000000000E+00 0. -1.
         23    2    1    2    0    0 -0.93792657630E+03 -0.27820965740E+04 -0.10436690704E+04  0.31171554954E+04  0.87439375843E+02 0.  0.
         13    1    3    3    0    0 -0.51380508705E+03 -0.16478835456E+04 -0.59535847996E+03  0.18259155421E+04  0.00000000000E+00 0.  1.
        -13    1    3    3    0    0 -0.42412148925E+03 -0.11342130284E+04 -0.44831059045E+03  0.12912399533E+04  0.00000000000E+00 0. -1.
         22    1    1    2    0    0  0.93792657630E+03  0.27820965740E+04  0.23737191152E+04  0.37754880542E+04  0.00000000000E+00 0.  1.
<mgrwt>
<rscale>  0 0.67630985E+04</rscale>
<asrwt>0</asrwt>
<pdfrwt beam="1">  1        1 0.63251489E+00 0.67630985E+04</pdfrwt>
<pdfrwt beam="2">  1       -1 0.42789181E+00 0.67630985E+04</pdfrwt>
<totfact> 0.22088437E-04</totfact>
</mgrwt>
</event>
<event>
 6    1  0.1719556E-004  0.4118440E+03  0.7818608E-02  0.1039754E+00
         -2   -1    0    0    0  501 -0.00000000000E+00  0.00000000000E+00  0.32035950701E+02  0.32035950701E+02  0.00000000000E+00 0. -1.
          2   -1    0    0  501    0  0.00000000000E+00 -0.00000000000E+00 -0.13236341969E+04  0.13236341969E+04  0.00000000000E+00 0.  1.
         23    2    1    2    0    0 -0.92809711254E+01 -0.14551585726E+03 -0.11071500831E+04  0.11205486343E+04  0.92665712147E+02 0.  0.
         11    1    3    3    0    0  0.41139893256E+02 -0.80722327773E+02 -0.59603073852E+03  0.60287745544E+03  0.00000000000E+00 0. -1.
        -11    1    3    3    0    0 -0.50420864382E+02 -0.64793529490E+02 -0.51111934458E+03  0.51767117887E+03  0.00000000000E+00 0.  1.
         22    1    1    2    0    0  0.92809711254E+01  0.14551585726E+03 -0.18444816309E+03  0.23512151328E+03  0.00000000000E+00 0. -1.
<mgrwt>
<rscale>  0 0.41184405E+03</rscale>
<asrwt>0</asrwt>
<pdfrwt beam="1">  1        2 0.20363603E+00 0.41184405E+03</pdfrwt>
<pdfrwt beam="2">  1       -2 0.49286078E-02 0.41184405E+03</pdfrwt>
<totfact> 0.34140109E+03</totfact>
</mgrwt>
</event>
<event>
 6    1  0.1719556E-004  0.4692046E+04  0.7818608E-02  0.7877852E-01
         -1   -1    0    0    0  501 -0.00000000000E+00  0.00000000000E+00  0.18975258119E+04  0.18975258119E+04  0.00000000000E+00 0. -1.
          1   -1    0    0  501    0  0.00000000000E+00 -0.00000000000E+00 -0.29005265324E+04  0.29005265324E+04  0.00000000000E+00 0.  1.
         23    2    1    2    0    0 -0.15775498898E+04  0.10194205957E+04 -0.19375435436E+04  0.27001361654E+04  0.93692705421E+02 0.  0.
         13    1    3    3    0    0 -0.46613129456E+03  0.26814075897E+03 -0.60090257295E+03  0.80638809054E+03  0.00000000000E+00 0. -1.
        -13    1    3    3    0    0 -0.11114185952E+04  0.75127983668E+03 -0.13366409706E+04  0.18937480749E+04  0.00000000000E+00 0.  1.
         22    1    1    2    0    0  0.15775498898E+04 -0.10194205957E+04  0.93454282300E+03  0.20979161789E+04  0.00000000000E+00 0. -1.
<mgrwt>
<rscale>  0 0.46920460E+04</rscale>
<asrwt>0</asrwt>
<pdfrwt beam="1">  1        1 0.44623485E+00 0.46920460E+04</pdfrwt>
<pdfrwt beam="2">  1       -1 0.29192705E+00 0.46920460E+04</pdfrwt>
<totfact> 0.19453146E-02</totfact>
</mgrwt>
</event>
<event>
 6    1  0.1719556E-004  0.3053010E+04  0.7818608E-02  0.8228754E-01
         -2   -1    0    0    0  501 -0.00000000000E+00  0.00000000000E+00  0.29757835270E+04  0.29757835270E+04  0.00000000000E+00 0. -1.
          2   -1    0    0  501    0  0.00000000000E+00 -0.00000000000E+00 -0.78306012720E+03  0.78306012720E+03  0.00000000000E+00 0.  1.
         23    2    1    2    0    0  0.83137329531E+03  0.19058320846E+03  0.26539859678E+04  0.27891701668E+04  0.91242462502E+02 0.  0.
         13    1    3    3    0    0  0.49409204681E+03  0.13931221578E+03  0.17119394411E+04  0.17872524987E+04  0.00000000000E+00 0. -1.
        -13    1    3    3    0    0  0.33728124849E+03  0.51270992672E+02  0.94204652671E+03  0.10019176682E+04  0.00000000000E+00 0.  1.
         22    1    1    2    0    0 -0.83137329531E+03 -0.19058320846E+03 -0.46126256797E+03  0.96967348737E+03  0.00000000000E+00 0.  1.
<mgrwt>
<rscale>  0 0.30530099E+04</rscale>
<asrwt>0</asrwt>
<pdfrwt beam="1">  1        2 0.12047079E+00 0.30530099E+04</pdfrwt>
<pdfrwt beam="2">  1       -2 0.45781284E+00 0.30530099E+04</pdfrwt>
<totfact> 0.92940711E-02</totfact>
</mgrwt>
</event>
<event>
 6    1  0.1719556E-004  0.2040482E+04  0.7818608E-02  0.8587924E-01
          2   -1    0    0  501    0  0.00000000000E+00  0.00000000000E+00  0.17813685675E+04  0.17813685675E+04  0.00000000000E+00 0.  1.
         -2   -1    0    0    0  501 -0.00000000000E+00 -0.00000000000E+00 -0.58432162069E+03  0.58432162069E+03  0.00000000000E+00 0. -1.
         23    2    1    2    0    0  0.66431633572E+03 -0.61774525039E+03  0.63758588609E+02  0.91404701883E+03  0.92148829294E+02 0.  0.
         13    1    3    3    0    0  0.29706690975E+03 -0.30690487061E+03  0.70235540970E+02  0.43286531357E+03  0.00000000000E+00 0. -1.
        -13    1    3    3    0    0  0.36724942597E+03 -0.31084037978E+03 -0.64769523614E+01  0.48118170527E+03  0.00000000000E+00 0.  1.
         22    1    1    2    0    0 -0.66431633572E+03  0.61774525039E+03  0.11332883582E+04  0.14516431694E+04  0.00000000000E+00 0.  1.
<mgrwt>
<rscale>  0 0.20404825E+04</rscale>
<asrwt>0</asrwt>
<pdfrwt beam="1">  1        2 0.27405670E+00 0.20404825E+04</pdfrwt>
<pdfrwt beam="2">  1       -2 0.89895635E-01 0.20404825E+04</pdfrwt>
<totfact> 0.86708922E+00</totfact>
</mgrwt>
</event>
<event>
 6    1  0.1719556E-004  0.2015980E+04  0.7818608E-02  0.8599186E-01
          2   -1    0    0  501    0  0.00000000000E+00  0.00000000000E+00  0.97643545105E+03  0.97643545105E+03  0.00000000000E+00 0.  1.
         -2   -1    0    0    0  501 -0.00000000000E+00 -0.00000000000E+00 -0.10405643051E+04  0.10405643051E+04  0.00000000000E+00 0. -1.
         23    2    1    2    0    0 -0.79948767317E+03  0.22660138829E+03 -0.59936970579E+03  0.10285608364E+04  0.90358293304E+02 0.  0.
         11    1    3    3    0    0 -0.14921936139E+03  0.20090683260E+02 -0.14356363470E+03  0.20803982930E+03  0.00000000000E+00 0.  1.
        -11    1    3    3    0    0 -0.65026831178E+03  0.20651070503E+03 -0.45580607109E+03  0.82052100707E+03  0.00000000000E+00 0. -1.
         22    1    1    2    0    0  0.79948767317E+03 -0.22660138829E+03  0.53524085176E+03  0.98843891977E+03  0.00000000000E+00 0.  1.
<mgrwt>
<rscale>  0 0.20159800E+04</rscale>
<asrwt>0</asrwt>
<pdfrwt beam="1">  1        2 0.15022084E+00 0.20159800E+04</pdfrwt>
<pdfrwt beam="2">  1       -2 0.16008682E+00 0.20159800E+04</pdfrwt>
<totfact> 0.60873334E+00</totfact>
</mgrwt>
</event>
<event>
 6    1  0.1719556E-004  0.2425178E+04  0.7818608E-02  0.8430137E-01
          2   -1    0    0  501    0  0.00000000000E+00  0.00000000000E+00  0.30400150465E+04  0.30400150465E+04  0.00000000000E+00 0.  1.
         -2   -1    0    0    0  501 -0.00000000000E+00 -0.00000000000E+00 -0.48367260191E+03  0.48367260191E+03  0.00000000000E+00 0. -1.
         23    2    1    2    0    0 -0.64260255921E+02 -0.66747285944E+03  0.27449262039E+04  0.28271151591E+04  0.91163915237E+02 0.  0.
         11    1    3    3    0    0 -0.66418384170E+02 -0.29394798809E+03  0.11229641468E+04  0.11626974226E+04  0.00000000000E+00 0. -1.
        -11    1    3    3    0    0  0.21581282492E+01 -0.37352487135E+03  0.16219620571E+04  0.16644177366E+04  0.00000000000E+00 0.  1.
         22    1    1    2    0    0  0.64260255921E+02  0.66747285944E+03 -0.18858375931E+03  0.69657248931E+03  0.00000000000E+00 0. -1.
<mgrwt>
<rscale>  0 0.24251779E+04</rscale>
<asrwt>0</asrwt>
<pdfrwt beam="1">  1        2 0.46769461E+00 0.24251779E+04</pdfrwt>
<pdfrwt beam="2">  1       -2 0.74411172E-01 0.24251779E+04</pdfrwt>
<totfact> 0.23969362E+00</totfact>
</mgrwt>
</event>
<event>
 6    1  0.1719556E-004  0.3189223E+04  0.7818608E-02  0.8191669E-01
          2   -1    0    0  501    0  0.00000000000E+00  0.00000000000E+00  0.19383280885E+04  0.19383280885E+04  0.00000000000E+00 0.  1.
         -2   -1    0    0    0  501 -0.00000000000E+00 -0.00000000000E+00 -0.13118451989E+04  0.13118451989E+04  0.00000000000E+00 0. -1.
         23    2    1    2    0    0 -0.46550228223E+03 -0.14126954950E+04  0.89568374925E+03  0.17385946294E+04  0.89782907144E+02 0.  0.
         11    1    3    3    0    0 -0.33912072891E+03 -0.10873120990E+04  0.72390584481E+03  0.13495518299E+04  0.00000000000E+00 0. -1.
        -11    1    3    3    0    0 -0.12638155332E+03 -0.32538339597E+03  0.17177790445E+03  0.38904279951E+03  0.00000000000E+00 0.  1.
         22    1    1    2    0    0  0.46550228223E+03  0.14126954950E+04 -0.26920085974E+03  0.15115786580E+04  0.00000000000E+00 0. -1.
<mgrwt>
<rscale>  0 0.31892234E+04</rscale>
<asrwt>0</asrwt>
<pdfrwt beam="1">  1        2 0.29820432E+00 0.31892234E+04</pdfrwt>
<pdfrwt beam="2">  1       -2 0.20182234E+00 0.31892234E+04</pdfrwt>
<totfact> 0.78852768E-01</totfact>
</mgrwt>
</event>
<event>
 6    1  0.1719556E-004  0.3530641E+04  0.7818608E-02  0.8106567E-01
         -2   -1    0    0    0  501 -0.00000000000E+00  0.00000000000E+00  0.81417637312E+03  0.81417637312E+03  0.00000000000E+00 0. -1.
          2   -1    0    0  501    0  0.00000000000E+00 -0.00000000000E+00 -0.38276185680E+04  0.38276185680E+04  0.00000000000E+00 0.  1.
         23    2    1    2    0    0 -0.42433670981E+03 -0.14235314113E+04 -0.25650551012E+03  0.15101494941E+04  0.90846549933E+02 0.  0.
         11    1    3    3    0    0 -0.29937726681E+03 -0.10501148190E+04 -0.22680037204E+03  0.11152606376E+04  0.00000000000E+00 0. -1.
        -11    1    3    3    0    0 -0.12495944300E+03 -0.37341659227E+03 -0.29705138082E+02  0.39488885652E+03  0.00000000000E+00 0.  1.
         22    1    1    2    0    0  0.42433670981E+03  0.14235314113E+04 -0.27569366848E+04  0.31316454471E+04  0.00000000000E+00 0.  1.
<mgrwt>
<rscale>  0 0.35306411E+04</rscale>
<asrwt>0</asrwt>
<pdfrwt beam="1">  1        2 0.58886440E+00 0.35306411E+04</pdfrwt>
<pdfrwt beam="2">  1       -2 0.12525790E+00 0.35306411E+04</pdfrwt>
<totfact> 0.18248337E-01</totfact>
</mgrwt>
</event>
<event>
 6    1  0.1719556E-004  0.2602806E+04  0.7818608E-02  0.8367249E-01
          2   -1    0    0  501    0  0.00000000000E+00  0.00000000000E+00  0.30710534792E+04  0.30710534792E+04  0.00000000000E+00 0.  1.
         -2   -1    0    0    0  501 -0.00000000000E+00 -0.00000000000E+00 -0.55148834369E+03  0.55148834369E+03  0.00000000000E+00 0. -1.
         23    2    1    2    0    0 -0.55958767431E+03 -0.11145488900E+04  0.75124081617E+03  0.14586729517E+04  0.89478614688E+02 0.  0.
         11    1    3    3    0    0 -0.36513345582E+03 -0.62904447959E+03  0.43992625507E+03  0.85003206279E+03  0.00000000000E+00 0. -1.
        -11    1    3    3    0    0 -0.19445421849E+03 -0.48550441045E+03  0.31131456110E+03  0.60864088887E+03  0.00000000000E+00 0.  1.
         22    1    1    2    0    0  0.55958767431E+03  0.11145488900E+04  0.17683243194E+04  0.21638688713E+04  0.00000000000E+00 0. -1.
<mgrwt>
<rscale>  0 0.26028063E+04</rscale>
<asrwt>0</asrwt>
<pdfrwt beam="1">  1        2 0.47246976E+00 0.26028063E+04</pdfrwt>
<pdfrwt beam="2">  1       -2 0.84844362E-01 0.26028063E+04</pdfrwt>
<totfact> 0.16801292E+00</totfact>
</mgrwt>
</event>
<event>
 6    1  0.1719556E-004  0.1241747E+04  0.7818608E-02  0.9077080E-01
         -2   -1    0    0    0  501 -0.00000000000E+00  0.00000000000E+00  0.27827561089E+03  0.27827561089E+03  0.00000000000E+00 0. -1.
          2   -1    0    0  501    0  0.00000000000E+00 -0.00000000000E+00 -0.13852589238E+04  0.13852589238E+04  0.00000000000E+00 0.  1.
         23    2    1    2    0    0 -0.28510741209E+03  0.51671231864E+03 -0.31324688677E+03  0.67444638348E+03  0.92067667816E+02 0.  0.
         13    1    3    3    0    0 -0.20275760818E+03  0.43557122014E+03 -0.26922089637E+03  0.55073843749E+03  0.00000000000E+00 0. -1.
        -13    1    3    3    0    0 -0.82349803912E+02  0.81141098500E+02 -0.44025990394E+02  0.12370794599E+03  0.00000000000E+00 0.  1.
         22    1    1    2    0    0  0.28510741209E+03 -0.51671231864E+03 -0.79373642610E+03  0.98908815117E+03  0.00000000000E+00 0.  1.
<mgrwt>
<rscale>  0 0.12417468E+04</rscale>
<asrwt>0</asrwt>
<pdfrwt beam="1">  1        2 0.21311675E+00 0.12417468E+04</pdfrwt>
<pdfrwt beam="2">  1       -2 0.42811633E-01 0.12417468E+04</pdfrwt>
<totfact> 0.75067649E+01</totfact>
</mgrwt>
</event>
<event>
 6    1  0.1719556E-004  0.7866605E+03  0.7818608E-02  0.9579529E-01
          2   -1    0    0  501    0  0.00000000000E+00  0.00000000000E+00  0.10548697142E+04  0.10548697142E+04  0.00000000000E+00 0.  1.
         -2   -1    0    0    0  501 -0.00000000000E+00 -0.00000000000E+00 -0.14666141546E+03  0.14666141546E+03  0.00000000000E+00 0. -1.
         23    2    1    2    0    0 -0.36509942787E+02 -0.31010242056E+03  0.81148748396E+03  0.87464980080E+03  0.94888620272E+02 0.  0.
         11    1    3    3    0    0 -0.65253535103E+02 -0.17614112333E+03  0.50993854325E+03  0.54343448277E+03  0.00000000000E+00 0.  1.
        -11    1    3    3    0    0  0.28743592316E+02 -0.13396129723E+03  0.30154894071E+03  0.33121531803E+03  0.00000000000E+00 0. -1.
         22    1    1    2    0    0  0.36509942787E+02  0.31010242056E+03  0.96720814819E+02  0.32688132889E+03  0.00000000000E+00 0. -1.
<mgrwt>
<rscale>  0 0.78666050E+03</rscale>
<asrwt>0</asrwt>
<pdfrwt beam="1">  1        2 0.16228764E+00 0.78666050E+03</pdfrwt>
<pdfrwt beam="2">  1       -2 0.22563295E-01 0.78666050E+03</pdfrwt>
<totfact> 0.40279726E+02</totfact>
</mgrwt>
</event>
<event>
 6    1  0.1719556E-004  0.1851727E+04  0.7818608E-02  0.8679265E-01
         -2   -1    0    0    0  501 -0.00000000000E+00  0.00000000000E+00  0.41546616086E+03  0.41546616086E+03  0.00000000000E+00 0. -1.
          2   -1    0    0  501    0  0.00000000000E+00 -0.00000000000E+00 -0.20632799636E+04  0.20632799636E+04  0.00000000000E+00 0.  1.
         23    2    1    2    0    0  0.83656926744E+03 -0.26957399716E+03 -0.12057822891E+04  0.14949218830E+04  0.91445219765E+02 0.  0.
         11    1    3    3    0    0  0.85515508563E+02 -0.34357023285E+02 -0.17771590804E+03  0.20019053730E+03  0.00000000000E+00 0.  1.
        -11    1    3    3    0    0  0.75105375887E+03 -0.23521697387E+03 -0.10280663811E+04  0.12947313457E+04  0.00000000000E+00 0. -1.
         22    1    1    2    0    0 -0.83656926744E+03  0.26957399716E+03 -0.44203151364E+03  0.98382424152E+03  0.00000000000E+00 0. -1.
<mgrwt>
<rscale>  0 0.18517268E+04</rscale>
<asrwt>0</asrwt>
<pdfrwt beam="1">  1        2 0.31742769E+00 0.18517268E+04</pdfrwt>
<pdfrwt beam="2">  1       -2 0.63917871E-01 0.18517268E+04</pdfrwt>
<totfact> 0.13108425E+01</totfact>
</mgrwt>
</event>
<event>
 6    1  0.1719556E-004  0.2936312E+04  0.7818608E-02  0.8262155E-01
          2   -1    0    0  501    0  0.00000000000E+00  0.00000000000E+00  0.15232094474E+04  0.15232094474E+04  0.00000000000E+00 0.  1.
         -2   -1    0    0    0  501 -0.00000000000E+00 -0.00000000000E+00 -0.14150919257E+04  0.14150919257E+04  0.00000000000E+00 0. -1.
         23    2    1    2    0    0 -0.18999184393E+03  0.83604132255E+03  0.12448677182E+04  0.15144815098E+04  0.94321864390E+02 0.  0.
         13    1    3    3    0    0 -0.96436453490E+02  0.35599505349E+03  0.61368463863E+03  0.71598973691E+03  0.00000000000E+00 0.  1.
        -13    1    3    3    0    0 -0.93555390445E+02  0.48004626907E+03  0.63118307952E+03  0.79849177291E+03  0.00000000000E+00 0. -1.
         22    1    1    2    0    0  0.18999184393E+03 -0.83604132255E+03 -0.11367501965E+04  0.14238198632E+04  0.00000000000E+00 0. -1.
<mgrwt>
<rscale>  0 0.29363116E+04</rscale>
<asrwt>0</asrwt>
<pdfrwt beam="1">  1        2 0.23433991E+00 0.29363116E+04</pdfrwt>
<pdfrwt beam="2">  1       -2 0.21770645E+00 0.29363116E+04</pdfrwt>
<totfact> 0.10833116E+00</totfact>
</mgrwt>
</event>
<event>
 6    1  0.1719556E-004  0.1575844E+04  0.7818608E-02  0.8835527E-01
         -2   -1    0    0    0  501 -0.00000000000E+00  0.00000000000E+00  0.49455411608E+03  0.49455411608E+03  0.00000000000E+00 0. -1.
          2   -1    0    0  501    0  0.00000000000E+00 -0.00000000000E+00 -0.12553144524E+04  0.12553144524E+04  0.00000000000E+00 0.  1.
         23    2    1    2    0    0  0.18373082734E+01 -0.48586577582E+03  0.30337097777E+03  0.58006329347E+03  0.91490690535E+02 0.  0.
         13    1    3    3    0    0  0.38438980866E+02 -0.34121161889E+03  0.18813459150E+03  0.39153230855E+03  0.00000000000E+00 0. -1.
        -13    1    3    3    0    0 -0.36601672592E+02 -0.14465415693E+03  0.11523638627E+03  0.18853098492E+03  0.00000000000E+00 0.  1.
         22    1    1    2    0    0 -0.18373082734E+01  0.48586577582E+03 -0.10641313141E+04  0.11698052750E+04  0.00000000000E+00 0.  1.
<mgrwt>
<rscale>  0 0.15758438E+04</rscale>
<asrwt>0</asrwt>
<pdfrwt beam="1">  1        2 0.19312530E+00 0.15758438E+04</pdfrwt>
<pdfrwt beam="2">  1       -2 0.76085250E-01 0.15758438E+04</pdfrwt>
<totfact> 0.26093957E+01</totfact>
</mgrwt>
</event>
<event>
 6    1  0.1719556E-004  0.4972506E+04  0.7818608E-02  0.7832762E-01
          3   -1    0    0  501    0  0.00000000000E+00  0.00000000000E+00  0.24558406655E+04  0.24558406655E+04  0.00000000000E+00 0.  1.
         -3   -1    0    0    0  501 -0.00000000000E+00 -0.00000000000E+00 -0.25170418948E+04  0.25170418948E+04  0.00000000000E+00 0. -1.
         23    2    1    2    0    0 -0.99367372953E+03 -0.21178058370E+04 -0.87019051654E+03  0.24976143505E+04  0.91415888032E+02 0.  0.
         13    1    3    3    0    0 -0.75685805694E+03 -0.16054178016E+04 -0.70147428349E+03  0.19084723227E+04  0.00000000000E+00 0. -1.
        -13    1    3    3    0    0 -0.23681567259E+03 -0.51238803538E+03 -0.16871623305E+03  0.58914202777E+03  0.00000000000E+00 0.  1.
         22    1    1    2    0    0  0.99367372953E+03  0.21178058370E+04  0.80898928722E+03  0.24752682099E+04  0.00000000000E+00 0.  1.
<mgrwt>
<rscale>  0 0.49725059E+04</rscale>
<asrwt>0</asrwt>
<pdfrwt beam="1">  1        3 0.37782164E+00 0.49725059E+04</pdfrwt>
<pdfrwt beam="2">  1       -3 0.38723721E+00 0.49725059E+04</pdfrwt>
<totfact> 0.33957603E-04</totfact>
</mgrwt>
</event>
<event>
 6    1  0.1719556E-004  0.3301571E+04  0.7818608E-02  0.8162496E-01
          1   -1    0    0  501    0  0.00000000000E+00  0.00000000000E+00  0.39403726841E+04  0.39403726841E+04  0.00000000000E+00 0.  1.
         -1   -1    0    0    0  501 -0.00000000000E+00 -0.00000000000E+00 -0.69158242004E+03  0.69158242004E+03  0.00000000000E+00 0. -1.
         23    2    1    2    0    0 -0.41561223432E+03 -0.15497800158E+04  0.21609743955E+04  0.26934260250E+04  0.10090484372E+03 0.  0.
         13    1    3    3    0    0 -0.29002044374E+03 -0.89123153028E+03  0.12482882269E+04  0.15609705301E+04  0.00000000000E+00 0. -1.
        -13    1    3    3    0    0 -0.12559179058E+03 -0.65854848552E+03  0.91268616858E+03  0.11324554949E+04  0.00000000000E+00 0.  1.
         22    1    1    2    0    0  0.41561223432E+03  0.15497800158E+04  0.10878158685E+04  0.19385290791E+04  0.00000000000E+00 0. -1.
<mgrwt>
<rscale>  0 0.33015708E+04</rscale>
<asrwt>0</asrwt>
<pdfrwt beam="1">  1        1 0.60621117E+00 0.33015708E+04</pdfrwt>
<pdfrwt beam="2">  1       -1 0.10639730E+00 0.33015708E+04</pdfrwt>
<totfact> 0.73933846E-02</totfact>
</mgrwt>
</event>
<event>
 6    1  0.1719556E-004  0.2730993E+04  0.7818608E-02  0.8325018E-01
         -2   -1    0    0    0  501 -0.00000000000E+00  0.00000000000E+00  0.10232227870E+04  0.10232227870E+04  0.00000000000E+00 0. -1.
          2   -1    0    0  501    0  0.00000000000E+00 -0.00000000000E+00 -0.18222625175E+04  0.18222625175E+04  0.00000000000E+00 0.  1.
         23    2    1    2    0    0  0.97285334275E+03 -0.93320988085E+03 -0.18484116250E+03  0.13640791518E+04  0.96027959043E+02 0.  0.
         13    1    3    3    0    0  0.38593184998E+03 -0.32030784313E+03 -0.98244357759E+02  0.51106991795E+03  0.00000000000E+00 0. -1.
        -13    1    3    3    0    0  0.58692149277E+03 -0.61290203772E+03 -0.86596804738E+02  0.85300923389E+03  0.00000000000E+00 0.  1.
         22    1    1    2    0    0 -0.97285334275E+03  0.93320988085E+03 -0.61419856796E+03  0.14814061526E+04  0.00000000000E+00 0.  1.
<mgrwt>
<rscale>  0 0.27309929E+04</rscale>
<asrwt>0</asrwt>
<pdfrwt beam="1">  1        2 0.28034808E+00 0.27309929E+04</pdfrwt>
<pdfrwt beam="2">  1       -2 0.15741889E+00 0.27309929E+04</pdfrwt>
<totfact> 0.19324550E+00</totfact>
</mgrwt>
</event>
<event>
 6    1  0.1719556E-004  0.1239791E+04  0.7818608E-02  0.9078723E-01
         -1   -1    0    0    0  501 -0.00000000000E+00  0.00000000000E+00  0.57399650962E+03  0.57399650962E+03  0.00000000000E+00 0. -1.
          1   -1    0    0  501    0  0.00000000000E+00 -0.00000000000E+00 -0.66946445820E+03  0.66946445820E+03  0.00000000000E+00 0.  1.
         23    2    1    2    0    0 -0.94661545274E+02 -0.46422931921E+03 -0.44382016288E+03  0.65539725173E+03  0.89997509011E+02 0.  0.
         13    1    3    3    0    0 -0.10223615541E+03 -0.38456255635E+03 -0.33401886957E+03  0.51952785917E+03  0.00000000000E+00 0.  1.
        -13    1    3    3    0    0  0.75746101350E+01 -0.79666762857E+02 -0.10980129331E+03  0.13586939256E+03  0.00000000000E+00 0. -1.
         22    1    1    2    0    0  0.94661545274E+02  0.46422931921E+03  0.34835221430E+03  0.58806371609E+03  0.00000000000E+00 0. -1.
<mgrwt>
<rscale>  0 0.12397907E+04</rscale>
<asrwt>0</asrwt>
<pdfrwt beam="1">  1        1 0.10299453E+00 0.12397907E+04</pdfrwt>
<pdfrwt beam="2">  1       -1 0.88307155E-01 0.12397907E+04</pdfrwt>
<totfact> 0.36247266E+01</totfact>
</mgrwt>
</event>
<event>
 6    1  0.1719556E-004  0.8943234E+03  0.7818608E-02  0.9432705E-01
         -2   -1    0    0    0  501 -0.00000000000E+00  0.00000000000E+00  0.85610662266E+02  0.85610662266E+02  0.00000000000E+00 0. -1.
          2   -1    0    0  501    0  0.00000000000E+00 -0.00000000000E+00 -0.23356156202E+04  0.23356156202E+04  0.00000000000E+00 0.  1.
         23    2    1    2    0    0 -0.32351216201E+03  0.12881312649E+03 -0.39647401599E+03  0.53527031976E+03  0.89831672231E+02 0.  0.
         13    1    3    3    0    0 -0.20952867703E+03  0.12662093878E+03 -0.25363536633E+03  0.35251386880E+03  0.00000000000E+00 0. -1.
        -13    1    3    3    0    0 -0.11398348497E+03  0.21921877147E+01 -0.14283864965E+03  0.18275645096E+03  0.00000000000E+00 0.  1.
         22    1    1    2    0    0  0.32351216201E+03 -0.12881312649E+03 -0.18535309420E+04  0.18859559627E+04  0.00000000000E+00 0.  1.
<mgrwt>
<rscale>  0 0.89432343E+03</rscale>
<asrwt>0</asrwt>
<pdfrwt beam="1">  1        2 0.35932549E+00 0.89432343E+03</pdfrwt>
<pdfrwt beam="2">  1       -2 0.13170871E-01 0.89432343E+03</pdfrwt>
<totfact> 0.19233106E+02</totfact>
</mgrwt>
</event>
<event>
 6    1  0.1719556E-004  0.3624908E+04  0.7818608E-02  0.8084810E-01
         -1   -1    0    0    0  501 -0.00000000000E+00  0.00000000000E+00  0.89656297467E+03  0.89656297467E+03  0.00000000000E+00 0. -1.
          1   -1    0    0  501    0  0.00000000000E+00 -0.00000000000E+00 -0.36639803335E+04  0.36639803335E+04  0.00000000000E+00 0.  1.
         23    2    1    2    0    0  0.76066688214E+03 -0.98809918089E+03  0.26816277631E+03  0.12788210692E+04  0.92292770829E+02 0.  0.
         13    1    3    3    0    0  0.51598843654E+03 -0.64010982402E+03  0.21714164737E+03  0.85037353467E+03  0.00000000000E+00 0. -1.
        -13    1    3    3    0    0  0.24467844560E+03 -0.34798935687E+03  0.51021128944E+02  0.42844753452E+03  0.00000000000E+00 0.  1.
         22    1    1    2    0    0 -0.76066688214E+03  0.98809918089E+03 -0.30355801351E+04  0.32817222390E+04  0.00000000000E+00 0.  1.
<mgrwt>
<rscale>  0 0.36249078E+04</rscale>
<asrwt>0</asrwt>
<pdfrwt beam="1">  1        1 0.56368928E+00 0.36249078E+04</pdfrwt>
<pdfrwt beam="2">  1       -1 0.13793277E+00 0.36249078E+04</pdfrwt>
<totfact> 0.64834847E-02</totfact>
</mgrwt>
</event>
<event>
 6    1  0.1719556E-004  0.1388220E+04  0.7818608E-02  0.8962390E-01
          2   -1    0    0  501    0  0.00000000000E+00  0.00000000000E+00  0.14403216953E+04  0.14403216953E+04  0.00000000000E+00 0.  1.
         -2   -1    0    0    0  501 -0.00000000000E+00 -0.00000000000E+00 -0.33450073805E+03  0.33450073805E+03  0.00000000000E+00 0. -1.
         23    2    1    2    0    0 -0.14176095743E+03  0.67171843718E+03  0.65684542385E+03  0.95452927996E+03  0.91533641744E+02 0.  0.
         11    1    3    3    0    0 -0.13305678256E+03  0.52422041477E+03  0.47162084463E+03  0.71759136821E+03  0.00000000000E+00 0. -1.
        -11    1    3    3    0    0 -0.87041748689E+01  0.14749802241E+03  0.18522457923E+03  0.23693791175E+03  0.00000000000E+00 0.  1.
         22    1    1    2    0    0  0.14176095743E+03 -0.67171843718E+03  0.44897553338E+03  0.82029315337E+03  0.00000000000E+00 0.  1.
<mgrwt>
<rscale>  0 0.13882200E+04</rscale>
<asrwt>0</asrwt>
<pdfrwt beam="1">  1        2 0.22158795E+00 0.13882200E+04</pdfrwt>
<pdfrwt beam="2">  1       -2 0.51461653E-01 0.13882200E+04</pdfrwt>
<totfact> 0.47677498E+01</totfact>
</mgrwt>
</event>
<event>
 6    1  0.1719556E-004  0.4190855E+04  0.7818608E-02  0.7967114E-01
          1   -1    0    0  501    0  0.00000000000E+00  0.00000000000E+00  0.25576142960E+04  0.25576142960E+04  0.00000000000E+00 0.  1.
         -1   -1    0    0    0  501 -0.00000000000E+00 -0.00000000000E+00 -0.17167627528E+04  0.17167627528E+04  0.00000000000E+00 0. -1.
         23    2    1    2    0    0 -0.17961902626E+04 -0.48645008037E+03  0.14009267750E+04  0.23310249433E+04  0.90268029615E+02 0.  0.
         11    1    3    3    0    0 -0.14513506923E+04 -0.41313829210E+03  0.11719323486E+04  0.19106353682E+04  0.00000000000E+00 0.  1.
        -11    1    3    3    0    0 -0.34483957029E+03 -0.73311788277E+02  0.22899442647E+03  0.42038957515E+03  0.00000000000E+00 0. -1.
         22    1    1    2    0    0  0.17961902626E+04  0.48645008037E+03 -0.56007523182E+03  0.19433521054E+04  0.00000000000E+00 0. -1.
<mgrwt>
<rscale>  0 0.41908553E+04</rscale>
<asrwt>0</asrwt>
<pdfrwt beam="1">  1        1 0.39347913E+00 0.41908553E+04</pdfrwt>
<pdfrwt beam="2">  1       -1 0.26411734E+00 0.41908553E+04</pdfrwt>
<totfact> 0.53702522E-02</totfact>
</mgrwt>
</event>
<event>
 6    1  0.1719556E-004  0.8832195E+03  0.7818608E-02  0.9446804E-01
          4   -1    0    0  501    0  0.00000000000E+00  0.00000000000E+00  0.37907743916E+03  0.37907743916E+03  0.00000000000E+00 0.  1.
         -4   -1    0    0    0  501 -0.00000000000E+00 -0.00000000000E+00 -0.51445730528E+03  0.51445730528E+03  0.00000000000E+00 0. -1.
         23    2    1    2    0    0 -0.31177537515E+02 -0.19904463798E+03  0.32372067334E+03  0.39217248809E+03  0.91724474996E+02 0.  0.
         13    1    3    3    0    0 -0.43414926590E+02 -0.17430745527E+03  0.21580755908E+03  0.28078612390E+03  0.00000000000E+00 0.  1.
        -13    1    3    3    0    0  0.12237389075E+02 -0.24737182705E+02  0.10791311426E+03  0.11138636420E+03  0.00000000000E+00 0. -1.
         22    1    1    2    0    0  0.31177537515E+02  0.19904463798E+03 -0.45910053947E+03  0.50136225635E+03  0.00000000000E+00 0. -1.
<mgrwt>
<rscale>  0 0.88321947E+03</rscale>
<asrwt>0</asrwt>
<pdfrwt beam="1">  1        4 0.58319606E-01 0.88321947E+03</pdfrwt>
<pdfrwt beam="2">  1       -4 0.79147277E-01 0.88321947E+03</pdfrwt>
<totfact> 0.78792535E+00</totfact>
</mgrwt>
</event>
<event>
 6    1  0.1719556E-004  0.1280001E+04  0.7818608E-02  0.9045577E-01
          1   -1    0    0  501    0  0.00000000000E+00  0.00000000000E+00  0.10388187726E+04  0.10388187726E+04  0.00000000000E+00 0. -1.
         -1   -1    0    0    0  501 -0.00000000000E+00 -0.00000000000E+00 -0.39429445141E+03  0.39429445141E+03  0.00000000000E+00 0.  1.
         23    2    1    2    0    0 -0.22139430655E+03  0.20083522629E+03  0.95327436434E+03  0.10033728183E+04  0.93138454771E+02 0.  0.
         13    1    3    3    0    0 -0.20291698176E+03  0.14714005589E+03  0.84096833172E+03  0.87752677024E+03  0.00000000000E+00 0. -1.
        -13    1    3    3    0    0 -0.18477324794E+02  0.53695170403E+02  0.11230603261E+03  0.12584604808E+03  0.00000000000E+00 0.  1.
         22    1    1    2    0    0  0.22139430655E+03 -0.20083522629E+03 -0.30875004317E+03  0.42974040565E+03  0.00000000000E+00 0.  1.
<mgrwt>
<rscale>  0 0.12800007E+04</rscale>
<asrwt>0</asrwt>
<pdfrwt beam="1">  1        1 0.15981827E+00 0.12800007E+04</pdfrwt>
<pdfrwt beam="2">  1       -1 0.60660685E-01 0.12800007E+04</pdfrwt>
<totfact> 0.38280441E+01</totfact>
</mgrwt>
</event>
<event>
 6    1  0.1719556E-004  0.5482352E+04  0.7818608E-02  0.7758122E-01
          2   -1    0    0  501    0  0.00000000000E+00  0.00000000000E+00  0.25054454577E+04  0.25054454577E+04  0.00000000000E+00 0.  1.
         -2   -1    0    0    0  501 -0.00000000000E+00 -0.00000000000E+00 -0.29990857975E+04  0.29990857975E+04  0.00000000000E+00 0. -1.
         23    2    1    2    0    0  0.72148439650E+03 -0.25887680887E+04 -0.78549251096E+03  0.28013039911E+04  0.89697349603E+02 0.  0.
         11    1    3    3    0    0  0.80653802910E+02 -0.38296552102E+03 -0.94440939429E+02  0.40259994691E+03  0.00000000000E+00 0. -1.
        -11    1    3    3    0    0  0.64083059359E+03 -0.22058025676E+04 -0.69105157153E+03  0.23987040442E+04  0.00000000000E+00 0.  1.
         22    1    1    2    0    0 -0.72148439650E+03  0.25887680887E+04  0.29185217116E+03  0.27032272640E+04  0.00000000000E+00 0.  1.
<mgrwt>
<rscale>  0 0.54823520E+04</rscale>
<asrwt>0</asrwt>
<pdfrwt beam="1">  1        2 0.38545315E+00 0.54823520E+04</pdfrwt>
<pdfrwt beam="2">  1       -2 0.46139782E+00 0.54823520E+04</pdfrwt>
<totfact> 0.71045886E-03</totfact>
</mgrwt>
</event>
<event>
 6    1  0.1719556E-004  0.3206439E+04  0.7818608E-02  0.8187119E-01
          2   -1    0    0  501    0  0.00000000000E+00  0.00000000000E+00  0.12925100370E+04  0.12925100370E+04  0.00000000000E+00 0.  1.
         -2   -1    0    0    0  501 -0.00000000000E+00 -0.00000000000E+00 -0.19886208050E+04  0.19886208050E+04  0.00000000000E+00 0. -1.
         23    2    1    2    0    0 -0.15835803366E+04 -0.11983475235E+03 -0.56280909131E+03  0.16874381529E+04  0.92770665154E+02 0.  0.
         11    1    3    3    0    0 -0.41686455596E+03  0.49066441800E+01 -0.12800407780E+03  0.43610225534E+03  0.00000000000E+00 0. -1.
        -11    1    3    3    0    0 -0.11667157806E+04 -0.12474139653E+03 -0.43480501351E+03  0.12513358976E+04  0.00000000000E+00 0.  1.
         22    1    1    2    0    0  0.15835803366E+04  0.11983475235E+03 -0.13330167665E+03  0.15936926891E+04  0.00000000000E+00 0. -1.
<mgrwt>
<rscale>  0 0.32064387E+04</rscale>
<asrwt>0</asrwt>
<pdfrwt beam="1">  1        2 0.19884770E+00 0.32064387E+04</pdfrwt>
<pdfrwt beam="2">  1       -2 0.30594166E+00 0.32064387E+04</pdfrwt>
<totfact> 0.41068893E-01</totfact>
</mgrwt>
</event>
<event>
 6    1  0.1719556E-004  0.3077590E+04  0.7818608E-02  0.8221915E-01
          2   -1    0    0  501    0  0.00000000000E+00  0.00000000000E+00  0.21465866023E+04  0.21465866023E+04  0.00000000000E+00 0.  1.
         -2   -1    0    0    0  501 -0.00000000000E+00 -0.00000000000E+00 -0.11030953387E+04  0.11030953387E+04  0.00000000000E+00 0. -1.
         23    2    1    2    0    0  0.12276283864E+04  0.52793912483E+03  0.13249495897E+04  0.18840282646E+04  0.90994021492E+02 0.  0.
         11    1    3    3    0    0  0.21077240626E+03  0.11786818518E+03  0.20567600108E+03  0.31720739862E+03  0.00000000000E+00 0. -1.
        -11    1    3    3    0    0  0.10168559801E+04  0.41007093965E+03  0.11192735886E+04  0.15668208660E+04  0.00000000000E+00 0.  1.
         22    1    1    2    0    0 -0.12276283864E+04 -0.52793912483E+03 -0.28145832607E+03  0.13656536764E+04  0.00000000000E+00 0. -1.
<mgrwt>
<rscale>  0 0.30775898E+04</rscale>
<asrwt>0</asrwt>
<pdfrwt beam="1">  1        2 0.33024409E+00 0.30775898E+04</pdfrwt>
<pdfrwt beam="2">  1       -2 0.16970698E+00 0.30775898E+04</pdfrwt>
<totfact> 0.10079680E+00</totfact>
</mgrwt>
</event>
<event>
 6    1  0.1719556E-004  0.2445415E+04  0.7818608E-02  0.8422694E-01
         -2   -1    0    0    0  501 -0.00000000000E+00  0.00000000000E+00  0.70802226569E+03  0.70802226569E+03  0.00000000000E+00 0. -1.
          2   -1    0    0  501    0  0.00000000000E+00 -0.00000000000E+00 -0.21115340192E+04  0.21115340192E+04  0.00000000000E+00 0.  1.
         23    2    1    2    0    0 -0.15102093654E+03  0.10837205627E+04 -0.77617902756E+02  0.11004716201E+04  0.88066262498E+02 0.  0.
         11    1    3    3    0    0 -0.66670516858E+02  0.21949116360E+03 -0.15470716690E+02  0.22991448799E+03  0.00000000000E+00 0. -1.
        -11    1    3    3    0    0 -0.84350419684E+02  0.86422939908E+03 -0.62147186066E+02  0.87055713211E+03  0.00000000000E+00 0.  1.
         22    1    1    2    0    0  0.15102093654E+03 -0.10837205627E+04 -0.13258938508E+04  0.17190846648E+04  0.00000000000E+00 0.  1.
<mgrwt>
<rscale>  0 0.24454146E+04</rscale>
<asrwt>0</asrwt>
<pdfrwt beam="1">  1        2 0.32485138E+00 0.24454146E+04</pdfrwt>
<pdfrwt beam="2">  1       -2 0.10892650E+00 0.24454146E+04</pdfrwt>
<totfact> 0.34892224E+00</totfact>
</mgrwt>
</event>
<event>
 6    1  0.1719556E-004  0.1984796E+04  0.7818608E-02  0.8613762E-01
          4   -1    0    0  501    0  0.00000000000E+00  0.00000000000E+00  0.55522597005E+03  0.55522597005E+03  0.00000000000E+00 0.  1.
         -4   -1    0    0    0  501 -0.00000000000E+00 -0.00000000000E+00 -0.17737895854E+04  0.17737895854E+04  0.00000000000E+00 0. -1.
         23    2    1    2    0    0 -0.61790989234E+03  0.64049172602E+03 -0.10129628380E+03  0.90061484966E+03  0.93829015632E+02 0.  0.
         11    1    3    3    0    0 -0.44246759367E+03  0.48791844767E+03 -0.38560339841E+02  0.65979457624E+03  0.00000000000E+00 0.  1.
        -11    1    3    3    0    0 -0.17544229866E+03  0.15257327835E+03 -0.62735943961E+02  0.24082027342E+03  0.00000000000E+00 0. -1.
         22    1    1    2    0    0  0.61790989234E+03 -0.64049172602E+03 -0.11172673316E+04  0.14284007058E+04  0.00000000000E+00 0. -1.
<mgrwt>
<rscale>  0 0.19847963E+04</rscale>
<asrwt>0</asrwt>
<pdfrwt beam="1">  1        4 0.85419380E-01 0.19847963E+04</pdfrwt>
<pdfrwt beam="2">  1       -4 0.27289071E+00 0.19847963E+04</pdfrwt>
<totfact> 0.10128631E-01</totfact>
</mgrwt>
</event>
<event>
 6    1  0.1719556E-004  0.2744838E+04  0.7818608E-02  0.8320602E-01
         -1   -1    0    0    0  501 -0.00000000000E+00  0.00000000000E+00  0.83115833385E+03  0.83115833385E+03  0.00000000000E+00 0. -1.
          1   -1    0    0  501    0  0.00000000000E+00 -0.00000000000E+00 -0.22661551192E+04  0.22661551192E+04  0.00000000000E+00 0.  1.
         23    2    1    2    0    0  0.13583344102E+04 -0.18555217728E+03 -0.70884245240E+03  0.15459263010E+04  0.89042267526E+02 0.  0.
         13    1    3    3    0    0  0.56586231644E+03 -0.41516548471E+02 -0.26401827365E+03  0.62580303114E+03  0.00000000000E+00 0. -1.
        -13    1    3    3    0    0  0.79247209373E+03 -0.14403562881E+03 -0.44482417875E+03  0.92012326984E+03  0.00000000000E+00 0.  1.
         22    1    1    2    0    0 -0.13583344102E+04  0.18555217728E+03 -0.72615433296E+03  0.15513871521E+04  0.00000000000E+00 0. -1.
<mgrwt>
<rscale>  0 0.27448379E+04</rscale>
<asrwt>0</asrwt>
<pdfrwt beam="1">  1        1 0.34863924E+00 0.27448379E+04</pdfrwt>
<pdfrwt beam="2">  1       -1 0.12787052E+00 0.27448379E+04</pdfrwt>
<totfact> 0.90256969E-01</totfact>
</mgrwt>
</event>
<event>
 6    1  0.1719556E-004  0.1158668E+04  0.7818608E-02  0.9149824E-01
          2   -1    0    0  501    0  0.00000000000E+00  0.00000000000E+00  0.40150523605E+03  0.40150523605E+03  0.00000000000E+00 0.  1.
         -2   -1    0    0    0  501 -0.00000000000E+00 -0.00000000000E+00 -0.83592442349E+03  0.83592442349E+03  0.00000000000E+00 0. -1.
         23    2    1    2    0    0 -0.24782540944E+03 -0.21047020709E+03  0.28854104894E+03  0.44472123583E+03  0.93839751892E+02 0.  0.
         13    1    3    3    0    0 -0.30564732133E+02 -0.44577509914E+02  0.10979420259E+02  0.55153466887E+02  0.00000000000E+00 0. -1.
        -13    1    3    3    0    0 -0.21726067730E+03 -0.16589269718E+03  0.27756162868E+03  0.38956776894E+03  0.00000000000E+00 0.  1.
         22    1    1    2    0    0  0.24782540944E+03  0.21047020709E+03 -0.72296023638E+03  0.79270842371E+03  0.00000000000E+00 0. -1.
<mgrwt>
<rscale>  0 0.11586683E+04</rscale>
<asrwt>0</asrwt>
<pdfrwt beam="1">  1        2 0.61770037E-01 0.11586683E+04</pdfrwt>
<pdfrwt beam="2">  1       -2 0.12860376E+00 0.11586683E+04</pdfrwt>
<totfact> 0.34943534E+01</totfact>
</mgrwt>
</event>
<event>
 6    1  0.1719556E-004  0.2493985E+04  0.7818608E-02  0.8405131E-01
         -2   -1    0    0    0  501 -0.00000000000E+00  0.00000000000E+00  0.72849770009E+03  0.72849770009E+03  0.00000000000E+00 0. -1.
          2   -1    0    0  501    0  0.00000000000E+00 -0.00000000000E+00 -0.21345169940E+04  0.21345169940E+04  0.00000000000E+00 0.  1.
         23    2    1    2    0    0  0.40035382616E+03  0.86368333257E+03  0.21736581509E+03  0.98109777317E+03  0.95251550493E+02 0.  0.
         13    1    3    3    0    0  0.33511415444E+03  0.73655694214E+03  0.14946466512E+03  0.82289568697E+03  0.00000000000E+00 0. -1.
        -13    1    3    3    0    0  0.65239671727E+02  0.12712639043E+03  0.67901149972E+02  0.15820208620E+03  0.00000000000E+00 0.  1.
         22    1    1    2    0    0 -0.40035382616E+03 -0.86368333257E+03 -0.16233851090E+04  0.18819169209E+04  0.00000000000E+00 0.  1.
<mgrwt>
<rscale>  0 0.24939853E+04</rscale>
<asrwt>0</asrwt>
<pdfrwt beam="1">  1        2 0.32838723E+00 0.24939853E+04</pdfrwt>
<pdfrwt beam="2">  1       -2 0.11207657E+00 0.24939853E+04</pdfrwt>
<totfact> 0.31484026E+00</totfact>
</mgrwt>
</event>
<event>
 6    1  0.1719556E-004  0.1329941E+04  0.7818608E-02  0.9006153E-01
         -2   -1    0    0    0  501 -0.00000000000E+00  0.00000000000E+00  0.20440062870E+03  0.20440062870E+03  0.00000000000E+00 0. -1.
          2   -1    0    0  501    0  0.00000000000E+00 -0.00000000000E+00 -0.21633284278E+04  0.21633284278E+04  0.00000000000E+00 0.  1.
         23    2    1    2    0    0  0.36568751935E+03  0.55199844523E+03 -0.99142889540E+03  0.11953452567E+04  0.86541220000E+02 0.  0.
         11    1    3    3    0    0  0.10153891492E+03  0.15680802735E+03 -0.35309413345E+03  0.39946761541E+03  0.00000000000E+00 0. -1.
        -11    1    3    3    0    0  0.26414860444E+03  0.39519041787E+03 -0.63833476195E+03  0.79587764130E+03  0.00000000000E+00 0.  1.
         22    1    1    2    0    0 -0.36568751935E+03 -0.55199844523E+03 -0.96749890370E+03  0.11723837998E+04  0.00000000000E+00 0.  1.
<mgrwt>
<rscale>  0 0.13299409E+04</rscale>
<asrwt>0</asrwt>
<pdfrwt beam="1">  1        2 0.33281974E+00 0.13299409E+04</pdfrwt>
<pdfrwt beam="2">  1       -2 0.31446252E-01 0.13299409E+04</pdfrwt>
<totfact> 0.49807587E+01</totfact>
</mgrwt>
</event>
<event>
 6    1  0.1719556E-004  0.3887765E+04  0.7818608E-02  0.8027579E-01
          2   -1    0    0  501    0  0.00000000000E+00  0.00000000000E+00  0.17276521286E+04  0.17276521286E+04  0.00000000000E+00 0.  1.
         -2   -1    0    0    0  501 -0.00000000000E+00 -0.00000000000E+00 -0.21871762958E+04  0.21871762958E+04  0.00000000000E+00 0. -1.
         23    2    1    2    0    0  0.92309311166E+03 -0.13212510106E+04 -0.13223846086E+04  0.20866234942E+04  0.86553034273E+02 0.  0.
         11    1    3    3    0    0  0.56506894368E+03 -0.85309142507E+03 -0.79601385613E+03  0.12964204371E+04  0.00000000000E+00 0.  1.
        -11    1    3    3    0    0  0.35802416799E+03 -0.46815958552E+03 -0.52637075245E+03  0.79020305707E+03  0.00000000000E+00 0. -1.
         22    1    1    2    0    0 -0.92309311166E+03  0.13212510106E+04  0.86286044138E+03  0.18282049303E+04  0.00000000000E+00 0.  1.
<mgrwt>
<rscale>  0 0.38877653E+04</rscale>
<asrwt>0</asrwt>
<pdfrwt beam="1">  1        2 0.26579264E+00 0.38877653E+04</pdfrwt>
<pdfrwt beam="2">  1       -2 0.33648866E+00 0.38877653E+04</pdfrwt>
<totfact> 0.14248664E-01</totfact>
</mgrwt>
</event>
<event>
 6    1  0.1719556E-004  0.3276680E+04  0.7818608E-02  0.8168855E-01
         -1   -1    0    0    0  501 -0.00000000000E+00  0.00000000000E+00  0.13660713018E+04  0.13660713018E+04  0.00000000000E+00 0. -1.
          1   -1    0    0  501    0  0.00000000000E+00 -0.00000000000E+00 -0.19648742135E+04  0.19648742135E+04  0.00000000000E+00 0.  1.
         23    2    1    2    0    0  0.43372399199E+03 -0.13678557396E+04  0.50106752988E+03  0.15229463964E+04  0.95662068550E+02 0.  0.
         11    1    3    3    0    0  0.19348808883E+03 -0.76503036909E+03  0.26570404970E+03  0.83265103626E+03  0.00000000000E+00 0.  1.
        -11    1    3    3    0    0  0.24023590315E+03 -0.60282537049E+03  0.23536348018E+03  0.69029536017E+03  0.00000000000E+00 0. -1.
         22    1    1    2    0    0 -0.43372399199E+03  0.13678557396E+04 -0.10998704416E+04  0.18079991189E+04  0.00000000000E+00 0.  1.
<mgrwt>
<rscale>  0 0.32766802E+04</rscale>
<asrwt>0</asrwt>
<pdfrwt beam="1">  1        1 0.30228834E+00 0.32766802E+04</pdfrwt>
<pdfrwt beam="2">  1       -1 0.21016482E+00 0.32766802E+04</pdfrwt>
<totfact> 0.33558432E-01</totfact>
</mgrwt>
</event>
<event>
 6    1  0.1719556E-004  0.2217994E+04  0.7818608E-02  0.8510976E-01
         -1   -1    0    0    0  501 -0.00000000000E+00  0.00000000000E+00  0.43756941183E+03  0.43756941183E+03  0.00000000000E+00 0. -1.
          1   -1    0    0  501    0  0.00000000000E+00 -0.00000000000E+00 -0.28106956797E+04  0.28106956797E+04  0.00000000000E+00 0.  1.
         23    2    1    2    0    0 -0.37470856981E+03 -0.58432120954E+02 -0.27118776305E+04  0.27397640486E+04  0.90586612639E+02 0.  0.
         11    1    3    3    0    0 -0.13139043687E+03 -0.16643316234E+02 -0.66569917630E+03  0.67874578467E+03  0.00000000000E+00 0. -1.
        -11    1    3    3    0    0 -0.24331813293E+03 -0.41788804720E+02 -0.20461784542E+04  0.20610182640E+04  0.00000000000E+00 0.  1.
         22    1    1    2    0    0  0.37470856981E+03  0.58432120954E+02  0.33875136256E+03  0.50850104295E+03  0.00000000000E+00 0. -1.
<mgrwt>
<rscale>  0 0.22179941E+04</rscale>
<asrwt>0</asrwt>
<pdfrwt beam="1">  1        1 0.43241471E+00 0.22179941E+04</pdfrwt>
<pdfrwt beam="2">  1       -1 0.67318372E-01 0.22179941E+04</pdfrwt>
<totfact> 0.16667058E+00</totfact>
</mgrwt>
</event>
<event>
 6    1  0.1719556E-004  0.1654904E+04  0.7818608E-02  0.8787511E-01
          1   -1    0    0  501    0  0.00000000000E+00  0.00000000000E+00  0.68961315806E+03  0.68961315806E+03  0.00000000000E+00 0.  1.
         -1   -1    0    0    0  501 -0.00000000000E+00 -0.00000000000E+00 -0.99284182879E+03  0.99284182879E+03  0.00000000000E+00 0. -1.
         23    2    1    2    0    0 -0.21211492636E+03  0.77649744919E+03 -0.33540180300E+03  0.87686443264E+03  0.91955604486E+02 0.  0.
         11    1    3    3    0    0 -0.17566558527E+03  0.70198649554E+03 -0.27444743816E+03  0.77392818406E+03  0.00000000000E+00 0.  1.
        -11    1    3    3    0    0 -0.36449341087E+02  0.74510953650E+02 -0.60954364838E+02  0.10293624858E+03  0.00000000000E+00 0. -1.
         22    1    1    2    0    0  0.21211492636E+03 -0.77649744919E+03  0.32173132279E+02  0.80559055421E+03  0.00000000000E+00 0. -1.
<mgrwt>
<rscale>  0 0.16549040E+04</rscale>
<asrwt>0</asrwt>
<pdfrwt beam="1">  1        1 0.10609433E+00 0.16549040E+04</pdfrwt>
<pdfrwt beam="2">  1       -1 0.15274490E+00 0.16549040E+04</pdfrwt>
<totfact> 0.88430939E+00</totfact>
</mgrwt>
</event>
<event>
 6    1  0.1719556E-004  0.2698917E+04  0.7818608E-02  0.8335356E-01
          2   -1    0    0  501    0  0.00000000000E+00  0.00000000000E+00  0.30364477132E+04  0.30364477132E+04  0.00000000000E+00 0.  1.
         -2   -1    0    0    0  501 -0.00000000000E+00 -0.00000000000E+00 -0.59972671748E+03  0.59972671748E+03  0.00000000000E+00 0. -1.
         23    2    1    2    0    0 -0.74573734909E+03  0.49721034439E+03  0.25760779971E+04  0.27291117569E+04  0.92362407312E+02 0.  0.
         11    1    3    3    0    0 -0.71470949255E+03  0.48798111755E+03  0.25187496953E+04  0.26632752876E+04  0.00000000000E+00 0.  1.
        -11    1    3    3    0    0 -0.31027856538E+02  0.92292268429E+01  0.57328301715E+02  0.65836469278E+02  0.00000000000E+00 0. -1.
         22    1    1    2    0    0  0.74573734909E+03 -0.49721034439E+03 -0.13935700132E+03  0.90706267381E+03  0.00000000000E+00 0. -1.
<mgrwt>
<rscale>  0 0.26989174E+04</rscale>
<asrwt>0</asrwt>
<pdfrwt beam="1">  1        2 0.46714579E+00 0.26989174E+04</pdfrwt>
<pdfrwt beam="2">  1       -2 0.92265651E-01 0.26989174E+04</pdfrwt>
<totfact> 0.14452612E+00</totfact>
</mgrwt>
</event>
<event>
 6    1  0.1719556E-004  0.5293560E+04  0.7818608E-02  0.7784752E-01
         -2   -1    0    0    0  501 -0.00000000000E+00  0.00000000000E+00  0.26325846580E+04  0.26325846580E+04  0.00000000000E+00 0. -1.
          2   -1    0    0  501    0  0.00000000000E+00 -0.00000000000E+00 -0.26610514225E+04  0.26610514225E+04  0.00000000000E+00 0.  1.
         23    2    1    2    0    0 -0.10316961530E+04 -0.12025750174E+04 -0.21329557867E+04  0.26593510410E+04  0.10983599823E+03 0.  0.
         11    1    3    3    0    0 -0.49239568868E+03 -0.64826781673E+03 -0.11372078548E+04  0.13985515298E+04  0.00000000000E+00 0. -1.
        -11    1    3    3    0    0 -0.53930046434E+03 -0.55430720067E+03 -0.99574793197E+03  0.12607995112E+04  0.00000000000E+00 0.  1.
         22    1    1    2    0    0  0.10316961530E+04  0.12025750174E+04  0.21044890223E+04  0.26342850395E+04  0.00000000000E+00 0. -1.
<mgrwt>
<rscale>  0 0.52935595E+04</rscale>
<asrwt>0</asrwt>
<pdfrwt beam="1">  1        2 0.40939253E+00 0.52935595E+04</pdfrwt>
<pdfrwt beam="2">  1       -2 0.40501302E+00 0.52935595E+04</pdfrwt>
<totfact> 0.13724801E-02</totfact>
</mgrwt>
</event>
<event>
 6    1  0.1719556E-004  0.5314815E+03  0.7818608E-02  0.1005873E+00
         -2   -1    0    0    0  501 -0.00000000000E+00  0.00000000000E+00  0.53980938218E+02  0.53980938218E+02  0.00000000000E+00 0. -1.
          2   -1    0    0  501    0  0.00000000000E+00 -0.00000000000E+00 -0.13082054696E+04  0.13082054696E+04  0.00000000000E+00 0.  1.
         23    2    1    2    0    0 -0.29319278401E+02 -0.22796245539E+03 -0.94412713631E+03  0.97619820129E+03  0.93596888480E+02 0.  0.
         13    1    3    3    0    0  0.12064389547E+01 -0.74204206731E+02 -0.15757131299E+03  0.17417358717E+03  0.00000000000E+00 0. -1.
        -13    1    3    3    0    0 -0.30525717356E+02 -0.15375824865E+03 -0.78655582332E+03  0.80202461412E+03  0.00000000000E+00 0.  1.
         22    1    1    2    0    0  0.29319278401E+02  0.22796245539E+03 -0.31009739509E+03  0.38598820654E+03  0.00000000000E+00 0. -1.
<mgrwt>
<rscale>  0 0.53148155E+03</rscale>
<asrwt>0</asrwt>
<pdfrwt beam="1">  1        2 0.20126238E+00 0.53148155E+03</pdfrwt>
<pdfrwt beam="2">  1       -2 0.83047595E-02 0.53148155E+03</pdfrwt>
<totfact> 0.15370449E+03</totfact>
</mgrwt>
</event>
<event>
 6    1  0.1719556E-004  0.2934988E+04  0.7818608E-02  0.8262543E-01
          1   -1    0    0  501    0  0.00000000000E+00  0.00000000000E+00  0.21231929994E+04  0.21231929994E+04  0.00000000000E+00 0.  1.
         -1   -1    0    0    0  501 -0.00000000000E+00 -0.00000000000E+00 -0.10142922731E+04  0.10142922731E+04  0.00000000000E+00 0. -1.
         23    2    1    2    0    0  0.56797877771E+03  0.30410605694E+03  0.19627883604E+04  0.20678103324E+04  0.90669936484E+02 0.  0.
         11    1    3    3    0    0  0.12298149843E+01  0.13199662296E+02  0.49991612202E+02  0.51719482018E+02  0.00000000000E+00 0. -1.
        -11    1    3    3    0    0  0.56674896273E+03  0.29090639464E+03  0.19127967482E+04  0.20160908504E+04  0.00000000000E+00 0.  1.
         22    1    1    2    0    0 -0.56797877771E+03 -0.30410605694E+03 -0.85388763412E+03  0.10696749401E+04  0.00000000000E+00 0. -1.
<mgrwt>
<rscale>  0 0.29349877E+04</rscale>
<asrwt>0</asrwt>
<pdfrwt beam="1">  1        1 0.32664508E+00 0.29349877E+04</pdfrwt>
<pdfrwt beam="2">  1       -1 0.15604497E+00 0.29349877E+04</pdfrwt>
<totfact> 0.65878431E-01</totfact>
</mgrwt>
</event>
<event>
 6    1  0.1719556E-004  0.3347398E+04  0.7818608E-02  0.8150938E-01
         -2   -1    0    0    0  501 -0.00000000000E+00  0.00000000000E+00  0.98428666184E+03  0.98428666184E+03  0.00000000000E+00 0. -1.
          2   -1    0    0  501    0  0.00000000000E+00 -0.00000000000E+00 -0.28459891422E+04  0.28459891422E+04  0.00000000000E+00 0.  1.
         23    2    1    2    0    0 -0.52362224204E+02  0.16273455166E+04 -0.13689963055E+04  0.21291718661E+04  0.90701255141E+02 0.  0.
         11    1    3    3    0    0 -0.61144599183E+02  0.13095307396E+04 -0.10609889773E+04  0.16865073466E+04  0.00000000000E+00 0.  1.
        -11    1    3    3    0    0  0.87823749787E+01  0.31781477700E+03 -0.30800732822E+03  0.44266451950E+03  0.00000000000E+00 0. -1.
         22    1    1    2    0    0  0.52362224204E+02 -0.16273455166E+04 -0.49270617484E+03  0.17011039380E+04  0.00000000000E+00 0. -1.
<mgrwt>
<rscale>  0 0.33473985E+04</rscale>
<asrwt>0</asrwt>
<pdfrwt beam="1">  1        2 0.43784448E+00 0.33473985E+04</pdfrwt>
<pdfrwt beam="2">  1       -2 0.15142872E+00 0.33473985E+04</pdfrwt>
<totfact> 0.52677703E-01</totfact>
</mgrwt>
</event>
<event>
 6    1  0.1719556E-004  0.4123623E+04  0.7818608E-02  0.7980062E-01
         -2   -1    0    0    0  501 -0.00000000000E+00  0.00000000000E+00  0.17391904732E+04  0.17391904732E+04  0.00000000000E+00 0.  1.
          2   -1    0    0  501    0  0.00000000000E+00 -0.00000000000E+00 -0.24442790648E+04  0.24442790648E+04  0.00000000000E+00 0. -1.
         23    2    1    2    0    0  0.23001300145E+03  0.18039580536E+04 -0.13360720353E+04  0.22585511641E+04  0.93777596624E+02 0.  0.
         13    1    3    3    0    0 -0.68513145527E+01  0.11225350312E+03 -0.92771904287E+02  0.14578894231E+03  0.00000000000E+00 0. -1.
        -13    1    3    3    0    0  0.23686431600E+03  0.16917045504E+04 -0.12433001310E+04  0.21127622218E+04  0.00000000000E+00 0.  1.
         22    1    1    2    0    0 -0.23001300145E+03 -0.18039580536E+04  0.63098344363E+03  0.19249183738E+04  0.00000000000E+00 0.  1.
<mgrwt>
<rscale>  0 0.41236231E+04</rscale>
<asrwt>0</asrwt>
<pdfrwt beam="1">  1        2 0.37604293E+00 0.41236231E+04</pdfrwt>
<pdfrwt beam="2">  1       -2 0.26756777E+00 0.41236231E+04</pdfrwt>
<totfact> 0.14687296E-01</totfact>
</mgrwt>
</event>
<event>
 6    1  0.1719556E-004  0.1290307E+04  0.7818608E-02  0.9037287E-01
          2   -1    0    0  501    0  0.00000000000E+00  0.00000000000E+00  0.12202655382E+04  0.12202655382E+04  0.00000000000E+00 0.  1.
         -2   -1    0    0    0  501 -0.00000000000E+00 -0.00000000000E+00 -0.34109212998E+03  0.34109212998E+03  0.00000000000E+00 0. -1.
         23    2    1    2    0    0 -0.21016002683E+03 -0.54713629577E+03  0.75874118096E+03  0.96300218487E+03  0.90330865965E+02 0.  0.
         13    1    3    3    0    0 -0.52480422293E+02 -0.26044724855E+03  0.35108896096E+03  0.44028447907E+03  0.00000000000E+00 0. -1.
        -13    1    3    3    0    0 -0.15767960453E+03 -0.28668904722E+03  0.40765222001E+03  0.52271770580E+03  0.00000000000E+00 0.  1.
         22    1    1    2    0    0  0.21016002683E+03  0.54713629577E+03  0.12043222722E+03  0.59835548328E+03  0.00000000000E+00 0. -1.
<mgrwt>
<rscale>  0 0.12903069E+04</rscale>
<asrwt>0</asrwt>
<pdfrwt beam="1">  1        2 0.18773316E+00 0.12903069E+04</pdfrwt>
<pdfrwt beam="2">  1       -2 0.52475713E-01 0.12903069E+04</pdfrwt>
<totfact> 0.61902596E+01</totfact>
</mgrwt>
</event>
<event>
 6    1  0.1719556E-004  0.2122418E+04  0.7818608E-02  0.8551432E-01
         -2   -1    0    0    0  501 -0.00000000000E+00  0.00000000000E+00  0.30244732141E+03  0.30244732141E+03  0.00000000000E+00 0. -1.
          2   -1    0    0  501    0  0.00000000000E+00 -0.00000000000E+00 -0.37235046818E+04  0.37235046818E+04  0.00000000000E+00 0.  1.
         23    2    1    2    0    0  0.96860606291E+02  0.37603880068E+03 -0.35830601259E+04  0.36052002324E+04  0.91442291593E+02 0.  0.
         13    1    3    3    0    0  0.11583709576E+02  0.18803414444E+03 -0.14537008640E+04  0.14658571635E+04  0.00000000000E+00 0.  1.
        -13    1    3    3    0    0  0.85276896715E+02  0.18800465624E+03 -0.21293592620E+04  0.21393430689E+04  0.00000000000E+00 0. -1.
         22    1    1    2    0    0 -0.96860606291E+02 -0.37603880068E+03  0.16200276552E+03  0.42075177088E+03  0.00000000000E+00 0. -1.
<mgrwt>
<rscale>  0 0.21224175E+04</rscale>
<asrwt>0</asrwt>
<pdfrwt beam="1">  1        2 0.57284684E+00 0.21224175E+04</pdfrwt>
<pdfrwt beam="2">  1       -2 0.46530360E-01 0.21224175E+04</pdfrwt>
<totfact> 0.22720953E+00</totfact>
</mgrwt>
</event>
<event>
 6    1  0.1719556E-004  0.1979685E+04  0.7818608E-02  0.8616178E-01
          2   -1    0    0  501    0  0.00000000000E+00  0.00000000000E+00  0.34740656658E+04  0.34740656658E+04  0.00000000000E+00 0.  1.
         -2   -1    0    0    0  501 -0.00000000000E+00 -0.00000000000E+00 -0.28202925270E+03  0.28202925270E+03  0.00000000000E+00 0. -1.
         23    2    1    2    0    0  0.28585518005E+03 -0.81735948609E+03  0.69812833960E+03  0.11161390112E+04  0.92700594880E+02 0.  0.
         11    1    3    3    0    0  0.29624297959E+02 -0.19644024799E+03  0.17511134274E+03  0.26482135944E+03  0.00000000000E+00 0. -1.
        -11    1    3    3    0    0  0.25623088209E+03 -0.62091923810E+03  0.52301699686E+03  0.85131765175E+03  0.00000000000E+00 0.  1.
         22    1    1    2    0    0 -0.28585518005E+03  0.81735948609E+03  0.24939080735E+04  0.26399559073E+04  0.00000000000E+00 0.  1.
<mgrwt>
<rscale>  0 0.19796850E+04</rscale>
<asrwt>0</asrwt>
<pdfrwt beam="1">  1        2 0.53447161E+00 0.19796850E+04</pdfrwt>
<pdfrwt beam="2">  1       -2 0.43389118E-01 0.19796850E+04</pdfrwt>
<totfact> 0.39953190E+00</totfact>
</mgrwt>
</event>
<event>
 6    1  0.1719556E-004  0.1920315E+04  0.7818608E-02  0.8644810E-01
          2   -1    0    0  501    0  0.00000000000E+00  0.00000000000E+00  0.26421325180E+04  0.26421325180E+04  0.00000000000E+00 0.  1.
         -2   -1    0    0    0  501 -0.00000000000E+00 -0.00000000000E+00 -0.34892349563E+03  0.34892349563E+03  0.00000000000E+00 0. -1.
         23    2    1    2    0    0 -0.34756023087E+02  0.60239159578E+03 -0.10121452322E+02  0.61000269809E+03  0.88978829353E+02 0.  0.
         11    1    3    3    0    0  0.28215426575E+02  0.28060781820E+03 -0.30801522547E+01  0.28203961649E+03  0.00000000000E+00 0.  1.
        -11    1    3    3    0    0 -0.62971449662E+02  0.32178377758E+03 -0.70413000678E+01  0.32796308160E+03  0.00000000000E+00 0. -1.
         22    1    1    2    0    0  0.34756023087E+02 -0.60239159578E+03  0.23033304747E+04  0.23810533155E+04  0.00000000000E+00 0.  1.
<mgrwt>
<rscale>  0 0.19203147E+04</rscale>
<asrwt>0</asrwt>
<pdfrwt beam="1">  1        2 0.40648191E+00 0.19203147E+04</pdfrwt>
<pdfrwt beam="2">  1       -2 0.53680539E-01 0.19203147E+04</pdfrwt>
<totfact> 0.87981259E+00</totfact>
</mgrwt>
</event>
<event>
 6    1  0.1719556E-004  0.4258353E+04  0.7818608E-02  0.7954364E-01
          2   -1    0    0  501    0  0.00000000000E+00  0.00000000000E+00  0.27203465898E+04  0.27203465898E+04  0.00000000000E+00 0.  1.
         -2   -1    0    0    0  501 -0.00000000000E+00 -0.00000000000E+00 -0.16664758459E+04  0.16664758459E+04  0.00000000000E+00 0. -1.
         23    2    1    2    0    0 -0.53666474042E+03 -0.98701542797E+03 -0.13350523712E+04  0.17469053635E+04  0.84291260535E+02 0.  0.
         13    1    3    3    0    0 -0.24357261726E+03 -0.40952060897E+03 -0.62433288755E+03  0.78538290250E+03  0.00000000000E+00 0.  1.
        -13    1    3    3    0    0 -0.29309212317E+03 -0.57749481899E+03 -0.71071948364E+03  0.96152246102E+03  0.00000000000E+00 0. -1.
         22    1    1    2    0    0  0.53666474042E+03  0.98701542797E+03  0.23889231150E+04  0.26399170722E+04  0.00000000000E+00 0.  1.
<mgrwt>
<rscale>  0 0.42583527E+04</rscale>
<asrwt>0</asrwt>
<pdfrwt beam="1">  1        2 0.41851486E+00 0.42583527E+04</pdfrwt>
<pdfrwt beam="2">  1       -2 0.25638090E+00 0.42583527E+04</pdfrwt>
<totfact> 0.11712552E-01</totfact>
</mgrwt>
</event>
<event>
 6    1  0.1719556E-004  0.1512612E+04  0.7818608E-02  0.8876109E-01
          1   -1    0    0  501    0  0.00000000000E+00  0.00000000000E+00  0.81785958056E+03  0.81785958056E+03  0.00000000000E+00 0.  1.
         -1   -1    0    0    0  501 -0.00000000000E+00 -0.00000000000E+00 -0.69938478346E+03  0.69938478346E+03  0.00000000000E+00 0. -1.
         23    2    1    2    0    0 -0.58699980793E+03 -0.47094594669E+03  0.97723745829E+02  0.76439015148E+03  0.91561531051E+02 0.  0.
         13    1    3    3    0    0 -0.32762414444E+03 -0.27521118233E+03  0.10013647952E+03  0.43943837956E+03  0.00000000000E+00 0.  1.
        -13    1    3    3    0    0 -0.25937566349E+03 -0.19573476436E+03 -0.24127336953E+01  0.32495177192E+03  0.00000000000E+00 0. -1.
         22    1    1    2    0    0  0.58699980793E+03  0.47094594669E+03  0.20751051269E+02  0.75285421254E+03  0.00000000000E+00 0.  1.
<mgrwt>
<rscale>  0 0.15126117E+04</rscale>
<asrwt>0</asrwt>
<pdfrwt beam="1">  1        1 0.12582455E+00 0.15126117E+04</pdfrwt>
<pdfrwt beam="2">  1       -1 0.10759766E+00 0.15126117E+04</pdfrwt>
<totfact> 0.16581420E+01</totfact>
</mgrwt>
</event>
<event>
 6    1  0.1719556E-004  0.2451651E+04  0.7818608E-02  0.8420415E-01
         -1   -1    0    0    0  501 -0.00000000000E+00  0.00000000000E+00  0.16429714513E+04  0.16429714513E+04  0.00000000000E+00 0.  1.
          1   -1    0    0  501    0  0.00000000000E+00 -0.00000000000E+00 -0.91459187402E+03  0.91459187402E+03  0.00000000000E+00 0. -1.
         23    2    1    2    0    0 -0.70861682634E+03 -0.62918898933E+03  0.11731038691E+04  0.15107604372E+04  0.90597020372E+02 0.  0.
         11    1    3    3    0    0 -0.47746513196E+03 -0.37221066940E+03  0.77824673525E+03  0.98599275635E+03  0.00000000000E+00 0.  1.
        -11    1    3    3    0    0 -0.23115169438E+03 -0.25697831993E+03  0.39485713385E+03  0.52476768087E+03  0.00000000000E+00 0. -1.
         22    1    1    2    0    0  0.70861682634E+03  0.62918898933E+03 -0.44472429180E+03  0.10468028881E+04  0.00000000000E+00 0. -1.
<mgrwt>
<rscale>  0 0.24516511E+04</rscale>
<asrwt>0</asrwt>
<pdfrwt beam="1">  1        1 0.14070644E+00 0.24516511E+04</pdfrwt>
<pdfrwt beam="2">  1       -1 0.25276484E+00 0.24516511E+04</pdfrwt>
<totfact> 0.10562078E+00</totfact>
</mgrwt>
</event>
<event>
 6    1  0.1719556E-004  0.2708351E+04  0.7818608E-02  0.8332300E-01
          2   -1    0    0  501    0  0.00000000000E+00  0.00000000000E+00  0.25235539497E+04  0.25235539497E+04  0.00000000000E+00 0.  1.
         -2   -1    0    0    0  501 -0.00000000000E+00 -0.00000000000E+00 -0.72667028086E+03  0.72667028086E+03  0.00000000000E+00 0. -1.
         23    2    1    2    0    0  0.47790297448E+03 -0.12290984557E+04  0.12632901245E+04  0.18276222702E+04  0.72297697565E+02 0.  0.
         11    1    3    3    0    0  0.36186075193E+03 -0.85424595288E+03  0.91249632685E+03  0.13012797156E+04  0.00000000000E+00 0. -1.
        -11    1    3    3    0    0  0.11604222255E+03 -0.37485250286E+03  0.35079379766E+03  0.52634255461E+03  0.00000000000E+00 0.  1.
         22    1    1    2    0    0 -0.47790297448E+03  0.12290984557E+04  0.53359354433E+03  0.14226019603E+04  0.00000000000E+00 0. -1.
<mgrwt>
<rscale>  0 0.27083513E+04</rscale>
<asrwt>0</asrwt>
<pdfrwt beam="1">  1        2 0.38823907E+00 0.27083513E+04</pdfrwt>
<pdfrwt beam="2">  1       -2 0.11179543E+00 0.27083513E+04</pdfrwt>
<totfact> 0.18676063E+00</totfact>
</mgrwt>
</event>
<event>
 6    1  0.1719556E-004  0.1440385E+04  0.7818608E-02  0.8925094E-01
         -2   -1    0    0    0  501 -0.00000000000E+00  0.00000000000E+00  0.49190812383E+03  0.49190812383E+03  0.00000000000E+00 0. -1.
          2   -1    0    0  501    0  0.00000000000E+00 -0.00000000000E+00 -0.10544186634E+04  0.10544186634E+04  0.00000000000E+00 0.  1.
         23    2    1    2    0    0 -0.10565575690E+03 -0.22307939111E+03 -0.10053538978E+04  0.10393378390E+04  0.92515566644E+02 0.  0.
         13    1    3    3    0    0 -0.74594011340E+02 -0.20933168909E+03 -0.76593980566E+03  0.79752605505E+03  0.00000000000E+00 0. -1.
        -13    1    3    3    0    0 -0.31061745563E+02 -0.13747702023E+02 -0.23941409214E+03  0.24181178396E+03  0.00000000000E+00 0.  1.
         22    1    1    2    0    0  0.10565575690E+03  0.22307939111E+03  0.44284335822E+03  0.50698894823E+03  0.00000000000E+00 0. -1.
<mgrwt>
<rscale>  0 0.14403848E+04</rscale>
<asrwt>0</asrwt>
<pdfrwt beam="1">  1        2 0.16221825E+00 0.14403848E+04</pdfrwt>
<pdfrwt beam="2">  1       -2 0.75678174E-01 0.14403848E+04</pdfrwt>
<totfact> 0.35336919E+01</totfact>
</mgrwt>
</event>
<event>
 6    1  0.1719556E-004  0.4533387E+04  0.7818608E-02  0.7904818E-01
         -1   -1    0    0    0  501 -0.00000000000E+00  0.00000000000E+00  0.15979989242E+04  0.15979989242E+04  0.00000000000E+00 0. -1.
          1   -1    0    0  501    0  0.00000000000E+00 -0.00000000000E+00 -0.32152083184E+04  0.32152083184E+04  0.00000000000E+00 0.  1.
         23    2    1    2    0    0 -0.11371372036E+04  0.15591062629E+04  0.45198065136E+03  0.19838184741E+04  0.85766368860E+02 0.  0.
         11    1    3    3    0    0 -0.11170386442E+04  0.15206493083E+04  0.45284722432E+03  0.19404175479E+04  0.00000000000E+00 0. -1.
        -11    1    3    3    0    0 -0.20098559396E+02  0.38456954598E+02 -0.86657295931E+00  0.43400926205E+02  0.00000000000E+00 0.  1.
         22    1    1    2    0    0  0.11371372036E+04 -0.15591062629E+04 -0.20691900456E+04  0.28293887686E+04  0.00000000000E+00 0.  1.
<mgrwt>
<rscale>  0 0.45333870E+04</rscale>
<asrwt>0</asrwt>
<pdfrwt beam="1">  1        1 0.49464743E+00 0.45333870E+04</pdfrwt>
<pdfrwt beam="2">  1       -1 0.24584599E+00 0.45333870E+04</pdfrwt>
<totfact> 0.23015252E-02</totfact>
</mgrwt>
</event>
<event>
 6    1  0.1719556E-004  0.6880384E+03  0.7818608E-02  0.9737910E-01
          1   -1    0    0  501    0  0.00000000000E+00  0.00000000000E+00  0.19139682215E+03  0.19139682215E+03  0.00000000000E+00 0.  1.
         -1   -1    0    0    0  501 -0.00000000000E+00 -0.00000000000E+00 -0.61834477085E+03  0.61834477085E+03  0.00000000000E+00 0. -1.
         23    2    1    2    0    0  0.99544608761E+02  0.26397748702E+03 -0.43402118678E+03  0.52753019443E+03  0.10158972722E+03 0.  0.
         11    1    3    3    0    0  0.70015047605E+02  0.14860840066E+03 -0.16263062168E+03  0.23116072925E+03  0.00000000000E+00 0. -1.
        -11    1    3    3    0    0  0.29529561156E+02  0.11536908636E+03 -0.27139056509E+03  0.29636946518E+03  0.00000000000E+00 0.  1.
         22    1    1    2    0    0 -0.99544608761E+02 -0.26397748702E+03  0.70732380701E+01  0.28221139857E+03  0.00000000000E+00 0.  1.
<mgrwt>
<rscale>  0 0.68803844E+03</rscale>
<asrwt>0</asrwt>
<pdfrwt beam="1">  1        1 0.29445664E-01 0.68803844E+03</pdfrwt>
<pdfrwt beam="2">  1       -1 0.95129967E-01 0.68803844E+03</pdfrwt>
<totfact> 0.17085805E+02</totfact>
</mgrwt>
</event>
<event>
 6    1  0.1719556E-004  0.2194541E+04  0.7818608E-02  0.8520704E-01
          1   -1    0    0  501    0  0.00000000000E+00  0.00000000000E+00  0.12334252286E+04  0.12334252286E+04  0.00000000000E+00 0. -1.
         -1   -1    0    0    0  501 -0.00000000000E+00 -0.00000000000E+00 -0.97614519407E+03  0.97614519407E+03  0.00000000000E+00 0.  1.
         23    2    1    2    0    0  0.80943288229E+02  0.80461939366E+03  0.87266516699E+03  0.11933701246E+04  0.92863212033E+02 0.  0.
         13    1    3    3    0    0  0.54357295713E+02  0.75225854629E+03  0.82441566248E+03  0.11173669141E+04  0.00000000000E+00 0. -1.
        -13    1    3    3    0    0  0.26585992516E+02  0.52360847373E+02  0.48249504502E+02  0.76003210593E+02  0.00000000000E+00 0.  1.
         22    1    1    2    0    0 -0.80943288229E+02 -0.80461939366E+03 -0.61538513242E+03  0.10162002981E+04  0.00000000000E+00 0.  1.
<mgrwt>
<rscale>  0 0.21945406E+04</rscale>
<asrwt>0</asrwt>
<pdfrwt beam="1">  1        1 0.18975773E+00 0.21945406E+04</pdfrwt>
<pdfrwt beam="2">  1       -1 0.15017618E+00 0.21945406E+04</pdfrwt>
<totfact> 0.32052102E+00</totfact>
</mgrwt>
</event>
<event>
 6    1  0.1719556E-004  0.1824440E+04  0.7818608E-02  0.8693410E-01
          2   -1    0    0  501    0  0.00000000000E+00  0.00000000000E+00  0.14149751469E+04  0.14149751469E+04  0.00000000000E+00 0.  1.
         -2   -1    0    0    0  501 -0.00000000000E+00 -0.00000000000E+00 -0.58809864249E+03  0.58809864249E+03  0.00000000000E+00 0. -1.
         23    2    1    2    0    0 -0.19866757409E+03 -0.94812577142E+02  0.13837934943E+04  0.14042292658E+04  0.92288494577E+02 0.  0.
         11    1    3    3    0    0 -0.36109193590E+02  0.15049353415E+02  0.33158404135E+03  0.33388371236E+03  0.00000000000E+00 0.  1.
        -11    1    3    3    0    0 -0.16255838050E+03 -0.10986193056E+03  0.10522094530E+04  0.10703455535E+04  0.00000000000E+00 0. -1.
         22    1    1    2    0    0  0.19866757409E+03  0.94812577142E+02 -0.55691698991E+03  0.59884452359E+03  0.00000000000E+00 0. -1.
<mgrwt>
<rscale>  0 0.18244396E+04</rscale>
<asrwt>0</asrwt>
<pdfrwt beam="1">  1        2 0.21768848E+00 0.18244396E+04</pdfrwt>
<pdfrwt beam="2">  1       -2 0.90476714E-01 0.18244396E+04</pdfrwt>
<totfact> 0.13957348E+01</totfact>
</mgrwt>
</event>
<event>
 6    1  0.1719556E-004  0.1548754E+04  0.7818608E-02  0.8852664E-01
          1   -1    0    0  501    0  0.00000000000E+00  0.00000000000E+00  0.64262832029E+03  0.64262832029E+03  0.00000000000E+00 0.  1.
         -1   -1    0    0    0  501 -0.00000000000E+00 -0.00000000000E+00 -0.93313625451E+03  0.93313625451E+03  0.00000000000E+00 0. -1.
         23    2    1    2    0    0 -0.14120650272E+03  0.70286470584E+03  0.14474368781E+03  0.73707390143E+03  0.91482948608E+02 0.  0.
         13    1    3    3    0    0 -0.99490665941E+02  0.61904303092E+03  0.14460033774E+03  0.64344535465E+03  0.00000000000E+00 0.  1.
        -13    1    3    3    0    0 -0.41715836774E+02  0.83821674918E+02  0.14335007362E+00  0.93628546785E+02  0.00000000000E+00 0. -1.
         22    1    1    2    0    0  0.14120650272E+03 -0.70286470584E+03 -0.43525162203E+03  0.83869067337E+03  0.00000000000E+00 0. -1.
<mgrwt>
<rscale>  0 0.15487541E+04</rscale>
<asrwt>0</asrwt>
<pdfrwt beam="1">  1        1 0.98865896E-01 0.15487541E+04</pdfrwt>
<pdfrwt beam="2">  1       -1 0.14355942E+00 0.15487541E+04</pdfrwt>
<totfact> 0.11711461E+01</totfact>
</mgrwt>
</event>
<event>
 6    1  0.1719556E-004  0.3881517E+04  0.7818608E-02  0.8028884E-01
          1   -1    0    0  501    0  0.00000000000E+00  0.00000000000E+00  0.23096686865E+04  0.23096686865E+04  0.00000000000E+00 0.  1.
         -1   -1    0    0    0  501 -0.00000000000E+00 -0.00000000000E+00 -0.16307720685E+04  0.16307720685E+04  0.00000000000E+00 0. -1.
         23    2    1    2    0    0 -0.18834509042E+04 -0.36307144966E+03  0.63248533705E+03  0.20217531324E+04  0.90773568924E+02 0.  0.
         11    1    3    3    0    0 -0.19260558307E+03 -0.59631624168E+02  0.84435584670E+02  0.21859142066E+03  0.00000000000E+00 0. -1.
        -11    1    3    3    0    0 -0.16908453211E+04 -0.30343982549E+03  0.54804975238E+03  0.18031617118E+04  0.00000000000E+00 0.  1.
         22    1    1    2    0    0  0.18834509042E+04  0.36307144966E+03  0.46411280914E+02  0.19186876226E+04  0.00000000000E+00 0. -1.
<mgrwt>
<rscale>  0 0.38815168E+04</rscale>
<asrwt>0</asrwt>
<pdfrwt beam="1">  1        1 0.35533364E+00 0.38815168E+04</pdfrwt>
<pdfrwt beam="2">  1       -1 0.25088801E+00 0.38815168E+04</pdfrwt>
<totfact> 0.99658559E-02</totfact>
</mgrwt>
</event>
<event>
 6    1  0.1719556E-004  0.1332695E+04  0.7818608E-02  0.9004032E-01
          2   -1    0    0  501    0  0.00000000000E+00  0.00000000000E+00  0.11125541871E+04  0.11125541871E+04  0.00000000000E+00 0.  1.
         -2   -1    0    0    0  501 -0.00000000000E+00 -0.00000000000E+00 -0.39909866310E+03  0.39909866310E+03  0.00000000000E+00 0. -1.
         23    2    1    2    0    0  0.56211526272E+02  0.47095599426E+03  0.88419488568E+03  0.10075584009E+04  0.91728136811E+02 0.  0.
         11    1    3    3    0    0  0.52966922502E+02  0.29743222814E+03  0.64273377402E+03  0.71019583882E+03  0.00000000000E+00 0. -1.
        -11    1    3    3    0    0  0.32446037707E+01  0.17352376612E+03  0.24146111166E+03  0.29736256205E+03  0.00000000000E+00 0.  1.
         22    1    1    2    0    0 -0.56211526272E+02 -0.47095599426E+03 -0.17073936168E+03  0.50409444933E+03  0.00000000000E+00 0. -1.
<mgrwt>
<rscale>  0 0.13326948E+04</rscale>
<asrwt>0</asrwt>
<pdfrwt beam="1">  1        2 0.17116218E+00 0.13326948E+04</pdfrwt>
<pdfrwt beam="2">  1       -2 0.61399795E-01 0.13326948E+04</pdfrwt>
<totfact> 0.51620577E+01</totfact>
</mgrwt>
</event>
<event>
 6    1  0.1719556E-004  0.4095421E+04  0.7818608E-02  0.7985569E-01
          2   -1    0    0  501    0  0.00000000000E+00  0.00000000000E+00  0.29634004437E+04  0.29634004437E+04  0.00000000000E+00 0.  1.
         -2   -1    0    0    0  501 -0.00000000000E+00 -0.00000000000E+00 -0.14149685976E+04  0.14149685976E+04  0.00000000000E+00 0. -1.
         23    2    1    2    0    0  0.58937849329E+03 -0.16452832372E+04 -0.36391535431E+03  0.17877328735E+04  0.96075506115E+02 0.  0.
         11    1    3    3    0    0  0.14978508315E+03 -0.38461378180E+03 -0.46136904803E+02  0.41532149748E+03  0.00000000000E+00 0.  1.
        -11    1    3    3    0    0  0.43959341014E+03 -0.12606694554E+04 -0.31777844951E+03  0.13724113760E+04  0.00000000000E+00 0. -1.
         22    1    1    2    0    0 -0.58937849329E+03  0.16452832372E+04  0.19123472004E+04  0.25906361678E+04  0.00000000000E+00 0.  1.
<mgrwt>
<rscale>  0 0.40954211E+04</rscale>
<asrwt>0</asrwt>
<pdfrwt beam="1">  1        2 0.45590776E+00 0.40954211E+04</pdfrwt>
<pdfrwt beam="2">  1       -2 0.21768748E+00 0.40954211E+04</pdfrwt>
<totfact> 0.14681336E-01</totfact>
</mgrwt>
</event>
<event>
 6    1  0.1719556E-004  0.2472559E+04  0.7818608E-02  0.8412827E-01
         -2   -1    0    0    0  501 -0.00000000000E+00  0.00000000000E+00  0.89995106537E+03  0.89995106537E+03  0.00000000000E+00 0. -1.
          2   -1    0    0  501    0  0.00000000000E+00 -0.00000000000E+00 -0.16983003681E+04  0.16983003681E+04  0.00000000000E+00 0.  1.
         23    2    1    2    0    0  0.62431534969E+01  0.11471500966E+04  0.79520959809E+02  0.11537278030E+04  0.93658630765E+02 0.  0.
         11    1    3    3    0    0  0.10683559743E+02  0.68313858183E+03  0.92857532495E+02  0.68950343130E+03  0.00000000000E+00 0.  1.
        -11    1    3    3    0    0 -0.44404062457E+01  0.46401151481E+03 -0.13336572687E+02  0.46422437168E+03  0.00000000000E+00 0. -1.
         22    1    1    2    0    0 -0.62431534969E+01 -0.11471500966E+04 -0.87787026255E+03  0.14445236305E+04  0.00000000000E+00 0.  1.
<mgrwt>
<rscale>  0 0.24725592E+04</rscale>
<asrwt>0</asrwt>
<pdfrwt beam="1">  1        2 0.26127698E+00 0.24725592E+04</pdfrwt>
<pdfrwt beam="2">  1       -2 0.13845401E+00 0.24725592E+04</pdfrwt>
<totfact> 0.32481901E+00</totfact>
</mgrwt>
</event>
<event>
 6    1  0.1719556E-004  0.4442164E+03  0.7818608E-02  0.1029461E+00
         -2   -1    0    0    0  501 -0.00000000000E+00  0.00000000000E+00  0.27439210145E+03  0.27439210145E+03  0.00000000000E+00 0. -1.
          2   -1    0    0  501    0  0.00000000000E+00 -0.00000000000E+00 -0.17978668418E+03  0.17978668418E+03  0.00000000000E+00 0.  1.
         23    2    1    2    0    0 -0.20892181975E+03 -0.31319491179E+02  0.24105605955E+02  0.23146942191E+03  0.91475547250E+02 0.  0.
         11    1    3    3    0    0 -0.11203486235E+03  0.17287050914E+02 -0.18765678043E+02  0.11490345157E+03  0.00000000000E+00 0.  1.
        -11    1    3    3    0    0 -0.96886957400E+02 -0.48606542093E+02  0.42871283998E+02  0.11656597033E+03  0.00000000000E+00 0. -1.
         22    1    1    2    0    0  0.20892181975E+03  0.31319491179E+02  0.70499811309E+02  0.22270936372E+03  0.00000000000E+00 0.  1.
<mgrwt>
<rscale>  0 0.44421637E+03</rscale>
<asrwt>0</asrwt>
<pdfrwt beam="1">  1        2 0.27659490E-01 0.44421637E+03</pdfrwt>
<pdfrwt beam="2">  1       -2 0.42214169E-01 0.44421637E+03</pdfrwt>
<totfact> 0.10381496E+03</totfact>
</mgrwt>
</event>
<event>
 6    1  0.1719556E-004  0.1985487E+04  0.7818608E-02  0.8613436E-01
          1   -1    0    0  501    0  0.00000000000E+00  0.00000000000E+00  0.23822978735E+04  0.23822978735E+04  0.00000000000E+00 0.  1.
         -1   -1    0    0    0  501 -0.00000000000E+00 -0.00000000000E+00 -0.41369284780E+03  0.41369284780E+03  0.00000000000E+00 0. -1.
         23    2    1    2    0    0 -0.94140136743E+03  0.16658502417E+03  0.62054270366E+03  0.11433385713E+04  0.90347864520E+02 0.  0.
         11    1    3    3    0    0 -0.45596072900E+03  0.11724558931E+03  0.33721303945E+03  0.57910219182E+03  0.00000000000E+00 0. -1.
        -11    1    3    3    0    0 -0.48544063843E+03  0.49339434855E+02  0.28332966421E+03  0.56423637945E+03  0.00000000000E+00 0.  1.
         22    1    1    2    0    0  0.94140136743E+03 -0.16658502417E+03  0.13480623220E+04  0.16526521500E+04  0.00000000000E+00 0.  1.
<mgrwt>
<rscale>  0 0.19854869E+04</rscale>
<asrwt>0</asrwt>
<pdfrwt beam="1">  1        1 0.36650736E+00 0.19854869E+04</pdfrwt>
<pdfrwt beam="2">  1       -1 0.63645055E-01 0.19854869E+04</pdfrwt>
<totfact> 0.38009247E+00</totfact>
</mgrwt>
</event>
<event>
 6    1  0.1719556E-004  0.1208545E+04  0.7818608E-02  0.9105409E-01
          1   -1    0    0  501    0  0.00000000000E+00  0.00000000000E+00  0.13993517853E+04  0.13993517853E+04  0.00000000000E+00 0.  1.
         -1   -1    0    0    0  501 -0.00000000000E+00 -0.00000000000E+00 -0.26093907146E+03  0.26093907146E+03  0.00000000000E+00 0. -1.
         23    2    1    2    0    0 -0.22313413192E+02 -0.56425694844E+03  0.29070966385E+03  0.64172114720E+03  0.91706760068E+02 0.  0.
         11    1    3    3    0    0  0.86855192999E+01 -0.41666287617E+03  0.24806153960E+03  0.48499269897E+03  0.00000000000E+00 0. -1.
        -11    1    3    3    0    0 -0.30998932491E+02 -0.14759407227E+03  0.42648124255E+02  0.15672844824E+03  0.00000000000E+00 0.  1.
         22    1    1    2    0    0  0.22313413192E+02  0.56425694844E+03  0.84770305001E+03  0.10185697096E+04  0.00000000000E+00 0.  1.
<mgrwt>
<rscale>  0 0.12085455E+04</rscale>
<asrwt>0</asrwt>
<pdfrwt beam="1">  1        1 0.21528489E+00 0.12085455E+04</pdfrwt>
<pdfrwt beam="2">  1       -1 0.40144473E-01 0.12085455E+04</pdfrwt>
<totfact> 0.46013577E+01</totfact>
</mgrwt>
</event>
<event>
 6    1  0.1719556E-004  0.1015998E+04  0.7818608E-02  0.9291170E-01
         -2   -1    0    0    0  501 -0.00000000000E+00  0.00000000000E+00  0.50518258129E+03  0.50518258129E+03  0.00000000000E+00 0. -1.
          2   -1    0    0  501    0  0.00000000000E+00 -0.00000000000E+00 -0.51083118565E+03  0.51083118565E+03  0.00000000000E+00 0.  1.
         23    2    1    2    0    0 -0.42691964555E+03  0.88645225704E+02 -0.25597878965E+03  0.51323791086E+03  0.88145632919E+02 0.  0.
         13    1    3    3    0    0 -0.12514117739E+03  0.67101070808E+02 -0.72988659042E+02  0.15965654490E+03  0.00000000000E+00 0.  1.
        -13    1    3    3    0    0 -0.30177846816E+03  0.21544154896E+02 -0.18299013061E+03  0.35358136596E+03  0.00000000000E+00 0. -1.
         22    1    1    2    0    0  0.42691964555E+03 -0.88645225704E+02  0.25033018529E+03  0.50277585608E+03  0.00000000000E+00 0. -1.
<mgrwt>
<rscale>  0 0.10159981E+04</rscale>
<asrwt>0</asrwt>
<pdfrwt beam="1">  1        2 0.78589413E-01 0.10159981E+04</pdfrwt>
<pdfrwt beam="2">  1       -2 0.77720397E-01 0.10159981E+04</pdfrwt>
<totfact> 0.88431824E+01</totfact>
</mgrwt>
</event>
<event>
 6    1  0.1719556E-004  0.3159001E+04  0.7818608E-02  0.8199730E-01
          2   -1    0    0  501    0  0.00000000000E+00  0.00000000000E+00  0.24719223718E+04  0.24719223718E+04  0.00000000000E+00 0.  1.
         -2   -1    0    0    0  501 -0.00000000000E+00 -0.00000000000E+00 -0.10092640162E+04  0.10092640162E+04  0.00000000000E+00 0. -1.
         23    2    1    2    0    0 -0.14936900918E+04 -0.19387462110E+03  0.21336319786E+03  0.15242919478E+04  0.96148993460E+02 0.  0.
         11    1    3    3    0    0 -0.12228279477E+04 -0.12106543259E+03  0.17281946612E+03  0.12408995111E+04  0.00000000000E+00 0. -1.
        -11    1    3    3    0    0 -0.27086214408E+03 -0.72809188508E+02  0.40543731734E+02  0.28339243676E+03  0.00000000000E+00 0.  1.
         22    1    1    2    0    0  0.14936900918E+04  0.19387462110E+03  0.12492951577E+04  0.19568944402E+04  0.00000000000E+00 0. -1.
<mgrwt>
<rscale>  0 0.31590013E+04</rscale>
<asrwt>0</asrwt>
<pdfrwt beam="1">  1        2 0.38029575E+00 0.31590013E+04</pdfrwt>
<pdfrwt beam="2">  1       -2 0.15527139E+00 0.31590013E+04</pdfrwt>
<totfact> 0.83416169E-01</totfact>
</mgrwt>
</event>
<event>
 6    1  0.1719556E-004  0.2088758E+04  0.7818608E-02  0.8566212E-01
         -2   -1    0    0    0  501 -0.00000000000E+00  0.00000000000E+00  0.15169254544E+04  0.15169254544E+04  0.00000000000E+00 0. -1.
          2   -1    0    0  501    0  0.00000000000E+00 -0.00000000000E+00 -0.71903797292E+03  0.71903797292E+03  0.00000000000E+00 0.  1.
         23    2    1    2    0    0  0.76231800409E+03 -0.70518089572E+03  0.49658220337E+03  0.11546708186E+04  0.90895432007E+02 0.  0.
         13    1    3    3    0    0  0.27686194664E+03 -0.20553402930E+03  0.14106124161E+03  0.37255207500E+03  0.00000000000E+00 0. -1.
        -13    1    3    3    0    0  0.48545605744E+03 -0.49964686642E+03  0.35552096176E+03  0.78211874360E+03  0.00000000000E+00 0.  1.
         22    1    1    2    0    0 -0.76231800409E+03  0.70518089572E+03  0.30130527810E+03  0.10812926087E+04  0.00000000000E+00 0.  1.
<mgrwt>
<rscale>  0 0.20887575E+04</rscale>
<asrwt>0</asrwt>
<pdfrwt beam="1">  1        2 0.11062123E+00 0.20887575E+04</pdfrwt>
<pdfrwt beam="2">  1       -2 0.23337315E+00 0.20887575E+04</pdfrwt>
<totfact> 0.29735103E+00</totfact>
</mgrwt>
</event>
<event>
 6    1  0.1719556E-004  0.2526979E+04  0.7818608E-02  0.8393437E-01
         -2   -1    0    0    0  501 -0.00000000000E+00  0.00000000000E+00  0.78495737508E+03  0.78495737508E+03  0.00000000000E+00 0. -1.
          2   -1    0    0  501    0  0.00000000000E+00 -0.00000000000E+00 -0.20337479292E+04  0.20337479292E+04  0.00000000000E+00 0.  1.
         23    2    1    2    0    0  0.89777829256E+03  0.44986393466E+03  0.22713788535E+03  0.10335587611E+04  0.90932234721E+02 0.  0.
         13    1    3    3    0    0  0.31800906196E+03  0.20404451057E+03  0.66300397526E+02  0.38361395764E+03  0.00000000000E+00 0.  1.
        -13    1    3    3    0    0  0.57976923060E+03  0.24581942408E+03  0.16083748783E+03  0.64994480343E+03  0.00000000000E+00 0. -1.
         22    1    1    2    0    0 -0.89777829256E+03 -0.44986393466E+03 -0.14759284394E+04  0.17851465432E+04  0.00000000000E+00 0.  1.
<mgrwt>
<rscale>  0 0.25269788E+04</rscale>
<asrwt>0</asrwt>
<pdfrwt beam="1">  1        2 0.31288430E+00 0.25269788E+04</pdfrwt>
<pdfrwt beam="2">  1       -2 0.12076267E+00 0.25269788E+04</pdfrwt>
<totfact> 0.29760575E+00</totfact>
</mgrwt>
</event>
<event>
 6    1  0.1719556E-004  0.1701833E+04  0.7818608E-02  0.8760320E-01
          2   -1    0    0  501    0  0.00000000000E+00  0.00000000000E+00  0.22764627531E+04  0.22764627531E+04  0.00000000000E+00 0.  1.
         -2   -1    0    0    0  501 -0.00000000000E+00 -0.00000000000E+00 -0.31806303472E+03  0.31806303472E+03  0.00000000000E+00 0. -1.
         23    2    1    2    0    0 -0.16132956456E+03  0.28875203980E+03  0.21729046038E+04  0.22002957601E+04  0.10189232410E+03 0.  0.
         13    1    3    3    0    0 -0.20237336062E+02  0.12222262144E+03  0.63407684122E+03  0.64606606437E+03  0.00000000000E+00 0. -1.
        -13    1    3    3    0    0 -0.14109222850E+03  0.16652941835E+03  0.15388277626E+04  0.15542296957E+04  0.00000000000E+00 0.  1.
         22    1    1    2    0    0  0.16132956456E+03 -0.28875203980E+03 -0.21450488543E+03  0.39423002773E+03  0.00000000000E+00 0. -1.
<mgrwt>
<rscale>  0 0.17018327E+04</rscale>
<asrwt>0</asrwt>
<pdfrwt beam="1">  1        2 0.35022503E+00 0.17018327E+04</pdfrwt>
<pdfrwt beam="2">  1       -2 0.48932776E-01 0.17018327E+04</pdfrwt>
<totfact> 0.17602250E+01</totfact>
</mgrwt>
</event>
<event>
 6    1  0.1719556E-004  0.2105079E+04  0.7818608E-02  0.8559009E-01
         -2   -1    0    0    0  501 -0.00000000000E+00  0.00000000000E+00  0.15556955490E+04  0.15556955490E+04  0.00000000000E+00 0. -1.
          2   -1    0    0  501    0  0.00000000000E+00 -0.00000000000E+00 -0.71211839281E+03  0.71211839281E+03  0.00000000000E+00 0.  1.
         23    2    1    2    0    0 -0.12170175018E+03  0.24405597190E+03 -0.67190019465E+03  0.72799374636E+03  0.64423518638E+02 0.  0.
         11    1    3    3    0    0 -0.41429261075E+02  0.39688446283E+02 -0.98469735826E+02  0.11396422823E+03  0.00000000000E+00 0. -1.
        -11    1    3    3    0    0 -0.80272489104E+02  0.20436752561E+03 -0.57343045882E+03  0.61402951813E+03  0.00000000000E+00 0.  1.
         22    1    1    2    0    0  0.12170175018E+03 -0.24405597190E+03  0.15154773509E+04  0.15398201955E+04  0.00000000000E+00 0. -1.
<mgrwt>
<rscale>  0 0.21050790E+04</rscale>
<asrwt>0</asrwt>
<pdfrwt beam="1">  1        2 0.10955668E+00 0.21050790E+04</pdfrwt>
<pdfrwt beam="2">  1       -2 0.23933778E+00 0.21050790E+04</pdfrwt>
<totfact> 0.27605187E+00</totfact>
</mgrwt>
</event>
<event>
 6    1  0.1719556E-004  0.3969014E+04  0.7818608E-02  0.8010827E-01
          2   -1    0    0  501    0  0.00000000000E+00  0.00000000000E+00  0.29453934565E+04  0.29453934565E+04  0.00000000000E+00 0.  1.
         -2   -1    0    0    0  501 -0.00000000000E+00 -0.00000000000E+00 -0.13370937291E+04  0.13370937291E+04  0.00000000000E+00 0. -1.
         23    2    1    2    0    0  0.10759121359E+04 -0.71497586421E+03 -0.81939063479E+03  0.15324948392E+04  0.91444022808E+02 0.  0.
         13    1    3    3    0    0  0.59886722458E+03 -0.42545602192E+03 -0.51170240369E+03  0.89526204499E+03  0.00000000000E+00 0.  1.
        -13    1    3    3    0    0  0.47704491127E+03 -0.28951984229E+03 -0.30768823110E+03  0.63723279420E+03  0.00000000000E+00 0. -1.
         22    1    1    2    0    0 -0.10759121359E+04  0.71497586421E+03  0.24276903622E+04  0.27499923464E+04  0.00000000000E+00 0.  1.
<mgrwt>
<rscale>  0 0.39690135E+04</rscale>
<asrwt>0</asrwt>
<pdfrwt beam="1">  1        2 0.45313745E+00 0.39690135E+04</pdfrwt>
<pdfrwt beam="2">  1       -2 0.20570673E+00 0.39690135E+04</pdfrwt>
<totfact> 0.18170993E-01</totfact>
</mgrwt>
</event>
<event>
 6    1  0.1719556E-004  0.4352076E+04  0.7818608E-02  0.7937058E-01
         -1   -1    0    0    0  501 -0.00000000000E+00  0.00000000000E+00  0.10429650970E+04  0.10429650970E+04  0.00000000000E+00 0. -1.
          1   -1    0    0  501    0  0.00000000000E+00 -0.00000000000E+00 -0.45400775675E+04  0.45400775675E+04  0.00000000000E+00 0.  1.
         23    2    1    2    0    0  0.20205665711E+04 -0.72922859271E+03 -0.13108386273E+04  0.25180374564E+04  0.88040423280E+02 0.  0.
         13    1    3    3    0    0  0.22716453927E+03 -0.57108808058E+02 -0.15981771530E+03  0.28356100928E+03  0.00000000000E+00 0. -1.
        -13    1    3    3    0    0  0.17934020319E+04 -0.67211978465E+03 -0.11510209120E+04  0.22344764471E+04  0.00000000000E+00 0.  1.
         22    1    1    2    0    0 -0.20205665711E+04  0.72922859271E+03 -0.21862738432E+04  0.30650052082E+04  0.00000000000E+00 0.  1.
<mgrwt>
<rscale>  0 0.43520765E+04</rscale>
<asrwt>0</asrwt>
<pdfrwt beam="1">  1        1 0.69847347E+00 0.43520765E+04</pdfrwt>
<pdfrwt beam="2">  1       -1 0.16045617E+00 0.43520765E+04</pdfrwt>
<totfact> 0.64101989E-03</totfact>
</mgrwt>
</event>
<event>
 6    1  0.1719556E-004  0.3201080E+04  0.7818608E-02  0.8188532E-01
          2   -1    0    0  501    0  0.00000000000E+00  0.00000000000E+00  0.15118646223E+04  0.15118646223E+04  0.00000000000E+00 0.  1.
         -2   -1    0    0    0  501 -0.00000000000E+00 -0.00000000000E+00 -0.16944159389E+04  0.16944159389E+04  0.00000000000E+00 0. -1.
         23    2    1    2    0    0  0.36904780847E+03 -0.11894699344E+04 -0.10962328445E+04  0.16616612087E+04  0.91413966476E+02 0.  0.
         13    1    3    3    0    0  0.30863036626E+03 -0.87035685735E+03 -0.83175026215E+03  0.12428122387E+04  0.00000000000E+00 0. -1.
        -13    1    3    3    0    0  0.60417442211E+02 -0.31911307704E+03 -0.26448258234E+03  0.41884896994E+03  0.00000000000E+00 0.  1.
         22    1    1    2    0    0 -0.36904780847E+03  0.11894699344E+04  0.91368152788E+03  0.15446193525E+04  0.00000000000E+00 0.  1.
<mgrwt>
<rscale>  0 0.32010795E+04</rscale>
<asrwt>0</asrwt>
<pdfrwt beam="1">  1        2 0.23259456E+00 0.32010795E+04</pdfrwt>
<pdfrwt beam="2">  1       -2 0.26067938E+00 0.32010795E+04</pdfrwt>
<totfact> 0.58159254E-01</totfact>
</mgrwt>
</event>
<event>
 6    1  0.1719556E-004  0.1590088E+04  0.7818608E-02  0.8826661E-01
          2   -1    0    0  501    0  0.00000000000E+00  0.00000000000E+00  0.12383746741E+04  0.12383746741E+04  0.00000000000E+00 0.  1.
         -2   -1    0    0    0  501 -0.00000000000E+00 -0.00000000000E+00 -0.51042284634E+03  0.51042284634E+03  0.00000000000E+00 0. -1.
         23    2    1    2    0    0  0.46519817870E+03  0.32316452955E+03  0.97385453064E+03  0.11312922185E+04  0.10288235131E+03 0.  0.
         13    1    3    3    0    0  0.30007560811E+03  0.20598965117E+03  0.71827447473E+03  0.80522998456E+03  0.00000000000E+00 0.  1.
        -13    1    3    3    0    0  0.16512257058E+03  0.11717487838E+03  0.25558005590E+03  0.32606223396E+03  0.00000000000E+00 0. -1.
         22    1    1    2    0    0 -0.46519817870E+03 -0.32316452955E+03 -0.24590270288E+03  0.61750530193E+03  0.00000000000E+00 0. -1.
<mgrwt>
<rscale>  0 0.15900877E+04</rscale>
<asrwt>0</asrwt>
<pdfrwt beam="1">  1        2 0.19051918E+00 0.15900877E+04</pdfrwt>
<pdfrwt beam="2">  1       -2 0.78526592E-01 0.15900877E+04</pdfrwt>
<totfact> 0.24856990E+01</totfact>
</mgrwt>
</event>
<event>
 6    1  0.1719556E-004  0.2878615E+04  0.7818608E-02  0.8279269E-01
         -2   -1    0    0    0  501 -0.00000000000E+00  0.00000000000E+00  0.13475373508E+04  0.13475373508E+04  0.00000000000E+00 0. -1.
          2   -1    0    0  501    0  0.00000000000E+00 -0.00000000000E+00 -0.15373275048E+04  0.15373275048E+04  0.00000000000E+00 0.  1.
         23    2    1    2    0    0  0.99974303799E+03  0.19176678823E+03  0.92266610967E+03  0.13769458984E+04  0.91687589457E+02 0.  0.
         13    1    3    3    0    0  0.77436213591E+03  0.11097551037E+03  0.72241599309E+03  0.10648178945E+04  0.00000000000E+00 0. -1.
        -13    1    3    3    0    0  0.22538090208E+03  0.80791277854E+02  0.20025011658E+03  0.31212800385E+03  0.00000000000E+00 0.  1.
         22    1    1    2    0    0 -0.99974303799E+03 -0.19176678823E+03 -0.11124562636E+04  0.15079189572E+04  0.00000000000E+00 0.  1.
<mgrwt>
<rscale>  0 0.28786151E+04</rscale>
<asrwt>0</asrwt>
<pdfrwt beam="1">  1        2 0.23651192E+00 0.28786151E+04</pdfrwt>
<pdfrwt beam="2">  1       -2 0.20731344E+00 0.28786151E+04</pdfrwt>
<totfact> 0.12461050E+00</totfact>
</mgrwt>
</event>
<event>
 6    1  0.1719556E-004  0.2908648E+04  0.7818608E-02  0.8270309E-01
          2   -1    0    0  501    0  0.00000000000E+00  0.00000000000E+00  0.19672523419E+04  0.19672523419E+04  0.00000000000E+00 0.  1.
         -2   -1    0    0    0  501 -0.00000000000E+00 -0.00000000000E+00 -0.10751334933E+04  0.10751334933E+04  0.00000000000E+00 0. -1.
         23    2    1    2    0    0  0.75107581936E+03 -0.51572702935E+03 -0.73732511659E+03  0.11755229879E+04  0.90092797825E+02 0.  0.
         13    1    3    3    0    0  0.56046404599E+03 -0.40818044867E+03 -0.60186179116E+03  0.91813334608E+03  0.00000000000E+00 0. -1.
        -13    1    3    3    0    0  0.19061177337E+03 -0.10754658069E+03 -0.13546332543E+03  0.25738964179E+03  0.00000000000E+00 0.  1.
         22    1    1    2    0    0 -0.75107581936E+03  0.51572702935E+03  0.16294439651E+04  0.18668628473E+04  0.00000000000E+00 0.  1.
<mgrwt>
<rscale>  0 0.29086484E+04</rscale>
<asrwt>0</asrwt>
<pdfrwt beam="1">  1        2 0.30265421E+00 0.29086484E+04</pdfrwt>
<pdfrwt beam="2">  1       -2 0.16540515E+00 0.29086484E+04</pdfrwt>
<totfact> 0.13819639E+00</totfact>
</mgrwt>
</event>
<event>
 6    1  0.1719556E-004  0.5058598E+04  0.7818608E-02  0.7819531E-01
         -4   -1    0    0    0  501 -0.00000000000E+00  0.00000000000E+00  0.20379319878E+04  0.20379319878E+04  0.00000000000E+00 0. -1.
          4   -1    0    0  501    0  0.00000000000E+00 -0.00000000000E+00 -0.31391397350E+04  0.31391397350E+04  0.00000000000E+00 0.  1.
         23    2    1    2    0    0 -0.28446618218E+02 -0.15125365789E+04  0.15226604651E+04  0.21483326274E+04  0.90895946194E+02 0.  0.
         13    1    3    3    0    0 -0.89087641679E+01 -0.12474278469E+04  0.12091960837E+04  0.17373286299E+04  0.00000000000E+00 0. -1.
        -13    1    3    3    0    0 -0.19537854050E+02 -0.26510873206E+03  0.31346438141E+03  0.41100399751E+03  0.00000000000E+00 0.  1.
         22    1    1    2    0    0  0.28446618218E+02  0.15125365789E+04 -0.26238682123E+04  0.30287390954E+04  0.00000000000E+00 0.  1.
<mgrwt>
<rscale>  0 0.50585979E+04</rscale>
<asrwt>0</asrwt>
<pdfrwt beam="1">  1        4 0.48294457E+00 0.50585979E+04</pdfrwt>
<pdfrwt beam="2">  1       -4 0.31352800E+00 0.50585979E+04</pdfrwt>
<totfact> 0.58455575E-05</totfact>
</mgrwt>
</event>
<event>
 6    1  0.1719556E-004  0.8876618E+03  0.7818608E-02  0.9441137E-01
          2   -1    0    0  501    0  0.00000000000E+00  0.00000000000E+00  0.32237854051E+04  0.32237854051E+04  0.00000000000E+00 0.  1.
         -2   -1    0    0    0  501 -0.00000000000E+00 -0.00000000000E+00 -0.61103908042E+02  0.61103908042E+02  0.00000000000E+00 0. -1.
         23    2    1    2    0    0 -0.31420339861E+03  0.29622699822E+03  0.18930174989E+04  0.19437998760E+04  0.91479487634E+02 0.  0.
         11    1    3    3    0    0 -0.18899920203E+03  0.18372152851E+03  0.95049114186E+03  0.98636084125E+03  0.00000000000E+00 0. -1.
        -11    1    3    3    0    0 -0.12520419657E+03  0.11250546972E+03  0.94252635705E+03  0.95743903476E+03  0.00000000000E+00 0.  1.
         22    1    1    2    0    0  0.31420339861E+03 -0.29622699822E+03  0.12696639981E+04  0.13410894371E+04  0.00000000000E+00 0.  1.
<mgrwt>
<rscale>  0 0.88766184E+03</rscale>
<asrwt>0</asrwt>
<pdfrwt beam="1">  1        2 0.49596685E+00 0.88766184E+03</pdfrwt>
<pdfrwt beam="2">  1       -2 0.94006037E-02 0.88766184E+03</pdfrwt>
<totfact> 0.99333689E+01</totfact>
</mgrwt>
</event>
<event>
 6    1  0.1719556E-004  0.2962902E+04  0.7818608E-02  0.8254404E-01
          2   -1    0    0  501    0  0.00000000000E+00  0.00000000000E+00  0.20802231787E+04  0.20802231787E+04  0.00000000000E+00 0.  1.
         -2   -1    0    0    0  501 -0.00000000000E+00 -0.00000000000E+00 -0.10550297520E+04  0.10550297520E+04  0.00000000000E+00 0. -1.
         23    2    1    2    0    0 -0.18152631140E+03  0.68570760893E+03 -0.86140156862E+03  0.11197164256E+04  0.92765751523E+02 0.  0.
         11    1    3    3    0    0 -0.88042922962E+02  0.49464805121E+03 -0.59174686593E+03  0.77626838412E+03  0.00000000000E+00 0.  1.
        -11    1    3    3    0    0 -0.93483388437E+02  0.19105955772E+03 -0.26965470270E+03  0.34344804148E+03  0.00000000000E+00 0. -1.
         22    1    1    2    0    0  0.18152631140E+03 -0.68570760893E+03  0.18865949953E+04  0.20155365050E+04  0.00000000000E+00 0.  1.
<mgrwt>
<rscale>  0 0.29629022E+04</rscale>
<asrwt>0</asrwt>
<pdfrwt beam="1">  1        2 0.32003434E+00 0.29629022E+04</pdfrwt>
<pdfrwt beam="2">  1       -2 0.16231227E+00 0.29629022E+04</pdfrwt>
<totfact> 0.12535277E+00</totfact>
</mgrwt>
</event>
<event>
 6    1  0.1719556E-004  0.2313348E+04  0.7818608E-02  0.8472677E-01
         -2   -1    0    0    0  501 -0.00000000000E+00  0.00000000000E+00  0.46918155449E+03  0.46918155449E+03  0.00000000000E+00 0. -1.
          2   -1    0    0  501    0  0.00000000000E+00 -0.00000000000E+00 -0.28515500251E+04  0.28515500251E+04  0.00000000000E+00 0.  1.
         23    2    1    2    0    0  0.73007672060E+03  0.41462749577E+03 -0.23311176631E+04  0.24795689178E+04  0.96044160098E+02 0.  0.
         11    1    3    3    0    0  0.31118520145E+03  0.18890163304E+03 -0.11484696032E+04  0.12047831697E+04  0.00000000000E+00 0.  1.
        -11    1    3    3    0    0  0.41889151915E+03  0.22572586273E+03 -0.11826480599E+04  0.12747857481E+04  0.00000000000E+00 0. -1.
         22    1    1    2    0    0 -0.73007672060E+03 -0.41462749577E+03 -0.51250807446E+02  0.84116266172E+03  0.00000000000E+00 0. -1.
<mgrwt>
<rscale>  0 0.23133479E+04</rscale>
<asrwt>0</asrwt>
<pdfrwt beam="1">  1        2 0.43869999E+00 0.23133479E+04</pdfrwt>
<pdfrwt beam="2">  1       -2 0.72181779E-01 0.23133479E+04</pdfrwt>
<totfact> 0.33873925E+00</totfact>
</mgrwt>
</event>
<event>
 6    1  0.1719556E-004  0.2062111E+04  0.7818608E-02  0.8578120E-01
          2   -1    0    0  501    0  0.00000000000E+00  0.00000000000E+00  0.14441780552E+04  0.14441780552E+04  0.00000000000E+00 0.  1.
         -2   -1    0    0    0  501 -0.00000000000E+00 -0.00000000000E+00 -0.73611134795E+03  0.73611134795E+03  0.00000000000E+00 0. -1.
         23    2    1    2    0    0  0.89924963612E+03  0.17051122907E+03  0.85195669082E+03  0.12537753371E+04  0.91642814697E+02 0.  0.
         11    1    3    3    0    0  0.83566791198E+03  0.13352405381E+03  0.78625172370E+03  0.11551455774E+04  0.00000000000E+00 0. -1.
        -11    1    3    3    0    0  0.63581724144E+02  0.36987175262E+02  0.65704967129E+02  0.98629759629E+02  0.00000000000E+00 0.  1.
         22    1    1    2    0    0 -0.89924963612E+03 -0.17051122907E+03 -0.14388998356E+03  0.92651406610E+03  0.00000000000E+00 0. -1.
<mgrwt>
<rscale>  0 0.20621114E+04</rscale>
<asrwt>0</asrwt>
<pdfrwt beam="1">  1        2 0.22218124E+00 0.20621114E+04</pdfrwt>
<pdfrwt beam="2">  1       -2 0.11324790E+00 0.20621114E+04</pdfrwt>
<totfact> 0.77276830E+00</totfact>
</mgrwt>
</event>
<event>
 6    1  0.1719556E-004  0.2332945E+04  0.7818608E-02  0.8465043E-01
          4   -1    0    0  501    0  0.00000000000E+00  0.00000000000E+00  0.17782707249E+04  0.17782707249E+04  0.00000000000E+00 0.  1.
         -4   -1    0    0    0  501 -0.00000000000E+00 -0.00000000000E+00 -0.76515824622E+03  0.76515824622E+03  0.00000000000E+00 0. -1.
         23    2    1    2    0    0 -0.11966966337E+03  0.94370196605E+02  0.17661727602E+04  0.17751019901E+04  0.91620379431E+02 0.  0.
         13    1    3    3    0    0 -0.60918324667E+02  0.83621496442E+01  0.37237100368E+03  0.37741374141E+03  0.00000000000E+00 0. -1.
        -13    1    3    3    0    0 -0.58751338703E+02  0.86008046961E+02  0.13938017565E+04  0.13976882486E+04  0.00000000000E+00 0.  1.
         22    1    1    2    0    0  0.11966966337E+03 -0.94370196605E+02 -0.75306028147E+03  0.76832698109E+03  0.00000000000E+00 0. -1.
<mgrwt>
<rscale>  0 0.23329454E+04</rscale>
<asrwt>0</asrwt>
<pdfrwt beam="1">  1        4 0.27358011E+00 0.23329454E+04</pdfrwt>
<pdfrwt beam="2">  1       -4 0.11771665E+00 0.23329454E+04</pdfrwt>
<totfact> 0.45226507E-02</totfact>
</mgrwt>
</event>
<event>
 6    1  0.1719556E-004  0.1575623E+04  0.7818608E-02  0.8835665E-01
         -2   -1    0    0    0  501 -0.00000000000E+00  0.00000000000E+00  0.16212769960E+04  0.16212769960E+04  0.00000000000E+00 0. -1.
          2   -1    0    0  501    0  0.00000000000E+00 -0.00000000000E+00 -0.38281365975E+03  0.38281365975E+03  0.00000000000E+00 0.  1.
         23    2    1    2    0    0 -0.49645222790E+03  0.60823162841E+03  0.61625475033E+03  0.10023152055E+04  0.91952843441E+02 0.  0.
         11    1    3    3    0    0 -0.18726931757E+03  0.19818965037E+03  0.16519926697E+03  0.31880986908E+03  0.00000000000E+00 0.  1.
        -11    1    3    3    0    0 -0.30918291033E+03  0.41004197805E+03  0.45105548336E+03  0.68350533639E+03  0.00000000000E+00 0. -1.
         22    1    1    2    0    0  0.49645222790E+03 -0.60823162841E+03  0.62220858591E+03  0.10017754503E+04  0.00000000000E+00 0.  1.
<mgrwt>
<rscale>  0 0.15756230E+04</rscale>
<asrwt>0</asrwt>
<pdfrwt beam="1">  1        2 0.58894410E-01 0.15756230E+04</pdfrwt>
<pdfrwt beam="2">  1       -2 0.24942723E+00 0.15756230E+04</pdfrwt>
<totfact> 0.52024099E+00</totfact>
</mgrwt>
</event>
<event>
 6    1  0.1719556E-004  0.1970975E+04  0.7818608E-02  0.8620312E-01
          2   -1    0    0  501    0  0.00000000000E+00  0.00000000000E+00  0.29659998462E+04  0.29659998462E+04  0.00000000000E+00 0.  1.
         -2   -1    0    0    0  501 -0.00000000000E+00 -0.00000000000E+00 -0.32743951086E+03  0.32743951086E+03  0.00000000000E+00 0. -1.
         23    2    1    2    0    0  0.57838250332E+03 -0.64463434949E+03  0.54417754613E+03  0.10270503718E+04  0.92862801272E+02 0.  0.
         11    1    3    3    0    0  0.38577751150E+03 -0.39783851524E+03  0.30095562715E+03  0.63061403576E+03  0.00000000000E+00 0. -1.
        -11    1    3    3    0    0  0.19260499182E+03 -0.24679583424E+03  0.24322191898E+03  0.39643633606E+03  0.00000000000E+00 0.  1.
         22    1    1    2    0    0 -0.57838250332E+03  0.64463434949E+03  0.20943827892E+04  0.22663889852E+04  0.00000000000E+00 0. -1.
<mgrwt>
<rscale>  0 0.19709749E+04</rscale>
<asrwt>0</asrwt>
<pdfrwt beam="1">  1        2 0.45630765E+00 0.19709749E+04</pdfrwt>
<pdfrwt beam="2">  1       -2 0.50375311E-01 0.19709749E+04</pdfrwt>
<totfact> 0.63612969E+00</totfact>
</mgrwt>
</event>
<event>
 6    1  0.1719556E-004  0.4628866E+04  0.7818608E-02  0.7888457E-01
         -1   -1    0    0    0  501 -0.00000000000E+00  0.00000000000E+00  0.10509297959E+04  0.10509297959E+04  0.00000000000E+00 0. -1.
          1   -1    0    0  501    0  0.00000000000E+00 -0.00000000000E+00 -0.50970099587E+04  0.50970099587E+04  0.00000000000E+00 0.  1.
         23    2    1    2    0    0  0.28402909358E+03 -0.67856553594E+03 -0.49371263938E+04  0.49924800633E+04  0.92284568115E+02 0.  0.
         11    1    3    3    0    0  0.33156236756E+02 -0.16313753635E+03 -0.97739871674E+03  0.99147437853E+03  0.00000000000E+00 0. -1.
        -11    1    3    3    0    0  0.25087285682E+03 -0.51542799959E+03 -0.39597276770E+04  0.40010056848E+04  0.00000000000E+00 0.  1.
         22    1    1    2    0    0 -0.28402909358E+03  0.67856553594E+03  0.89104623092E+03  0.11554596913E+04  0.00000000000E+00 0. -1.
<mgrwt>
<rscale>  0 0.46288658E+04</rscale>
<asrwt>0</asrwt>
<pdfrwt beam="1">  1        1 0.78415538E+00 0.46288658E+04</pdfrwt>
<pdfrwt beam="2">  1       -1 0.16168151E+00 0.46288658E+04</pdfrwt>
<totfact> 0.13398090E-03</totfact>
</mgrwt>
</event>
<event>
 6    1  0.1719556E-004  0.1708661E+04  0.7818608E-02  0.8756440E-01
         -1   -1    0    0    0  501 -0.00000000000E+00  0.00000000000E+00  0.42057473170E+03  0.42057473170E+03  0.00000000000E+00 0. -1.
          1   -1    0    0  501    0  0.00000000000E+00 -0.00000000000E+00 -0.17354369554E+04  0.17354369554E+04  0.00000000000E+00 0.  1.
         23    2    1    2    0    0 -0.53037211550E+02 -0.79814245439E+03 -0.29015684639E+03  0.85606344443E+03  0.93857882362E+02 0.  0.
         13    1    3    3    0    0 -0.51436268385E+02 -0.21557909041E+03 -0.59326677950E+02  0.22943340786E+03  0.00000000000E+00 0.  1.
        -13    1    3    3    0    0 -0.16009431651E+01 -0.58256336398E+03 -0.23083016844E+03  0.62663003657E+03  0.00000000000E+00 0. -1.
         22    1    1    2    0    0  0.53037211550E+02  0.79814245439E+03 -0.10247053773E+04  0.12999482426E+04  0.00000000000E+00 0. -1.
<mgrwt>
<rscale>  0 0.17086614E+04</rscale>
<asrwt>0</asrwt>
<pdfrwt beam="1">  1        1 0.26699030E+00 0.17086614E+04</pdfrwt>
<pdfrwt beam="2">  1       -1 0.64703805E-01 0.17086614E+04</pdfrwt>
<totfact> 0.10381897E+01</totfact>
</mgrwt>
</event>
<event>
 6    1  0.1719556E-004  0.2732633E+04  0.7818608E-02  0.8324494E-01
          2   -1    0    0  501    0  0.00000000000E+00  0.00000000000E+00  0.41725356167E+04  0.41725356167E+04  0.00000000000E+00 0.  1.
         -2   -1    0    0    0  501 -0.00000000000E+00 -0.00000000000E+00 -0.44740664728E+03  0.44740664728E+03  0.00000000000E+00 0. -1.
         23    2    1    2    0    0 -0.10435230558E+04 -0.78532708214E+03  0.25346822005E+04  0.28527856485E+04  0.89961684488E+02 0.  0.
         13    1    3    3    0    0 -0.40589300675E+03 -0.25351304471E+03  0.95389028092E+03  0.10672041346E+04  0.00000000000E+00 0.  1.
        -13    1    3    3    0    0 -0.63763004910E+03 -0.53181403742E+03  0.15807919196E+04  0.17855815140E+04  0.00000000000E+00 0. -1.
         22    1    1    2    0    0  0.10435230558E+04  0.78532708214E+03  0.11904467689E+04  0.17671566155E+04  0.00000000000E+00 0. -1.
<mgrwt>
<rscale>  0 0.27326326E+04</rscale>
<asrwt>0</asrwt>
<pdfrwt beam="1">  1        2 0.64192853E+00 0.27326326E+04</pdfrwt>
<pdfrwt beam="2">  1       -2 0.68831795E-01 0.27326326E+04</pdfrwt>
<totfact> 0.41506770E-01</totfact>
</mgrwt>
</event>
<event>
 6    1  0.1719556E-004  0.1048547E+04  0.7818608E-02  0.9256846E-01
         -2   -1    0    0    0  501 -0.00000000000E+00  0.00000000000E+00  0.41624006849E+03  0.41624006849E+03  0.00000000000E+00 0. -1.
          2   -1    0    0  501    0  0.00000000000E+00 -0.00000000000E+00 -0.66034613900E+03  0.66034613900E+03  0.00000000000E+00 0.  1.
         23    2    1    2    0    0 -0.26890774932E+03 -0.30495570381E+03 -0.45670407465E+03  0.61777549456E+03  0.88082864033E+02 0.  0.
         11    1    3    3    0    0 -0.13024171714E+03 -0.21282911390E+03 -0.27663344482E+03  0.37253885623E+03  0.00000000000E+00 0. -1.
        -11    1    3    3    0    0 -0.13866603218E+03 -0.92126589912E+02 -0.18007062984E+03  0.24523663833E+03  0.00000000000E+00 0.  1.
         22    1    1    2    0    0  0.26890774932E+03  0.30495570381E+03  0.21259800414E+03  0.45881071293E+03  0.00000000000E+00 0. -1.
<mgrwt>
<rscale>  0 0.10485467E+04</rscale>
<asrwt>0</asrwt>
<pdfrwt beam="1">  1        2 0.10159171E+00 0.10485467E+04</pdfrwt>
<pdfrwt beam="2">  1       -2 0.64036934E-01 0.10485467E+04</pdfrwt>
<totfact> 0.99032385E+01</totfact>
</mgrwt>
</event>
<event>
 6    1  0.1719556E-004  0.2589470E+04  0.7818608E-02  0.8371787E-01
          2   -1    0    0  501    0  0.00000000000E+00  0.00000000000E+00  0.14066065007E+04  0.14066065007E+04  0.00000000000E+00 0.  1.
         -2   -1    0    0    0  501 -0.00000000000E+00 -0.00000000000E+00 -0.11917608251E+04  0.11917608251E+04  0.00000000000E+00 0. -1.
         23    2    1    2    0    0  0.61055616802E+03  0.21805737364E+03 -0.10159010795E+04  0.12073010342E+04  0.72061996143E+02 0.  0.
         13    1    3    3    0    0  0.10708589536E+03  0.63617396648E+02 -0.16735965870E+03  0.20862362643E+03  0.00000000000E+00 0. -1.
        -13    1    3    3    0    0  0.50347027266E+03  0.15443997699E+03 -0.84854142082E+03  0.99867740777E+03  0.00000000000E+00 0.  1.
         22    1    1    2    0    0 -0.61055616802E+03 -0.21805737364E+03  0.12307467551E+04  0.13910662916E+04  0.00000000000E+00 0.  1.
<mgrwt>
<rscale>  0 0.25894698E+04</rscale>
<asrwt>0</asrwt>
<pdfrwt beam="1">  1        2 0.21640100E+00 0.25894698E+04</pdfrwt>
<pdfrwt beam="2">  1       -2 0.18334782E+00 0.25894698E+04</pdfrwt>
<totfact> 0.21841755E+00</totfact>
</mgrwt>
</event>
<event>
 6    1  0.1719556E-004  0.1581547E+04  0.7818608E-02  0.8831965E-01
          2   -1    0    0  501    0  0.00000000000E+00  0.00000000000E+00  0.14185028177E+04  0.14185028177E+04  0.00000000000E+00 0.  1.
         -2   -1    0    0    0  501 -0.00000000000E+00 -0.00000000000E+00 -0.44083309635E+03  0.44083309635E+03  0.00000000000E+00 0. -1.
         23    2    1    2    0    0  0.67454614905E+03  0.39898261335E+03  0.59223383641E+03  0.98597433122E+03  0.84881281124E+02 0.  0.
         13    1    3    3    0    0  0.20052370452E+03  0.15585183616E+03  0.16236860602E+03  0.30143509273E+03  0.00000000000E+00 0.  1.
        -13    1    3    3    0    0  0.47402244453E+03  0.24313077719E+03  0.42986523039E+03  0.68453923849E+03  0.00000000000E+00 0. -1.
         22    1    1    2    0    0 -0.67454614905E+03 -0.39898261335E+03  0.38543588493E+03  0.87336158281E+03  0.00000000000E+00 0. -1.
<mgrwt>
<rscale>  0 0.15815473E+04</rscale>
<asrwt>0</asrwt>
<pdfrwt beam="1">  1        2 0.21823120E+00 0.15815473E+04</pdfrwt>
<pdfrwt beam="2">  1       -2 0.67820477E-01 0.15815473E+04</pdfrwt>
<totfact> 0.27006774E+01</totfact>
</mgrwt>
</event>
<event>
 6    1  0.1719556E-004  0.3391243E+04  0.7818608E-02  0.8140059E-01
         -1   -1    0    0    0  501 -0.00000000000E+00  0.00000000000E+00  0.96149659841E+03  0.96149659841E+03  0.00000000000E+00 0. -1.
          1   -1    0    0  501    0  0.00000000000E+00 -0.00000000000E+00 -0.29902671991E+04  0.29902671991E+04  0.00000000000E+00 0.  1.
         23    2    1    2    0    0  0.77945122876E+03 -0.15042344886E+04 -0.99286024226E+03  0.19659702822E+04  0.94879266173E+02 0.  0.
         11    1    3    3    0    0  0.52183364787E+03 -0.10029058197E+04 -0.61026544639E+03  0.12847390218E+04  0.00000000000E+00 0. -1.
        -11    1    3    3    0    0  0.25761758089E+03 -0.50132866892E+03 -0.38259479587E+03  0.68123126037E+03  0.00000000000E+00 0.  1.
         22    1    1    2    0    0 -0.77945122876E+03  0.15042344886E+04 -0.10359103584E+04  0.19857935153E+04  0.00000000000E+00 0.  1.
<mgrwt>
<rscale>  0 0.33912427E+04</rscale>
<asrwt>0</asrwt>
<pdfrwt beam="1">  1        1 0.46004110E+00 0.33912427E+04</pdfrwt>
<pdfrwt beam="2">  1       -1 0.14792255E+00 0.33912427E+04</pdfrwt>
<totfact> 0.18106611E-01</totfact>
</mgrwt>
</event>
<event>
 6    1  0.1719556E-004  0.3706106E+04  0.7818608E-02  0.8066610E-01
         -2   -1    0    0    0  501 -0.00000000000E+00  0.00000000000E+00  0.99528459760E+03  0.99528459760E+03  0.00000000000E+00 0. -1.
          2   -1    0    0  501    0  0.00000000000E+00 -0.00000000000E+00 -0.34500738975E+04  0.34500738975E+04  0.00000000000E+00 0.  1.
         23    2    1    2    0    0  0.12774435295E+04  0.36810774617E+02  0.37948662546E+03  0.13362851564E+04  0.91820019968E+02 0.  0.
         11    1    3    3    0    0  0.65011586704E+03  0.53456861890E+02  0.22473336604E+03  0.68993721632E+03  0.00000000000E+00 0. -1.
        -11    1    3    3    0    0  0.62732766249E+03 -0.16646087273E+02  0.15475325942E+03  0.64634794008E+03  0.00000000000E+00 0.  1.
         22    1    1    2    0    0 -0.12774435295E+04 -0.36810774617E+02 -0.28342759253E+04  0.31090733387E+04  0.00000000000E+00 0.  1.
<mgrwt>
<rscale>  0 0.37061060E+04</rscale>
<asrwt>0</asrwt>
<pdfrwt beam="1">  1        2 0.53078060E+00 0.37061060E+04</pdfrwt>
<pdfrwt beam="2">  1       -2 0.15312071E+00 0.37061060E+04</pdfrwt>
<totfact> 0.20151615E-01</totfact>
</mgrwt>
</event>
<event>
 6    1  0.1719556E-004  0.2071362E+04  0.7818608E-02  0.8573964E-01
         -1   -1    0    0    0  501 -0.00000000000E+00  0.00000000000E+00  0.11010320560E+04  0.11010320560E+04  0.00000000000E+00 0. -1.
          1   -1    0    0  501    0  0.00000000000E+00 -0.00000000000E+00 -0.97420914044E+03  0.97420914044E+03  0.00000000000E+00 0.  1.
         23    2    1    2    0    0 -0.90241153948E+03  0.61930533302E+02  0.56496125883E+03  0.10701804096E+04  0.89010715683E+02 0.  0.
         13    1    3    3    0    0 -0.59711933666E+03  0.52379386859E+02  0.32569649159E+03  0.68218275192E+03  0.00000000000E+00 0. -1.
        -13    1    3    3    0    0 -0.30529220282E+03  0.95511464426E+01  0.23926476724E+03  0.38799765765E+03  0.00000000000E+00 0.  1.
         22    1    1    2    0    0  0.90241153948E+03 -0.61930533302E+02 -0.43813834324E+03  0.10050607869E+04  0.00000000000E+00 0.  1.
<mgrwt>
<rscale>  0 0.20713623E+04</rscale>
<asrwt>0</asrwt>
<pdfrwt beam="1">  1        1 0.14987833E+00 0.20713623E+04</pdfrwt>
<pdfrwt beam="2">  1       -1 0.16938955E+00 0.20713623E+04</pdfrwt>
<totfact> 0.36344523E+00</totfact>
</mgrwt>
</event>
<event>
 6    1  0.1719556E-004  0.1161733E+04  0.7818608E-02  0.9147027E-01
          2   -1    0    0  501    0  0.00000000000E+00  0.00000000000E+00  0.40452445732E+03  0.40452445732E+03  0.00000000000E+00 0.  1.
         -2   -1    0    0    0  501 -0.00000000000E+00 -0.00000000000E+00 -0.83408019776E+03  0.83408019776E+03  0.00000000000E+00 0. -1.
         23    2    1    2    0    0  0.43861036848E+03  0.27114193478E+03 -0.49302233095E+03  0.71906157483E+03  0.89897304997E+02 0.  0.
         13    1    3    3    0    0  0.16027460628E+03  0.10560748745E+03 -0.12603438648E+03  0.22962046381E+03  0.00000000000E+00 0.  1.
        -13    1    3    3    0    0  0.27833576220E+03  0.16553444733E+03 -0.36698794447E+03  0.48944111102E+03  0.00000000000E+00 0. -1.
         22    1    1    2    0    0 -0.43861036848E+03 -0.27114193478E+03  0.63466590507E+02  0.51954308026E+03  0.00000000000E+00 0.  1.
<mgrwt>
<rscale>  0 0.11617329E+04</rscale>
<asrwt>0</asrwt>
<pdfrwt beam="1">  1        2 0.62234532E-01 0.11617329E+04</pdfrwt>
<pdfrwt beam="2">  1       -2 0.12832003E+00 0.11617329E+04</pdfrwt>
<totfact> 0.34836354E+01</totfact>
</mgrwt>
</event>
<event>
 6    1  0.1719556E-004  0.3587856E+04  0.7818608E-02  0.8093279E-01
         -2   -1    0    0    0  501 -0.00000000000E+00  0.00000000000E+00  0.22707508873E+04  0.22707508873E+04  0.00000000000E+00 0. -1.
          2   -1    0    0  501    0  0.00000000000E+00 -0.00000000000E+00 -0.14172305845E+04  0.14172305845E+04  0.00000000000E+00 0.  1.
         23    2    1    2    0    0 -0.26974043063E+03 -0.95693220721E+03  0.19605144591E+04  0.22000583518E+04  0.90336360388E+02 0.  0.
         11    1    3    3    0    0 -0.14385841686E+03 -0.64058664353E+03  0.12368527503E+04  0.14003039734E+04  0.00000000000E+00 0. -1.
        -11    1    3    3    0    0 -0.12588201376E+03 -0.31634556367E+03  0.72366170877E+03  0.79975437841E+03  0.00000000000E+00 0.  1.
         22    1    1    2    0    0  0.26974043063E+03  0.95693220721E+03 -0.11069941562E+04  0.14879231200E+04  0.00000000000E+00 0.  1.
<mgrwt>
<rscale>  0 0.35878560E+04</rscale>
<asrwt>0</asrwt>
<pdfrwt beam="1">  1        2 0.21803547E+00 0.35878560E+04</pdfrwt>
<pdfrwt beam="2">  1       -2 0.34934629E+00 0.35878560E+04</pdfrwt>
<totfact> 0.18119047E-01</totfact>
</mgrwt>
</event>
<event>
 6    1  0.1719556E-004  0.2392595E+04  0.7818608E-02  0.8442281E-01
          1   -1    0    0  501    0  0.00000000000E+00  0.00000000000E+00  0.14416728586E+04  0.14416728586E+04  0.00000000000E+00 0.  1.
         -1   -1    0    0    0  501 -0.00000000000E+00 -0.00000000000E+00 -0.99268530507E+03  0.99268530507E+03  0.00000000000E+00 0. -1.
         23    2    1    2    0    0  0.96325879232E+03  0.52011248188E+03  0.71126424921E+03  0.13086701252E+04  0.91302626641E+02 0.  0.
         13    1    3    3    0    0  0.49197931699E+03  0.21515617320E+03  0.36020062660E+03  0.64659130725E+03  0.00000000000E+00 0. -1.
        -13    1    3    3    0    0  0.47127947533E+03  0.30495630868E+03  0.35106362261E+03  0.66207881796E+03  0.00000000000E+00 0.  1.
         22    1    1    2    0    0 -0.96325879232E+03 -0.52011248188E+03 -0.26227669570E+03  0.11256880384E+04  0.00000000000E+00 0. -1.
<mgrwt>
<rscale>  0 0.23925948E+04</rscale>
<asrwt>0</asrwt>
<pdfrwt beam="1">  1        1 0.22179582E+00 0.23925948E+04</pdfrwt>
<pdfrwt beam="2">  1       -1 0.15272082E+00 0.23925948E+04</pdfrwt>
<totfact> 0.21404828E+00</totfact>
</mgrwt>
</event>
<event>
 6    1  0.1719556E-004  0.2226383E+04  0.7818608E-02  0.8507527E-01
          1   -1    0    0  501    0  0.00000000000E+00  0.00000000000E+00  0.98351601501E+03  0.98351601501E+03  0.00000000000E+00 0. -1.
         -1   -1    0    0    0  501 -0.00000000000E+00 -0.00000000000E+00 -0.12599641231E+04  0.12599641231E+04  0.00000000000E+00 0.  1.
         23    2    1    2    0    0 -0.38187743880E+03  0.69727188888E+03  0.64413625504E+03  0.10271356002E+04  0.89875251495E+02 0.  0.
         11    1    3    3    0    0 -0.21509253382E+03  0.30423052785E+03  0.28192590202E+03  0.46722930817E+03  0.00000000000E+00 0. -1.
        -11    1    3    3    0    0 -0.16678490498E+03  0.39304136103E+03  0.36221035301E+03  0.55990629202E+03  0.00000000000E+00 0.  1.
         22    1    1    2    0    0  0.38187743880E+03 -0.69727188888E+03 -0.92058436310E+03  0.12163445379E+04  0.00000000000E+00 0.  1.
<mgrwt>
<rscale>  0 0.22263826E+04</rscale>
<asrwt>0</asrwt>
<pdfrwt beam="1">  1        1 0.15131016E+00 0.22263826E+04</pdfrwt>
<pdfrwt beam="2">  1       -1 0.19384064E+00 0.22263826E+04</pdfrwt>
<totfact> 0.23550549E+00</totfact>
</mgrwt>
</event>
<event>
 6    1  0.1719556E-004  0.1927494E+04  0.7818608E-02  0.8641291E-01
         -1   -1    0    0    0  501 -0.00000000000E+00  0.00000000000E+00  0.93607964780E+03  0.93607964780E+03  0.00000000000E+00 0.  1.
          1   -1    0    0  501    0  0.00000000000E+00 -0.00000000000E+00 -0.99223208467E+03  0.99223208467E+03  0.00000000000E+00 0. -1.
         23    2    1    2    0    0  0.29770041442E+03 -0.71672602042E+03  0.53981483261E+03  0.94979310138E+03  0.91570501877E+02 0.  0.
         13    1    3    3    0    0  0.25150016212E+03 -0.66988585302E+03  0.48919482569E+03  0.86678195938E+03  0.00000000000E+00 0.  1.
        -13    1    3    3    0    0  0.46200252299E+02 -0.46840167408E+02  0.50620006921E+02  0.83011141999E+02  0.00000000000E+00 0. -1.
         22    1    1    2    0    0 -0.29770041442E+03  0.71672602042E+03 -0.59596726948E+03  0.97851863109E+03  0.00000000000E+00 0. -1.
<mgrwt>
<rscale>  0 0.19274940E+04</rscale>
<asrwt>0</asrwt>
<pdfrwt beam="1">  1        1 0.15265109E+00 0.19274940E+04</pdfrwt>
<pdfrwt beam="2">  1       -1 0.14401225E+00 0.19274940E+04</pdfrwt>
<totfact> 0.55734248E+00</totfact>
</mgrwt>
</event>
<event>
 6    1  0.1719556E-004  0.2320766E+04  0.7818608E-02  0.8469778E-01
         -1   -1    0    0    0  501 -0.00000000000E+00  0.00000000000E+00  0.10452184748E+04  0.10452184748E+04  0.00000000000E+00 0. -1.
          1   -1    0    0  501    0  0.00000000000E+00 -0.00000000000E+00 -0.12882369960E+04  0.12882369960E+04  0.00000000000E+00 0.  1.
         23    2    1    2    0    0  0.66666878842E+03  0.18720609835E+03  0.81230922853E+03  0.10712312214E+04  0.90535353181E+02 0.  0.
         13    1    3    3    0    0  0.44244663900E+03  0.12788874879E+03  0.47261584785E+03  0.65990931200E+03  0.00000000000E+00 0. -1.
        -13    1    3    3    0    0  0.22422214942E+03  0.59317349557E+02  0.33969338068E+03  0.41132190937E+03  0.00000000000E+00 0.  1.
         22    1    1    2    0    0 -0.66666878842E+03 -0.18720609835E+03 -0.10553277497E+04  0.12622242495E+04  0.00000000000E+00 0.  1.
<mgrwt>
<rscale>  0 0.23207663E+04</rscale>
<asrwt>0</asrwt>
<pdfrwt beam="1">  1        1 0.19819031E+00 0.23207663E+04</pdfrwt>
<pdfrwt beam="2">  1       -1 0.16080284E+00 0.23207663E+04</pdfrwt>
<totfact> 0.23982475E+00</totfact>
</mgrwt>
</event>
<event>
 6    1  0.1719556E-004  0.4372981E+04  0.7818608E-02  0.7933259E-01
          2   -1    0    0  501    0  0.00000000000E+00  0.00000000000E+00  0.24496393983E+04  0.24496393983E+04  0.00000000000E+00 0.  1.
         -2   -1    0    0    0  501 -0.00000000000E+00 -0.00000000000E+00 -0.19516097887E+04  0.19516097887E+04  0.00000000000E+00 0. -1.
         23    2    1    2    0    0 -0.15506813856E+04  0.69132228941E+03 -0.11359933187E+04  0.20448599582E+04  0.91826798525E+02 0.  0.
         11    1    3    3    0    0 -0.15248847800E+04  0.68100418295E+03 -0.11015740301E+04  0.20006263103E+04  0.00000000000E+00 0. -1.
        -11    1    3    3    0    0 -0.25796605606E+02  0.10318106458E+02 -0.34419288580E+02  0.44233647917E+02  0.00000000000E+00 0.  1.
         22    1    1    2    0    0  0.15506813856E+04 -0.69132228941E+03  0.16340229283E+04  0.23563892288E+04  0.00000000000E+00 0.  1.
<mgrwt>
<rscale>  0 0.43729808E+04</rscale>
<asrwt>0</asrwt>
<pdfrwt beam="1">  1        2 0.37686760E+00 0.43729808E+04</pdfrwt>
<pdfrwt beam="2">  1       -2 0.30024766E+00 0.43729808E+04</pdfrwt>
<totfact> 0.90259833E-02</totfact>
</mgrwt>
</event>
<event>
 6    1  0.1719556E-004  0.5316581E+04  0.7818608E-02  0.7781444E-01
          1   -1    0    0  501    0  0.00000000000E+00  0.00000000000E+00  0.29608653924E+04  0.29608653924E+04  0.00000000000E+00 0.  1.
         -1   -1    0    0    0  501 -0.00000000000E+00 -0.00000000000E+00 -0.23866364563E+04  0.23866364563E+04  0.00000000000E+00 0. -1.
         23    2    1    2    0    0 -0.25923601207E+04 -0.26826952162E+03  0.80970668051E+03  0.27306813926E+04  0.93254638356E+02 0.  0.
         11    1    3    3    0    0 -0.17913594077E+04 -0.14404575043E+03  0.57174709140E+03  0.18858983117E+04  0.00000000000E+00 0.  1.
        -11    1    3    3    0    0 -0.80100071303E+03 -0.12422377119E+03  0.23795958912E+03  0.84478308083E+03  0.00000000000E+00 0. -1.
         22    1    1    2    0    0  0.25923601207E+04  0.26826952162E+03 -0.23547774446E+03  0.26168204562E+04  0.00000000000E+00 0. -1.
<mgrwt>
<rscale>  0 0.53165813E+04</rscale>
<asrwt>0</asrwt>
<pdfrwt beam="1">  1        1 0.45551775E+00 0.53165813E+04</pdfrwt>
<pdfrwt beam="2">  1       -1 0.36717484E+00 0.53165813E+04</pdfrwt>
<totfact> 0.53657202E-03</totfact>
</mgrwt>
</event>
<event>
 6    1  0.1719556E-004  0.3033900E+04  0.7818608E-02  0.8234116E-01
         -1   -1    0    0    0  501 -0.00000000000E+00  0.00000000000E+00  0.92981143852E+03  0.92981143852E+03  0.00000000000E+00 0. -1.
          1   -1    0    0  501    0  0.00000000000E+00 -0.00000000000E+00 -0.24748434594E+04  0.24748434594E+04  0.00000000000E+00 0.  1.
         23    2    1    2    0    0 -0.11008848296E+04 -0.93588232232E+03 -0.25985248776E+03  0.14708737414E+04  0.90128344196E+02 0.  0.
         13    1    3    3    0    0 -0.54661148990E+03 -0.52321661808E+03 -0.14206676689E+03  0.76988487228E+03  0.00000000000E+00 0.  1.
        -13    1    3    3    0    0 -0.55427333966E+03 -0.41266570425E+03 -0.11778572088E+03  0.70098886907E+03  0.00000000000E+00 0. -1.
         22    1    1    2    0    0  0.11008848296E+04  0.93588232232E+03 -0.12851795332E+04  0.19337811566E+04  0.00000000000E+00 0.  1.
<mgrwt>
<rscale>  0 0.30339003E+04</rscale>
<asrwt>0</asrwt>
<pdfrwt beam="1">  1        1 0.38074515E+00 0.30339003E+04</pdfrwt>
<pdfrwt beam="2">  1       -1 0.14304791E+00 0.30339003E+04</pdfrwt>
<totfact> 0.47382229E-01</totfact>
</mgrwt>
</event>
<event>
 6    1  0.1719556E-004  0.2069600E+04  0.7818608E-02  0.8574754E-01
          2   -1    0    0  501    0  0.00000000000E+00  0.00000000000E+00  0.94050864430E+03  0.94050864430E+03  0.00000000000E+00 0.  1.
         -2   -1    0    0    0  501 -0.00000000000E+00 -0.00000000000E+00 -0.11385441888E+04  0.11385441888E+04  0.00000000000E+00 0. -1.
         23    2    1    2    0    0 -0.10957544925E+03  0.75809632921E+03  0.59670320036E+03  0.97527455099E+03  0.91591031475E+02 0.  0.
         11    1    3    3    0    0 -0.75462840019E+02  0.38325178717E+03  0.25166105583E+03  0.46466101581E+03  0.00000000000E+00 0. -1.
        -11    1    3    3    0    0 -0.34112609234E+02  0.37484454205E+03  0.34504214453E+03  0.51061353519E+03  0.00000000000E+00 0.  1.
         22    1    1    2    0    0  0.10957544925E+03 -0.75809632921E+03 -0.79473874484E+03  0.11037782821E+04  0.00000000000E+00 0. -1.
<mgrwt>
<rscale>  0 0.20695996E+04</rscale>
<asrwt>0</asrwt>
<pdfrwt beam="1">  1        2 0.14469364E+00 0.20695996E+04</pdfrwt>
<pdfrwt beam="2">  1       -2 0.17516064E+00 0.20695996E+04</pdfrwt>
<totfact> 0.49854095E+00</totfact>
</mgrwt>
</event>
<event>
 6    1  0.1719556E-004  0.2855111E+04  0.7818608E-02  0.8286360E-01
          2   -1    0    0  501    0  0.00000000000E+00  0.00000000000E+00  0.14937618158E+04  0.14937618158E+04  0.00000000000E+00 0.  1.
         -2   -1    0    0    0  501 -0.00000000000E+00 -0.00000000000E+00 -0.13642839310E+04  0.13642839310E+04  0.00000000000E+00 0. -1.
         23    2    1    2    0    0 -0.72491153582E+03  0.11892444658E+04  0.37150877951E+03  0.14444057331E+04  0.92141275113E+02 0.  0.
         11    1    3    3    0    0 -0.19278515432E+03  0.39353106307E+03  0.10167322645E+03  0.44985581946E+03  0.00000000000E+00 0.  1.
        -11    1    3    3    0    0 -0.53212638150E+03  0.79571340269E+03  0.26983555307E+03  0.99454991368E+03  0.00000000000E+00 0. -1.
         22    1    1    2    0    0  0.72491153582E+03 -0.11892444658E+04 -0.24203089469E+03  0.14136400136E+04  0.00000000000E+00 0. -1.
<mgrwt>
<rscale>  0 0.28551114E+04</rscale>
<asrwt>0</asrwt>
<pdfrwt beam="1">  1        2 0.22980951E+00 0.28551114E+04</pdfrwt>
<pdfrwt beam="2">  1       -2 0.20988984E+00 0.28551114E+04</pdfrwt>
<totfact> 0.12715898E+00</totfact>
</mgrwt>
</event>
<event>
 6    1  0.1719556E-004  0.2996805E+04  0.7818608E-02  0.8244644E-01
          1   -1    0    0  501    0  0.00000000000E+00  0.00000000000E+00  0.22361583391E+04  0.22361583391E+04  0.00000000000E+00 0.  1.
         -1   -1    0    0    0  501 -0.00000000000E+00 -0.00000000000E+00 -0.10040476013E+04  0.10040476013E+04  0.00000000000E+00 0. -1.
         23    2    1    2    0    0 -0.77306950532E+03 -0.10138111251E+04 -0.23173516935E+03  0.12989964470E+04  0.90780632750E+02 0.  0.
         11    1    3    3    0    0 -0.38451120897E+03 -0.51418821474E+03 -0.70972068726E+02  0.64596859408E+03  0.00000000000E+00 0. -1.
        -11    1    3    3    0    0 -0.38855829635E+03 -0.49962291034E+03 -0.16076310063E+03  0.65302785295E+03  0.00000000000E+00 0.  1.
         22    1    1    2    0    0  0.77306950532E+03  0.10138111251E+04  0.14638459072E+04  0.19412094934E+04  0.00000000000E+00 0.  1.
<mgrwt>
<rscale>  0 0.29968046E+04</rscale>
<asrwt>0</asrwt>
<pdfrwt beam="1">  1        1 0.34402436E+00 0.29968046E+04</pdfrwt>
<pdfrwt beam="2">  1       -1 0.15446886E+00 0.29968046E+04</pdfrwt>
<totfact> 0.56431569E-01</totfact>
</mgrwt>
</event>
<event>
 6    1  0.1719556E-004  0.1362187E+04  0.7818608E-02  0.8981653E-01
         -2   -1    0    0    0  501 -0.00000000000E+00  0.00000000000E+00  0.19615469731E+03  0.19615469731E+03  0.00000000000E+00 0. -1.
          2   -1    0    0  501    0  0.00000000000E+00 -0.00000000000E+00 -0.23649122291E+04  0.23649122291E+04  0.00000000000E+00 0.  1.
         23    2    1    2    0    0  0.19712951225E+03 -0.19981291610E+03 -0.22495812597E+04  0.22689749528E+04  0.94054486421E+02 0.  0.
         13    1    3    3    0    0  0.12326829087E+03 -0.58915155293E+02 -0.10920068159E+04  0.11005203102E+04  0.00000000000E+00 0. -1.
        -13    1    3    3    0    0  0.73861221378E+02 -0.14089776081E+03 -0.11575744438E+04  0.11684546426E+04  0.00000000000E+00 0.  1.
         22    1    1    2    0    0 -0.19712951225E+03  0.19981291610E+03  0.80823727929E+02  0.29209197359E+03  0.00000000000E+00 0. -1.
<mgrwt>
<rscale>  0 0.13621874E+04</rscale>
<asrwt>0</asrwt>
<pdfrwt beam="1">  1        2 0.36383265E+00 0.13621874E+04</pdfrwt>
<pdfrwt beam="2">  1       -2 0.30177646E-01 0.13621874E+04</pdfrwt>
<totfact> 0.41331271E+01</totfact>
</mgrwt>
</event>
<event>
 6    1  0.1719556E-004  0.1441272E+04  0.7818608E-02  0.8924474E-01
         -2   -1    0    0    0  501 -0.00000000000E+00  0.00000000000E+00  0.18110297806E+03  0.18110297806E+03  0.00000000000E+00 0. -1.
          2   -1    0    0  501    0  0.00000000000E+00 -0.00000000000E+00 -0.28675190908E+04  0.28675190908E+04  0.00000000000E+00 0.  1.
         23    2    1    2    0    0  0.16692134158E+03  0.28592687070E+03 -0.26954688904E+04  0.27174138829E+04  0.95753653808E+02 0.  0.
         11    1    3    3    0    0  0.14067003405E+03  0.22554593213E+03 -0.17992423586E+04  0.18187721383E+04  0.00000000000E+00 0. -1.
        -11    1    3    3    0    0  0.26251307536E+02  0.60380938574E+02 -0.89622653178E+03  0.89864174461E+03  0.00000000000E+00 0.  1.
         22    1    1    2    0    0 -0.16692134158E+03 -0.28592687070E+03  0.90527776623E+01  0.33120818596E+03  0.00000000000E+00 0. -1.
<mgrwt>
<rscale>  0 0.14412720E+04</rscale>
<asrwt>0</asrwt>
<pdfrwt beam="1">  1        2 0.44115673E+00 0.14412720E+04</pdfrwt>
<pdfrwt beam="2">  1       -2 0.27862000E-01 0.14412720E+04</pdfrwt>
<totfact> 0.24176678E+01</totfact>
</mgrwt>
</event>
<event>
 6    1  0.1719556E-004  0.1532048E+04  0.7818608E-02  0.8863417E-01
          2   -1    0    0  501    0  0.00000000000E+00  0.00000000000E+00  0.64116753093E+03  0.64116753093E+03  0.00000000000E+00 0.  1.
         -2   -1    0    0    0  501 -0.00000000000E+00 -0.00000000000E+00 -0.91519361953E+03  0.91519361953E+03  0.00000000000E+00 0. -1.
         23    2    1    2    0    0 -0.21471421749E+03  0.18170051442E+03 -0.85779151221E+03  0.90836474467E+03  0.10100969661E+03 0.  0.
         13    1    3    3    0    0 -0.16888130690E+03  0.79146180936E+02 -0.52937749817E+03  0.56127136872E+03  0.00000000000E+00 0.  1.
        -13    1    3    3    0    0 -0.45832910583E+02  0.10255433349E+03 -0.32841401403E+03  0.34709337594E+03  0.00000000000E+00 0. -1.
         22    1    1    2    0    0  0.21471421749E+03 -0.18170051442E+03  0.58376542360E+03  0.64799640580E+03  0.00000000000E+00 0.  1.
<mgrwt>
<rscale>  0 0.15320476E+04</rscale>
<asrwt>0</asrwt>
<pdfrwt beam="1">  1        2 0.98641159E-01 0.15320476E+04</pdfrwt>
<pdfrwt beam="2">  1       -2 0.14079902E+00 0.15320476E+04</pdfrwt>
<totfact> 0.15589819E+01</totfact>
</mgrwt>
</event>
<event>
 6    1  0.1719556E-004  0.2481935E+04  0.7818608E-02  0.8409450E-01
         -2   -1    0    0    0  501 -0.00000000000E+00  0.00000000000E+00  0.71433430474E+03  0.71433430474E+03  0.00000000000E+00 0. -1.
          2   -1    0    0  501    0  0.00000000000E+00 -0.00000000000E+00 -0.21558534170E+04  0.21558534170E+04  0.00000000000E+00 0.  1.
         23    2    1    2    0    0  0.96716613737E+03 -0.29172962474E+02  0.17318560936E+03  0.98776036935E+03  0.97035524253E+02 0.  0.
         13    1    3    3    0    0  0.28578120819E+03 -0.52436831210E+02  0.44500432867E+02  0.29394014484E+03  0.00000000000E+00 0.  1.
        -13    1    3    3    0    0  0.68138492917E+03  0.23263868736E+02  0.12868517649E+03  0.69382022451E+03  0.00000000000E+00 0. -1.
         22    1    1    2    0    0 -0.96716613737E+03  0.29172962474E+02 -0.16147047217E+04  0.18824273524E+04  0.00000000000E+00 0.  1.
<mgrwt>
<rscale>  0 0.24819348E+04</rscale>
<asrwt>0</asrwt>
<pdfrwt beam="1">  1        2 0.33166976E+00 0.24819348E+04</pdfrwt>
<pdfrwt beam="2">  1       -2 0.10989758E+00 0.24819348E+04</pdfrwt>
<totfact> 0.32155088E+00</totfact>
</mgrwt>
</event>
<event>
 6    1  0.1719556E-004  0.1703294E+04  0.7818608E-02  0.8759488E-01
          2   -1    0    0  501    0  0.00000000000E+00  0.00000000000E+00  0.20775087161E+04  0.20775087161E+04  0.00000000000E+00 0. -1.
         -2   -1    0    0    0  501 -0.00000000000E+00 -0.00000000000E+00 -0.34912116560E+03  0.34912116560E+03  0.00000000000E+00 0.  1.
         23    2    1    2    0    0  0.91139021816E+02 -0.58935223450E+03  0.66800705364E+01  0.60456538665E+03  0.99057083440E+02 0.  0.
         11    1    3    3    0    0  0.71850844872E+02 -0.18474788244E+03  0.20358568385E+02  0.19927065835E+03  0.00000000000E+00 0. -1.
        -11    1    3    3    0    0  0.19288176944E+02 -0.40460435206E+03 -0.13678497848E+02  0.40529472829E+03  0.00000000000E+00 0.  1.
         22    1    1    2    0    0 -0.91139021816E+02  0.58935223450E+03  0.17217074800E+04  0.18220644951E+04  0.00000000000E+00 0. -1.
<mgrwt>
<rscale>  0 0.17032936E+04</rscale>
<asrwt>0</asrwt>
<pdfrwt beam="1">  1        2 0.31961672E+00 0.17032936E+04</pdfrwt>
<pdfrwt beam="2">  1       -2 0.53710950E-01 0.17032936E+04</pdfrwt>
<totfact> 0.18796162E+01</totfact>
</mgrwt>
</event>
<event>
 6    1  0.1719556E-004  0.7596044E+03  0.7818608E-02  0.9620402E-01
         -1   -1    0    0    0  501 -0.00000000000E+00  0.00000000000E+00  0.42804904060E+03  0.42804904060E+03  0.00000000000E+00 0. -1.
          1   -1    0    0  501    0  0.00000000000E+00 -0.00000000000E+00 -0.33699338032E+03  0.33699338032E+03  0.00000000000E+00 0.  1.
         23    2    1    2    0    0  0.17532542012E+03  0.14308201995E+03 -0.25421631768E+03  0.35221775337E+03  0.90663897091E+02 0.  0.
         11    1    3    3    0    0  0.68239616028E+02  0.11069834229E+03 -0.11480302378E+03  0.17346614209E+03  0.00000000000E+00 0. -1.
        -11    1    3    3    0    0  0.10708580410E+03  0.32383677658E+02 -0.13941329391E+03  0.17875161128E+03  0.00000000000E+00 0.  1.
         22    1    1    2    0    0 -0.17532542012E+03 -0.14308201995E+03  0.34527197796E+03  0.41282466755E+03  0.00000000000E+00 0. -1.
<mgrwt>
<rscale>  0 0.75960435E+03</rscale>
<asrwt>0</asrwt>
<pdfrwt beam="1">  1        1 0.51845135E-01 0.75960435E+03</pdfrwt>
<pdfrwt beam="2">  1       -1 0.65853699E-01 0.75960435E+03</pdfrwt>
<totfact> 0.17830862E+02</totfact>
</mgrwt>
</event>
<event>
 6    1  0.1719556E-004  0.1422346E+04  0.7818608E-02  0.8937801E-01
          2   -1    0    0  501    0  0.00000000000E+00  0.00000000000E+00  0.14179550551E+04  0.14179550551E+04  0.00000000000E+00 0.  1.
         -2   -1    0    0    0  501 -0.00000000000E+00 -0.00000000000E+00 -0.35668745296E+03  0.35668745296E+03  0.00000000000E+00 0. -1.
         23    2    1    2    0    0  0.61449868962E+03  0.12791048430E+03  0.94251638002E+03  0.11358376989E+04  0.88433138664E+02 0.  0.
         11    1    3    3    0    0  0.35944893812E+03  0.32031407796E+02  0.55969609888E+03  0.66594990300E+03  0.00000000000E+00 0. -1.
        -11    1    3    3    0    0  0.25504975150E+03  0.95879076500E+02  0.38282028114E+03  0.46988779586E+03  0.00000000000E+00 0.  1.
         22    1    1    2    0    0 -0.61449868962E+03 -0.12791048430E+03  0.11875122217E+03  0.63880480924E+03  0.00000000000E+00 0. -1.
<mgrwt>
<rscale>  0 0.14223456E+04</rscale>
<asrwt>0</asrwt>
<pdfrwt beam="1">  1        2 0.21814693E+00 0.14223456E+04</pdfrwt>
<pdfrwt beam="2">  1       -2 0.54874994E-01 0.14223456E+04</pdfrwt>
<totfact> 0.42890612E+01</totfact>
</mgrwt>
</event>
<event>
 6    1  0.1719556E-004  0.5340619E+04  0.7818608E-02  0.7778009E-01
          1   -1    0    0  501    0  0.00000000000E+00  0.00000000000E+00  0.35084307433E+04  0.35084307433E+04  0.00000000000E+00 0.  1.
         -1   -1    0    0    0  501 -0.00000000000E+00 -0.00000000000E+00 -0.20324049975E+04  0.20324049975E+04  0.00000000000E+00 0. -1.
         23    2    1    2    0    0 -0.18415610527E+04  0.18671810003E+04  0.12559138097E+04  0.29090756333E+04  0.87690043441E+02 0.  0.
         11    1    3    3    0    0 -0.92895246445E+03  0.93059842495E+03  0.67749154622E+03  0.14791757519E+04  0.00000000000E+00 0.  1.
        -11    1    3    3    0    0 -0.91260858828E+03  0.93658257538E+03  0.57842226346E+03  0.14298998814E+04  0.00000000000E+00 0. -1.
         22    1    1    2    0    0  0.18415610527E+04 -0.18671810003E+04  0.22011193614E+03  0.26317601075E+04  0.00000000000E+00 0. -1.
<mgrwt>
<rscale>  0 0.53406188E+04</rscale>
<asrwt>0</asrwt>
<pdfrwt beam="1">  1        1 0.53975858E+00 0.53406188E+04</pdfrwt>
<pdfrwt beam="2">  1       -1 0.31267769E+00 0.53406188E+04</pdfrwt>
<totfact> 0.47200165E-03</totfact>
</mgrwt>
</event>
<event>
 6    1  0.1719556E-004  0.3727655E+04  0.7818608E-02  0.8061861E-01
         -2   -1    0    0    0  501 -0.00000000000E+00  0.00000000000E+00  0.89381746831E+03  0.89381746831E+03  0.00000000000E+00 0. -1.
          2   -1    0    0  501    0  0.00000000000E+00 -0.00000000000E+00 -0.38865352450E+04  0.38865352450E+04  0.00000000000E+00 0.  1.
         23    2    1    2    0    0 -0.71020744315E+03  0.84286722018E+03  0.42838664904E+03  0.11860829328E+04  0.91966511934E+02 0.  0.
         11    1    3    3    0    0 -0.10148290809E+03  0.16864462220E+03  0.58887267158E+02  0.20544463844E+03  0.00000000000E+00 0. -1.
        -11    1    3    3    0    0 -0.60872453506E+03  0.67422259798E+03  0.36949938188E+03  0.98063829439E+03  0.00000000000E+00 0.  1.
         22    1    1    2    0    0  0.71020744315E+03 -0.84286722018E+03 -0.34211044257E+04  0.35942697805E+04  0.00000000000E+00 0.  1.
<mgrwt>
<rscale>  0 0.37276551E+04</rscale>
<asrwt>0</asrwt>
<pdfrwt beam="1">  1        2 0.59792850E+00 0.37276551E+04</pdfrwt>
<pdfrwt beam="2">  1       -2 0.13751038E+00 0.37276551E+04</pdfrwt>
<totfact> 0.12746214E-01</totfact>
</mgrwt>
</event>
<event>
 6    1  0.1719556E-004  0.2944612E+04  0.7818608E-02  0.8259727E-01
         -2   -1    0    0    0  501 -0.00000000000E+00  0.00000000000E+00  0.78421874087E+03  0.78421874087E+03  0.00000000000E+00 0. -1.
          2   -1    0    0  501    0  0.00000000000E+00 -0.00000000000E+00 -0.27641323209E+04  0.27641323209E+04  0.00000000000E+00 0.  1.
         23    2    1    2    0    0  0.31665581419E+03  0.27805589825E+03 -0.26891018200E+04  0.27234062474E+04  0.89927762848E+02 0.  0.
         13    1    3    3    0    0  0.21115123351E+03  0.23401776968E+03 -0.18731997587E+04  0.18995332310E+04  0.00000000000E+00 0.  1.
        -13    1    3    3    0    0  0.10550458068E+03  0.44038128568E+02 -0.81590206137E+03  0.82387301634E+03  0.00000000000E+00 0. -1.
         22    1    1    2    0    0 -0.31665581419E+03 -0.27805589825E+03  0.70918823994E+03  0.82494481445E+03  0.00000000000E+00 0. -1.
<mgrwt>
<rscale>  0 0.29446116E+04</rscale>
<asrwt>0</asrwt>
<pdfrwt beam="1">  1        2 0.42525113E+00 0.29446116E+04</pdfrwt>
<pdfrwt beam="2">  1       -2 0.12064904E+00 0.29446116E+04</pdfrwt>
<totfact> 0.10946315E+00</totfact>
</mgrwt>
</event>
<event>
 6    1  0.1719556E-004  0.5532723E+03  0.7818608E-02  0.1000739E+00
         -2   -1    0    0    0  501 -0.00000000000E+00  0.00000000000E+00  0.18003342511E+03  0.18003342511E+03  0.00000000000E+00 0. -1.
          2   -1    0    0  501    0  0.00000000000E+00 -0.00000000000E+00 -0.42507417657E+03  0.42507417657E+03  0.00000000000E+00 0.  1.
         23    2    1    2    0    0 -0.21559393778E+03 -0.11716948319E+03 -0.24516777133E+03  0.35973146199E+03  0.95341779125E+02 0.  0.
         13    1    3    3    0    0 -0.10048216477E+03 -0.10836239484E+03 -0.13547852496E+03  0.20048317829E+03  0.00000000000E+00 0. -1.
        -13    1    3    3    0    0 -0.11511177301E+03 -0.88070883449E+01 -0.10968924637E+03  0.15924828370E+03  0.00000000000E+00 0.  1.
         22    1    1    2    0    0  0.21559393778E+03  0.11716948319E+03  0.12701988180E+00  0.24537613969E+03  0.00000000000E+00 0.  1.
<mgrwt>
<rscale>  0 0.55327230E+03</rscale>
<asrwt>0</asrwt>
<pdfrwt beam="1">  1        2 0.65396027E-01 0.55327230E+03</pdfrwt>
<pdfrwt beam="2">  1       -2 0.27697450E-01 0.55327230E+03</pdfrwt>
<totfact> 0.88549082E+02</totfact>
</mgrwt>
</event>
<event>
 6    1  0.1719556E-004  0.3933287E+04  0.7818608E-02  0.8018141E-01
          2   -1    0    0  501    0  0.00000000000E+00  0.00000000000E+00  0.20845542894E+04  0.20845542894E+04  0.00000000000E+00 0.  1.
         -2   -1    0    0    0  501 -0.00000000000E+00 -0.00000000000E+00 -0.18554025064E+04  0.18554025064E+04  0.00000000000E+00 0. -1.
         23    2    1    2    0    0 -0.93343555028E+03  0.94849757660E+03  0.15636910060E+04  0.20552964770E+04  0.90357439179E+02 0.  0.
         13    1    3    3    0    0 -0.46717917589E+03  0.43830040370E+03  0.80961514920E+03  0.10323954262E+04  0.00000000000E+00 0. -1.
        -13    1    3    3    0    0 -0.46625637439E+03  0.51019717290E+03  0.75407585684E+03  0.10229010508E+04  0.00000000000E+00 0.  1.
         22    1    1    2    0    0  0.93343555028E+03 -0.94849757660E+03 -0.13345392230E+04  0.18846603187E+04  0.00000000000E+00 0. -1.
<mgrwt>
<rscale>  0 0.39332873E+04</rscale>
<asrwt>0</asrwt>
<pdfrwt beam="1">  1        2 0.32070066E+00 0.39332873E+04</pdfrwt>
<pdfrwt beam="2">  1       -2 0.28544654E+00 0.39332873E+04</pdfrwt>
<totfact> 0.18546145E-01</totfact>
</mgrwt>
</event>
<event>
 6    1  0.1719556E-004  0.3290008E+04  0.7818608E-02  0.8165443E-01
          2   -1    0    0  501    0  0.00000000000E+00  0.00000000000E+00  0.26744956784E+04  0.26744956784E+04  0.00000000000E+00 0.  1.
         -2   -1    0    0    0  501 -0.00000000000E+00 -0.00000000000E+00 -0.10117936458E+04  0.10117936458E+04  0.00000000000E+00 0. -1.
         23    2    1    2    0    0 -0.15459614615E+04  0.96582285530E+02  0.21570050352E+03  0.15665868915E+04  0.91338946984E+02 0.  0.
         13    1    3    3    0    0 -0.98517743190E+03  0.10299501233E+03  0.12294185171E+03  0.99814690492E+03  0.00000000000E+00 0. -1.
        -13    1    3    3    0    0 -0.56078402957E+03 -0.64127268026E+01  0.92758651810E+02  0.56843998660E+03  0.00000000000E+00 0.  1.
         22    1    1    2    0    0  0.15459614615E+04 -0.96582285530E+02  0.14470015290E+04  0.21197024327E+04  0.00000000000E+00 0.  1.
<mgrwt>
<rscale>  0 0.32900077E+04</rscale>
<asrwt>0</asrwt>
<pdfrwt beam="1">  1        2 0.41146087E+00 0.32900077E+04</pdfrwt>
<pdfrwt beam="2">  1       -2 0.15566056E+00 0.32900077E+04</pdfrwt>
<totfact> 0.62363478E-01</totfact>
</mgrwt>
</event>
<event>
 6    1  0.1719556E-004  0.1161193E+04  0.7818608E-02  0.9147519E-01
          2   -1    0    0  501    0  0.00000000000E+00  0.00000000000E+00  0.37946345105E+03  0.37946345105E+03  0.00000000000E+00 0.  1.
         -2   -1    0    0    0  501 -0.00000000000E+00 -0.00000000000E+00 -0.88833878296E+03  0.88833878296E+03  0.00000000000E+00 0. -1.
         23    2    1    2    0    0 -0.12696637951E+03 -0.12744203727E+03 -0.85465084838E+03  0.87802968215E+03  0.90255834817E+02 0.  0.
         13    1    3    3    0    0 -0.13999283008E+03 -0.11689229500E+03 -0.73908759841E+03  0.76125703887E+03  0.00000000000E+00 0. -1.
        -13    1    3    3    0    0  0.13026450569E+02 -0.10549742276E+02 -0.11556324997E+03  0.11677264329E+03  0.00000000000E+00 0.  1.
         22    1    1    2    0    0  0.12696637951E+03  0.12744203727E+03  0.34577551646E+03  0.38977255185E+03  0.00000000000E+00 0.  1.
<mgrwt>
<rscale>  0 0.11611927E+04</rscale>
<asrwt>0</asrwt>
<pdfrwt beam="1">  1        2 0.58378993E-01 0.11611927E+04</pdfrwt>
<pdfrwt beam="2">  1       -2 0.13666750E+00 0.11611927E+04</pdfrwt>
<totfact> 0.31885815E+01</totfact>
</mgrwt>
</event>
<event>
 6    1  0.1719556E-004  0.3110874E+04  0.7818608E-02  0.8212760E-01
          1   -1    0    0  501    0  0.00000000000E+00  0.00000000000E+00  0.97496213099E+03  0.97496213099E+03  0.00000000000E+00 0.  1.
         -1   -1    0    0    0  501 -0.00000000000E+00 -0.00000000000E+00 -0.24815162687E+04  0.24815162687E+04  0.00000000000E+00 0. -1.
         23    2    1    2    0    0  0.21568369081E+03  0.83477114506E+03 -0.21904960132E+04  0.23559608814E+04  0.94427600980E+02 0.  0.
         13    1    3    3    0    0  0.18450936245E+03  0.54580804945E+03 -0.14159776358E+04  0.15287062494E+04  0.00000000000E+00 0.  1.
        -13    1    3    3    0    0  0.31174328368E+02  0.28896309561E+03 -0.77451837733E+03  0.82725463202E+03  0.00000000000E+00 0. -1.
         22    1    1    2    0    0 -0.21568369081E+03 -0.83477114506E+03  0.68394187545E+03  0.11005175183E+04  0.00000000000E+00 0.  1.
<mgrwt>
<rscale>  0 0.31108741E+04</rscale>
<asrwt>0</asrwt>
<pdfrwt beam="1">  1        1 0.14999418E+00 0.31108741E+04</pdfrwt>
<pdfrwt beam="2">  1       -1 0.38177173E+00 0.31108741E+04</pdfrwt>
<totfact> 0.12696858E-01</totfact>
</mgrwt>
</event>
<event>
 6    1  0.1719556E-004  0.3563719E+04  0.7818608E-02  0.8098853E-01
         -2   -1    0    0    0  501 -0.00000000000E+00  0.00000000000E+00  0.13469212217E+04  0.13469212217E+04  0.00000000000E+00 0. -1.
          2   -1    0    0  501    0  0.00000000000E+00 -0.00000000000E+00 -0.23572444300E+04  0.23572444300E+04  0.00000000000E+00 0.  1.
         23    2    1    2    0    0 -0.13670766767E+04  0.10933715945E+04 -0.16728888003E+03  0.17612124968E+04  0.97589989284E+02 0.  0.
         11    1    3    3    0    0 -0.11292839254E+04  0.92923085789E+03 -0.10944166788E+03  0.14665366173E+04  0.00000000000E+00 0.  1.
        -11    1    3    3    0    0 -0.23779275130E+03  0.16414073657E+03 -0.57847212150E+02  0.29467587945E+03  0.00000000000E+00 0. -1.
         22    1    1    2    0    0  0.13670766767E+04 -0.10933715945E+04 -0.84303432825E+03  0.19429531549E+04  0.00000000000E+00 0.  1.
<mgrwt>
<rscale>  0 0.35637186E+04</rscale>
<asrwt>0</asrwt>
<pdfrwt beam="1">  1        2 0.36265299E+00 0.35637186E+04</pdfrwt>
<pdfrwt beam="2">  1       -2 0.20721865E+00 0.35637186E+04</pdfrwt>
<totfact> 0.41029550E-01</totfact>
</mgrwt>
</event>
<event>
 6    1  0.1719556E-004  0.1518651E+04  0.7818608E-02  0.8872144E-01
          2   -1    0    0  501    0  0.00000000000E+00  0.00000000000E+00  0.24977901037E+04  0.24977901037E+04  0.00000000000E+00 0.  1.
         -2   -1    0    0    0  501 -0.00000000000E+00 -0.00000000000E+00 -0.23083402734E+03  0.23083402734E+03  0.00000000000E+00 0. -1.
         23    2    1    2    0    0 -0.38751132718E+03 -0.47992202957E+03  0.35270863535E+03  0.71744700096E+03  0.99179809345E+02 0.  0.
         13    1    3    3    0    0 -0.20350623525E+03 -0.22861509391E+03  0.22922823881E+03  0.38239408261E+03  0.00000000000E+00 0. -1.
        -13    1    3    3    0    0 -0.18400509193E+03 -0.25130693566E+03  0.12348039655E+03  0.33505291835E+03  0.00000000000E+00 0.  1.
         22    1    1    2    0    0  0.38751132718E+03  0.47992202957E+03  0.19142474410E+04  0.20111771301E+04  0.00000000000E+00 0.  1.
<mgrwt>
<rscale>  0 0.15186506E+04</rscale>
<asrwt>0</asrwt>
<pdfrwt beam="1">  1        2 0.38427538E+00 0.15186506E+04</pdfrwt>
<pdfrwt beam="2">  1       -2 0.35512929E-01 0.15186506E+04</pdfrwt>
<totfact> 0.25162692E+01</totfact>
</mgrwt>
</event>
<event>
 6    1  0.1719556E-004  0.2053047E+04  0.7818608E-02  0.8582213E-01
         -2   -1    0    0    0  501 -0.00000000000E+00  0.00000000000E+00  0.62390558180E+03  0.62390558180E+03  0.00000000000E+00 0.  1.
          2   -1    0    0  501    0  0.00000000000E+00 -0.00000000000E+00 -0.16889587293E+04  0.16889587293E+04  0.00000000000E+00 0. -1.
         23    2    1    2    0    0  0.87920610066E+03 -0.35239110078E+03 -0.93337401259E+02  0.95587707945E+03  0.88353071327E+02 0.  0.
         11    1    3    3    0    0  0.82116360029E+03 -0.34493340155E+03 -0.10286129007E+03  0.89658750546E+03  0.00000000000E+00 0.  1.
        -11    1    3    3    0    0  0.58042500365E+02 -0.74576992241E+01  0.95238888123E+01  0.59289573995E+02  0.00000000000E+00 0. -1.
         22    1    1    2    0    0 -0.87920610066E+03  0.35239110078E+03 -0.97171574619E+03  0.13569872316E+04  0.00000000000E+00 0. -1.
<mgrwt>
<rscale>  0 0.20530473E+04</rscale>
<asrwt>0</asrwt>
<pdfrwt beam="1">  1        2 0.25983980E+00 0.20530473E+04</pdfrwt>
<pdfrwt beam="2">  1       -2 0.95985477E-01 0.20530473E+04</pdfrwt>
<totfact> 0.83713014E+00</totfact>
</mgrwt>
</event>
<event>
 6    1  0.1719556E-004  0.1879183E+04  0.7818608E-02  0.8665288E-01
          1   -1    0    0  501    0  0.00000000000E+00  0.00000000000E+00  0.11049748763E+04  0.11049748763E+04  0.00000000000E+00 0.  1.
         -1   -1    0    0    0  501 -0.00000000000E+00 -0.00000000000E+00 -0.79896161841E+03  0.79896161841E+03  0.00000000000E+00 0. -1.
         23    2    1    2    0    0  0.50546562167E+03 -0.78172146216E+03  0.41990976086E+02  0.93631482049E+03  0.91314083778E+02 0.  0.
         13    1    3    3    0    0  0.25653060428E+03 -0.47002544372E+03  0.26802078840E+01  0.53548020710E+03  0.00000000000E+00 0. -1.
        -13    1    3    3    0    0  0.24893501740E+03 -0.31169601844E+03  0.39310768202E+02  0.40083461339E+03  0.00000000000E+00 0.  1.
         22    1    1    2    0    0 -0.50546562167E+03  0.78172146216E+03  0.26402228179E+03  0.96762167420E+03  0.00000000000E+00 0. -1.
<mgrwt>
<rscale>  0 0.18791833E+04</rscale>
<asrwt>0</asrwt>
<pdfrwt beam="1">  1        1 0.16999613E+00 0.18791833E+04</pdfrwt>
<pdfrwt beam="2">  1       -1 0.12291717E+00 0.18791833E+04</pdfrwt>
<totfact> 0.68751288E+00</totfact>
</mgrwt>
</event>
<event>
 6    1  0.1719556E-004  0.2249096E+04  0.7818608E-02  0.8498267E-01
         -2   -1    0    0    0  501 -0.00000000000E+00  0.00000000000E+00  0.10613227225E+04  0.10613227225E+04  0.00000000000E+00 0. -1.
          2   -1    0    0  501    0  0.00000000000E+00 -0.00000000000E+00 -0.11915400786E+04  0.11915400786E+04  0.00000000000E+00 0.  1.
         23    2    1    2    0    0  0.69971130785E+03 -0.20919067285E+03 -0.91852406116E+03  0.11782539825E+04  0.10601577398E+03 0.  0.
         13    1    3    3    0    0  0.49971857388E+03 -0.18676718678E+03 -0.61586021324E+03  0.81479103909E+03  0.00000000000E+00 0. -1.
        -13    1    3    3    0    0  0.19999273397E+03 -0.22423486074E+02 -0.30266384792E+03  0.36346294338E+03  0.00000000000E+00 0.  1.
         22    1    1    2    0    0 -0.69971130785E+03  0.20919067285E+03  0.78830670508E+03  0.10746088187E+04  0.00000000000E+00 0. -1.
<mgrwt>
<rscale>  0 0.22490963E+04</rscale>
<asrwt>0</asrwt>
<pdfrwt beam="1">  1        2 0.18331386E+00 0.22490963E+04</pdfrwt>
<pdfrwt beam="2">  1       -2 0.16328042E+00 0.22490963E+04</pdfrwt>
<totfact> 0.41572936E+00</totfact>
</mgrwt>
</event>
<event>
 6    1  0.1719556E-004  0.8001635E+03  0.7818608E-02  0.9559781E-01
         -1   -1    0    0    0  501 -0.00000000000E+00  0.00000000000E+00  0.31889235361E+03  0.31889235361E+03  0.00000000000E+00 0. -1.
          1   -1    0    0  501    0  0.00000000000E+00 -0.00000000000E+00 -0.50194179592E+03  0.50194179592E+03  0.00000000000E+00 0.  1.
         23    2    1    2    0    0  0.10494350607E+03 -0.14416371736E+03  0.26838051930E+03  0.33546282045E+03  0.93332116098E+02 0.  0.
         13    1    3    3    0    0  0.43222643357E+02 -0.13096779030E+03  0.19148716583E+03  0.23598324871E+03  0.00000000000E+00 0. -1.
        -13    1    3    3    0    0  0.61720862715E+02 -0.13195927055E+02  0.76893353468E+02  0.99479571735E+02  0.00000000000E+00 0.  1.
         22    1    1    2    0    0 -0.10494350607E+03  0.14416371736E+03 -0.45142996161E+03  0.48537132909E+03  0.00000000000E+00 0.  1.
<mgrwt>
<rscale>  0 0.80016348E+03</rscale>
<asrwt>0</asrwt>
<pdfrwt beam="1">  1        1 0.77221814E-01 0.80016348E+03</pdfrwt>
<pdfrwt beam="2">  1       -1 0.49060362E-01 0.80016348E+03</pdfrwt>
<totfact> 0.18555895E+02</totfact>
</mgrwt>
</event>
<event>
 6    1  0.1719556E-004  0.2421745E+04  0.7818608E-02  0.8431407E-01
         -1   -1    0    0    0  501 -0.00000000000E+00  0.00000000000E+00  0.52451451810E+03  0.52451451810E+03  0.00000000000E+00 0. -1.
          1   -1    0    0  501    0  0.00000000000E+00 -0.00000000000E+00 -0.27953703620E+04  0.27953703620E+04  0.00000000000E+00 0.  1.
         23    2    1    2    0    0 -0.54557401670E+01  0.10982210212E+04 -0.18307469168E+04  0.21367470841E+04  0.89076662107E+02 0.  0.
         11    1    3    3    0    0 -0.26089943526E+02  0.53815991348E+03 -0.82397989378E+03  0.98449969171E+03  0.00000000000E+00 0.  1.
        -11    1    3    3    0    0  0.20634203359E+02  0.56006110770E+03 -0.10067670230E+04  0.11522473924E+04  0.00000000000E+00 0. -1.
         22    1    1    2    0    0  0.54557401670E+01 -0.10982210212E+04 -0.44010892708E+03  0.11831377959E+04  0.00000000000E+00 0. -1.
<mgrwt>
<rscale>  0 0.24217451E+04</rscale>
<asrwt>0</asrwt>
<pdfrwt beam="1">  1        1 0.43005698E+00 0.24217451E+04</pdfrwt>
<pdfrwt beam="2">  1       -1 0.80694541E-01 0.24217451E+04</pdfrwt>
<totfact> 0.11501503E+00</totfact>
</mgrwt>
</event>
<event>
 6    1  0.1719556E-004  0.4444404E+04  0.7818608E-02  0.7920443E-01
         -1   -1    0    0    0  501 -0.00000000000E+00  0.00000000000E+00  0.19556789315E+04  0.19556789315E+04  0.00000000000E+00 0.  1.
          1   -1    0    0  501    0  0.00000000000E+00 -0.00000000000E+00 -0.25250477526E+04  0.25250477526E+04  0.00000000000E+00 0. -1.
         23    2    1    2    0    0 -0.16384108029E+04 -0.69760172039E+02 -0.17952977896E+04  0.24332506093E+04  0.91421733636E+02 0.  0.
         11    1    3    3    0    0 -0.38521288974E+03 -0.77315722732E+01 -0.36716991255E+03  0.53222409971E+03  0.00000000000E+00 0. -1.
        -11    1    3    3    0    0 -0.12531979132E+04 -0.62028599766E+02 -0.14281278771E+04  0.19010265096E+04  0.00000000000E+00 0.  1.
         22    1    1    2    0    0  0.16384108029E+04  0.69760172039E+02  0.12259289685E+04  0.20474760747E+04  0.00000000000E+00 0.  1.
<mgrwt>
<rscale>  0 0.44444044E+04</rscale>
<asrwt>0</asrwt>
<pdfrwt beam="1">  1        1 0.38846889E+00 0.44444044E+04</pdfrwt>
<pdfrwt beam="2">  1       -1 0.30087368E+00 0.44444044E+04</pdfrwt>
<totfact> 0.32025943E-02</totfact>
</mgrwt>
</event>
<event>
 6    1  0.1719556E-004  0.5989898E+04  0.7818608E-02  0.7691656E-01
         -3   -1    0    0    0  501 -0.00000000000E+00  0.00000000000E+00  0.31979292578E+04  0.31979292578E+04  0.00000000000E+00 0. -1.
          3   -1    0    0  501    0  0.00000000000E+00 -0.00000000000E+00 -0.28048523858E+04  0.28048523858E+04  0.00000000000E+00 0.  1.
         23    2    1    2    0    0 -0.13450086338E+04  0.54861816402E+03  0.28206290045E+04  0.31738172622E+04  0.84486196406E+02 0.  0.
         11    1    3    3    0    0 -0.67508028742E+03  0.25806233414E+03  0.13177940769E+04  0.15029673290E+04  0.00000000000E+00 0. -1.
        -11    1    3    3    0    0 -0.66992834642E+03  0.29055582988E+03  0.15028349276E+04  0.16708499332E+04  0.00000000000E+00 0.  1.
         22    1    1    2    0    0  0.13450086338E+04 -0.54861816402E+03 -0.24275521325E+04  0.28289643814E+04  0.00000000000E+00 0.  1.
<mgrwt>
<rscale>  0 0.59898980E+04</rscale>
<asrwt>0</asrwt>
<pdfrwt beam="1">  1        3 0.43151576E+00 0.59898980E+04</pdfrwt>
<pdfrwt beam="2">  1       -3 0.49198911E+00 0.59898980E+04</pdfrwt>
<totfact> 0.43951391E-05</totfact>
</mgrwt>
</event>
<event>
 6    1  0.1719556E-004  0.9717542E+03  0.7818608E-02  0.9340079E-01
          2   -1    0    0  501    0  0.00000000000E+00  0.00000000000E+00  0.79813084299E+03  0.79813084299E+03  0.00000000000E+00 0.  1.
         -2   -1    0    0    0  501 -0.00000000000E+00 -0.00000000000E+00 -0.29578679282E+03  0.29578679282E+03  0.00000000000E+00 0. -1.
         23    2    1    2    0    0 -0.11266033083E+03  0.39804011409E+03  0.52986899059E+03  0.67932638540E+03  0.97953602004E+02 0.  0.
         13    1    3    3    0    0 -0.43489514043E+02  0.37667016259E+02  0.59711365333E+02  0.82919172062E+02  0.00000000000E+00 0. -1.
        -13    1    3    3    0    0 -0.69170816787E+02  0.36037309783E+03  0.47015762526E+03  0.59640721334E+03  0.00000000000E+00 0.  1.
         22    1    1    2    0    0  0.11266033083E+03 -0.39804011409E+03 -0.27524940421E+02  0.41459125040E+03  0.00000000000E+00 0. -1.
<mgrwt>
<rscale>  0 0.97175421E+03</rscale>
<asrwt>0</asrwt>
<pdfrwt beam="1">  1        2 0.12278936E+00 0.97175421E+03</pdfrwt>
<pdfrwt beam="2">  1       -2 0.45505661E-01 0.97175421E+03</pdfrwt>
<totfact> 0.15815770E+02</totfact>
</mgrwt>
</event>
<event>
 6    1  0.1719556E-004  0.1038706E+04  0.7818608E-02  0.9267083E-01
          2   -1    0    0  501    0  0.00000000000E+00  0.00000000000E+00  0.27157533450E+04  0.27157533450E+04  0.00000000000E+00 0. -1.
         -2   -1    0    0    0  501 -0.00000000000E+00 -0.00000000000E+00 -0.99319588843E+02  0.99319588843E+02  0.00000000000E+00 0.  1.
         23    2    1    2    0    0 -0.89517914027E+02  0.22669815698E+03  0.25488194965E+04  0.25621357887E+04  0.93023989409E+02 0.  0.
         13    1    3    3    0    0 -0.99597298431E+02  0.19073385637E+03  0.18798588621E+04  0.18921332847E+04  0.00000000000E+00 0. -1.
        -13    1    3    3    0    0  0.10079384404E+02  0.35964300610E+02  0.66896063443E+03  0.67000250397E+03  0.00000000000E+00 0.  1.
         22    1    1    2    0    0  0.89517914027E+02 -0.22669815698E+03  0.67614259704E+02  0.25293714521E+03  0.00000000000E+00 0.  1.
<mgrwt>
<rscale>  0 0.10387059E+04</rscale>
<asrwt>0</asrwt>
<pdfrwt beam="1">  1        2 0.41780815E+00 0.10387059E+04</pdfrwt>
<pdfrwt beam="2">  1       -2 0.15279939E-01 0.10387059E+04</pdfrwt>
<totfact> 0.89461228E+01</totfact>
</mgrwt>
</event>
<event>
 6    1  0.1719556E-004  0.3085041E+04  0.7818608E-02  0.8219855E-01
          1   -1    0    0  501    0  0.00000000000E+00  0.00000000000E+00  0.10572057592E+04  0.10572057592E+04  0.00000000000E+00 0.  1.
         -1   -1    0    0    0  501 -0.00000000000E+00 -0.00000000000E+00 -0.22506211581E+04  0.22506211581E+04  0.00000000000E+00 0. -1.
         23    2    1    2    0    0  0.12114250454E+04 -0.92701999594E+03 -0.36171268005E+03  0.15704017748E+04  0.91700370704E+02 0.  0.
         11    1    3    3    0    0  0.86035693004E+03 -0.68808614585E+03 -0.29546129583E+03  0.11406024586E+04  0.00000000000E+00 0. -1.
        -11    1    3    3    0    0  0.35106811535E+03 -0.23893385009E+03 -0.66251384217E+02  0.42979931624E+03  0.00000000000E+00 0.  1.
         22    1    1    2    0    0 -0.12114250454E+04  0.92701999594E+03 -0.83170271886E+03  0.17374251426E+04  0.00000000000E+00 0. -1.
<mgrwt>
<rscale>  0 0.30850411E+04</rscale>
<asrwt>0</asrwt>
<pdfrwt beam="1">  1        1 0.16264704E+00 0.30850411E+04</pdfrwt>
<pdfrwt beam="2">  1       -1 0.34624941E+00 0.30850411E+04</pdfrwt>
<totfact> 0.18988511E-01</totfact>
</mgrwt>
</event>
<event>
 6    1  0.1719556E-004  0.1141844E+04  0.7818608E-02  0.9165341E-01
         -2   -1    0    0    0  501 -0.00000000000E+00  0.00000000000E+00  0.75470375049E+03  0.75470375049E+03  0.00000000000E+00 0. -1.
          2   -1    0    0  501    0  0.00000000000E+00 -0.00000000000E+00 -0.43189379363E+03  0.43189379363E+03  0.00000000000E+00 0.  1.
         23    2    1    2    0    0  0.14587307531E+02 -0.12511708236E+03 -0.41086021169E+03  0.44219241917E+03  0.10421587297E+03 0.  0.
         11    1    3    3    0    0 -0.39113299304E+02 -0.44772231615E+02 -0.96784906235E+02  0.11358574286E+03  0.00000000000E+00 0. -1.
        -11    1    3    3    0    0  0.53700606835E+02 -0.80344850749E+02 -0.31407530545E+03  0.32860667630E+03  0.00000000000E+00 0.  1.
         22    1    1    2    0    0 -0.14587307531E+02  0.12511708236E+03  0.73367016855E+03  0.74440512496E+03  0.00000000000E+00 0. -1.
<mgrwt>
<rscale>  0 0.11418439E+04</rscale>
<asrwt>0</asrwt>
<pdfrwt beam="1">  1        2 0.66445199E-01 0.11418439E+04</pdfrwt>
<pdfrwt beam="2">  1       -2 0.11610827E+00 0.11418439E+04</pdfrwt>
<totfact> 0.41567946E+01</totfact>
</mgrwt>
</event>
<event>
 6    1  0.1719556E-004  0.1975047E+04  0.7818608E-02  0.8618377E-01
          2   -1    0    0  501    0  0.00000000000E+00  0.00000000000E+00  0.24604842035E+04  0.24604842035E+04  0.00000000000E+00 0.  1.
         -2   -1    0    0    0  501 -0.00000000000E+00 -0.00000000000E+00 -0.39634572965E+03  0.39634572965E+03  0.00000000000E+00 0. -1.
         23    2    1    2    0    0 -0.92802025036E+03  0.21261392669E+03  0.14021910382E+04  0.16972607569E+04  0.90155989670E+02 0.  0.
         11    1    3    3    0    0 -0.67228464145E+03  0.13419781776E+03  0.10697620282E+04  0.12705772272E+04  0.00000000000E+00 0.  1.
        -11    1    3    3    0    0 -0.25573560891E+03  0.78416108929E+02  0.33242900998E+03  0.42668352966E+03  0.00000000000E+00 0. -1.
         22    1    1    2    0    0  0.92802025036E+03 -0.21261392669E+03  0.66194743566E+03  0.11595691762E+04  0.00000000000E+00 0.  1.
<mgrwt>
<rscale>  0 0.19750467E+04</rscale>
<asrwt>0</asrwt>
<pdfrwt beam="1">  1        2 0.37853602E+00 0.19750467E+04</pdfrwt>
<pdfrwt beam="2">  1       -2 0.60976267E-01 0.19750467E+04</pdfrwt>
<totfact> 0.85537675E+00</totfact>
</mgrwt>
</event>
<event>
 6    1  0.1719556E-004  0.3828901E+04  0.7818608E-02  0.8039981E-01
          2   -1    0    0  501    0  0.00000000000E+00  0.00000000000E+00  0.14205406146E+04  0.14205406146E+04  0.00000000000E+00 0. -1.
         -2   -1    0    0    0  501 -0.00000000000E+00 -0.00000000000E+00 -0.25800883577E+04  0.25800883577E+04  0.00000000000E+00 0.  1.
         23    2    1    2    0    0  0.77620003799E+03 -0.13776208228E+04 -0.17055361619E+04  0.23277784160E+04  0.96814895572E+02 0.  0.
         11    1    3    3    0    0  0.35548070037E+03 -0.56396608607E+03 -0.76968958598E+03  0.10182565165E+04  0.00000000000E+00 0.  1.
        -11    1    3    3    0    0  0.42071933762E+03 -0.81365473671E+03 -0.93584657589E+03  0.13095218995E+04  0.00000000000E+00 0. -1.
         22    1    1    2    0    0 -0.77620003799E+03  0.13776208228E+04  0.54598841879E+03  0.16728505563E+04  0.00000000000E+00 0. -1.
<mgrwt>
<rscale>  0 0.38289008E+04</rscale>
<asrwt>0</asrwt>
<pdfrwt beam="1">  1        2 0.21854471E+00 0.38289008E+04</pdfrwt>
<pdfrwt beam="2">  1       -2 0.39693666E+00 0.38289008E+04</pdfrwt>
<totfact> 0.87512836E-02</totfact>
</mgrwt>
</event>
<event>
 6    1  0.1719556E-004  0.1846386E+04  0.7818608E-02  0.8682014E-01
         -2   -1    0    0    0  501 -0.00000000000E+00  0.00000000000E+00  0.66975114477E+03  0.66975114477E+03  0.00000000000E+00 0. -1.
          2   -1    0    0  501    0  0.00000000000E+00 -0.00000000000E+00 -0.12725402243E+04  0.12725402243E+04  0.00000000000E+00 0.  1.
         23    2    1    2    0    0  0.57966675574E+03 -0.58751145953E+03  0.12823114477E+03  0.83976072045E+03  0.87014816729E+02 0.  0.
         13    1    3    3    0    0  0.33610106519E+03 -0.33892269285E+03  0.11751811373E+03  0.49157199351E+03  0.00000000000E+00 0.  1.
        -13    1    3    3    0    0  0.24356569056E+03 -0.24858876668E+03  0.10713031046E+02  0.34818872694E+03  0.00000000000E+00 0. -1.
         22    1    1    2    0    0 -0.57966675574E+03  0.58751145953E+03 -0.73102022430E+03  0.11025306486E+04  0.00000000000E+00 0.  1.
<mgrwt>
<rscale>  0 0.18463860E+04</rscale>
<asrwt>0</asrwt>
<pdfrwt beam="1">  1        2 0.19577542E+00 0.18463860E+04</pdfrwt>
<pdfrwt beam="2">  1       -2 0.10303864E+00 0.18463860E+04</pdfrwt>
<totfact> 0.12411850E+01</totfact>
</mgrwt>
</event>
<event>
 6    1  0.1719556E-004  0.2816000E+04  0.7818608E-02  0.8298318E-01
          2   -1    0    0  501    0  0.00000000000E+00  0.00000000000E+00  0.11390443511E+04  0.11390443511E+04  0.00000000000E+00 0.  1.
         -2   -1    0    0    0  501 -0.00000000000E+00 -0.00000000000E+00 -0.17404620142E+04  0.17404620142E+04  0.00000000000E+00 0. -1.
         23    2    1    2    0    0  0.73447615983E+03 -0.87322963571E+03 -0.11420316623E+04  0.16168707401E+04  0.89718707309E+02 0.  0.
         13    1    3    3    0    0  0.48690833324E+02 -0.29538997896E+02 -0.66071675653E+02  0.87228527272E+02  0.00000000000E+00 0. -1.
        -13    1    3    3    0    0  0.68578532651E+03 -0.84369063781E+03 -0.10759599866E+04  0.15296422128E+04  0.00000000000E+00 0.  1.
         22    1    1    2    0    0 -0.73447615983E+03  0.87322963571E+03  0.54061399916E+03  0.12626356252E+04  0.00000000000E+00 0. -1.
<mgrwt>
<rscale>  0 0.28159996E+04</rscale>
<asrwt>0</asrwt>
<pdfrwt beam="1">  1        2 0.17523759E+00 0.28159996E+04</pdfrwt>
<pdfrwt beam="2">  1       -2 0.26776339E+00 0.28159996E+04</pdfrwt>
<totfact> 0.89607380E-01</totfact>
</mgrwt>
</event>
<event>
 6    1  0.1719556E-004  0.3646408E+04  0.7818608E-02  0.8079943E-01
         -2   -1    0    0    0  501 -0.00000000000E+00  0.00000000000E+00  0.10056043920E+04  0.10056043920E+04  0.00000000000E+00 0. -1.
          2   -1    0    0  501    0  0.00000000000E+00 -0.00000000000E+00 -0.33055469008E+04  0.33055469008E+04  0.00000000000E+00 0.  1.
         23    2    1    2    0    0  0.16824649430E+04  0.68985892174E+03 -0.10119174231E+04  0.20827881631E+04  0.86232504182E+02 0.  0.
         13    1    3    3    0    0  0.12961739462E+04  0.50960553382E+03 -0.80916942510E+03  0.16107513332E+04  0.00000000000E+00 0. -1.
        -13    1    3    3    0    0  0.38629099686E+03  0.18025338792E+03 -0.20274799797E+03  0.47203682991E+03  0.00000000000E+00 0.  1.
         22    1    1    2    0    0 -0.16824649430E+04 -0.68985892174E+03 -0.12880250857E+04  0.22283631297E+04  0.00000000000E+00 0.  1.
<mgrwt>
<rscale>  0 0.36464078E+04</rscale>
<asrwt>0</asrwt>
<pdfrwt beam="1">  1        2 0.50854568E+00 0.36464078E+04</pdfrwt>
<pdfrwt beam="2">  1       -2 0.15470837E+00 0.36464078E+04</pdfrwt>
<totfact> 0.24710159E-01</totfact>
</mgrwt>
</event>
<event>
 6    1  0.1907742E-004  0.2251186E+04  0.7818608E-02  0.8497420E-01
          2   -1    0    0  501    0  0.00000000000E+00  0.00000000000E+00  0.93630834169E+03  0.93630834169E+03  0.00000000000E+00 0.  1.
         -2   -1    0    0    0  501 -0.00000000000E+00 -0.00000000000E+00 -0.13531436082E+04  0.13531436082E+04  0.00000000000E+00 0. -1.
         23    2    1    2    0    0  0.44534643978E+03 -0.36517215786E+03  0.77312075621E+03  0.96745365477E+03  0.81035264853E+02 0.  0.
         11    1    3    3    0    0  0.99917057043E+02 -0.12545378461E+03  0.23592585550E+03  0.28527719792E+03  0.00000000000E+00 0. -1.
        -11    1    3    3    0    0  0.34542938274E+03 -0.23971837325E+03  0.53719490071E+03  0.68217645685E+03  0.00000000000E+00 0.  1.
         22    1    1    2    0    0 -0.44534643978E+03  0.36517215786E+03 -0.11899560227E+04  0.13219982951E+04  0.00000000000E+00 0. -1.
<mgrwt>
<rscale>  0 0.22511860E+04</rscale>
<asrwt>0</asrwt>
<pdfrwt beam="1">  1        2 0.14404744E+00 0.22511860E+04</pdfrwt>
<pdfrwt beam="2">  1       -2 0.20817594E+00 0.22511860E+04</pdfrwt>
<totfact> 0.29679101E+00</totfact>
</mgrwt>
</event>
<event>
 6    1  0.1719556E-004  0.2417045E+04  0.7818608E-02  0.8433150E-01
         -2   -1    0    0    0  501 -0.00000000000E+00  0.00000000000E+00  0.12822919863E+04  0.12822919863E+04  0.00000000000E+00 0. -1.
          2   -1    0    0  501    0  0.00000000000E+00 -0.00000000000E+00 -0.11389971309E+04  0.11389971309E+04  0.00000000000E+00 0.  1.
         23    2    1    2    0    0  0.62638141513E+03  0.10130662644E+04 -0.12279178840E+03  0.12008551635E+04  0.91205083574E+02 0.  0.
         13    1    3    3    0    0  0.23258659309E+03  0.35352729804E+03 -0.14883218794E+01  0.42317879064E+03  0.00000000000E+00 0. -1.
        -13    1    3    3    0    0  0.39379482204E+03  0.65953896634E+03 -0.12130346652E+03  0.77767637290E+03  0.00000000000E+00 0.  1.
         22    1    1    2    0    0 -0.62638141513E+03 -0.10130662644E+04  0.26608664385E+03  0.12204339537E+04  0.00000000000E+00 0.  1.
<mgrwt>
<rscale>  0 0.24170452E+04</rscale>
<asrwt>0</asrwt>
<pdfrwt beam="1">  1        2 0.17523033E+00 0.24170452E+04</pdfrwt>
<pdfrwt beam="2">  1       -2 0.19727569E+00 0.24170452E+04</pdfrwt>
<totfact> 0.25661839E+00</totfact>
</mgrwt>
</event>
<event>
 6    1  0.1719556E-004  0.5460485E+04  0.7818608E-02  0.7761150E-01
          1   -1    0    0  501    0  0.00000000000E+00  0.00000000000E+00  0.30987571939E+04  0.30987571939E+04  0.00000000000E+00 0.  1.
         -1   -1    0    0    0  501 -0.00000000000E+00 -0.00000000000E+00 -0.24055527775E+04  0.24055527775E+04  0.00000000000E+00 0. -1.
         23    2    1    2    0    0  0.47951268843E+03 -0.26680766418E+04  0.66762620302E+03  0.27933655549E+04  0.92741529874E+02 0.  0.
         13    1    3    3    0    0  0.22416124431E+03 -0.11059717048E+04  0.23849543541E+03  0.11533870764E+04  0.00000000000E+00 0. -1.
        -13    1    3    3    0    0  0.25535144411E+03 -0.15621049369E+04  0.42913076761E+03  0.16399784784E+04  0.00000000000E+00 0.  1.
         22    1    1    2    0    0 -0.47951268843E+03  0.26680766418E+04  0.25578213382E+02  0.27109444166E+04  0.00000000000E+00 0. -1.
<mgrwt>
<rscale>  0 0.54604850E+04</rscale>
<asrwt>0</asrwt>
<pdfrwt beam="1">  1        1 0.47673188E+00 0.54604850E+04</pdfrwt>
<pdfrwt beam="2">  1       -1 0.37008504E+00 0.54604850E+04</pdfrwt>
<totfact> 0.40184236E-03</totfact>
</mgrwt>
</event>
<event>
 6    1  0.1719556E-004  0.2187452E+04  0.7818608E-02  0.8523669E-01
         -1   -1    0    0    0  501 -0.00000000000E+00  0.00000000000E+00  0.62721053805E+03  0.62721053805E+03  0.00000000000E+00 0. -1.
          1   -1    0    0  501    0  0.00000000000E+00 -0.00000000000E+00 -0.19072326038E+04  0.19072326038E+04  0.00000000000E+00 0.  1.
         23    2    1    2    0    0 -0.47639763982E+02  0.41709677844E+03  0.52645429355E+03  0.67982832836E+03  0.93665165072E+02 0.  0.
         11    1    3    3    0    0 -0.68509422546E+02  0.27220392932E+03  0.38322017834E+03  0.47502234179E+03  0.00000000000E+00 0. -1.
        -11    1    3    3    0    0  0.20869658564E+02  0.14489284912E+03  0.14323411521E+03  0.20480598657E+03  0.00000000000E+00 0.  1.
         22    1    1    2    0    0  0.47639763982E+02 -0.41709677844E+03 -0.18064763593E+04  0.18546148134E+04  0.00000000000E+00 0.  1.
<mgrwt>
<rscale>  0 0.21874518E+04</rscale>
<asrwt>0</asrwt>
<pdfrwt beam="1">  1        1 0.29342040E+00 0.21874518E+04</pdfrwt>
<pdfrwt beam="2">  1       -1 0.96493929E-01 0.21874518E+04</pdfrwt>
<totfact> 0.32498315E+00</totfact>
</mgrwt>
</event>
<event>
 6    1  0.1719556E-004  0.1242815E+04  0.7818608E-02  0.9076185E-01
          2   -1    0    0  501    0  0.00000000000E+00  0.00000000000E+00  0.32728652868E+04  0.32728652868E+04  0.00000000000E+00 0.  1.
         -2   -1    0    0    0  501 -0.00000000000E+00 -0.00000000000E+00 -0.11798444116E+03  0.11798444116E+03  0.00000000000E+00 0. -1.
         23    2    1    2    0    0 -0.48097142021E+03  0.34488307446E+03  0.20774511203E+04  0.21615683708E+04  0.79352518211E+02 0.  0.
         11    1    3    3    0    0 -0.22497313279E+03  0.11986925994E+03  0.81663199109E+03  0.85549363459E+03  0.00000000000E+00 0. -1.
        -11    1    3    3    0    0 -0.25599828742E+03  0.22501381452E+03  0.12608191292E+04  0.13060747362E+04  0.00000000000E+00 0.  1.
         22    1    1    2    0    0  0.48097142021E+03 -0.34488307446E+03  0.10774297253E+04  0.12292813572E+04  0.00000000000E+00 0. -1.
<mgrwt>
<rscale>  0 0.12428148E+04</rscale>
<asrwt>0</asrwt>
<pdfrwt beam="1">  1        2 0.50351767E+00 0.12428148E+04</pdfrwt>
<pdfrwt beam="2">  1       -2 0.18151455E-01 0.12428148E+04</pdfrwt>
<totfact> 0.29468247E+01</totfact>
</mgrwt>
</event>
<event>
 6    1  0.1719556E-004  0.2382680E+04  0.7818608E-02  0.8446017E-01
         -2   -1    0    0    0  501 -0.00000000000E+00  0.00000000000E+00  0.90528582849E+03  0.90528582849E+03  0.00000000000E+00 0. -1.
          2   -1    0    0  501    0  0.00000000000E+00 -0.00000000000E+00 -0.15677820729E+04  0.15677820729E+04  0.00000000000E+00 0.  1.
         23    2    1    2    0    0  0.51050250261E+03 -0.50147110103E+03  0.65450918756E+03  0.97420520648E+03  0.92776276022E+02 0.  0.
         11    1    3    3    0    0  0.50802998917E+02 -0.95914326436E+02  0.10152103303E+03  0.14861703423E+03  0.00000000000E+00 0.  1.
        -11    1    3    3    0    0  0.45969950370E+03 -0.40555677460E+03  0.55298815452E+03  0.82558817225E+03  0.00000000000E+00 0. -1.
         22    1    1    2    0    0 -0.51050250261E+03  0.50147110103E+03 -0.13170054320E+04  0.14988626949E+04  0.00000000000E+00 0.  1.
<mgrwt>
<rscale>  0 0.23826799E+04</rscale>
<asrwt>0</asrwt>
<pdfrwt beam="1">  1        2 0.24119724E+00 0.23826799E+04</pdfrwt>
<pdfrwt beam="2">  1       -2 0.13927474E+00 0.23826799E+04</pdfrwt>
<totfact> 0.38117702E+00</totfact>
</mgrwt>
</event>
<event>
 6    1  0.1719556E-004  0.2292567E+04  0.7818608E-02  0.8480857E-01
         -2   -1    0    0    0  501 -0.00000000000E+00  0.00000000000E+00  0.21324907004E+04  0.21324907004E+04  0.00000000000E+00 0. -1.
          2   -1    0    0  501    0  0.00000000000E+00 -0.00000000000E+00 -0.61616507844E+03  0.61616507844E+03  0.00000000000E+00 0.  1.
         23    2    1    2    0    0 -0.69219398076E+03 -0.54731877708E+02  0.18500990198E+04  0.19782450011E+04  0.91971820167E+02 0.  0.
         11    1    3    3    0    0 -0.20477515767E+03 -0.58278464702E+02  0.54870994108E+03  0.58856762065E+03  0.00000000000E+00 0.  1.
        -11    1    3    3    0    0 -0.48741882310E+03  0.35465869942E+01  0.13013890787E+04  0.13896773804E+04  0.00000000000E+00 0. -1.
         22    1    1    2    0    0  0.69219398076E+03  0.54731877708E+02 -0.33377339783E+03  0.77041077780E+03  0.00000000000E+00 0.  1.
<mgrwt>
<rscale>  0 0.22925674E+04</rscale>
<asrwt>0</asrwt>
<pdfrwt beam="1">  1        2 0.94794628E-01 0.22925674E+04</pdfrwt>
<pdfrwt beam="2">  1       -2 0.32807549E+00 0.22925674E+04</pdfrwt>
<totfact> 0.93025950E-01</totfact>
</mgrwt>
</event>
<event>
 6    1  0.1719556E-004  0.2302913E+04  0.7818608E-02  0.8476773E-01
          2   -1    0    0  501    0  0.00000000000E+00  0.00000000000E+00  0.24417970817E+04  0.24417970817E+04  0.00000000000E+00 0.  1.
         -2   -1    0    0    0  501 -0.00000000000E+00 -0.00000000000E+00 -0.54298206582E+03  0.54298206582E+03  0.00000000000E+00 0. -1.
         23    2    1    2    0    0  0.42907341649E+03  0.10319780289E+04  0.13002114123E+04  0.17169428319E+04  0.90886315607E+02 0.  0.
         13    1    3    3    0    0  0.11066807118E+03  0.30424891388E+03  0.31900547530E+03  0.45450997442E+03  0.00000000000E+00 0.  1.
        -13    1    3    3    0    0  0.31840534531E+03  0.72772911506E+03  0.98120593697E+03  0.12624328574E+04  0.00000000000E+00 0. -1.
         22    1    1    2    0    0 -0.42907341649E+03 -0.10319780289E+04  0.59860360357E+03  0.12678363156E+04  0.00000000000E+00 0.  1.
<mgrwt>
<rscale>  0 0.23029130E+04</rscale>
<asrwt>0</asrwt>
<pdfrwt beam="1">  1        2 0.37566108E+00 0.23029130E+04</pdfrwt>
<pdfrwt beam="2">  1       -2 0.83535704E-01 0.23029130E+04</pdfrwt>
<totfact> 0.42734496E+00</totfact>
</mgrwt>
</event>
<event>
 6    1  0.1719556E-004  0.2122357E+04  0.7818608E-02  0.8551458E-01
          2   -1    0    0  501    0  0.00000000000E+00  0.00000000000E+00  0.12507977109E+04  0.12507977109E+04  0.00000000000E+00 0. -1.
         -2   -1    0    0    0  501 -0.00000000000E+00 -0.00000000000E+00 -0.90030522324E+03  0.90030522324E+03  0.00000000000E+00 0.  1.
         23    2    1    2    0    0  0.85950851508E+03  0.99354705165E+02  0.79481167043E+03  0.11784540863E+04  0.91663499528E+02 0.  0.
         13    1    3    3    0    0  0.68157397819E+03  0.11377372391E+03  0.61438806396E+03  0.92464060106E+03  0.00000000000E+00 0. -1.
        -13    1    3    3    0    0  0.17793453690E+03 -0.14419018742E+02  0.18042360647E+03  0.25381348525E+03  0.00000000000E+00 0.  1.
         22    1    1    2    0    0 -0.85950851508E+03 -0.99354705165E+02 -0.44431918280E+03  0.97264884781E+03  0.00000000000E+00 0.  1.
<mgrwt>
<rscale>  0 0.21223569E+04</rscale>
<asrwt>0</asrwt>
<pdfrwt beam="1">  1        2 0.19243042E+00 0.21223569E+04</pdfrwt>
<pdfrwt beam="2">  1       -2 0.13850850E+00 0.21223569E+04</pdfrwt>
<totfact> 0.60028313E+00</totfact>
</mgrwt>
</event>
<event>
 6    1  0.1719556E-004  0.2287795E+04  0.7818608E-02  0.8482749E-01
          4   -1    0    0  501    0  0.00000000000E+00  0.00000000000E+00  0.25010284692E+04  0.25010284692E+04  0.00000000000E+00 0.  1.
         -4   -1    0    0    0  501 -0.00000000000E+00 -0.00000000000E+00 -0.52318522353E+03  0.52318522353E+03  0.00000000000E+00 0. -1.
         23    2    1    2    0    0 -0.21188370728E+03  0.85097639695E+03  0.23468595713E+02  0.88210356345E+03  0.92197549207E+02 0.  0.
         11    1    3    3    0    0 -0.31046482549E+02  0.19502164451E+03  0.39953206657E+02  0.20147849669E+03  0.00000000000E+00 0.  1.
        -11    1    3    3    0    0 -0.18083722473E+03  0.65595475245E+03 -0.16484610944E+02  0.68062506676E+03  0.00000000000E+00 0. -1.
         22    1    1    2    0    0  0.21188370728E+03 -0.85097639695E+03  0.19543746500E+04  0.21421101293E+04  0.00000000000E+00 0.  1.
<mgrwt>
<rscale>  0 0.22877947E+04</rscale>
<asrwt>0</asrwt>
<pdfrwt beam="1">  1        4 0.38477361E+00 0.22877947E+04</pdfrwt>
<pdfrwt beam="2">  1       -4 0.80490035E-01 0.22877947E+04</pdfrwt>
<totfact> 0.21588887E-02</totfact>
</mgrwt>
</event>
<event>
 6    1  0.1719556E-004  0.1898857E+04  0.7818608E-02  0.8655426E-01
         -2   -1    0    0    0  501 -0.00000000000E+00  0.00000000000E+00  0.77590323331E+03  0.77590323331E+03  0.00000000000E+00 0. -1.
          2   -1    0    0  501    0  0.00000000000E+00 -0.00000000000E+00 -0.11617614439E+04  0.11617614439E+04  0.00000000000E+00 0.  1.
         23    2    1    2    0    0  0.62992877152E+03  0.60223036102E+03 -0.57210560443E+03  0.10464970405E+04  0.91430674495E+02 0.  0.
         11    1    3    3    0    0  0.51401284760E+03  0.43845105957E+03 -0.44340981541E+03  0.80812177519E+03  0.00000000000E+00 0. -1.
        -11    1    3    3    0    0  0.11591592392E+03  0.16377930145E+03 -0.12869578903E+03  0.23837526532E+03  0.00000000000E+00 0.  1.
         22    1    1    2    0    0 -0.62992877152E+03 -0.60223036102E+03  0.18624739389E+03  0.89116763667E+03  0.00000000000E+00 0. -1.
<mgrwt>
<rscale>  0 0.18988570E+04</rscale>
<asrwt>0</asrwt>
<pdfrwt beam="1">  1        2 0.17873253E+00 0.18988570E+04</pdfrwt>
<pdfrwt beam="2">  1       -2 0.11936973E+00 0.18988570E+04</pdfrwt>
<totfact> 0.10065583E+01</totfact>
</mgrwt>
</event>
<event>
 6    1  0.1719556E-004  0.1937776E+04  0.7818608E-02  0.8636278E-01
          2   -1    0    0  501    0  0.00000000000E+00  0.00000000000E+00  0.20185017038E+04  0.20185017038E+04  0.00000000000E+00 0.  1.
         -2   -1    0    0    0  501 -0.00000000000E+00 -0.00000000000E+00 -0.46506970642E+03  0.46506970642E+03  0.00000000000E+00 0. -1.
         23    2    1    2    0    0  0.36222895220E+03 -0.60484917094E+03 -0.69137744841E+02  0.71445160032E+03  0.92783231420E+02 0.  0.
         13    1    3    3    0    0  0.77684629321E+02 -0.19829523895E+03 -0.44719781297E+02  0.21761379153E+03  0.00000000000E+00 0. -1.
        -13    1    3    3    0    0  0.28454432288E+03 -0.40655393199E+03 -0.24417963545E+02  0.49683780879E+03  0.00000000000E+00 0.  1.
         22    1    1    2    0    0 -0.36222895220E+03  0.60484917094E+03  0.16225697422E+04  0.17691198099E+04  0.00000000000E+00 0.  1.
<mgrwt>
<rscale>  0 0.19377760E+04</rscale>
<asrwt>0</asrwt>
<pdfrwt beam="1">  1        2 0.31053872E+00 0.19377760E+04</pdfrwt>
<pdfrwt beam="2">  1       -2 0.71549187E-01 0.19377760E+04</pdfrwt>
<totfact> 0.10793751E+01</totfact>
</mgrwt>
</event>
<event>
 6    1  0.1719556E-004  0.1546751E+04  0.7818608E-02  0.8853946E-01
         -1   -1    0    0    0  501 -0.00000000000E+00  0.00000000000E+00  0.45702703900E+03  0.45702703900E+03  0.00000000000E+00 0. -1.
          1   -1    0    0  501    0  0.00000000000E+00 -0.00000000000E+00 -0.13086962598E+04  0.13086962598E+04  0.00000000000E+00 0.  1.
         23    2    1    2    0    0  0.12609523727E+03 -0.75928753888E+03 -0.38211106570E+03  0.86411227592E+03  0.90904253481E+02 0.  0.
         13    1    3    3    0    0  0.54791983814E+02 -0.41351492111E+03 -0.15861386454E+03  0.44626797946E+03  0.00000000000E+00 0. -1.
        -13    1    3    3    0    0  0.71303253459E+02 -0.34577261777E+03 -0.22349720116E+03  0.41784429646E+03  0.00000000000E+00 0.  1.
         22    1    1    2    0    0 -0.12609523727E+03  0.75928753888E+03 -0.46955815509E+03  0.90161102287E+03  0.00000000000E+00 0.  1.
<mgrwt>
<rscale>  0 0.15467509E+04</rscale>
<asrwt>0</asrwt>
<pdfrwt beam="1">  1        1 0.20133789E+00 0.15467509E+04</pdfrwt>
<pdfrwt beam="2">  1       -1 0.70311852E-01 0.15467509E+04</pdfrwt>
<totfact> 0.17568600E+01</totfact>
</mgrwt>
</event>
<event>
 6    1  0.1719556E-004  0.2920426E+04  0.7818608E-02  0.8266826E-01
          1   -1    0    0  501    0  0.00000000000E+00  0.00000000000E+00  0.11557903551E+04  0.11557903551E+04  0.00000000000E+00 0.  1.
         -1   -1    0    0    0  501 -0.00000000000E+00 -0.00000000000E+00 -0.18448177228E+04  0.18448177228E+04  0.00000000000E+00 0. -1.
         23    2    1    2    0    0  0.41707632629E+03  0.13246121360E+04 -0.80362852893E+03  0.16071650762E+04  0.92794379943E+02 0.  0.
         13    1    3    3    0    0  0.29929126292E+03  0.10685963526E+04 -0.65397742981E+03  0.12880838108E+04  0.00000000000E+00 0. -1.
        -13    1    3    3    0    0  0.11778506337E+03  0.25601578340E+03 -0.14965109912E+03  0.31908126546E+03  0.00000000000E+00 0.  1.
         22    1    1    2    0    0 -0.41707632629E+03 -0.13246121360E+04  0.11460116123E+03  0.13934430017E+04  0.00000000000E+00 0. -1.
<mgrwt>
<rscale>  0 0.29204264E+04</rscale>
<asrwt>0</asrwt>
<pdfrwt beam="1">  1        1 0.17781390E+00 0.29204264E+04</pdfrwt>
<pdfrwt beam="2">  1       -1 0.28381811E+00 0.29204264E+04</pdfrwt>
<totfact> 0.41491417E-01</totfact>
</mgrwt>
</event>
<event>
 6    1  0.1719556E-004  0.1895145E+04  0.7818608E-02  0.8657277E-01
         -2   -1    0    0    0  501 -0.00000000000E+00  0.00000000000E+00  0.52899332204E+03  0.52899332204E+03  0.00000000000E+00 0. -1.
          2   -1    0    0  501    0  0.00000000000E+00 -0.00000000000E+00 -0.16973637944E+04  0.16973637944E+04  0.00000000000E+00 0.  1.
         23    2    1    2    0    0  0.64920420957E+03  0.58794934162E+02 -0.13899521635E+04  0.15378649989E+04  0.90215231665E+02 0.  0.
         13    1    3    3    0    0  0.23558450826E+03 -0.16219405684E+02 -0.45000248569E+03  0.50819815700E+03  0.00000000000E+00 0. -1.
        -13    1    3    3    0    0  0.41361970132E+03  0.75014339846E+02 -0.93994967785E+03  0.10296668419E+04  0.00000000000E+00 0.  1.
         22    1    1    2    0    0 -0.64920420957E+03 -0.58794934162E+02  0.22158169117E+03  0.68849211751E+03  0.00000000000E+00 0. -1.
<mgrwt>
<rscale>  0 0.18951455E+04</rscale>
<asrwt>0</asrwt>
<pdfrwt beam="1">  1        2 0.26113289E+00 0.18951455E+04</pdfrwt>
<pdfrwt beam="2">  1       -2 0.81383588E-01 0.18951455E+04</pdfrwt>
<totfact> 0.12259897E+01</totfact>
</mgrwt>
</event>
<event>
 6    1  0.1719556E-004  0.1036335E+04  0.7818608E-02  0.9269567E-01
          2   -1    0    0  501    0  0.00000000000E+00  0.00000000000E+00  0.11669057424E+04  0.11669057424E+04  0.00000000000E+00 0.  1.
         -2   -1    0    0    0  501 -0.00000000000E+00 -0.00000000000E+00 -0.23009358239E+03  0.23009358239E+03  0.00000000000E+00 0. -1.
         23    2    1    2    0    0 -0.46207645740E+03  0.22471102023E+03  0.44713144855E+03  0.68721281164E+03  0.91242649598E+02 0.  0.
         11    1    3    3    0    0 -0.51144059695E+02  0.18415318601E+02  0.89431826751E+02  0.10465605781E+03  0.00000000000E+00 0.  1.
        -11    1    3    3    0    0 -0.41093239770E+03  0.20629570163E+03  0.35769962180E+03  0.58255675383E+03  0.00000000000E+00 0. -1.
         22    1    1    2    0    0  0.46207645740E+03 -0.22471102023E+03  0.48968071149E+03  0.70978651319E+03  0.00000000000E+00 0.  1.
<mgrwt>
<rscale>  0 0.10363349E+04</rscale>
<asrwt>0</asrwt>
<pdfrwt beam="1">  1        2 0.17952396E+00 0.10363349E+04</pdfrwt>
<pdfrwt beam="2">  1       -2 0.35399013E-01 0.10363349E+04</pdfrwt>
<totfact> 0.14794270E+02</totfact>
</mgrwt>
</event>
<event>
 6    1  0.1719556E-004  0.1017994E+04  0.7818608E-02  0.9289027E-01
          1   -1    0    0  501    0  0.00000000000E+00  0.00000000000E+00  0.43134162603E+03  0.43134162603E+03  0.00000000000E+00 0. -1.
         -1   -1    0    0    0  501 -0.00000000000E+00 -0.00000000000E+00 -0.60063280677E+03  0.60063280677E+03  0.00000000000E+00 0.  1.
         23    2    1    2    0    0  0.26108106674E+03  0.38432159036E+03 -0.28621582224E+03  0.55287342047E+03  0.88786901829E+02 0.  0.
         13    1    3    3    0    0  0.11948018520E+03  0.14209262490E+03 -0.69075694895E+02  0.19808402342E+03  0.00000000000E+00 0.  1.
        -13    1    3    3    0    0  0.14160088154E+03  0.24222896545E+03 -0.21714012735E+03  0.35478939705E+03  0.00000000000E+00 0. -1.
         22    1    1    2    0    0 -0.26108106674E+03 -0.38432159036E+03  0.11692464151E+03  0.47910101233E+03  0.00000000000E+00 0. -1.
<mgrwt>
<rscale>  0 0.10179940E+04</rscale>
<asrwt>0</asrwt>
<pdfrwt beam="1">  1        1 0.66360250E-01 0.10179940E+04</pdfrwt>
<pdfrwt beam="2">  1       -1 0.92405047E-01 0.10179940E+04</pdfrwt>
<totfact> 0.61909299E+01</totfact>
</mgrwt>
</event>
<event>
 6    1  0.1719556E-004  0.3153965E+04  0.7818608E-02  0.8201082E-01
          2   -1    0    0  501    0  0.00000000000E+00  0.00000000000E+00  0.13595444372E+04  0.13595444372E+04  0.00000000000E+00 0.  1.
         -2   -1    0    0    0  501 -0.00000000000E+00 -0.00000000000E+00 -0.18291964036E+04  0.18291964036E+04  0.00000000000E+00 0. -1.
         23    2    1    2    0    0  0.62407038431E+03 -0.22715457524E+03 -0.16796090510E+04  0.18085020237E+04  0.92357782010E+02 0.  0.
         11    1    3    3    0    0  0.38467493522E+03 -0.10413316789E+03 -0.10827415562E+04  0.11537537865E+04  0.00000000000E+00 0. -1.
        -11    1    3    3    0    0  0.23939544909E+03 -0.12302140735E+03 -0.59686749487E+03  0.65474823722E+03  0.00000000000E+00 0.  1.
         22    1    1    2    0    0 -0.62407038431E+03  0.22715457524E+03  0.12099570846E+04  0.13802388171E+04  0.00000000000E+00 0.  1.
<mgrwt>
<rscale>  0 0.31539650E+04</rscale>
<asrwt>0</asrwt>
<pdfrwt beam="1">  1        2 0.20916068E+00 0.31539650E+04</pdfrwt>
<pdfrwt beam="2">  1       -2 0.28141483E+00 0.31539650E+04</pdfrwt>
<totfact> 0.53272049E-01</totfact>
</mgrwt>
</event>
<event>
 6    1  0.1719556E-004  0.2435060E+04  0.7818608E-02  0.8426493E-01
          2   -1    0    0  501    0  0.00000000000E+00  0.00000000000E+00  0.32137465146E+04  0.32137465146E+04  0.00000000000E+00 0.  1.
         -2   -1    0    0    0  501 -0.00000000000E+00 -0.00000000000E+00 -0.46126222385E+03  0.46126222385E+03  0.00000000000E+00 0. -1.
         23    2    1    2    0    0  0.11383103774E+04 -0.41282443129E+03  0.15449208212E+04  0.19649256821E+04  0.89320020913E+02 0.  0.
         13    1    3    3    0    0  0.65301145142E+03 -0.25494932784E+03  0.95933281852E+03  0.11881677374E+04  0.00000000000E+00 0. -1.
        -13    1    3    3    0    0  0.48529892601E+03 -0.15787510345E+03  0.58558800266E+03  0.77675794475E+03  0.00000000000E+00 0.  1.
         22    1    1    2    0    0 -0.11383103774E+04  0.41282443129E+03  0.12075634696E+04  0.17100830563E+04  0.00000000000E+00 0.  1.
<mgrwt>
<rscale>  0 0.24350605E+04</rscale>
<asrwt>0</asrwt>
<pdfrwt beam="1">  1        2 0.49442253E+00 0.24350605E+04</pdfrwt>
<pdfrwt beam="2">  1       -2 0.70963421E-01 0.24350605E+04</pdfrwt>
<totfact> 0.20564061E+00</totfact>
</mgrwt>
</event>
<event>
 6    1  0.1719556E-004  0.1459907E+04  0.7818608E-02  0.8911561E-01
          1   -1    0    0  501    0  0.00000000000E+00  0.00000000000E+00  0.66781865231E+03  0.66781865231E+03  0.00000000000E+00 0.  1.
         -1   -1    0    0    0  501 -0.00000000000E+00 -0.00000000000E+00 -0.79786916768E+03  0.79786916768E+03  0.00000000000E+00 0. -1.
         23    2    1    2    0    0  0.20810016242E+03 -0.65291282211E+03  0.17875602416E+03  0.71404807269E+03  0.91159766715E+02 0.  0.
         11    1    3    3    0    0  0.20352967109E+03 -0.57994440225E+03  0.18157703605E+03  0.64088224873E+03  0.00000000000E+00 0. -1.
        -11    1    3    3    0    0  0.45704913247E+01 -0.72968419854E+02 -0.28210118948E+01  0.73165823955E+02  0.00000000000E+00 0.  1.
         22    1    1    2    0    0 -0.20810016242E+03  0.65291282211E+03 -0.30880653953E+03  0.75163974730E+03  0.00000000000E+00 0. -1.
<mgrwt>
<rscale>  0 0.14599067E+04</rscale>
<asrwt>0</asrwt>
<pdfrwt beam="1">  1        1 0.10274133E+00 0.14599067E+04</pdfrwt>
<pdfrwt beam="2">  1       -1 0.12274910E+00 0.14599067E+04</pdfrwt>
<totfact> 0.16625544E+01</totfact>
</mgrwt>
</event>
<event>
 6    1  0.1719556E-004  0.1280019E+04  0.7818608E-02  0.9045562E-01
          1   -1    0    0  501    0  0.00000000000E+00  0.00000000000E+00  0.15976895789E+04  0.15976895789E+04  0.00000000000E+00 0.  1.
         -1   -1    0    0    0  501 -0.00000000000E+00 -0.00000000000E+00 -0.25637761372E+03  0.25637761372E+03  0.00000000000E+00 0. -1.
         23    2    1    2    0    0  0.32308016936E+03  0.40814761709E+03  0.12054041418E+04  0.13160744328E+04  0.89930497022E+02 0.  0.
         13    1    3    3    0    0  0.28807284309E+03  0.35208894167E+03  0.96674009489E+03  0.10684282834E+04  0.00000000000E+00 0.  1.
        -13    1    3    3    0    0  0.35007326268E+02  0.56058675425E+02  0.23866404694E+03  0.24764614934E+03  0.00000000000E+00 0. -1.
         22    1    1    2    0    0 -0.32308016936E+03 -0.40814761709E+03  0.13590782333E+03  0.53799275981E+03  0.00000000000E+00 0. -1.
<mgrwt>
<rscale>  0 0.12800185E+04</rscale>
<asrwt>0</asrwt>
<pdfrwt beam="1">  1        1 0.24579839E+00 0.12800185E+04</pdfrwt>
<pdfrwt beam="2">  1       -1 0.39442711E-01 0.12800185E+04</pdfrwt>
<totfact> 0.34439148E+01</totfact>
</mgrwt>
</event>
<event>
 6    1  0.1719556E-004  0.1084241E+04  0.7818608E-02  0.9220689E-01
          1   -1    0    0  501    0  0.00000000000E+00  0.00000000000E+00  0.27515028409E+04  0.27515028409E+04  0.00000000000E+00 0.  1.
         -1   -1    0    0    0  501 -0.00000000000E+00 -0.00000000000E+00 -0.10681240543E+03  0.10681240543E+03  0.00000000000E+00 0. -1.
         23    2    1    2    0    0  0.16975639326E+03 -0.49619549633E+03  0.10111337824E+04  0.11426420425E+04  0.90620680338E+02 0.  0.
         13    1    3    3    0    0  0.88381993243E+02 -0.30218400940E+03  0.69388217030E+03  0.76197048402E+03  0.00000000000E+00 0. -1.
        -13    1    3    3    0    0  0.81374400016E+02 -0.19401148692E+03  0.31725161214E+03  0.38067155849E+03  0.00000000000E+00 0.  1.
         22    1    1    2    0    0 -0.16975639326E+03  0.49619549633E+03  0.16335566531E+04  0.17156732039E+04  0.00000000000E+00 0.  1.
<mgrwt>
<rscale>  0 0.10842410E+04</rscale>
<asrwt>0</asrwt>
<pdfrwt beam="1">  1        1 0.42330808E+00 0.10842410E+04</pdfrwt>
<pdfrwt beam="2">  1       -1 0.16432680E-01 0.10842410E+04</pdfrwt>
<totfact> 0.25853461E+01</totfact>
</mgrwt>
</event>
<event>
 6    1  0.1719556E-004  0.5045383E+03  0.7818608E-02  0.1012601E+00
         -1   -1    0    0    0  501 -0.00000000000E+00  0.00000000000E+00  0.44610110897E+03  0.44610110897E+03  0.00000000000E+00 0. -1.
          1   -1    0    0  501    0  0.00000000000E+00 -0.00000000000E+00 -0.14265764515E+03  0.14265764515E+03  0.00000000000E+00 0.  1.
         23    2    1    2    0    0  0.11269963877E+03 -0.20774853218E+03  0.22568862079E+03  0.33994863210E+03  0.93643247003E+02 0.  0.
         11    1    3    3    0    0  0.23207531507E+02 -0.13914048249E+03  0.13481397048E+03  0.19512424253E+03  0.00000000000E+00 0.  1.
        -11    1    3    3    0    0  0.89492107266E+02 -0.68608049690E+02  0.90874650315E+02  0.14482438957E+03  0.00000000000E+00 0. -1.
         22    1    1    2    0    0 -0.11269963877E+03  0.20774853218E+03  0.77754843026E+02  0.24881012202E+03  0.00000000000E+00 0.  1.
<mgrwt>
<rscale>  0 0.50453834E+03</rscale>
<asrwt>0</asrwt>
<pdfrwt beam="1">  1        1 0.21947330E-01 0.50453834E+03</pdfrwt>
<pdfrwt beam="2">  1       -1 0.68630939E-01 0.50453834E+03</pdfrwt>
<totfact> 0.50426465E+02</totfact>
</mgrwt>
</event>
<event>
 6    1  0.1719556E-004  0.4420069E+04  0.7818608E-02  0.7924782E-01
         -2   -1    0    0    0  501 -0.00000000000E+00  0.00000000000E+00  0.95993455903E+03  0.95993455903E+03  0.00000000000E+00 0. -1.
          2   -1    0    0  501    0  0.00000000000E+00 -0.00000000000E+00 -0.50881104647E+04  0.50881104647E+04  0.00000000000E+00 0.  1.
         23    2    1    2    0    0  0.11143840582E+04 -0.20977667464E+03  0.52909289664E+03  0.12547152020E+04  0.92265174616E+02 0.  0.
         13    1    3    3    0    0  0.52929551503E+03 -0.10222149035E+03  0.20087161315E+03  0.57528460808E+03  0.00000000000E+00 0. -1.
        -13    1    3    3    0    0  0.58508854322E+03 -0.10755518429E+03  0.32822128349E+03  0.67943059396E+03  0.00000000000E+00 0.  1.
         22    1    1    2    0    0 -0.11143840582E+04  0.20977667464E+03 -0.46572688023E+04  0.47933298217E+04  0.00000000000E+00 0.  1.
<mgrwt>
<rscale>  0 0.44200693E+04</rscale>
<asrwt>0</asrwt>
<pdfrwt beam="1">  1        2 0.78278623E+00 0.44200693E+04</pdfrwt>
<pdfrwt beam="2">  1       -2 0.14768224E+00 0.44200693E+04</pdfrwt>
<totfact> 0.61804103E-03</totfact>
</mgrwt>
</event>
<event>
 6    1  0.1719556E-004  0.1432995E+04  0.7818608E-02  0.8930275E-01
          2   -1    0    0  501    0  0.00000000000E+00  0.00000000000E+00  0.18148099948E+04  0.18148099948E+04  0.00000000000E+00 0.  1.
         -2   -1    0    0    0  501 -0.00000000000E+00 -0.00000000000E+00 -0.28287740872E+03  0.28287740872E+03  0.00000000000E+00 0. -1.
         23    2    1    2    0    0 -0.75907779029E+02 -0.31532427559E+03  0.16995991054E+04  0.17325799517E+04  0.89469436910E+02 0.  0.
         13    1    3    3    0    0 -0.85915397624E+02 -0.29780054306E+03  0.14830174358E+04  0.15150601750E+04  0.00000000000E+00 0.  1.
        -13    1    3    3    0    0  0.10007618595E+02 -0.17523732532E+02  0.21658166964E+03  0.21751977670E+03  0.00000000000E+00 0. -1.
         22    1    1    2    0    0  0.75907779029E+02  0.31532427559E+03 -0.16766651932E+03  0.36510745185E+03  0.00000000000E+00 0. -1.
<mgrwt>
<rscale>  0 0.14329951E+04</rscale>
<asrwt>0</asrwt>
<pdfrwt beam="1">  1        2 0.27920153E+00 0.14329951E+04</pdfrwt>
<pdfrwt beam="2">  1       -2 0.43519602E-01 0.14329951E+04</pdfrwt>
<totfact> 0.41163080E+01</totfact>
</mgrwt>
</event>
<event>
 6    1  0.1719556E-004  0.4506287E+04  0.7818608E-02  0.7909537E-01
          2   -1    0    0  501    0  0.00000000000E+00  0.00000000000E+00  0.19946584813E+04  0.19946584813E+04  0.00000000000E+00 0.  1.
         -2   -1    0    0    0  501 -0.00000000000E+00 -0.00000000000E+00 -0.25451250181E+04  0.25451250181E+04  0.00000000000E+00 0. -1.
         23    2    1    2    0    0 -0.13097343106E+04  0.12755485373E+04  0.10493719540E+04  0.21103985501E+04  0.10085884729E+03 0.  0.
         13    1    3    3    0    0 -0.43495694098E+03  0.40094836338E+03  0.28890726419E+03  0.65834226501E+03  0.00000000000E+00 0. -1.
        -13    1    3    3    0    0 -0.87477736959E+03  0.87460017396E+03  0.76046468984E+03  0.14520562851E+04  0.00000000000E+00 0.  1.
         22    1    1    2    0    0  0.13097343106E+04 -0.12755485373E+04 -0.15998384908E+04  0.24293849493E+04  0.00000000000E+00 0. -1.
<mgrwt>
<rscale>  0 0.45062868E+04</rscale>
<asrwt>0</asrwt>
<pdfrwt beam="1">  1        2 0.30687054E+00 0.45062868E+04</pdfrwt>
<pdfrwt beam="2">  1       -2 0.39155769E+00 0.45062868E+04</pdfrwt>
<totfact> 0.42930653E-02</totfact>
</mgrwt>
</event>
<event>
 6    1  0.1719556E-004  0.5995298E+03  0.7818608E-02  0.9906382E-01
          1   -1    0    0  501    0  0.00000000000E+00  0.00000000000E+00  0.21470032422E+03  0.21470032422E+03  0.00000000000E+00 0.  1.
         -1   -1    0    0    0  501 -0.00000000000E+00 -0.00000000000E+00 -0.41853221716E+03  0.41853221716E+03  0.00000000000E+00 0. -1.
         23    2    1    2    0    0  0.12280746965E+03  0.20075825956E+03 -0.28822951355E+03  0.38321551845E+03  0.91609648584E+02 0.  0.
         13    1    3    3    0    0  0.40695793997E+02  0.11538550643E+03 -0.88504170906E+02  0.15100646016E+03  0.00000000000E+00 0.  1.
        -13    1    3    3    0    0  0.82111675657E+02  0.85372753137E+02 -0.19972534265E+03  0.23220905829E+03  0.00000000000E+00 0. -1.
         22    1    1    2    0    0 -0.12280746965E+03 -0.20075825956E+03  0.84397620617E+02  0.25001702292E+03  0.00000000000E+00 0. -1.
<mgrwt>
<rscale>  0 0.59952982E+03</rscale>
<asrwt>0</asrwt>
<pdfrwt beam="1">  1        1 0.33030819E-01 0.59952982E+03</pdfrwt>
<pdfrwt beam="2">  1       -1 0.64389572E-01 0.59952982E+03</pdfrwt>
<totfact> 0.33640799E+02</totfact>
</mgrwt>
</event>
<event>
 6    1  0.1719556E-004  0.1816336E+04  0.7818608E-02  0.8697660E-01
          2   -1    0    0  501    0  0.00000000000E+00  0.00000000000E+00  0.11655976574E+04  0.11655976574E+04  0.00000000000E+00 0.  1.
         -2   -1    0    0    0  501 -0.00000000000E+00 -0.00000000000E+00 -0.70759300535E+03  0.70759300535E+03  0.00000000000E+00 0. -1.
         23    2    1    2    0    0  0.74548827751E+03 -0.27470503127E+03  0.67856964223E+03  0.10486516758E+04  0.89431267529E+02 0.  0.
         11    1    3    3    0    0  0.24702632617E+03 -0.48185590292E+02  0.20025307204E+03  0.32162890074E+03  0.00000000000E+00 0. -1.
        -11    1    3    3    0    0  0.49846195134E+03 -0.22651944098E+03  0.47831657019E+03  0.72702277502E+03  0.00000000000E+00 0.  1.
         22    1    1    2    0    0 -0.74548827751E+03  0.27470503127E+03 -0.22056499022E+03  0.82453898696E+03  0.00000000000E+00 0. -1.
<mgrwt>
<rscale>  0 0.18163356E+04</rscale>
<asrwt>0</asrwt>
<pdfrwt beam="1">  1        2 0.17932272E+00 0.18163356E+04</pdfrwt>
<pdfrwt beam="2">  1       -2 0.10886046E+00 0.18163356E+04</pdfrwt>
<totfact> 0.12622229E+01</totfact>
</mgrwt>
</event>
<event>
 6    1  0.1719556E-004  0.2877690E+04  0.7818608E-02  0.8279546E-01
         -2   -1    0    0    0  501 -0.00000000000E+00  0.00000000000E+00  0.49980881852E+03  0.49980881852E+03  0.00000000000E+00 0. -1.
          2   -1    0    0  501    0  0.00000000000E+00 -0.00000000000E+00 -0.41421332785E+04  0.41421332785E+04  0.00000000000E+00 0.  1.
         23    2    1    2    0    0 -0.64402100962E+03 -0.12829524747E+04 -0.19410305318E+04  0.24159297109E+04  0.91579088587E+02 0.  0.
         11    1    3    3    0    0 -0.21110877139E+03 -0.43538938518E+03 -0.72734021145E+03  0.87358720988E+03  0.00000000000E+00 0. -1.
        -11    1    3    3    0    0 -0.43291223823E+03 -0.84756308952E+03 -0.12136903203E+04  0.15423425010E+04  0.00000000000E+00 0.  1.
         22    1    1    2    0    0  0.64402100962E+03  0.12829524747E+04 -0.17012939282E+04  0.22260123862E+04  0.00000000000E+00 0. -1.
<mgrwt>
<rscale>  0 0.28776899E+04</rscale>
<asrwt>0</asrwt>
<pdfrwt beam="1">  1        2 0.63725130E+00 0.28776899E+04</pdfrwt>
<pdfrwt beam="2">  1       -2 0.76893661E-01 0.28776899E+04</pdfrwt>
<totfact> 0.34067838E-01</totfact>
</mgrwt>
</event>
<event>
 6    1  0.1719556E-004  0.8512063E+03  0.7818608E-02  0.9488719E-01
          3   -1    0    0  501    0  0.00000000000E+00  0.00000000000E+00  0.15827665763E+04  0.15827665763E+04  0.00000000000E+00 0. -1.
         -3   -1    0    0    0  501 -0.00000000000E+00 -0.00000000000E+00 -0.11444393875E+03  0.11444393875E+03  0.00000000000E+00 0.  1.
         23    2    1    2    0    0 -0.61156546915E+01 -0.15835141041E+03  0.15201075752E+04  0.15304944385E+04  0.81077836461E+02 0.  0.
         11    1    3    3    0    0  0.31143412090E-01  0.95533617965E+01  0.10946668762E+03  0.10988277112E+03  0.00000000000E+00 0. -1.
        -11    1    3    3    0    0 -0.61467981036E+01 -0.16790477221E+03  0.14106408876E+04  0.14206116674E+04  0.00000000000E+00 0.  1.
         22    1    1    2    0    0  0.61156546915E+01  0.15835141041E+03 -0.51784937685E+02  0.16671607656E+03  0.00000000000E+00 0.  1.
<mgrwt>
<rscale>  0 0.85120630E+03</rscale>
<asrwt>0</asrwt>
<pdfrwt beam="1">  1        3 0.24350254E+00 0.85120630E+03</pdfrwt>
<pdfrwt beam="2">  1       -3 0.17606761E-01 0.85120630E+03</pdfrwt>
<totfact> 0.61916076E+00</totfact>
</mgrwt>
</event>
<event>
 6    1  0.1719556E-004  0.1436696E+04  0.7818608E-02  0.8927676E-01
         -1   -1    0    0    0  501 -0.00000000000E+00  0.00000000000E+00  0.29439584545E+03  0.29439584545E+03  0.00000000000E+00 0.  1.
          1   -1    0    0  501    0  0.00000000000E+00 -0.00000000000E+00 -0.17528236563E+04  0.17528236563E+04  0.00000000000E+00 0. -1.
         23    2    1    2    0    0 -0.37316000350E+03  0.41849875448E+03 -0.13653453944E+04  0.14788411665E+04  0.91725427146E+02 0.  0.
         11    1    3    3    0    0 -0.29928613888E+03  0.27699748934E+03 -0.10142938125E+04  0.10932025156E+04  0.00000000000E+00 0. -1.
        -11    1    3    3    0    0 -0.73873864622E+02  0.14150126514E+03 -0.35105158185E+03  0.38563865085E+03  0.00000000000E+00 0.  1.
         22    1    1    2    0    0  0.37316000350E+03 -0.41849875448E+03 -0.93082416429E+02  0.56837833524E+03  0.00000000000E+00 0.  1.
<mgrwt>
<rscale>  0 0.14366962E+04</rscale>
<asrwt>0</asrwt>
<pdfrwt beam="1">  1        1 0.26966516E+00 0.14366962E+04</pdfrwt>
<pdfrwt beam="2">  1       -1 0.45291671E-01 0.14366962E+04</pdfrwt>
<totfact> 0.20640213E+01</totfact>
</mgrwt>
</event>
<event>
 6    1  0.1719556E-004  0.2355872E+04  0.7818608E-02  0.8456212E-01
         -1   -1    0    0    0  501 -0.00000000000E+00  0.00000000000E+00  0.16080222226E+04  0.16080222226E+04  0.00000000000E+00 0. -1.
          1   -1    0    0  501    0  0.00000000000E+00 -0.00000000000E+00 -0.86288194835E+03  0.86288194835E+03  0.00000000000E+00 0.  1.
         23    2    1    2    0    0 -0.27558626647E+02  0.10521693057E+04 -0.17715367315E+03  0.10714593341E+04  0.93925262779E+02 0.  0.
         13    1    3    3    0    0  0.18615123651E+02  0.25619692143E+03 -0.75220689264E+02  0.26765936836E+03  0.00000000000E+00 0.  1.
        -13    1    3    3    0    0 -0.46173750299E+02  0.79597238430E+03 -0.10193298389E+03  0.80379996579E+03  0.00000000000E+00 0. -1.
         22    1    1    2    0    0  0.27558626647E+02 -0.10521693057E+04  0.92229394737E+03  0.13994448368E+04  0.00000000000E+00 0. -1.
<mgrwt>
<rscale>  0 0.23558721E+04</rscale>
<asrwt>0</asrwt>
<pdfrwt beam="1">  1        1 0.13275107E+00 0.23558721E+04</pdfrwt>
<pdfrwt beam="2">  1       -1 0.24738803E+00 0.23558721E+04</pdfrwt>
<totfact> 0.12741697E+00</totfact>
</mgrwt>
</event>
<event>
 6    1  0.1719556E-004  0.1799290E+04  0.7818608E-02  0.8706677E-01
          2   -1    0    0  501    0  0.00000000000E+00  0.00000000000E+00  0.24980132640E+04  0.24980132640E+04  0.00000000000E+00 0.  1.
         -2   -1    0    0    0  501 -0.00000000000E+00 -0.00000000000E+00 -0.32400181380E+03  0.32400181380E+03  0.00000000000E+00 0. -1.
         23    2    1    2    0    0 -0.48521250621E+03  0.24004696018E+03 -0.32659028010E+02  0.54991289728E+03  0.91015730559E+02 0.  0.
         11    1    3    3    0    0 -0.29116652960E+03  0.13483221160E+03  0.24783902835E+02  0.32182590804E+03  0.00000000000E+00 0.  1.
        -11    1    3    3    0    0 -0.19404597661E+03  0.10521474859E+03 -0.57442930845E+02  0.22808698925E+03  0.00000000000E+00 0. -1.
         22    1    1    2    0    0  0.48521250621E+03 -0.24004696018E+03  0.22066704783E+04  0.22721021806E+04  0.00000000000E+00 0.  1.
<mgrwt>
<rscale>  0 0.17992897E+04</rscale>
<asrwt>0</asrwt>
<pdfrwt beam="1">  1        2 0.38430972E+00 0.17992897E+04</pdfrwt>
<pdfrwt beam="2">  1       -2 0.49846435E-01 0.17992897E+04</pdfrwt>
<totfact> 0.12563744E+01</totfact>
</mgrwt>
</event>
<event>
 6    1  0.1719556E-004  0.2414951E+04  0.7818608E-02  0.8433927E-01
          2   -1    0    0  501    0  0.00000000000E+00  0.00000000000E+00  0.20654073809E+04  0.20654073809E+04  0.00000000000E+00 0.  1.
         -2   -1    0    0    0  501 -0.00000000000E+00 -0.00000000000E+00 -0.70591270061E+03  0.70591270061E+03  0.00000000000E+00 0. -1.
         23    2    1    2    0    0 -0.10681711321E+03  0.36929433887E+03  0.19921920664E+04  0.20309862469E+04  0.91036812004E+02 0.  0.
         11    1    3    3    0    0 -0.10271877759E+03  0.19231055741E+03  0.10925847041E+04  0.11141255914E+04  0.00000000000E+00 0. -1.
        -11    1    3    3    0    0 -0.40983356263E+01  0.17698378146E+03  0.89960736227E+03  0.91686065544E+03  0.00000000000E+00 0.  1.
         22    1    1    2    0    0  0.10681711321E+03 -0.36929433887E+03 -0.63269738609E+03  0.74033383467E+03  0.00000000000E+00 0. -1.
<mgrwt>
<rscale>  0 0.24149512E+04</rscale>
<asrwt>0</asrwt>
<pdfrwt beam="1">  1        2 0.31775498E+00 0.24149512E+04</pdfrwt>
<pdfrwt beam="2">  1       -2 0.10860195E+00 0.24149512E+04</pdfrwt>
<totfact> 0.37388303E+00</totfact>
</mgrwt>
</event>
<event>
 6    1  0.1719556E-004  0.1209446E+04  0.7818608E-02  0.9104629E-01
         -1   -1    0    0    0  501 -0.00000000000E+00  0.00000000000E+00  0.15249229198E+04  0.15249229198E+04  0.00000000000E+00 0. -1.
          1   -1    0    0  501    0  0.00000000000E+00 -0.00000000000E+00 -0.23980862737E+03  0.23980862737E+03  0.00000000000E+00 0.  1.
         23    2    1    2    0    0  0.17824768571E+03 -0.53795449317E+03  0.93989615147E+03  0.11011482148E+04  0.89192719365E+02 0.  0.
         11    1    3    3    0    0  0.76154170164E+02 -0.14189464300E+03  0.21222393091E+03  0.26640672701E+03  0.00000000000E+00 0.  1.
        -11    1    3    3    0    0  0.10209351555E+03 -0.39605985018E+03  0.72767222057E+03  0.83474148778E+03  0.00000000000E+00 0. -1.
         22    1    1    2    0    0 -0.17824768571E+03  0.53795449317E+03  0.34521814096E+03  0.66358333240E+03  0.00000000000E+00 0.  1.
<mgrwt>
<rscale>  0 0.12094456E+04</rscale>
<asrwt>0</asrwt>
<pdfrwt beam="1">  1        1 0.36893636E-01 0.12094456E+04</pdfrwt>
<pdfrwt beam="2">  1       -1 0.23460352E+00 0.12094456E+04</pdfrwt>
<totfact> 0.10233643E+01</totfact>
</mgrwt>
</event>
<event>
 6    1  0.1719556E-004  0.2853592E+04  0.7818608E-02  0.8286821E-01
         -2   -1    0    0    0  501 -0.00000000000E+00  0.00000000000E+00  0.10925279405E+04  0.10925279405E+04  0.00000000000E+00 0.  1.
          2   -1    0    0  501    0  0.00000000000E+00 -0.00000000000E+00 -0.18633356397E+04  0.18633356397E+04  0.00000000000E+00 0. -1.
         23    2    1    2    0    0  0.98356556544E+03  0.60267411673E+03  0.48155872885E+03  0.12532071314E+04  0.89509733175E+02 0.  0.
         11    1    3    3    0    0  0.76205131674E+03  0.45502394117E+03  0.40910788058E+03  0.97731174880E+03  0.00000000000E+00 0.  1.
        -11    1    3    3    0    0  0.22151424870E+03  0.14765017555E+03  0.72450848268E+02  0.27589538258E+03  0.00000000000E+00 0. -1.
         22    1    1    2    0    0 -0.98356556544E+03 -0.60267411673E+03 -0.12523664280E+04  0.17026564488E+04  0.00000000000E+00 0.  1.
<mgrwt>
<rscale>  0 0.28535916E+04</rscale>
<asrwt>0</asrwt>
<pdfrwt beam="1">  1        2 0.28666702E+00 0.28535916E+04</pdfrwt>
<pdfrwt beam="2">  1       -2 0.16808122E+00 0.28535916E+04</pdfrwt>
<totfact> 0.15167110E+00</totfact>
</mgrwt>
</event>
<event>
 6    1  0.1719556E-004  0.2720451E+04  0.7818608E-02  0.8328400E-01
          2   -1    0    0  501    0  0.00000000000E+00  0.00000000000E+00  0.14138965627E+04  0.14138965627E+04  0.00000000000E+00 0.  1.
         -2   -1    0    0    0  501 -0.00000000000E+00 -0.00000000000E+00 -0.13085918096E+04  0.13085918096E+04  0.00000000000E+00 0. -1.
         23    2    1    2    0    0 -0.13094796812E+02 -0.13578107789E+04  0.58186945334E+01  0.13609748539E+04  0.91635750172E+02 0.  0.
         11    1    3    3    0    0 -0.28238357429E+02 -0.10025759521E+04 -0.31472139932E+02  0.10034672093E+04  0.00000000000E+00 0.  1.
        -11    1    3    3    0    0  0.15143560617E+02 -0.35523482676E+03  0.37290834465E+02  0.35750764454E+03  0.00000000000E+00 0. -1.
         22    1    1    2    0    0  0.13094796812E+02  0.13578107789E+04  0.99486058533E+02  0.13615135184E+04  0.00000000000E+00 0. -1.
<mgrwt>
<rscale>  0 0.27204510E+04</rscale>
<asrwt>0</asrwt>
<pdfrwt beam="1">  1        2 0.21752255E+00 0.27204510E+04</pdfrwt>
<pdfrwt beam="2">  1       -2 0.20132182E+00 0.27204510E+04</pdfrwt>
<totfact> 0.16224392E+00</totfact>
</mgrwt>
</event>
<event>
 6    1  0.1719556E-004  0.5018751E+03  0.7818608E-02  0.1013291E+00
         -1   -1    0    0    0  501 -0.00000000000E+00  0.00000000000E+00  0.59284166868E+03  0.59284166868E+03  0.00000000000E+00 0. -1.
          1   -1    0    0  501    0  0.00000000000E+00 -0.00000000000E+00 -0.10621664132E+03  0.10621664132E+03  0.00000000000E+00 0.  1.
         23    2    1    2    0    0  0.37319678619E+02 -0.86201872538E+02 -0.59126299581E+02  0.14528215296E+03  0.93741471219E+02 0.  0.
         11    1    3    3    0    0  0.59247033844E+02 -0.20405599138E+02 -0.20692088322E+02  0.65990620656E+02  0.00000000000E+00 0. -1.
        -11    1    3    3    0    0 -0.21927355225E+02 -0.65796273400E+02 -0.38434211259E+02  0.79291532307E+02  0.00000000000E+00 0.  1.
         22    1    1    2    0    0 -0.37319678619E+02  0.86201872538E+02  0.54575132694E+03  0.55377615703E+03  0.00000000000E+00 0. -1.
<mgrwt>
<rscale>  0 0.50187509E+03</rscale>
<asrwt>0</asrwt>
<pdfrwt beam="1">  1        1 0.16341022E-01 0.50187509E+03</pdfrwt>
<pdfrwt beam="2">  1       -1 0.91206408E-01 0.50187509E+03</pdfrwt>
<totfact> 0.40934125E+02</totfact>
</mgrwt>
</event>
<event>
 6    1  0.1719556E-004  0.3660393E+04  0.7818608E-02  0.8076796E-01
          2   -1    0    0  501    0  0.00000000000E+00  0.00000000000E+00  0.27492307323E+04  0.27492307323E+04  0.00000000000E+00 0.  1.
         -2   -1    0    0    0  501 -0.00000000000E+00 -0.00000000000E+00 -0.12183842841E+04  0.12183842841E+04  0.00000000000E+00 0. -1.
         23    2    1    2    0    0 -0.47266278054E+02 -0.11574893110E+04  0.23000811137E+04  0.25770260847E+04  0.93138100149E+02 0.  0.
         13    1    3    3    0    0 -0.13133369710E+02 -0.57473735115E+02  0.16060794865E+03  0.17108661197E+03  0.00000000000E+00 0.  1.
        -13    1    3    3    0    0 -0.34132908343E+02 -0.11000155759E+04  0.21394731650E+04  0.24059394728E+04  0.00000000000E+00 0. -1.
         22    1    1    2    0    0  0.47266278054E+02  0.11574893110E+04 -0.76923466546E+03  0.13905889316E+04  0.00000000000E+00 0. -1.
<mgrwt>
<rscale>  0 0.36603932E+04</rscale>
<asrwt>0</asrwt>
<pdfrwt beam="1">  1        2 0.42295857E+00 0.36603932E+04</pdfrwt>
<pdfrwt beam="2">  1       -2 0.18744374E+00 0.36603932E+04</pdfrwt>
<totfact> 0.32444871E-01</totfact>
</mgrwt>
</event>
<event>
 6    1  0.1719556E-004  0.1997187E+04  0.7818608E-02  0.8607937E-01
          2   -1    0    0  501    0  0.00000000000E+00  0.00000000000E+00  0.23143335128E+04  0.23143335128E+04  0.00000000000E+00 0.  1.
         -2   -1    0    0    0  501 -0.00000000000E+00 -0.00000000000E+00 -0.43087505437E+03  0.43087505437E+03  0.00000000000E+00 0. -1.
         23    2    1    2    0    0 -0.29445718621E+03  0.53681102560E+03  0.20241905465E+04  0.21169756228E+04  0.96784850594E+02 0.  0.
         11    1    3    3    0    0 -0.50937069855E+02  0.18541230710E+03  0.64123813934E+03  0.66944653263E+03  0.00000000000E+00 0.  1.
        -11    1    3    3    0    0 -0.24352011635E+03  0.35139871850E+03  0.13829524072E+04  0.14475290902E+04  0.00000000000E+00 0. -1.
         22    1    1    2    0    0  0.29445718621E+03 -0.53681102560E+03 -0.14073208810E+03  0.62823294433E+03  0.00000000000E+00 0. -1.
<mgrwt>
<rscale>  0 0.19971866E+04</rscale>
<asrwt>0</asrwt>
<pdfrwt beam="1">  1        2 0.35605130E+00 0.19971866E+04</pdfrwt>
<pdfrwt beam="2">  1       -2 0.66288472E-01 0.19971866E+04</pdfrwt>
<totfact> 0.86540107E+00</totfact>
</mgrwt>
</event>
<event>
 6    1  0.1719556E-004  0.2607624E+04  0.7818608E-02  0.8365616E-01
         -2   -1    0    0    0  501 -0.00000000000E+00  0.00000000000E+00  0.10930268453E+04  0.10930268453E+04  0.00000000000E+00 0. -1.
          2   -1    0    0  501    0  0.00000000000E+00 -0.00000000000E+00 -0.15552460562E+04  0.15552460562E+04  0.00000000000E+00 0.  1.
         23    2    1    2    0    0 -0.76061778917E+03  0.55522788393E+03 -0.11448008143E+04  0.14852015065E+04  0.91854156725E+02 0.  0.
         11    1    3    3    0    0 -0.14284199366E+03  0.11817809452E+03 -0.28290904862E+03  0.33824166948E+03  0.00000000000E+00 0. -1.
        -11    1    3    3    0    0 -0.61777579551E+03  0.43704978940E+03 -0.86189176573E+03  0.11469598370E+04  0.00000000000E+00 0.  1.
         22    1    1    2    0    0  0.76061778917E+03 -0.55522788393E+03  0.68258160349E+03  0.11630713949E+04  0.00000000000E+00 0. -1.
<mgrwt>
<rscale>  0 0.26076240E+04</rscale>
<asrwt>0</asrwt>
<pdfrwt beam="1">  1        2 0.23926863E+00 0.26076240E+04</pdfrwt>
<pdfrwt beam="2">  1       -2 0.16815798E+00 0.26076240E+04</pdfrwt>
<totfact> 0.22950485E+00</totfact>
</mgrwt>
</event>
<event>
 6    1  0.1719556E-004  0.1523485E+04  0.7818608E-02  0.8868984E-01
          2   -1    0    0  501    0  0.00000000000E+00  0.00000000000E+00  0.92897799351E+03  0.92897799351E+03  0.00000000000E+00 0.  1.
         -2   -1    0    0    0  501 -0.00000000000E+00 -0.00000000000E+00 -0.62461252965E+03  0.62461252965E+03  0.00000000000E+00 0. -1.
         23    2    1    2    0    0  0.47687376727E+03  0.35070463839E+03  0.63771663671E+03  0.87423396160E+03  0.84853860194E+02 0.  0.
         11    1    3    3    0    0  0.33813516550E+03  0.28732540207E+03  0.50281565422E+03  0.67060782798E+03  0.00000000000E+00 0. -1.
        -11    1    3    3    0    0  0.13873860177E+03  0.63379236322E+02  0.13490098249E+03  0.20362613362E+03  0.00000000000E+00 0.  1.
         22    1    1    2    0    0 -0.47687376727E+03 -0.35070463839E+03 -0.33335117284E+03  0.67935656156E+03  0.00000000000E+00 0. -1.
<mgrwt>
<rscale>  0 0.15234846E+04</rscale>
<asrwt>0</asrwt>
<pdfrwt beam="1">  1        2 0.14291969E+00 0.15234846E+04</pdfrwt>
<pdfrwt beam="2">  1       -2 0.96094235E-01 0.15234846E+04</pdfrwt>
<totfact> 0.24540146E+01</totfact>
</mgrwt>
</event>
<event>
 6    1  0.1719556E-004  0.2055372E+04  0.7818608E-02  0.8581161E-01
          1   -1    0    0  501    0  0.00000000000E+00  0.00000000000E+00  0.18396692710E+04  0.18396692710E+04  0.00000000000E+00 0. -1.
         -1   -1    0    0    0  501 -0.00000000000E+00 -0.00000000000E+00 -0.57409154578E+03  0.57409154578E+03  0.00000000000E+00 0.  1.
         23    2    1    2    0    0 -0.28008813143E+03 -0.21269370065E+03  0.17654736466E+04  0.18025457124E+04  0.92660005916E+02 0.  0.
         13    1    3    3    0    0 -0.24069758090E+03 -0.16363127984E+03  0.12604007815E+04  0.12935689588E+04  0.00000000000E+00 0. -1.
        -13    1    3    3    0    0 -0.39390550524E+02 -0.49062420810E+02  0.50507286512E+03  0.50897675359E+03  0.00000000000E+00 0.  1.
         22    1    1    2    0    0  0.28008813143E+03  0.21269370065E+03 -0.49989592137E+03  0.61121510441E+03  0.00000000000E+00 0.  1.
<mgrwt>
<rscale>  0 0.20553721E+04</rscale>
<asrwt>0</asrwt>
<pdfrwt beam="1">  1        1 0.28302604E+00 0.20553721E+04</pdfrwt>
<pdfrwt beam="2">  1       -1 0.88321777E-01 0.20553721E+04</pdfrwt>
<totfact> 0.44502109E+00</totfact>
</mgrwt>
</event>
<event>
 6    1  0.1719556E-004  0.2316996E+04  0.7818608E-02  0.8471250E-01
         -2   -1    0    0    0  501 -0.00000000000E+00  0.00000000000E+00  0.97213326070E+03  0.97213326070E+03  0.00000000000E+00 0. -1.
          2   -1    0    0  501    0  0.00000000000E+00 -0.00000000000E+00 -0.13805902349E+04  0.13805902349E+04  0.00000000000E+00 0.  1.
         23    2    1    2    0    0 -0.10044287853E+04 -0.21974576114E+03  0.33349912146E+03  0.10847864971E+04  0.91513364940E+02 0.  0.
         11    1    3    3    0    0 -0.31349837269E+03 -0.95612934822E+02  0.71263193337E+02  0.33541244120E+03  0.00000000000E+00 0. -1.
        -11    1    3    3    0    0 -0.69093041262E+03 -0.12413282632E+03  0.26223592813E+03  0.74937405590E+03  0.00000000000E+00 0.  1.
         22    1    1    2    0    0  0.10044287853E+04  0.21974576114E+03 -0.74195609567E+03  0.12679369985E+04  0.00000000000E+00 0.  1.
<mgrwt>
<rscale>  0 0.23169961E+04</rscale>
<asrwt>0</asrwt>
<pdfrwt beam="1">  1        2 0.21239850E+00 0.23169961E+04</pdfrwt>
<pdfrwt beam="2">  1       -2 0.14955896E+00 0.23169961E+04</pdfrwt>
<totfact> 0.40595345E+00</totfact>
</mgrwt>
</event>
<event>
 6    1  0.1750932E-004  0.2856394E+04  0.7818608E-02  0.8285971E-01
          2   -1    0    0  501    0  0.00000000000E+00  0.00000000000E+00  0.19579758490E+04  0.19579758490E+04  0.00000000000E+00 0.  1.
         -2   -1    0    0    0  501 -0.00000000000E+00 -0.00000000000E+00 -0.10417631218E+04  0.10417631218E+04  0.00000000000E+00 0. -1.
         23    2    1    2    0    0  0.44723602157E+03  0.40838185773E+03  0.18152192167E+04  0.19157608951E+04  0.91231583295E+02 0.  0.
         11    1    3    3    0    0  0.12748798229E+03  0.12921733441E+03  0.67898390977E+03  0.70282960585E+03  0.00000000000E+00 0.  1.
        -11    1    3    3    0    0  0.31974803928E+03  0.27916452333E+03  0.11362353069E+04  0.12129312892E+04  0.00000000000E+00 0. -1.
         22    1    1    2    0    0 -0.44723602157E+03 -0.40838185773E+03 -0.89900648945E+03  0.10839780758E+04  0.00000000000E+00 0. -1.
<mgrwt>
<rscale>  0 0.28563943E+04</rscale>
<asrwt>0</asrwt>
<pdfrwt beam="1">  1        2 0.30122705E+00 0.28563943E+04</pdfrwt>
<pdfrwt beam="2">  1       -2 0.16027125E+00 0.28563943E+04</pdfrwt>
<totfact> 0.15313487E+00</totfact>
</mgrwt>
</event>
<event>
 6    1  0.1719556E-004  0.5475424E+03  0.7818608E-02  0.1002064E+00
         -2   -1    0    0    0  501 -0.00000000000E+00  0.00000000000E+00  0.15787642057E+03  0.15787642057E+03  0.00000000000E+00 0. -1.
          2   -1    0    0  501    0  0.00000000000E+00 -0.00000000000E+00 -0.47474259008E+03  0.47474259008E+03  0.00000000000E+00 0.  1.
         23    2    1    2    0    0 -0.21897445663E+03  0.11163581556E+03 -0.44897906993E+02  0.26604145571E+03  0.91377601927E+02 0.  0.
         11    1    3    3    0    0 -0.54069436426E+02  0.51514076079E+02 -0.50965064091E+02  0.90413725438E+02  0.00000000000E+00 0. -1.
        -11    1    3    3    0    0 -0.16490502020E+03  0.60121739477E+02  0.60671570984E+01  0.17562773027E+03  0.00000000000E+00 0.  1.
         22    1    1    2    0    0  0.21897445663E+03 -0.11163581556E+03 -0.27196826251E+03  0.36657755494E+03  0.00000000000E+00 0. -1.
<mgrwt>
<rscale>  0 0.54754237E+03</rscale>
<asrwt>0</asrwt>
<pdfrwt beam="1">  1        2 0.73037321E-01 0.54754237E+03</pdfrwt>
<pdfrwt beam="2">  1       -2 0.24288680E-01 0.54754237E+03</pdfrwt>
<totfact> 0.99035717E+02</totfact>
</mgrwt>
</event>
<event>
 6    1  0.1719556E-004  0.1090907E+04  0.7818608E-02  0.9214100E-01
          1   -1    0    0  501    0  0.00000000000E+00  0.00000000000E+00  0.29629954346E+04  0.29629954346E+04  0.00000000000E+00 0.  1.
         -1   -1    0    0    0  501 -0.00000000000E+00 -0.00000000000E+00 -0.10041181362E+03  0.10041181362E+03  0.00000000000E+00 0. -1.
         23    2    1    2    0    0 -0.50878235891E+03  0.96240328327E+02  0.99187776646E+03  0.11223606018E+04  0.88034807173E+02 0.  0.
         13    1    3    3    0    0 -0.29657694745E+03  0.17444539679E+02  0.51671311060E+03  0.59603241219E+03  0.00000000000E+00 0.  1.
        -13    1    3    3    0    0 -0.21220541147E+03  0.78795788648E+02  0.47516465586E+03  0.52632818957E+03  0.00000000000E+00 0. -1.
         22    1    1    2    0    0  0.50878235891E+03 -0.96240328327E+02  0.18707058546E+04  0.19410466465E+04  0.00000000000E+00 0.  1.
<mgrwt>
<rscale>  0 0.10909074E+04</rscale>
<asrwt>0</asrwt>
<pdfrwt beam="1">  1        1 0.45584538E+00 0.10909074E+04</pdfrwt>
<pdfrwt beam="2">  1       -1 0.15447974E-01 0.10909074E+04</pdfrwt>
<totfact> 0.20229955E+01</totfact>
</mgrwt>
</event>
<event>
 6    1  0.1719556E-004  0.2508942E+04  0.7818608E-02  0.8399807E-01
         -1   -1    0    0    0  501 -0.00000000000E+00  0.00000000000E+00  0.15758304184E+04  0.15758304184E+04  0.00000000000E+00 0. -1.
          1   -1    0    0  501    0  0.00000000000E+00 -0.00000000000E+00 -0.99864620094E+03  0.99864620094E+03  0.00000000000E+00 0.  1.
         23    2    1    2    0    0  0.11012939120E+04 -0.58330137372E+03  0.17253520827E+03  0.12641981780E+04  0.12385419596E+03 0.  0.
         11    1    3    3    0    0  0.15840238010E+03 -0.98144113175E+02  0.69242051914E+02  0.19879145536E+03  0.00000000000E+00 0. -1.
        -11    1    3    3    0    0  0.94289153195E+03 -0.48515726054E+03  0.10329315636E+03  0.10654067226E+04  0.00000000000E+00 0.  1.
         22    1    1    2    0    0 -0.11012939120E+04  0.58330137372E+03  0.40464900923E+03  0.13102784414E+04  0.00000000000E+00 0. -1.
<mgrwt>
<rscale>  0 0.25089417E+04</rscale>
<asrwt>0</asrwt>
<pdfrwt beam="1">  1        1 0.15363788E+00 0.25089417E+04</pdfrwt>
<pdfrwt beam="2">  1       -1 0.24243545E+00 0.25089417E+04</pdfrwt>
<totfact> 0.10521186E+00</totfact>
</mgrwt>
</event>
<event>
 6    1  0.1719556E-004  0.2978638E+04  0.7818608E-02  0.8249857E-01
          2   -1    0    0  501    0  0.00000000000E+00  0.00000000000E+00  0.29709553385E+04  0.29709553385E+04  0.00000000000E+00 0.  1.
         -2   -1    0    0    0  501 -0.00000000000E+00 -0.00000000000E+00 -0.74658535608E+03  0.74658535608E+03  0.00000000000E+00 0. -1.
         23    2    1    2    0    0  0.53396169953E+03 -0.41798526681E+03 -0.53968556776E+03  0.87152069037E+03  0.91983813032E+02 0.  0.
         13    1    3    3    0    0  0.40628009654E+03 -0.26787391226E+03 -0.36732177352E+03  0.60970913969E+03  0.00000000000E+00 0. -1.
        -13    1    3    3    0    0  0.12768160299E+03 -0.15011135455E+03 -0.17236379424E+03  0.26181155068E+03  0.00000000000E+00 0.  1.
         22    1    1    2    0    0 -0.53396169953E+03  0.41798526681E+03  0.27640555502E+04  0.28460200042E+04  0.00000000000E+00 0.  1.
<mgrwt>
<rscale>  0 0.29786384E+04</rscale>
<asrwt>0</asrwt>
<pdfrwt beam="1">  1        2 0.45707005E+00 0.29786384E+04</pdfrwt>
<pdfrwt beam="2">  1       -2 0.11485929E+00 0.29786384E+04</pdfrwt>
<totfact> 0.92023385E-01</totfact>
</mgrwt>
</event>
<event>
 6    1  0.1719556E-004  0.2965153E+04  0.7818608E-02  0.8253752E-01
          1   -1    0    0  501    0  0.00000000000E+00  0.00000000000E+00  0.15711035746E+04  0.15711035746E+04  0.00000000000E+00 0.  1.
         -1   -1    0    0    0  501 -0.00000000000E+00 -0.00000000000E+00 -0.13990378720E+04  0.13990378720E+04  0.00000000000E+00 0. -1.
         23    2    1    2    0    0  0.21880818252E+03  0.14668351752E+03  0.15461371087E+04  0.15710469880E+04  0.90860357554E+02 0.  0.
         13    1    3    3    0    0  0.15259289440E+03  0.12933285236E+03  0.13101852410E+04  0.13253667205E+04  0.00000000000E+00 0. -1.
        -13    1    3    3    0    0  0.66215288123E+02  0.17350665159E+02  0.23595186772E+03  0.24568026751E+03  0.00000000000E+00 0.  1.
         22    1    1    2    0    0 -0.21880818252E+03 -0.14668351752E+03 -0.13740714061E+04  0.13990944586E+04  0.00000000000E+00 0. -1.
<mgrwt>
<rscale>  0 0.29651532E+04</rscale>
<asrwt>0</asrwt>
<pdfrwt beam="1">  1        1 0.24170824E+00 0.29651532E+04</pdfrwt>
<pdfrwt beam="2">  1       -1 0.21523660E+00 0.29651532E+04</pdfrwt>
<totfact> 0.59079319E-01</totfact>
</mgrwt>
</event>
<event>
 6    1  0.1719556E-004  0.5199194E+04  0.7818608E-02  0.7798493E-01
          2   -1    0    0  501    0  0.00000000000E+00  0.00000000000E+00  0.40085945464E+04  0.40085945464E+04  0.00000000000E+00 0. -1.
         -2   -1    0    0    0  501 -0.00000000000E+00 -0.00000000000E+00 -0.16858537943E+04  0.16858537943E+04  0.00000000000E+00 0.  1.
         23    2    1    2    0    0 -0.10948223152E+04  0.16641174933E+04 -0.66625779590E+03  0.21025080219E+04  0.93368080626E+02 0.  0.
         11    1    3    3    0    0 -0.26366413831E+03  0.34669975710E+03 -0.11981677789E+03  0.45174722984E+03  0.00000000000E+00 0.  1.
        -11    1    3    3    0    0 -0.83115817687E+03  0.13174177362E+04 -0.54644101801E+03  0.16507607921E+04  0.00000000000E+00 0. -1.
         22    1    1    2    0    0  0.10948223152E+04 -0.16641174933E+04  0.29889985480E+04  0.35919403187E+04  0.00000000000E+00 0.  1.
<mgrwt>
<rscale>  0 0.51991939E+04</rscale>
<asrwt>0</asrwt>
<pdfrwt beam="1">  1        2 0.61670685E+00 0.51991939E+04</pdfrwt>
<pdfrwt beam="2">  1       -2 0.25936212E+00 0.51991939E+04</pdfrwt>
<totfact> 0.13516459E-02</totfact>
</mgrwt>
</event>
<event>
 6    1  0.1719556E-004  0.3940749E+03  0.7818608E-02  0.1045851E+00
          2   -1    0    0  501    0  0.00000000000E+00  0.00000000000E+00  0.94606933745E+03  0.94606933745E+03  0.00000000000E+00 0.  1.
         -2   -1    0    0    0  501 -0.00000000000E+00 -0.00000000000E+00 -0.41036895512E+02  0.41036895512E+02  0.00000000000E+00 0. -1.
         23    2    1    2    0    0 -0.75527336285E+02 -0.15350037630E+03  0.30032157922E+03  0.35866214512E+03  0.95805737565E+02 0.  0.
         11    1    3    3    0    0 -0.55096734377E+02 -0.11131389244E+03  0.12131215450E+03  0.17361760170E+03  0.00000000000E+00 0.  1.
        -11    1    3    3    0    0 -0.20430601908E+02 -0.42186483857E+02  0.17900942472E+03  0.18504454343E+03  0.00000000000E+00 0. -1.
         22    1    1    2    0    0  0.75527336285E+02  0.15350037630E+03  0.60471086272E+03  0.62844408784E+03  0.00000000000E+00 0.  1.
<mgrwt>
<rscale>  0 0.39407486E+03</rscale>
<asrwt>0</asrwt>
<pdfrwt beam="1">  1        2 0.14554911E+00 0.39407486E+03</pdfrwt>
<pdfrwt beam="2">  1       -2 0.63133693E-02 0.39407486E+03</pdfrwt>
<totfact> 0.38997673E+03</totfact>
</mgrwt>
</event>
<event>
 6    1  0.1719556E-004  0.3838497E+04  0.7818608E-02  0.8037944E-01
          2   -1    0    0  501    0  0.00000000000E+00  0.00000000000E+00  0.87420576219E+03  0.87420576219E+03  0.00000000000E+00 0.  1.
         -2   -1    0    0    0  501 -0.00000000000E+00 -0.00000000000E+00 -0.42135567144E+04  0.42135567144E+04  0.00000000000E+00 0. -1.
         23    2    1    2    0    0  0.85850263183E+03 -0.94971499840E+02 -0.39407368975E+04  0.40352837785E+04  0.89785985906E+02 0.  0.
         11    1    3    3    0    0  0.39035484768E+03 -0.35704678023E+02 -0.19948550964E+04  0.20330023578E+04  0.00000000000E+00 0.  1.
        -11    1    3    3    0    0  0.46814778415E+03 -0.59266821817E+02 -0.19458818011E+04  0.20022814207E+04  0.00000000000E+00 0. -1.
         22    1    1    2    0    0 -0.85850263183E+03  0.94971499840E+02  0.60138594531E+03  0.10524786980E+04  0.00000000000E+00 0.  1.
<mgrwt>
<rscale>  0 0.38384974E+04</rscale>
<asrwt>0</asrwt>
<pdfrwt beam="1">  1        2 0.13449319E+00 0.38384974E+04</pdfrwt>
<pdfrwt beam="2">  1       -2 0.64823950E+00 0.38384974E+04</pdfrwt>
<totfact> 0.82860553E-03</totfact>
</mgrwt>
</event>
<event>
 6    1  0.1719556E-004  0.1962585E+04  0.7818608E-02  0.8624316E-01
          1   -1    0    0  501    0  0.00000000000E+00  0.00000000000E+00  0.95724006128E+03  0.95724006128E+03  0.00000000000E+00 0. -1.
         -1   -1    0    0    0  501 -0.00000000000E+00 -0.00000000000E+00 -0.10059495789E+04  0.10059495789E+04  0.00000000000E+00 0.  1.
         23    2    1    2    0    0  0.41383784056E+03 -0.57573589388E+03  0.65126443994E+03  0.96684777163E+03  0.88970023107E+02 0.  0.
         11    1    3    3    0    0  0.12134452384E+03 -0.11830551261E+03  0.12382752462E+03  0.20989031334E+03  0.00000000000E+00 0.  1.
        -11    1    3    3    0    0  0.29249331672E+03 -0.45743038127E+03  0.52743691531E+03  0.75695745829E+03  0.00000000000E+00 0. -1.
         22    1    1    2    0    0 -0.41383784056E+03  0.57573589388E+03 -0.69997395757E+03  0.99634186856E+03  0.00000000000E+00 0.  1.
<mgrwt>
<rscale>  0 0.19625853E+04</rscale>
<asrwt>0</asrwt>
<pdfrwt beam="1">  1        1 0.14726770E+00 0.19625853E+04</pdfrwt>
<pdfrwt beam="2">  1       -1 0.15476147E+00 0.19625853E+04</pdfrwt>
<totfact> 0.48782147E+00</totfact>
</mgrwt>
</event>
<event>
 6    1  0.1719556E-004  0.1773285E+04  0.7818608E-02  0.8720637E-01
          2   -1    0    0  501    0  0.00000000000E+00  0.00000000000E+00  0.51286778938E+03  0.51286778938E+03  0.00000000000E+00 0.  1.
         -2   -1    0    0    0  501 -0.00000000000E+00 -0.00000000000E+00 -0.15328210722E+04  0.15328210722E+04  0.00000000000E+00 0. -1.
         23    2    1    2    0    0 -0.54737166951E+03  0.48338246231E+03 -0.10866278245E+04  0.13123950297E+04  0.91358281491E+02 0.  0.
         13    1    3    3    0    0 -0.32117743307E+03  0.22323028435E+03 -0.56805608899E+03  0.68969154236E+03  0.00000000000E+00 0. -1.
        -13    1    3    3    0    0 -0.22619423644E+03  0.26015217796E+03 -0.51857173547E+03  0.62270348733E+03  0.00000000000E+00 0.  1.
         22    1    1    2    0    0  0.54737166951E+03 -0.48338246231E+03  0.66674541609E+02  0.73329383193E+03  0.00000000000E+00 0.  1.
<mgrwt>
<rscale>  0 0.17732846E+04</rscale>
<asrwt>0</asrwt>
<pdfrwt beam="1">  1        2 0.78902738E-01 0.17732846E+04</pdfrwt>
<pdfrwt beam="2">  1       -2 0.23581862E+00 0.17732846E+04</pdfrwt>
<totfact> 0.44456840E+00</totfact>
</mgrwt>
</event>
<event>
 6    1  0.3159985E-004  0.2712740E+04  0.7818608E-02  0.8330883E-01
         -2   -1    0    0    0  501 -0.00000000000E+00  0.00000000000E+00  0.11610631722E+04  0.11610631722E+04  0.00000000000E+00 0. -1.
          2   -1    0    0  501    0  0.00000000000E+00 -0.00000000000E+00 -0.15845298565E+04  0.15845298565E+04  0.00000000000E+00 0.  1.
         23    2    1    2    0    0 -0.82374415458E+03  0.21025271086E+02 -0.13002502171E+04  0.15423699166E+04  0.96217662005E+02 0.  0.
         13    1    3    3    0    0 -0.25725038578E+03 -0.26908634898E+01 -0.49014281140E+03  0.55355666132E+03  0.00000000000E+00 0. -1.
        -13    1    3    3    0    0 -0.56649376880E+03  0.23716134575E+02 -0.81010740565E+03  0.98881325528E+03  0.00000000000E+00 0.  1.
         22    1    1    2    0    0  0.82374415458E+03 -0.21025271086E+02  0.87678353275E+03  0.12032231121E+04  0.00000000000E+00 0. -1.
<mgrwt>
<rscale>  0 0.27127398E+04</rscale>
<asrwt>0</asrwt>
<pdfrwt beam="1">  1        2 0.24377382E+00 0.27127398E+04</pdfrwt>
<pdfrwt beam="2">  1       -2 0.17862510E+00 0.27127398E+04</pdfrwt>
<totfact> 0.18482963E+00</totfact>
</mgrwt>
</event>
<event>
 6    1  0.1719556E-004  0.3284776E+04  0.7818608E-02  0.8166780E-01
         -2   -1    0    0    0  501 -0.00000000000E+00  0.00000000000E+00  0.10367517789E+04  0.10367517789E+04  0.00000000000E+00 0. -1.
          2   -1    0    0  501    0  0.00000000000E+00 -0.00000000000E+00 -0.26018161921E+04  0.26018161921E+04  0.00000000000E+00 0.  1.
         23    2    1    2    0    0 -0.56540626906E+03  0.36996944962E+02  0.92282098373E+03  0.10869749840E+04  0.94143639280E+02 0.  0.
         13    1    3    3    0    0 -0.35973745612E+03  0.33279621242E+02  0.50102177362E+03  0.61769036594E+03  0.00000000000E+00 0.  1.
        -13    1    3    3    0    0 -0.20566881294E+03  0.37173237201E+01  0.42179921011E+03  0.46928461807E+03  0.00000000000E+00 0. -1.
         22    1    1    2    0    0  0.56540626906E+03 -0.36996944962E+02 -0.24878853969E+04  0.25515929870E+04  0.00000000000E+00 0.  1.
<mgrwt>
<rscale>  0 0.32847755E+04</rscale>
<asrwt>0</asrwt>
<pdfrwt beam="1">  1        2 0.40027941E+00 0.32847755E+04</pdfrwt>
<pdfrwt beam="2">  1       -2 0.15950027E+00 0.32847755E+04</pdfrwt>
<totfact> 0.64476356E-01</totfact>
</mgrwt>
</event>
<event>
 6    1  0.1719556E-004  0.3647311E+04  0.7818608E-02  0.8079740E-01
          2   -1    0    0  501    0  0.00000000000E+00  0.00000000000E+00  0.18678049559E+04  0.18678049559E+04  0.00000000000E+00 0.  1.
         -2   -1    0    0    0  501 -0.00000000000E+00 -0.00000000000E+00 -0.17805496522E+04  0.17805496522E+04  0.00000000000E+00 0. -1.
         23    2    1    2    0    0  0.39816668075E+03  0.17719368462E+04 -0.10911122053E+03  0.18216480897E+04  0.90551707141E+02 0.  0.
         11    1    3    3    0    0  0.19323271603E+03  0.76283195131E+03 -0.86848513932E+02  0.79170331113E+03  0.00000000000E+00 0. -1.
        -11    1    3    3    0    0  0.20493396472E+03  0.10091048949E+04 -0.22262706595E+02  0.10299447786E+04  0.00000000000E+00 0.  1.
         22    1    1    2    0    0 -0.39816668075E+03 -0.17719368462E+04  0.19636652422E+03  0.18267065185E+04  0.00000000000E+00 0. -1.
<mgrwt>
<rscale>  0 0.36473110E+04</rscale>
<asrwt>0</asrwt>
<pdfrwt beam="1">  1        2 0.28735461E+00 0.36473110E+04</pdfrwt>
<pdfrwt beam="2">  1       -2 0.27393072E+00 0.36473110E+04</pdfrwt>
<totfact> 0.29462315E-01</totfact>
</mgrwt>
</event>
<event>
 6    1  0.1719556E-004  0.2052851E+04  0.7818608E-02  0.8582302E-01
         -2   -1    0    0    0  501 -0.00000000000E+00  0.00000000000E+00  0.50315813571E+03  0.50315813571E+03  0.00000000000E+00 0. -1.
          2   -1    0    0  501    0  0.00000000000E+00 -0.00000000000E+00 -0.20938730583E+04  0.20938730583E+04  0.00000000000E+00 0.  1.
         23    2    1    2    0    0  0.14656209871E+03  0.87367129398E+03 -0.14481716945E+04  0.16997572389E+04  0.84802333478E+02 0.  0.
         11    1    3    3    0    0  0.75015563559E+02  0.64505027404E+03 -0.10925180768E+04  0.12709496209E+04  0.00000000000E+00 0. -1.
        -11    1    3    3    0    0  0.71546535149E+02  0.22862101994E+03 -0.35565361773E+03  0.42880761800E+03  0.00000000000E+00 0.  1.
         22    1    1    2    0    0 -0.14656209871E+03 -0.87367129398E+03 -0.14254322814E+03  0.89727395515E+03  0.00000000000E+00 0. -1.
<mgrwt>
<rscale>  0 0.20528510E+04</rscale>
<asrwt>0</asrwt>
<pdfrwt beam="1">  1        2 0.32213432E+00 0.20528510E+04</pdfrwt>
<pdfrwt beam="2">  1       -2 0.77408943E-01 0.20528510E+04</pdfrwt>
<totfact> 0.81531051E+00</totfact>
</mgrwt>
</event>
<event>
 6    1  0.1719556E-004  0.2363501E+04  0.7818608E-02  0.8453296E-01
          1   -1    0    0  501    0  0.00000000000E+00  0.00000000000E+00  0.13303562908E+04  0.13303562908E+04  0.00000000000E+00 0.  1.
         -1   -1    0    0    0  501 -0.00000000000E+00 -0.00000000000E+00 -0.10497446906E+04  0.10497446906E+04  0.00000000000E+00 0. -1.
         23    2    1    2    0    0  0.71666560960E+02 -0.11260949842E+04 -0.20728359125E+03  0.11507646860E+04  0.89815732661E+02 0.  0.
         11    1    3    3    0    0  0.40264544747E+02 -0.62230964705E+03 -0.69091979415E+02  0.62742667460E+03  0.00000000000E+00 0. -1.
        -11    1    3    3    0    0  0.31402016213E+02 -0.50378533716E+03 -0.13819161183E+03  0.52333801137E+03  0.00000000000E+00 0.  1.
         22    1    1    2    0    0 -0.71666560960E+02  0.11260949842E+04  0.48789519147E+03  0.12293362954E+04  0.00000000000E+00 0.  1.
<mgrwt>
<rscale>  0 0.23635012E+04</rscale>
<asrwt>0</asrwt>
<pdfrwt beam="1">  1        1 0.20467020E+00 0.23635012E+04</pdfrwt>
<pdfrwt beam="2">  1       -1 0.16149918E+00 0.23635012E+04</pdfrwt>
<totfact> 0.22026128E+00</totfact>
</mgrwt>
</event>
<event>
 6    1  0.1719556E-004  0.2919806E+04  0.7818608E-02  0.8267009E-01
         -2   -1    0    0    0  501 -0.00000000000E+00  0.00000000000E+00  0.43744509829E+03  0.43744509829E+03  0.00000000000E+00 0. -1.
          2   -1    0    0  501    0  0.00000000000E+00 -0.00000000000E+00 -0.48721921458E+04  0.48721921458E+04  0.00000000000E+00 0.  1.
         23    2    1    2    0    0 -0.14408306057E+04 -0.16055516007E+03 -0.19310748389E+04  0.24165169006E+04  0.93451077086E+02 0.  0.
         11    1    3    3    0    0 -0.51089577152E+03 -0.60660782110E+02 -0.61230345601E+03  0.79975605161E+03  0.00000000000E+00 0.  1.
        -11    1    3    3    0    0 -0.92993483415E+03 -0.99894377957E+02 -0.13187713828E+04  0.16167608490E+04  0.00000000000E+00 0. -1.
         22    1    1    2    0    0  0.14408306057E+04  0.16055516007E+03 -0.25036722086E+04  0.28931203435E+04  0.00000000000E+00 0. -1.
<mgrwt>
<rscale>  0 0.29198059E+04</rscale>
<asrwt>0</asrwt>
<pdfrwt beam="1">  1        2 0.74956800E+00 0.29198059E+04</pdfrwt>
<pdfrwt beam="2">  1       -2 0.67299248E-01 0.29198059E+04</pdfrwt>
<totfact> 0.85803972E-02</totfact>
</mgrwt>
</event>
<event>
 6    1  0.1719556E-004  0.2894284E+04  0.7818608E-02  0.8274580E-01
          2   -1    0    0  501    0  0.00000000000E+00  0.00000000000E+00  0.11845354559E+04  0.11845354559E+04  0.00000000000E+00 0.  1.
         -2   -1    0    0    0  501 -0.00000000000E+00 -0.00000000000E+00 -0.17679670714E+04  0.17679670714E+04  0.00000000000E+00 0. -1.
         23    2    1    2    0    0  0.18057125213E+01 -0.57680311906E+03 -0.16443441265E+04  0.17449262545E+04  0.90525844899E+02 0.  0.
         13    1    3    3    0    0 -0.18962731450E+02 -0.48124620425E+03 -0.12774409833E+04  0.13652153531E+04  0.00000000000E+00 0.  1.
        -13    1    3    3    0    0  0.20768443972E+02 -0.95556914813E+02 -0.36690314312E+03  0.37971090143E+03  0.00000000000E+00 0. -1.
         22    1    1    2    0    0 -0.18057125213E+01  0.57680311906E+03  0.10609125110E+04  0.12075762728E+04  0.00000000000E+00 0.  1.
<mgrwt>
<rscale>  0 0.28942838E+04</rscale>
<asrwt>0</asrwt>
<pdfrwt beam="1">  1        2 0.18223622E+00 0.28942838E+04</pdfrwt>
<pdfrwt beam="2">  1       -2 0.27199493E+00 0.28942838E+04</pdfrwt>
<totfact> 0.78735875E-01</totfact>
</mgrwt>
</event>
<event>
 6    1  0.1719556E-004  0.3584639E+04  0.7818608E-02  0.8094019E-01
          3   -1    0    0  501    0  0.00000000000E+00  0.00000000000E+00  0.99855514559E+03  0.99855514559E+03  0.00000000000E+00 0.  1.
         -3   -1    0    0    0  501 -0.00000000000E+00 -0.00000000000E+00 -0.32170576285E+04  0.32170576285E+04  0.00000000000E+00 0. -1.
         23    2    1    2    0    0 -0.55399348014E+03 -0.67815415136E+03 -0.29474849436E+04  0.30762194017E+04  0.93040234537E+02 0.  0.
         11    1    3    3    0    0 -0.18795476412E+03 -0.18818029483E+03 -0.10145443129E+04  0.10488274307E+04  0.00000000000E+00 0. -1.
        -11    1    3    3    0    0 -0.36603871601E+03 -0.48997385652E+03 -0.19329406308E+04  0.20273919709E+04  0.00000000000E+00 0.  1.
         22    1    1    2    0    0  0.55399348014E+03  0.67815415136E+03  0.72898246073E+03  0.11393933724E+04  0.00000000000E+00 0.  1.
<mgrwt>
<rscale>  0 0.35846391E+04</rscale>
<asrwt>0</asrwt>
<pdfrwt beam="1">  1        3 0.15362387E+00 0.35846391E+04</pdfrwt>
<pdfrwt beam="2">  1       -3 0.49493194E+00 0.35846391E+04</pdfrwt>
<totfact> 0.20712305E-03</totfact>
</mgrwt>
</event>
<event>
 6    1  0.1719556E-004  0.1346160E+04  0.7818608E-02  0.8993740E-01
         -1   -1    0    0    0  501 -0.00000000000E+00  0.00000000000E+00  0.16835995558E+04  0.16835995558E+04  0.00000000000E+00 0. -1.
          1   -1    0    0  501    0  0.00000000000E+00 -0.00000000000E+00 -0.26908798679E+03  0.26908798679E+03  0.00000000000E+00 0.  1.
         23    2    1    2    0    0 -0.52896817619E+03  0.36659421843E+03  0.98067675269E+03  0.11765359464E+04  0.91166263044E+02 0.  0.
         13    1    3    3    0    0 -0.34791790817E+03  0.29189571828E+03  0.68738417494E+03  0.82386102295E+03  0.00000000000E+00 0. -1.
        -13    1    3    3    0    0 -0.18105026802E+03  0.74698500153E+02  0.29329257776E+03  0.35267492347E+03  0.00000000000E+00 0.  1.
         22    1    1    2    0    0  0.52896817619E+03 -0.36659421843E+03  0.43383481633E+03  0.77615159620E+03  0.00000000000E+00 0. -1.
<mgrwt>
<rscale>  0 0.13461596E+04</rscale>
<asrwt>0</asrwt>
<pdfrwt beam="1">  1        1 0.41398153E-01 0.13461596E+04</pdfrwt>
<pdfrwt beam="2">  1       -1 0.25901531E+00 0.13461596E+04</pdfrwt>
<totfact> 0.60344928E+00</totfact>
</mgrwt>
</event>
<event>
 6    1  0.1719556E-004  0.2341721E+04  0.7818608E-02  0.8461650E-01
         -1   -1    0    0    0  501 -0.00000000000E+00  0.00000000000E+00  0.16809529622E+04  0.16809529622E+04  0.00000000000E+00 0. -1.
          1   -1    0    0  501    0  0.00000000000E+00 -0.00000000000E+00 -0.81555806767E+03  0.81555806767E+03  0.00000000000E+00 0.  1.
         23    2    1    2    0    0 -0.58599286894E+02 -0.97382509552E+03  0.11201005238E+04  0.14882232979E+04  0.91728991412E+02 0.  0.
         11    1    3    3    0    0 -0.33602218730E+02 -0.34231580487E+03  0.45967234999E+03  0.57411487414E+03  0.00000000000E+00 0. -1.
        -11    1    3    3    0    0 -0.24997068164E+02 -0.63150929065E+03  0.66042817377E+03  0.91410842372E+03  0.00000000000E+00 0.  1.
         22    1    1    2    0    0  0.58599286894E+02  0.97382509552E+03 -0.25470562918E+03  0.10082877321E+04  0.00000000000E+00 0.  1.
<mgrwt>
<rscale>  0 0.23417214E+04</rscale>
<asrwt>0</asrwt>
<pdfrwt beam="1">  1        1 0.12547047E+00 0.23417214E+04</pdfrwt>
<pdfrwt beam="2">  1       -1 0.25860815E+00 0.23417214E+04</pdfrwt>
<totfact> 0.11825488E+00</totfact>
</mgrwt>
</event>
<event>
 6    1  0.1719556E-004  0.1456024E+04  0.7818608E-02  0.8914235E-01
         -1   -1    0    0    0  501 -0.00000000000E+00  0.00000000000E+00  0.52485517851E+03  0.52485517851E+03  0.00000000000E+00 0. -1.
          1   -1    0    0  501    0  0.00000000000E+00 -0.00000000000E+00 -0.10098058188E+04  0.10098058188E+04  0.00000000000E+00 0.  1.
         23    2    1    2    0    0  0.47450003830E+03  0.17034131753E+03 -0.79282274037E+03  0.94393967489E+03  0.91037142866E+02 0.  0.
         11    1    3    3    0    0  0.24928817290E+03  0.13226674768E+03 -0.39979414192E+03  0.48936125879E+03  0.00000000000E+00 0. -1.
        -11    1    3    3    0    0  0.22521186540E+03  0.38074569846E+02 -0.39302859845E+03  0.45457841610E+03  0.00000000000E+00 0.  1.
         22    1    1    2    0    0 -0.47450003830E+03 -0.17034131753E+03  0.30787210005E+03  0.59072132244E+03  0.00000000000E+00 0. -1.
<mgrwt>
<rscale>  0 0.14560245E+04</rscale>
<asrwt>0</asrwt>
<pdfrwt beam="1">  1        1 0.15535474E+00 0.14560245E+04</pdfrwt>
<pdfrwt beam="2">  1       -1 0.80746952E-01 0.14560245E+04</pdfrwt>
<totfact> 0.22074768E+01</totfact>
</mgrwt>
</event>
<event>
 6    1  0.1719556E-004  0.2382101E+04  0.7818608E-02  0.8446235E-01
         -1   -1    0    0    0  501 -0.00000000000E+00  0.00000000000E+00  0.18771077189E+04  0.18771077189E+04  0.00000000000E+00 0. -1.
          1   -1    0    0  501    0  0.00000000000E+00 -0.00000000000E+00 -0.75573757388E+03  0.75573757388E+03  0.00000000000E+00 0.  1.
         23    2    1    2    0    0 -0.18672633121E+03 -0.42882357307E+03 -0.64721969619E+03  0.80345566616E+03  0.88832948536E+02 0.  0.
         11    1    3    3    0    0 -0.16596554678E+02 -0.11297627772E+03 -0.19794315432E+03  0.22851822093E+03  0.00000000000E+00 0.  1.
        -11    1    3    3    0    0 -0.17012977653E+03 -0.31584729535E+03 -0.44927654187E+03  0.57493744522E+03  0.00000000000E+00 0. -1.
         22    1    1    2    0    0  0.18672633121E+03  0.42882357307E+03  0.17685898412E+04  0.18293896267E+04  0.00000000000E+00 0. -1.
<mgrwt>
<rscale>  0 0.23821006E+04</rscale>
<asrwt>0</asrwt>
<pdfrwt beam="1">  1        1 0.11626732E+00 0.23821006E+04</pdfrwt>
<pdfrwt beam="2">  1       -1 0.28878580E+00 0.23821006E+04</pdfrwt>
<totfact> 0.84813015E-01</totfact>
</mgrwt>
</event>
<event>
 6    1  0.1719556E-004  0.1376427E+04  0.7818608E-02  0.8971061E-01
          2   -1    0    0  501    0  0.00000000000E+00  0.00000000000E+00  0.30661383874E+04  0.30661383874E+04  0.00000000000E+00 0.  1.
         -2   -1    0    0    0  501 -0.00000000000E+00 -0.00000000000E+00 -0.15447381611E+03  0.15447381611E+03  0.00000000000E+00 0. -1.
         23    2    1    2    0    0  0.40712710755E+03  0.36439012438E+03  0.24299556854E+04  0.24922056582E+04  0.88722971338E+02 0.  0.
         13    1    3    3    0    0  0.21435055390E+03  0.13490853109E+03  0.11689481666E+04  0.11960711885E+04  0.00000000000E+00 0.  1.
        -13    1    3    3    0    0  0.19277655365E+03  0.22948159329E+03  0.12610075187E+04  0.12961344697E+04  0.00000000000E+00 0. -1.
         22    1    1    2    0    0 -0.40712710755E+03 -0.36439012438E+03  0.48170888595E+03  0.72840654531E+03  0.00000000000E+00 0. -1.
<mgrwt>
<rscale>  0 0.13764274E+04</rscale>
<asrwt>0</asrwt>
<pdfrwt beam="1">  1        2 0.47171355E+00 0.13764274E+04</pdfrwt>
<pdfrwt beam="2">  1       -2 0.23765205E-01 0.13764274E+04</pdfrwt>
<totfact> 0.24501676E+01</totfact>
</mgrwt>
</event>
<event>
 6    1  0.1719556E-004  0.2848566E+04  0.7818608E-02  0.8288347E-01
         -2   -1    0    0    0  501 -0.00000000000E+00  0.00000000000E+00  0.74831416533E+03  0.74831416533E+03  0.00000000000E+00 0. -1.
          2   -1    0    0  501    0  0.00000000000E+00 -0.00000000000E+00 -0.27108689747E+04  0.27108689747E+04  0.00000000000E+00 0.  1.
         23    2    1    2    0    0 -0.30273271482E+03 -0.10337232558E+04 -0.21111775513E+04  0.23718379393E+04  0.91179444656E+02 0.  0.
         13    1    3    3    0    0 -0.22794083208E+03 -0.69739248475E+03 -0.13557940856E+04  0.15415871378E+04  0.00000000000E+00 0.  1.
        -13    1    3    3    0    0 -0.74791882740E+02 -0.33633077101E+03 -0.75538346563E+03  0.83025080150E+03  0.00000000000E+00 0. -1.
         22    1    1    2    0    0  0.30273271482E+03  0.10337232558E+04  0.14862274193E+03  0.10873452007E+04  0.00000000000E+00 0. -1.
<mgrwt>
<rscale>  0 0.28485657E+04</rscale>
<asrwt>0</asrwt>
<pdfrwt beam="1">  1        2 0.41705677E+00 0.28485657E+04</pdfrwt>
<pdfrwt beam="2">  1       -2 0.11512526E+00 0.28485657E+04</pdfrwt>
<totfact> 0.13329664E+00</totfact>
</mgrwt>
</event>
<event>
 6    1  0.1719556E-004  0.1708547E+04  0.7818608E-02  0.8756505E-01
         -3   -1    0    0    0  501 -0.00000000000E+00  0.00000000000E+00  0.15678282865E+04  0.15678282865E+04  0.00000000000E+00 0.  1.
          3   -1    0    0  501    0  0.00000000000E+00 -0.00000000000E+00 -0.46547408831E+03  0.46547408831E+03  0.00000000000E+00 0. -1.
         23    2    1    2    0    0  0.16988618474E+03 -0.56648315734E+03  0.12823523276E+04  0.14151083843E+04  0.91322306918E+02 0.  0.
         11    1    3    3    0    0  0.13622802942E+03 -0.32832512092E+03  0.70133813649E+03  0.78627644167E+03  0.00000000000E+00 0.  1.
        -11    1    3    3    0    0  0.33658155314E+02 -0.23815803642E+03  0.58101419114E+03  0.62883194260E+03  0.00000000000E+00 0. -1.
         22    1    1    2    0    0 -0.16988618474E+03  0.56648315734E+03 -0.17999812945E+03  0.61819399053E+03  0.00000000000E+00 0. -1.
<mgrwt>
<rscale>  0 0.17085473E+04</rscale>
<asrwt>0</asrwt>
<pdfrwt beam="1">  1        3 0.71611399E-01 0.17085473E+04</pdfrwt>
<pdfrwt beam="2">  1       -3 0.24120435E+00 0.17085473E+04</pdfrwt>
<totfact> 0.38066618E-01</totfact>
</mgrwt>
</event>
<event>
 6    1  0.1719556E-004  0.2318060E+04  0.7818608E-02  0.8470834E-01
          1   -1    0    0  501    0  0.00000000000E+00  0.00000000000E+00  0.24110462901E+04  0.24110462901E+04  0.00000000000E+00 0.  1.
         -1   -1    0    0    0  501 -0.00000000000E+00 -0.00000000000E+00 -0.55716491805E+03  0.55716491805E+03  0.00000000000E+00 0. -1.
         23    2    1    2    0    0  0.95743489978E+03 -0.63871061511E+03  0.10868149213E+04  0.15850901805E+04  0.81922952117E+02 0.  0.
         13    1    3    3    0    0  0.71753023627E+03 -0.43840600137E+03  0.77257282608E+03  0.11418923914E+04  0.00000000000E+00 0. -1.
        -13    1    3    3    0    0  0.23990466351E+03 -0.20030461374E+03  0.31424209521E+03  0.44319778910E+03  0.00000000000E+00 0.  1.
         22    1    1    2    0    0 -0.95743489978E+03  0.63871061511E+03  0.76706645074E+03  0.13831210276E+04  0.00000000000E+00 0.  1.
<mgrwt>
<rscale>  0 0.23180599E+04</rscale>
<asrwt>0</asrwt>
<pdfrwt beam="1">  1        1 0.37093019E+00 0.23180599E+04</pdfrwt>
<pdfrwt beam="2">  1       -1 0.85717681E-01 0.23180599E+04</pdfrwt>
<totfact> 0.18935385E+00</totfact>
</mgrwt>
</event>
<event>
 6    1  0.1719556E-004  0.3054874E+04  0.7818608E-02  0.8228233E-01
          2   -1    0    0  501    0  0.00000000000E+00  0.00000000000E+00  0.18477859272E+04  0.18477859272E+04  0.00000000000E+00 0.  1.
         -2   -1    0    0    0  501 -0.00000000000E+00 -0.00000000000E+00 -0.12626265567E+04  0.12626265567E+04  0.00000000000E+00 0. -1.
         23    2    1    2    0    0 -0.32656078942E+03  0.56673628758E+03 -0.11110175011E+04  0.12924884073E+04  0.91293080834E+02 0.  0.
         11    1    3    3    0    0 -0.26523077202E+03  0.38664840569E+03 -0.82627739550E+03  0.95004141298E+03  0.00000000000E+00 0. -1.
        -11    1    3    3    0    0 -0.61330017395E+02  0.18008788190E+03 -0.28474010555E+03  0.34244699436E+03  0.00000000000E+00 0.  1.
         22    1    1    2    0    0  0.32656078942E+03 -0.56673628758E+03  0.16961768715E+04  0.18179240766E+04  0.00000000000E+00 0.  1.
<mgrwt>
<rscale>  0 0.30548739E+04</rscale>
<asrwt>0</asrwt>
<pdfrwt beam="1">  1        2 0.28427476E+00 0.30548739E+04</pdfrwt>
<pdfrwt beam="2">  1       -2 0.19425024E+00 0.30548739E+04</pdfrwt>
<totfact> 0.10043742E+00</totfact>
</mgrwt>
</event>
<event>
 6    1  0.1719556E-004  0.4191499E+04  0.7818608E-02  0.7966991E-01
          2   -1    0    0  501    0  0.00000000000E+00  0.00000000000E+00  0.18596642077E+04  0.18596642077E+04  0.00000000000E+00 0.  1.
         -2   -1    0    0    0  501 -0.00000000000E+00 -0.00000000000E+00 -0.23618054356E+04  0.23618054356E+04  0.00000000000E+00 0. -1.
         23    2    1    2    0    0 -0.11170481452E+03  0.14782481475E+04 -0.17416996907E+04  0.22890616289E+04  0.92681051709E+02 0.  0.
         13    1    3    3    0    0 -0.34479614921E+02  0.41736530608E+03 -0.42930960997E+03  0.59974109728E+03  0.00000000000E+00 0.  1.
        -13    1    3    3    0    0 -0.77225199601E+02  0.10608828414E+04 -0.13123900808E+04  0.16893205317E+04  0.00000000000E+00 0. -1.
         22    1    1    2    0    0  0.11170481452E+03 -0.14782481475E+04  0.12395584628E+04  0.19324080143E+04  0.00000000000E+00 0.  1.
<mgrwt>
<rscale>  0 0.41914986E+04</rscale>
<asrwt>0</asrwt>
<pdfrwt beam="1">  1        2 0.28610219E+00 0.41914986E+04</pdfrwt>
<pdfrwt beam="2">  1       -2 0.36335468E+00 0.41914986E+04</pdfrwt>
<totfact> 0.79493478E-02</totfact>
</mgrwt>
</event>
<event>
 6    1  0.1719556E-004  0.2610659E+04  0.7818608E-02  0.8364590E-01
         -2   -1    0    0    0  501 -0.00000000000E+00  0.00000000000E+00  0.18599557348E+04  0.18599557348E+04  0.00000000000E+00 0.  1.
          2   -1    0    0  501    0  0.00000000000E+00 -0.00000000000E+00 -0.91608882512E+03  0.91608882512E+03  0.00000000000E+00 0. -1.
         23    2    1    2    0    0  0.69146101705E+03  0.10931483940E+04  0.64757903881E+03  0.14490636814E+04  0.85645734369E+02 0.  0.
         11    1    3    3    0    0  0.48278431900E+03  0.80418243963E+03  0.43374134017E+03  0.10334029442E+04  0.00000000000E+00 0. -1.
        -11    1    3    3    0    0  0.20867669805E+03  0.28896595438E+03  0.21383769864E+03  0.41566073721E+03  0.00000000000E+00 0.  1.
         22    1    1    2    0    0 -0.69146101705E+03 -0.10931483940E+04  0.29628787083E+03  0.13269808785E+04  0.00000000000E+00 0. -1.
<mgrwt>
<rscale>  0 0.26106587E+04</rscale>
<asrwt>0</asrwt>
<pdfrwt beam="1">  1        2 0.14093674E+00 0.26106587E+04</pdfrwt>
<pdfrwt beam="2">  1       -2 0.28614703E+00 0.26106587E+04</pdfrwt>
<totfact> 0.97630217E-01</totfact>
</mgrwt>
</event>
<event>
 6    1  0.1719556E-004  0.1600913E+04  0.7818608E-02  0.8819987E-01
         -2   -1    0    0    0  501 -0.00000000000E+00  0.00000000000E+00  0.52153325381E+03  0.52153325381E+03  0.00000000000E+00 0. -1.
          2   -1    0    0  501    0  0.00000000000E+00 -0.00000000000E+00 -0.12285516077E+04  0.12285516077E+04  0.00000000000E+00 0.  1.
         23    2    1    2    0    0  0.54630101708E+02  0.23765508845E+03 -0.11851799967E+04  0.12133326415E+04  0.89777976875E+02 0.  0.
         11    1    3    3    0    0  0.10334503683E+02  0.28385127499E+02 -0.51977436861E+02  0.60117978776E+02  0.00000000000E+00 0. -1.
        -11    1    3    3    0    0  0.44295598025E+02  0.20926996095E+03 -0.11332025599E+04  0.11532146627E+04  0.00000000000E+00 0.  1.
         22    1    1    2    0    0 -0.54630101708E+02 -0.23765508845E+03  0.47816164281E+03  0.53675222006E+03  0.00000000000E+00 0. -1.
<mgrwt>
<rscale>  0 0.16009129E+04</rscale>
<asrwt>0</asrwt>
<pdfrwt beam="1">  1        2 0.18900794E+00 0.16009129E+04</pdfrwt>
<pdfrwt beam="2">  1       -2 0.80235886E-01 0.16009129E+04</pdfrwt>
<totfact> 0.23983154E+01</totfact>
</mgrwt>
</event>
<event>
 6    1  0.1719556E-004  0.5485336E+04  0.7818608E-02  0.7757710E-01
          2   -1    0    0  501    0  0.00000000000E+00  0.00000000000E+00  0.19239495189E+04  0.19239495189E+04  0.00000000000E+00 0.  1.
         -2   -1    0    0    0  501 -0.00000000000E+00 -0.00000000000E+00 -0.39097843973E+04  0.39097843973E+04  0.00000000000E+00 0. -1.
         23    2    1    2    0    0 -0.16512410693E+04  0.21833099132E+04 -0.11608852045E+04  0.29747163907E+04  0.88565799419E+02 0.  0.
         11    1    3    3    0    0 -0.10265386249E+04  0.13433359299E+04 -0.67098220532E+03  0.18189420246E+04  0.00000000000E+00 0.  1.
        -11    1    3    3    0    0 -0.62470244446E+03  0.83997398334E+03 -0.48990299920E+03  0.11557743661E+04  0.00000000000E+00 0. -1.
         22    1    1    2    0    0  0.16512410693E+04 -0.21833099132E+04 -0.82494967386E+03  0.28590175254E+04  0.00000000000E+00 0.  1.
<mgrwt>
<rscale>  0 0.54853360E+04</rscale>
<asrwt>0</asrwt>
<pdfrwt beam="1">  1        2 0.29599224E+00 0.54853360E+04</pdfrwt>
<pdfrwt beam="2">  1       -2 0.60150528E+00 0.54853360E+04</pdfrwt>
<totfact> 0.26250888E-03</totfact>
</mgrwt>
</event>
<event>
 6    1  0.1719556E-004  0.3680541E+04  0.7818608E-02  0.8072288E-01
         -2   -1    0    0    0  501 -0.00000000000E+00  0.00000000000E+00  0.17456598666E+04  0.17456598666E+04  0.00000000000E+00 0. -1.
          2   -1    0    0  501    0  0.00000000000E+00 -0.00000000000E+00 -0.19400084644E+04  0.19400084644E+04  0.00000000000E+00 0.  1.
         23    2    1    2    0    0 -0.87414974060E+03 -0.14669393197E+04  0.58670939304E+03  0.18078769897E+04  0.90236140981E+02 0.  0.
         13    1    3    3    0    0 -0.13968068652E+03 -0.28103505322E+03  0.13500871748E+03  0.34164125793E+03  0.00000000000E+00 0. -1.
        -13    1    3    3    0    0 -0.73446905408E+03 -0.11859042665E+04  0.45170067555E+03  0.14662357317E+04  0.00000000000E+00 0.  1.
         22    1    1    2    0    0  0.87414974060E+03  0.14669393197E+04 -0.78105799080E+03  0.18777913414E+04  0.00000000000E+00 0.  1.
<mgrwt>
<rscale>  0 0.36805407E+04</rscale>
<asrwt>0</asrwt>
<pdfrwt beam="1">  1        2 0.29846284E+00 0.36805407E+04</pdfrwt>
<pdfrwt beam="2">  1       -2 0.26856306E+00 0.36805407E+04</pdfrwt>
<totfact> 0.28892256E-01</totfact>
</mgrwt>
</event>
<event>
 6    1  0.1719556E-004  0.1144320E+04  0.7818608E-02  0.9163039E-01
         -2   -1    0    0    0  501 -0.00000000000E+00  0.00000000000E+00  0.15261062948E+03  0.15261062948E+03  0.00000000000E+00 0. -1.
          2   -1    0    0  501    0  0.00000000000E+00 -0.00000000000E+00 -0.21451139664E+04  0.21451139664E+04  0.00000000000E+00 0.  1.
         23    2    1    2    0    0  0.28862244849E+03 -0.41437508808E+03 -0.15269131787E+04  0.16108593785E+04  0.91621234695E+02 0.  0.
         11    1    3    3    0    0  0.18304012303E+03 -0.18335868554E+03 -0.79019097875E+03  0.83158034915E+03  0.00000000000E+00 0.  1.
        -11    1    3    3    0    0  0.10558232546E+03 -0.23101640254E+03 -0.73672219998E+03  0.77927902938E+03  0.00000000000E+00 0. -1.
         22    1    1    2    0    0 -0.28862244849E+03  0.41437508808E+03 -0.46559015816E+03  0.68686521732E+03  0.00000000000E+00 0. -1.
<mgrwt>
<rscale>  0 0.11443202E+04</rscale>
<asrwt>0</asrwt>
<pdfrwt beam="1">  1        2 0.33001752E+00 0.11443202E+04</pdfrwt>
<pdfrwt beam="2">  1       -2 0.23478559E-01 0.11443202E+04</pdfrwt>
<totfact> 0.88493229E+01</totfact>
</mgrwt>
</event>
<event>
 6    1  0.1719556E-004  0.2512124E+04  0.7818608E-02  0.8398679E-01
          1   -1    0    0  501    0  0.00000000000E+00  0.00000000000E+00  0.13399836561E+04  0.13399836561E+04  0.00000000000E+00 0. -1.
         -1   -1    0    0    0  501 -0.00000000000E+00 -0.00000000000E+00 -0.11773964406E+04  0.11773964406E+04  0.00000000000E+00 0.  1.
         23    2    1    2    0    0  0.39473275075E+03  0.72117307299E+03 -0.86614013933E+03  0.12004956993E+04  0.12282767322E+03 0.  0.
         11    1    3    3    0    0  0.18194784884E+03  0.35846918368E+03 -0.33671551976E+03  0.52438775405E+03  0.00000000000E+00 0. -1.
        -11    1    3    3    0    0  0.21278490191E+03  0.36270388931E+03 -0.52942461957E+03  0.67610794523E+03  0.00000000000E+00 0.  1.
         22    1    1    2    0    0 -0.39473275075E+03 -0.72117307299E+03  0.10287273548E+04  0.13168843975E+04  0.00000000000E+00 0. -1.
<mgrwt>
<rscale>  0 0.25121242E+04</rscale>
<asrwt>0</asrwt>
<pdfrwt beam="1">  1        1 0.20615133E+00 0.25121242E+04</pdfrwt>
<pdfrwt beam="2">  1       -1 0.18113791E+00 0.25121242E+04</pdfrwt>
<totfact> 0.15354510E+00</totfact>
</mgrwt>
</event>
<event>
 6    1  0.1719556E-004  0.1439682E+04  0.7818608E-02  0.8925585E-01
         -1   -1    0    0    0  501 -0.00000000000E+00  0.00000000000E+00  0.10025436094E+04  0.10025436094E+04  0.00000000000E+00 0. -1.
          1   -1    0    0  501    0  0.00000000000E+00 -0.00000000000E+00 -0.51685629019E+03  0.51685629019E+03  0.00000000000E+00 0.  1.
         23    2    1    2    0    0  0.63995158868E+03  0.14670450752E+03  0.54741989104E+03  0.85995228318E+03  0.93750433870E+02 0.  0.
         11    1    3    3    0    0  0.38697520413E+03  0.93793633018E+02  0.27173665519E+03  0.48206624439E+03  0.00000000000E+00 0.  1.
        -11    1    3    3    0    0  0.25297638455E+03  0.52910874506E+02  0.27568323585E+03  0.37788603879E+03  0.00000000000E+00 0. -1.
         22    1    1    2    0    0 -0.63995158868E+03 -0.14670450752E+03 -0.61732571824E+02  0.65944761643E+03  0.00000000000E+00 0.  1.
<mgrwt>
<rscale>  0 0.14396819E+04</rscale>
<asrwt>0</asrwt>
<pdfrwt beam="1">  1        1 0.79516353E-01 0.14396819E+04</pdfrwt>
<pdfrwt beam="2">  1       -1 0.15423748E+00 0.14396819E+04</pdfrwt>
<totfact> 0.13309006E+01</totfact>
</mgrwt>
</event>
<event>
 6    1  0.1719556E-004  0.1871729E+04  0.7818608E-02  0.8669058E-01
          1   -1    0    0  501    0  0.00000000000E+00  0.00000000000E+00  0.10835330867E+04  0.10835330867E+04  0.00000000000E+00 0. -1.
         -1   -1    0    0    0  501 -0.00000000000E+00 -0.00000000000E+00 -0.80832070159E+03  0.80832070159E+03  0.00000000000E+00 0.  1.
         23    2    1    2    0    0  0.47717204168E+03  0.64512674939E+03 -0.34445878267E+03  0.87801255994E+03  0.91501488132E+02 0.  0.
         11    1    3    3    0    0  0.41505527146E+03  0.59856737522E+03 -0.32710117207E+03  0.79846662912E+03  0.00000000000E+00 0.  1.
        -11    1    3    3    0    0  0.62116770223E+02  0.46559374161E+02 -0.17357610596E+02  0.79545930825E+02  0.00000000000E+00 0. -1.
         22    1    1    2    0    0 -0.47717204168E+03 -0.64512674939E+03  0.61967116780E+03  0.10138412284E+04  0.00000000000E+00 0. -1.
<mgrwt>
<rscale>  0 0.18717289E+04</rscale>
<asrwt>0</asrwt>
<pdfrwt beam="1">  1        1 0.16669740E+00 0.18717289E+04</pdfrwt>
<pdfrwt beam="2">  1       -1 0.12435703E+00 0.18717289E+04</pdfrwt>
<totfact> 0.69375393E+00</totfact>
</mgrwt>
</event>
<event>
 6    1  0.1719556E-004  0.1351370E+04  0.7818608E-02  0.8989792E-01
          2   -1    0    0  501    0  0.00000000000E+00  0.00000000000E+00  0.96065359960E+03  0.96065359960E+03  0.00000000000E+00 0.  1.
         -2   -1    0    0    0  501 -0.00000000000E+00 -0.00000000000E+00 -0.47524922819E+03  0.47524922819E+03  0.00000000000E+00 0. -1.
         23    2    1    2    0    0 -0.29360955475E+03 -0.11969179774E+03  0.87394353450E+03  0.93440967893E+03  0.93869321385E+02 0.  0.
         13    1    3    3    0    0 -0.23493738874E+03 -0.13058223008E+03  0.75322985876E+03  0.79975153364E+03  0.00000000000E+00 0. -1.
        -13    1    3    3    0    0 -0.58672166017E+02  0.10890432337E+02  0.12071367574E+03  0.13465814529E+03  0.00000000000E+00 0.  1.
         22    1    1    2    0    0  0.29360955475E+03  0.11969179774E+03 -0.38853916309E+03  0.50149314885E+03  0.00000000000E+00 0. -1.
<mgrwt>
<rscale>  0 0.13513695E+04</rscale>
<asrwt>0</asrwt>
<pdfrwt beam="1">  1        2 0.14779286E+00 0.13513695E+04</pdfrwt>
<pdfrwt beam="2">  1       -2 0.73115266E-01 0.13513695E+04</pdfrwt>
<totfact> 0.44091665E+01</totfact>
</mgrwt>
</event>
<event>
 6    1  0.1719556E-004  0.3879310E+04  0.7818608E-02  0.8029346E-01
          2   -1    0    0  501    0  0.00000000000E+00  0.00000000000E+00  0.30562865823E+04  0.30562865823E+04  0.00000000000E+00 0.  1.
         -2   -1    0    0    0  501 -0.00000000000E+00 -0.00000000000E+00 -0.12309912544E+04  0.12309912544E+04  0.00000000000E+00 0. -1.
         23    2    1    2    0    0 -0.10439141087E+04  0.63115167556E+03 -0.75200845973E+03  0.14358564513E+04  0.89765924935E+02 0.  0.
         11    1    3    3    0    0 -0.50220209808E+03  0.26708951466E+03 -0.31263687969E+03  0.64906515444E+03  0.00000000000E+00 0. -1.
        -11    1    3    3    0    0 -0.54171201059E+03  0.36406216090E+03 -0.43937158004E+03  0.78679129683E+03  0.00000000000E+00 0.  1.
         22    1    1    2    0    0  0.10439141087E+04 -0.63115167556E+03  0.25773037876E+04  0.28514213855E+04  0.00000000000E+00 0.  1.
<mgrwt>
<rscale>  0 0.38793103E+04</rscale>
<asrwt>0</asrwt>
<pdfrwt beam="1">  1        2 0.47019793E+00 0.38793103E+04</pdfrwt>
<pdfrwt beam="2">  1       -2 0.18938327E+00 0.38793103E+04</pdfrwt>
<totfact> 0.19987115E-01</totfact>
</mgrwt>
</event>
<event>
 6    1  0.1719556E-004  0.1253144E+04  0.7818608E-02  0.9067570E-01
          2   -1    0    0  501    0  0.00000000000E+00  0.00000000000E+00  0.28408718325E+04  0.28408718325E+04  0.00000000000E+00 0.  1.
         -2   -1    0    0    0  501 -0.00000000000E+00 -0.00000000000E+00 -0.13819446590E+03  0.13819446590E+03  0.00000000000E+00 0. -1.
         23    2    1    2    0    0  0.25782074178E+03 -0.41900566038E+03  0.22663803550E+04  0.23215008182E+04  0.10415784796E+03 0.  0.
         13    1    3    3    0    0  0.57422562013E+02 -0.18904763200E+03  0.85357594364E+03  0.87614396611E+03  0.00000000000E+00 0.  1.
        -13    1    3    3    0    0  0.20039817977E+03 -0.22995802838E+03  0.14128044114E+04  0.14453568521E+04  0.00000000000E+00 0. -1.
         22    1    1    2    0    0 -0.25782074178E+03  0.41900566038E+03  0.43629701157E+03  0.65756548011E+03  0.00000000000E+00 0. -1.
<mgrwt>
<rscale>  0 0.12531445E+04</rscale>
<asrwt>0</asrwt>
<pdfrwt beam="1">  1        2 0.43705716E+00 0.12531445E+04</pdfrwt>
<pdfrwt beam="2">  1       -2 0.21260689E-01 0.12531445E+04</pdfrwt>
<totfact> 0.41620629E+01</totfact>
</mgrwt>
</event>
<event>
 6    1  0.1719556E-004  0.2977715E+04  0.7818608E-02  0.8250123E-01
         -1   -1    0    0    0  501 -0.00000000000E+00  0.00000000000E+00  0.16433775071E+04  0.16433775071E+04  0.00000000000E+00 0. -1.
          1   -1    0    0  501    0  0.00000000000E+00 -0.00000000000E+00 -0.13488664460E+04  0.13488664460E+04  0.00000000000E+00 0.  1.
         23    2    1    2    0    0 -0.53612451752E+02  0.77003847665E+03 -0.11303047829E+04  0.13717706457E+04  0.91281168006E+02 0.  0.
         11    1    3    3    0    0 -0.60032747297E+02  0.29135621918E+03 -0.46868360314E+03  0.55511863332E+03  0.00000000000E+00 0. -1.
        -11    1    3    3    0    0  0.64202955453E+01  0.47868225747E+03 -0.66162117979E+03  0.81665201240E+03  0.00000000000E+00 0.  1.
         22    1    1    2    0    0  0.53612451752E+02 -0.77003847665E+03  0.14248158441E+04  0.16204733074E+04  0.00000000000E+00 0. -1.
<mgrwt>
<rscale>  0 0.29777151E+04</rscale>
<asrwt>0</asrwt>
<pdfrwt beam="1">  1        1 0.20751791E+00 0.29777151E+04</pdfrwt>
<pdfrwt beam="2">  1       -1 0.25282731E+00 0.29777151E+04</pdfrwt>
<totfact> 0.47565007E-01</totfact>
</mgrwt>
</event>
<event>
 6    1  0.1719556E-004  0.2415567E+04  0.7818608E-02  0.8433698E-01
         -1   -1    0    0    0  501 -0.00000000000E+00  0.00000000000E+00  0.23966961584E+04  0.23966961584E+04  0.00000000000E+00 0. -1.
          1   -1    0    0  501    0  0.00000000000E+00 -0.00000000000E+00 -0.60864670090E+03  0.60864670090E+03  0.00000000000E+00 0.  1.
         23    2    1    2    0    0  0.70804889153E+03  0.93593572474E+03  0.12420214406E+04  0.17109489822E+04  0.86140857571E+02 0.  0.
         13    1    3    3    0    0  0.40231917516E+03  0.46049645729E+03  0.64379481815E+03  0.88791298772E+03  0.00000000000E+00 0. -1.
        -13    1    3    3    0    0  0.30572971636E+03  0.47543926745E+03  0.59822662244E+03  0.82303599453E+03  0.00000000000E+00 0.  1.
         22    1    1    2    0    0 -0.70804889153E+03 -0.93593572474E+03  0.54602801686E+03  0.12943938770E+04  0.00000000000E+00 0. -1.
<mgrwt>
<rscale>  0 0.24155672E+04</rscale>
<asrwt>0</asrwt>
<pdfrwt beam="1">  1        1 0.93637955E-01 0.24155672E+04</pdfrwt>
<pdfrwt beam="2">  1       -1 0.36872248E+00 0.24155672E+04</pdfrwt>
<totfact> 0.35000454E-01</totfact>
</mgrwt>
</event>
<event>
 6    1  0.1719556E-004  0.4095793E+04  0.7818608E-02  0.7985496E-01
          2   -1    0    0  501    0  0.00000000000E+00  0.00000000000E+00  0.25562756186E+04  0.25562756186E+04  0.00000000000E+00 0.  1.
         -2   -1    0    0    0  501 -0.00000000000E+00 -0.00000000000E+00 -0.16406211532E+04  0.16406211532E+04  0.00000000000E+00 0. -1.
         23    2    1    2    0    0  0.19199146016E+04 -0.62202515469E+03  0.80794595193E+03  0.21758602817E+04  0.92757392237E+02 0.  0.
         13    1    3    3    0    0  0.88477568507E+03 -0.27748125621E+03  0.32238152119E+03  0.98170958315E+03  0.00000000000E+00 0. -1.
        -13    1    3    3    0    0  0.10351389165E+04 -0.34454389848E+03  0.48556443075E+03  0.11941506985E+04  0.00000000000E+00 0.  1.
         22    1    1    2    0    0 -0.19199146016E+04  0.62202515469E+03  0.10770851344E+03  0.20210364901E+04  0.00000000000E+00 0.  1.
<mgrwt>
<rscale>  0 0.40957929E+04</rscale>
<asrwt>0</asrwt>
<pdfrwt beam="1">  1        2 0.39327317E+00 0.40957929E+04</pdfrwt>
<pdfrwt beam="2">  1       -2 0.25240325E+00 0.40957929E+04</pdfrwt>
<totfact> 0.15695452E-01</totfact>
</mgrwt>
</event>
<event>
 6    1  0.1719556E-004  0.3902538E+04  0.7818608E-02  0.8024502E-01
          2   -1    0    0  501    0  0.00000000000E+00  0.00000000000E+00  0.30378365225E+04  0.30378365225E+04  0.00000000000E+00 0.  1.
         -2   -1    0    0    0  501 -0.00000000000E+00 -0.00000000000E+00 -0.12533429731E+04  0.12533429731E+04  0.00000000000E+00 0. -1.
         23    2    1    2    0    0  0.11693029265E+04  0.37778654985E+03 -0.77238402935E+03  0.14543476423E+04  0.92509267867E+02 0.  0.
         11    1    3    3    0    0  0.92530230623E+03  0.32198790245E+03 -0.64992912987E+03  0.11756991286E+04  0.00000000000E+00 0.  1.
        -11    1    3    3    0    0  0.24400062031E+03  0.55798647398E+02 -0.12245489948E+03  0.27864851367E+03  0.00000000000E+00 0. -1.
         22    1    1    2    0    0 -0.11693029265E+04 -0.37778654985E+03  0.25568775787E+04  0.28368318533E+04  0.00000000000E+00 0.  1.
<mgrwt>
<rscale>  0 0.39025382E+04</rscale>
<asrwt>0</asrwt>
<pdfrwt beam="1">  1        2 0.46735946E+00 0.39025382E+04</pdfrwt>
<pdfrwt beam="2">  1       -2 0.19282200E+00 0.39025382E+04</pdfrwt>
<totfact> 0.19434466E-01</totfact>
</mgrwt>
</event>
<event>
 6    1  0.1719556E-004  0.3027190E+04  0.7818608E-02  0.8236009E-01
          2   -1    0    0  501    0  0.00000000000E+00  0.00000000000E+00  0.30704340297E+04  0.30704340297E+04  0.00000000000E+00 0.  1.
         -2   -1    0    0    0  501 -0.00000000000E+00 -0.00000000000E+00 -0.74613882219E+03  0.74613882219E+03  0.00000000000E+00 0. -1.
         23    2    1    2    0    0 -0.11441082773E+04 -0.19058045327E+03 -0.59729927124E+02  0.11653692570E+04  0.95985319706E+02 0.  0.
         11    1    3    3    0    0 -0.24456375588E+03 -0.80333372541E+02 -0.56428304439E+01  0.25748150024E+03  0.00000000000E+00 0.  1.
        -11    1    3    3    0    0 -0.89954452139E+03 -0.11024708073E+03 -0.54087096680E+02  0.90788775672E+03  0.00000000000E+00 0. -1.
         22    1    1    2    0    0  0.11441082773E+04  0.19058045327E+03  0.23840251347E+04  0.26512035950E+04  0.00000000000E+00 0.  1.
<mgrwt>
<rscale>  0 0.30271901E+04</rscale>
<asrwt>0</asrwt>
<pdfrwt beam="1">  1        2 0.47237446E+00 0.30271901E+04</pdfrwt>
<pdfrwt beam="2">  1       -2 0.11479059E+00 0.30271901E+04</pdfrwt>
<totfact> 0.79451224E-01</totfact>
</mgrwt>
</event>
<event>
 6    1  0.1719556E-004  0.1068320E+04  0.7818608E-02  0.9236632E-01
         -3   -1    0    0    0  501 -0.00000000000E+00  0.00000000000E+00  0.10096350704E+04  0.10096350704E+04  0.00000000000E+00 0. -1.
          3   -1    0    0  501    0  0.00000000000E+00 -0.00000000000E+00 -0.28260384464E+03  0.28260384464E+03  0.00000000000E+00 0.  1.
         23    2    1    2    0    0  0.33048455041E+03 -0.14654474314E+02 -0.13512059385E+03  0.36879939253E+03  0.91217461991E+02 0.  0.
         11    1    3    3    0    0  0.10385670707E+03 -0.44687910630E+02 -0.61034457666E+02  0.12848513526E+03  0.00000000000E+00 0. -1.
        -11    1    3    3    0    0  0.22662784334E+03  0.30033436316E+02 -0.74086136182E+02  0.24031425727E+03  0.00000000000E+00 0.  1.
         22    1    1    2    0    0 -0.33048455041E+03  0.14654474314E+02  0.86215181957E+03  0.92343952247E+03  0.00000000000E+00 0. -1.
<mgrwt>
<rscale>  0 0.10683197E+04</rscale>
<asrwt>0</asrwt>
<pdfrwt beam="1">  1        3 0.43477515E-01 0.10683197E+04</pdfrwt>
<pdfrwt beam="2">  1       -3 0.15532847E+00 0.10683197E+04</pdfrwt>
<totfact> 0.40420852E+00</totfact>
</mgrwt>
</event>
<event>
 6    1  0.1719556E-004  0.3506811E+04  0.7818608E-02  0.8112178E-01
         -2   -1    0    0    0  501 -0.00000000000E+00  0.00000000000E+00  0.25763477869E+04  0.25763477869E+04  0.00000000000E+00 0. -1.
          2   -1    0    0  501    0  0.00000000000E+00 -0.00000000000E+00 -0.11933289127E+04  0.11933289127E+04  0.00000000000E+00 0.  1.
         23    2    1    2    0    0  0.14976149300E+04 -0.87915099912E+03  0.44126623980E+03  0.17941628470E+04  0.92452524987E+02 0.  0.
         11    1    3    3    0    0  0.10944223264E+04 -0.63969461386E+03  0.36411596287E+03  0.13189199604E+04  0.00000000000E+00 0. -1.
        -11    1    3    3    0    0  0.40319260361E+03 -0.23945638526E+03  0.77150276935E+02  0.47524288661E+03  0.00000000000E+00 0.  1.
         22    1    1    2    0    0 -0.14976149300E+04  0.87915099912E+03  0.94175263437E+03  0.19755138527E+04  0.00000000000E+00 0.  1.
<mgrwt>
<rscale>  0 0.35068107E+04</rscale>
<asrwt>0</asrwt>
<pdfrwt beam="1">  1        2 0.18358906E+00 0.35068107E+04</pdfrwt>
<pdfrwt beam="2">  1       -2 0.39636120E+00 0.35068107E+04</pdfrwt>
<totfact> 0.12298129E-01</totfact>
</mgrwt>
</event>
<event>
 6    1  0.1719556E-004  0.3512743E+04  0.7818608E-02  0.8110777E-01
          2   -1    0    0  501    0  0.00000000000E+00  0.00000000000E+00  0.13854121897E+04  0.13854121897E+04  0.00000000000E+00 0.  1.
         -2   -1    0    0    0  501 -0.00000000000E+00 -0.00000000000E+00 -0.22266589909E+04  0.22266589909E+04  0.00000000000E+00 0. -1.
         23    2    1    2    0    0  0.37621833007E+03 -0.17144141765E+04 -0.42239910427E+03  0.18075796750E+04  0.90371886265E+02 0.  0.
         11    1    3    3    0    0  0.36644191433E+03 -0.15830498556E+04 -0.40577337428E+03  0.16748070197E+04  0.00000000000E+00 0.  1.
        -11    1    3    3    0    0  0.97764157325E+01 -0.13136432093E+03 -0.16625729983E+02  0.13277265537E+03  0.00000000000E+00 0. -1.
         22    1    1    2    0    0 -0.37621833007E+03  0.17144141765E+04 -0.41884769697E+03  0.18044915056E+04  0.00000000000E+00 0. -1.
<mgrwt>
<rscale>  0 0.35127428E+04</rscale>
<asrwt>0</asrwt>
<pdfrwt beam="1">  1        2 0.21314034E+00 0.35127428E+04</pdfrwt>
<pdfrwt beam="2">  1       -2 0.34256291E+00 0.35127428E+04</pdfrwt>
<totfact> 0.20975410E-01</totfact>
</mgrwt>
</event>
<event>
 6    1  0.1719556E-004  0.1428990E+04  0.7818608E-02  0.8933098E-01
         -2   -1    0    0    0  501 -0.00000000000E+00  0.00000000000E+00  0.89325836012E+03  0.89325836012E+03  0.00000000000E+00 0.  1.
          2   -1    0    0  501    0  0.00000000000E+00 -0.00000000000E+00 -0.57150630728E+03  0.57150630728E+03  0.00000000000E+00 0. -1.
         23    2    1    2    0    0  0.63526617871E+03  0.28765813497E+03  0.30644092855E+03  0.76723706870E+03  0.91849640482E+02 0.  0.
         11    1    3    3    0    0  0.25269818437E+03  0.14645648371E+03  0.16592688560E+03  0.33591309199E+03  0.00000000000E+00 0.  1.
        -11    1    3    3    0    0  0.38256799434E+03  0.14120165126E+03  0.14051404295E+03  0.43132397670E+03  0.00000000000E+00 0. -1.
         22    1    1    2    0    0 -0.63526617871E+03 -0.28765813497E+03  0.15311124284E+02  0.69752759871E+03  0.00000000000E+00 0.  1.
<mgrwt>
<rscale>  0 0.14289896E+04</rscale>
<asrwt>0</asrwt>
<pdfrwt beam="1">  1        2 0.87924047E-01 0.14289896E+04</pdfrwt>
<pdfrwt beam="2">  1       -2 0.13742436E+00 0.14289896E+04</pdfrwt>
<totfact> 0.19239663E+01</totfact>
</mgrwt>
</event>
<event>
 6    1  0.1719556E-004  0.1176284E+04  0.7818608E-02  0.9133872E-01
          2   -1    0    0  501    0  0.00000000000E+00  0.00000000000E+00  0.78295455635E+03  0.78295455635E+03  0.00000000000E+00 0.  1.
         -2   -1    0    0    0  501 -0.00000000000E+00 -0.00000000000E+00 -0.44180242942E+03  0.44180242942E+03  0.00000000000E+00 0. -1.
         23    2    1    2    0    0  0.52724426964E+03  0.20343881033E+03  0.16347585569E+02  0.57293503193E+03  0.92808608641E+02 0.  0.
         11    1    3    3    0    0  0.33476656790E+03  0.88663751186E+02 -0.15104857535E+02  0.34663824440E+03  0.00000000000E+00 0. -1.
        -11    1    3    3    0    0  0.19247770174E+03  0.11477505914E+03  0.31452443105E+02  0.22629678753E+03  0.00000000000E+00 0.  1.
         22    1    1    2    0    0 -0.52724426964E+03 -0.20343881033E+03  0.32480454137E+03  0.65182195384E+03  0.00000000000E+00 0.  1.
<mgrwt>
<rscale>  0 0.11762844E+04</rscale>
<asrwt>0</asrwt>
<pdfrwt beam="1">  1        2 0.12045455E+00 0.11762844E+04</pdfrwt>
<pdfrwt beam="2">  1       -2 0.67969605E-01 0.11762844E+04</pdfrwt>
<totfact> 0.69461055E+01</totfact>
</mgrwt>
</event>
<event>
 6    1  0.1719556E-004  0.5022328E+04  0.7818608E-02  0.7825072E-01
          2   -1    0    0  501    0  0.00000000000E+00  0.00000000000E+00  0.29087187886E+04  0.29087187886E+04  0.00000000000E+00 0.  1.
         -2   -1    0    0    0  501 -0.00000000000E+00 -0.00000000000E+00 -0.21679456615E+04  0.21679456615E+04  0.00000000000E+00 0. -1.
         23    2    1    2    0    0  0.79474297524E+03  0.23717112887E+04  0.15622378040E+03  0.25079432171E+04  0.93501213295E+02 0.  0.
         11    1    3    3    0    0  0.31712954866E+03  0.81391209859E+03  0.69191166031E+02  0.87624852201E+03  0.00000000000E+00 0. -1.
        -11    1    3    3    0    0  0.47761342658E+03  0.15577991901E+04  0.87032614366E+02  0.16316946951E+04  0.00000000000E+00 0.  1.
         22    1    1    2    0    0 -0.79474297524E+03 -0.23717112887E+04  0.58454934668E+03  0.25687212329E+04  0.00000000000E+00 0. -1.
<mgrwt>
<rscale>  0 0.50223279E+04</rscale>
<asrwt>0</asrwt>
<pdfrwt beam="1">  1        2 0.44749520E+00 0.50223279E+04</pdfrwt>
<pdfrwt beam="2">  1       -2 0.33353010E+00 0.50223279E+04</pdfrwt>
<totfact> 0.28450406E-02</totfact>
</mgrwt>
</event>
<event>
 6    1  0.1719556E-004  0.2554259E+04  0.7818608E-02  0.8383906E-01
         -2   -1    0    0    0  501 -0.00000000000E+00  0.00000000000E+00  0.16475748067E+04  0.16475748067E+04  0.00000000000E+00 0. -1.
          2   -1    0    0  501    0  0.00000000000E+00 -0.00000000000E+00 -0.98997618682E+03  0.98997618682E+03  0.00000000000E+00 0.  1.
         23    2    1    2    0    0  0.79180042872E+02 -0.29666087985E+03 -0.94908134414E+03  0.10017950021E+04  0.92523897030E+02 0.  0.
         13    1    3    3    0    0  0.27043227938E+02 -0.57797467640E+02 -0.33140254912E+03  0.33749004875E+03  0.00000000000E+00 0. -1.
        -13    1    3    3    0    0  0.52136814934E+02 -0.23886341221E+03 -0.61767879502E+03  0.66430495330E+03  0.00000000000E+00 0.  1.
         22    1    1    2    0    0 -0.79180042872E+02  0.29666087985E+03  0.16066799640E+04  0.16357559915E+04  0.00000000000E+00 0. -1.
<mgrwt>
<rscale>  0 0.25542591E+04</rscale>
<asrwt>0</asrwt>
<pdfrwt beam="1">  1        2 0.15230403E+00 0.25542591E+04</pdfrwt>
<pdfrwt beam="2">  1       -2 0.25347305E+00 0.25542591E+04</pdfrwt>
<totfact> 0.13886368E+00</totfact>
</mgrwt>
</event>
<event>
 6    1  0.1719556E-004  0.3763623E+04  0.7818608E-02  0.8054007E-01
          2   -1    0    0  501    0  0.00000000000E+00  0.00000000000E+00  0.18579269026E+04  0.18579269026E+04  0.00000000000E+00 0.  1.
         -2   -1    0    0    0  501 -0.00000000000E+00 -0.00000000000E+00 -0.19060033254E+04  0.19060033254E+04  0.00000000000E+00 0. -1.
         23    2    1    2    0    0  0.94702677631E+03 -0.12630080161E+04 -0.10464755122E+04  0.18960839534E+04  0.89299478738E+02 0.  0.
         13    1    3    3    0    0  0.69864492707E+03 -0.86395885885E+03 -0.73932294352E+03  0.13345890973E+04  0.00000000000E+00 0. -1.
        -13    1    3    3    0    0  0.24838184924E+03 -0.39904915729E+03 -0.30715256866E+03  0.56149485607E+03  0.00000000000E+00 0.  1.
         22    1    1    2    0    0 -0.94702677631E+03  0.12630080161E+04  0.99839908933E+03  0.18678462746E+04  0.00000000000E+00 0.  1.
<mgrwt>
<rscale>  0 0.37636232E+04</rscale>
<asrwt>0</asrwt>
<pdfrwt beam="1">  1        2 0.28583491E+00 0.37636232E+04</pdfrwt>
<pdfrwt beam="2">  1       -2 0.29323128E+00 0.37636232E+04</pdfrwt>
<totfact> 0.22530551E-01</totfact>
</mgrwt>
</event>
<event>
 6    1  0.1719556E-004  0.2322806E+04  0.7818608E-02  0.8468983E-01
         -1   -1    0    0    0  501 -0.00000000000E+00  0.00000000000E+00  0.16001508837E+04  0.16001508837E+04  0.00000000000E+00 0. -1.
          1   -1    0    0  501    0  0.00000000000E+00 -0.00000000000E+00 -0.84295593372E+03  0.84295593372E+03  0.00000000000E+00 0.  1.
         23    2    1    2    0    0 -0.95103937772E+03 -0.51355677415E+03 -0.63784677203E+02  0.10858212887E+04  0.81993461353E+02 0.  0.
         11    1    3    3    0    0 -0.22335752522E+03 -0.99162762762E+02  0.14216411049E+02  0.24479367625E+03  0.00000000000E+00 0. -1.
        -11    1    3    3    0    0 -0.72768185250E+03 -0.41439401139E+03 -0.78001088253E+02  0.84102761245E+03  0.00000000000E+00 0.  1.
         22    1    1    2    0    0  0.95103937772E+03  0.51355677415E+03  0.82097962723E+03  0.13572855288E+04  0.00000000000E+00 0. -1.
<mgrwt>
<rscale>  0 0.23228058E+04</rscale>
<asrwt>0</asrwt>
<pdfrwt beam="1">  1        1 0.12968553E+00 0.23228058E+04</pdfrwt>
<pdfrwt beam="2">  1       -1 0.24617706E+00 0.23228058E+04</pdfrwt>
<totfact> 0.13526971E+00</totfact>
</mgrwt>
</event>
<event>
 6    1  0.1719556E-004  0.4277608E+04  0.7818608E-02  0.7950772E-01
         -2   -1    0    0    0  501 -0.00000000000E+00  0.00000000000E+00  0.31917477987E+04  0.31917477987E+04  0.00000000000E+00 0. -1.
          2   -1    0    0  501    0  0.00000000000E+00 -0.00000000000E+00 -0.14332218404E+04  0.14332218404E+04  0.00000000000E+00 0.  1.
         23    2    1    2    0    0  0.71770410982E+03 -0.60241465237E+03 -0.11978980155E+04  0.15236077905E+04  0.91752063035E+02 0.  0.
         13    1    3    3    0    0  0.17733749492E+03 -0.10678252906E+03 -0.23207867590E+03  0.31098489902E+03  0.00000000000E+00 0.  1.
        -13    1    3    3    0    0  0.54036661490E+03 -0.49563212331E+03 -0.96581933965E+03  0.12126228915E+04  0.00000000000E+00 0. -1.
         22    1    1    2    0    0 -0.71770410982E+03  0.60241465237E+03  0.29564239738E+04  0.31013618485E+04  0.00000000000E+00 0. -1.
<mgrwt>
<rscale>  0 0.42776080E+04</rscale>
<asrwt>0</asrwt>
<pdfrwt beam="1">  1        2 0.22049567E+00 0.42776080E+04</pdfrwt>
<pdfrwt beam="2">  1       -2 0.49103812E+00 0.42776080E+04</pdfrwt>
<totfact> 0.20106200E-02</totfact>
</mgrwt>
</event>
<event>
 6    1  0.1719556E-004  0.2575504E+04  0.7818608E-02  0.8376570E-01
         -2   -1    0    0    0  501 -0.00000000000E+00  0.00000000000E+00  0.13510302401E+04  0.13510302401E+04  0.00000000000E+00 0. -1.
          2   -1    0    0  501    0  0.00000000000E+00 -0.00000000000E+00 -0.12274372880E+04  0.12274372880E+04  0.00000000000E+00 0.  1.
         23    2    1    2    0    0  0.38287434042E+03  0.72314365511E+03 -0.93155704042E+03  0.12432255975E+04  0.91004726287E+02 0.  0.
         13    1    3    3    0    0  0.19575537369E+03  0.38199955077E+03 -0.55643285604E+03  0.70275269220E+03  0.00000000000E+00 0.  1.
        -13    1    3    3    0    0  0.18711896673E+03  0.34114410434E+03 -0.37512418437E+03  0.54047290528E+03  0.00000000000E+00 0. -1.
         22    1    1    2    0    0 -0.38287434042E+03 -0.72314365511E+03  0.10551499926E+04  0.13352419306E+04  0.00000000000E+00 0. -1.
<mgrwt>
<rscale>  0 0.25755038E+04</rscale>
<asrwt>0</asrwt>
<pdfrwt beam="1">  1        2 0.18883651E+00 0.25755038E+04</pdfrwt>
<pdfrwt beam="2">  1       -2 0.20785080E+00 0.25755038E+04</pdfrwt>
<totfact> 0.19113367E+00</totfact>
</mgrwt>
</event>
<event>
 6    1  0.1719556E-004  0.4856459E+04  0.7818608E-02  0.7851039E-01
         -2   -1    0    0    0  501 -0.00000000000E+00  0.00000000000E+00  0.14398771050E+04  0.14398771050E+04  0.00000000000E+00 0. -1.
          2   -1    0    0  501    0  0.00000000000E+00 -0.00000000000E+00 -0.40950004137E+04  0.40950004137E+04  0.00000000000E+00 0.  1.
         23    2    1    2    0    0 -0.44044648385E+03 -0.14206687428E+04 -0.35143353887E+04  0.38171644518E+04  0.88873201907E+02 0.  0.
         11    1    3    3    0    0 -0.42435537407E+03 -0.13876098059E+04 -0.34552794806E+04  0.37475985305E+04  0.00000000000E+00 0.  1.
        -11    1    3    3    0    0 -0.16091109777E+02 -0.33058936902E+02 -0.59055908054E+02  0.69565921248E+02  0.00000000000E+00 0. -1.
         22    1    1    2    0    0  0.44044648385E+03  0.14206687428E+04  0.85921207993E+03  0.17177130669E+04  0.00000000000E+00 0. -1.
<mgrwt>
<rscale>  0 0.48564585E+04</rscale>
<asrwt>0</asrwt>
<pdfrwt beam="1">  1        2 0.63000006E+00 0.48564585E+04</pdfrwt>
<pdfrwt beam="2">  1       -2 0.22151956E+00 0.48564585E+04</pdfrwt>
<totfact> 0.20233226E-02</totfact>
</mgrwt>
</event>
<event>
 6    1  0.1719556E-004  0.1083011E+04  0.7818608E-02  0.9221911E-01
          2   -1    0    0  501    0  0.00000000000E+00  0.00000000000E+00  0.16414651325E+04  0.16414651325E+04  0.00000000000E+00 0.  1.
         -2   -1    0    0    0  501 -0.00000000000E+00 -0.00000000000E+00 -0.17863808440E+03  0.17863808440E+03  0.00000000000E+00 0. -1.
         23    2    1    2    0    0  0.27222945238E+03  0.76857695799E+02 -0.35074385739E+02  0.29572639812E+03  0.78790290394E+02 0.  0.
         11    1    3    3    0    0  0.16742164633E+03  0.15097128443E+02 -0.43951141044E+02  0.17375164387E+03  0.00000000000E+00 0.  1.
        -11    1    3    3    0    0  0.10480780605E+03  0.61760567356E+02  0.88767553054E+01  0.12197475424E+03  0.00000000000E+00 0. -1.
         22    1    1    2    0    0 -0.27222945238E+03 -0.76857695799E+02  0.14979014338E+04  0.15243768188E+04  0.00000000000E+00 0.  1.
<mgrwt>
<rscale>  0 0.10830110E+04</rscale>
<asrwt>0</asrwt>
<pdfrwt beam="1">  1        2 0.25253309E+00 0.10830110E+04</pdfrwt>
<pdfrwt beam="2">  1       -2 0.27482783E-01 0.10830110E+04</pdfrwt>
<totfact> 0.12673402E+02</totfact>
</mgrwt>
</event>
<event>
 6    1  0.3104703E-004  0.3839992E+04  0.7818608E-02  0.8037627E-01
         -2   -1    0    0    0  501 -0.00000000000E+00  0.00000000000E+00  0.14934885323E+04  0.14934885323E+04  0.00000000000E+00 0. -1.
          2   -1    0    0  501    0  0.00000000000E+00 -0.00000000000E+00 -0.24683041266E+04  0.24683041266E+04  0.00000000000E+00 0.  1.
         23    2    1    2    0    0  0.10887742487E+03  0.31265355038E+03 -0.24381442031E+04  0.24614803069E+04  0.68786698869E+02 0.  0.
         11    1    3    3    0    0  0.33722262021E+02  0.59347760346E+02 -0.34166725647E+03  0.34841908925E+03  0.00000000000E+00 0.  1.
        -11    1    3    3    0    0  0.75155162853E+02  0.25330579003E+03 -0.20964769467E+04  0.21130612177E+04  0.00000000000E+00 0. -1.
         22    1    1    2    0    0 -0.10887742487E+03 -0.31265355038E+03  0.14633286088E+04  0.15003123520E+04  0.00000000000E+00 0. -1.
<mgrwt>
<rscale>  0 0.38399916E+04</rscale>
<asrwt>0</asrwt>
<pdfrwt beam="1">  1        2 0.37973910E+00 0.38399916E+04</pdfrwt>
<pdfrwt beam="2">  1       -2 0.22976747E+00 0.38399916E+04</pdfrwt>
<totfact> 0.24896418E-01</totfact>
</mgrwt>
</event>
<event>
 6    1  0.1719556E-004  0.1767110E+04  0.7818608E-02  0.8723988E-01
         -1   -1    0    0    0  501 -0.00000000000E+00  0.00000000000E+00  0.70009906729E+03  0.70009906729E+03  0.00000000000E+00 0.  1.
          1   -1    0    0  501    0  0.00000000000E+00 -0.00000000000E+00 -0.11150839070E+04  0.11150839070E+04  0.00000000000E+00 0. -1.
         23    2    1    2    0    0 -0.23792872081E+03  0.53432185404E+03  0.46879659543E+03  0.75538132068E+03  0.93385072956E+02 0.  0.
         11    1    3    3    0    0 -0.15350020567E+03  0.26449085386E+03  0.28599500842E+03  0.41870140883E+03  0.00000000000E+00 0. -1.
        -11    1    3    3    0    0 -0.84428515137E+02  0.26983100018E+03  0.18280158701E+03  0.33667991185E+03  0.00000000000E+00 0.  1.
         22    1    1    2    0    0  0.23792872081E+03 -0.53432185404E+03 -0.88378143515E+03  0.10598016536E+04  0.00000000000E+00 0. -1.
<mgrwt>
<rscale>  0 0.17671097E+04</rscale>
<asrwt>0</asrwt>
<pdfrwt beam="1">  1        1 0.17155137E+00 0.17671097E+04</pdfrwt>
<pdfrwt beam="2">  1       -1 0.10770755E+00 0.17671097E+04</pdfrwt>
<totfact> 0.93758911E+00</totfact>
</mgrwt>
</event>
<event>
 6    1  0.1719556E-004  0.3190010E+04  0.7818608E-02  0.8191461E-01
         -1   -1    0    0    0  501 -0.00000000000E+00  0.00000000000E+00  0.67670206718E+03  0.67670206718E+03  0.00000000000E+00 0. -1.
          1   -1    0    0  501    0  0.00000000000E+00 -0.00000000000E+00 -0.37594687211E+04  0.37594687211E+04  0.00000000000E+00 0.  1.
         23    2    1    2    0    0 -0.10816848465E+04 -0.68083934656E+03 -0.21873219951E+03  0.12998867324E+04  0.90980322490E+02 0.  0.
         11    1    3    3    0    0 -0.40681909850E+03 -0.23020905334E+03 -0.41543318488E+02  0.46928012365E+03  0.00000000000E+00 0. -1.
        -11    1    3    3    0    0 -0.67486574799E+03 -0.45063029322E+03 -0.17718888103E+03  0.83060660877E+03  0.00000000000E+00 0.  1.
         22    1    1    2    0    0  0.10816848465E+04  0.68083934656E+03 -0.28640344544E+04  0.31362840558E+04  0.00000000000E+00 0.  1.
<mgrwt>
<rscale>  0 0.31900096E+04</rscale>
<asrwt>0</asrwt>
<pdfrwt beam="1">  1        1 0.57837980E+00 0.31900096E+04</pdfrwt>
<pdfrwt beam="2">  1       -1 0.10410801E+00 0.31900096E+04</pdfrwt>
<totfact> 0.11188640E-01</totfact>
</mgrwt>
</event>
<event>
 6    1  0.1719556E-004  0.1883661E+04  0.7818608E-02  0.8663032E-01
         -2   -1    0    0    0  501 -0.00000000000E+00  0.00000000000E+00  0.75313704093E+03  0.75313704093E+03  0.00000000000E+00 0. -1.
          2   -1    0    0  501    0  0.00000000000E+00 -0.00000000000E+00 -0.11777996720E+04  0.11777996720E+04  0.00000000000E+00 0.  1.
         23    2    1    2    0    0 -0.83905573165E+03 -0.37692023909E+03 -0.15573627270E+02  0.92424053209E+03  0.88851763401E+02 0.  0.
         11    1    3    3    0    0 -0.55739950832E+03 -0.29519920308E+03 -0.44902663917E+01  0.63075902202E+03  0.00000000000E+00 0.  1.
        -11    1    3    3    0    0 -0.28165622333E+03 -0.81721036007E+02 -0.11083360878E+02  0.29348151007E+03  0.00000000000E+00 0. -1.
         22    1    1    2    0    0  0.83905573165E+03  0.37692023909E+03 -0.40908900375E+03  0.10066961808E+04  0.00000000000E+00 0.  1.
<mgrwt>
<rscale>  0 0.18836609E+04</rscale>
<asrwt>0</asrwt>
<pdfrwt beam="1">  1        2 0.18119995E+00 0.18836609E+04</pdfrwt>
<pdfrwt beam="2">  1       -2 0.11586724E+00 0.18836609E+04</pdfrwt>
<totfact> 0.10605195E+01</totfact>
</mgrwt>
</event>
<event>
 6    1  0.1759500E-004  0.2678307E+04  0.7818608E-02  0.8342078E-01
         -2   -1    0    0    0  501 -0.00000000000E+00  0.00000000000E+00  0.77994913935E+03  0.77994913935E+03  0.00000000000E+00 0. -1.
          2   -1    0    0  501    0  0.00000000000E+00 -0.00000000000E+00 -0.22992933766E+04  0.22992933766E+04  0.00000000000E+00 0.  1.
         23    2    1    2    0    0  0.88004898301E+03  0.13252973050E+03 -0.19087577345E+04  0.21078037821E+04  0.86199492781E+02 0.  0.
         13    1    3    3    0    0  0.52992104997E+03  0.10898502985E+03 -0.10844831953E+04  0.12119397084E+04  0.00000000000E+00 0.  1.
        -13    1    3    3    0    0  0.35012793304E+03  0.23544700649E+02 -0.82427453928E+03  0.89586407369E+03  0.00000000000E+00 0. -1.
         22    1    1    2    0    0 -0.88004898301E+03 -0.13252973050E+03  0.38941349724E+03  0.97143873394E+03  0.00000000000E+00 0. -1.
<mgrwt>
<rscale>  0 0.26783068E+04</rscale>
<asrwt>0</asrwt>
<pdfrwt beam="1">  1        2 0.35373744E+00 0.26783068E+04</pdfrwt>
<pdfrwt beam="2">  1       -2 0.11999218E+00 0.26783068E+04</pdfrwt>
<totfact> 0.21177265E+00</totfact>
</mgrwt>
</event>
<event>
 6    1  0.1719556E-004  0.4216293E+04  0.7818608E-02  0.7962280E-01
          2   -1    0    0  501    0  0.00000000000E+00  0.00000000000E+00  0.19209448474E+04  0.19209448474E+04  0.00000000000E+00 0.  1.
         -2   -1    0    0    0  501 -0.00000000000E+00 -0.00000000000E+00 -0.23135920348E+04  0.23135920348E+04  0.00000000000E+00 0. -1.
         23    2    1    2    0    0 -0.20825988867E+03 -0.12264148099E+04  0.15116829337E+04  0.19599075328E+04  0.92664869758E+02 0.  0.
         11    1    3    3    0    0 -0.25247984323E+02 -0.21189820289E+03  0.20934499211E+03  0.29893750990E+03  0.00000000000E+00 0. -1.
        -11    1    3    3    0    0 -0.18301190435E+03 -0.10145166070E+04  0.13023379416E+04  0.16609700229E+04  0.00000000000E+00 0.  1.
         22    1    1    2    0    0  0.20825988867E+03  0.12264148099E+04 -0.19043301210E+04  0.22746293494E+04  0.00000000000E+00 0. -1.
<mgrwt>
<rscale>  0 0.42162935E+04</rscale>
<asrwt>0</asrwt>
<pdfrwt beam="1">  1        2 0.29552998E+00 0.42162935E+04</pdfrwt>
<pdfrwt beam="2">  1       -2 0.35593724E+00 0.42162935E+04</pdfrwt>
<totfact> 0.81771573E-02</totfact>
</mgrwt>
</event>
<event>
 6    1  0.1719556E-004  0.1138124E+04  0.7818608E-02  0.9168810E-01
          2   -1    0    0  501    0  0.00000000000E+00  0.00000000000E+00  0.72177671334E+03  0.72177671334E+03  0.00000000000E+00 0.  1.
         -2   -1    0    0    0  501 -0.00000000000E+00 -0.00000000000E+00 -0.44865910310E+03  0.44865910310E+03  0.00000000000E+00 0. -1.
         23    2    1    2    0    0 -0.41799590456E+03 -0.37430297087E+03  0.64966005310E+02  0.57197915061E+03  0.90090380511E+02 0.  0.
         11    1    3    3    0    0 -0.79529934937E+02 -0.29343682621E+02  0.39053741241E+01  0.84860557433E+02  0.00000000000E+00 0. -1.
        -11    1    3    3    0    0 -0.33846596963E+03 -0.34495928825E+03  0.61060631186E+02  0.48711859318E+03  0.00000000000E+00 0.  1.
         22    1    1    2    0    0  0.41799590456E+03  0.37430297087E+03  0.20815160493E+03  0.59845666582E+03  0.00000000000E+00 0. -1.
<mgrwt>
<rscale>  0 0.11381242E+04</rscale>
<asrwt>0</asrwt>
<pdfrwt beam="1">  1        2 0.11104257E+00 0.11381242E+04</pdfrwt>
<pdfrwt beam="2">  1       -2 0.69024478E-01 0.11381242E+04</pdfrwt>
<totfact> 0.74856217E+01</totfact>
</mgrwt>
</event>
<event>
 6    1  0.1719556E-004  0.2763945E+04  0.7818608E-02  0.8314550E-01
         -2   -1    0    0    0  501 -0.00000000000E+00  0.00000000000E+00  0.58001624020E+03  0.58001624020E+03  0.00000000000E+00 0. -1.
          2   -1    0    0  501    0  0.00000000000E+00 -0.00000000000E+00 -0.32927495414E+04  0.32927495414E+04  0.00000000000E+00 0.  1.
         23    2    1    2    0    0  0.28758055626E+03 -0.12910580929E+04 -0.19114148547E+04  0.23262714142E+04  0.92186604280E+02 0.  0.
         13    1    3    3    0    0  0.30084832844E+02 -0.24672890828E+03 -0.31371949058E+03  0.40025013444E+03  0.00000000000E+00 0. -1.
        -13    1    3    3    0    0  0.25749572341E+03 -0.10443291847E+04 -0.15976953641E+04  0.19260212798E+04  0.00000000000E+00 0.  1.
         22    1    1    2    0    0 -0.28758055626E+03  0.12910580929E+04 -0.80131844647E+03  0.15464943674E+04  0.00000000000E+00 0. -1.
<mgrwt>
<rscale>  0 0.27639452E+04</rscale>
<asrwt>0</asrwt>
<pdfrwt beam="1">  1        2 0.50657685E+00 0.27639452E+04</pdfrwt>
<pdfrwt beam="2">  1       -2 0.89233268E-01 0.27639452E+04</pdfrwt>
<totfact> 0.10592692E+00</totfact>
</mgrwt>
</event>
<event>
 6    1  0.1719556E-004  0.3863421E+04  0.7818608E-02  0.8032680E-01
          2   -1    0    0  501    0  0.00000000000E+00  0.00000000000E+00  0.23593323644E+04  0.23593323644E+04  0.00000000000E+00 0.  1.
         -2   -1    0    0    0  501 -0.00000000000E+00 -0.00000000000E+00 -0.15815938032E+04  0.15815938032E+04  0.00000000000E+00 0. -1.
         23    2    1    2    0    0  0.76116666993E+03  0.14998663874E+04 -0.57767385767E+03  0.17808065633E+04  0.92687920399E+02 0.  0.
         11    1    3    3    0    0  0.54067423537E+03  0.11484191091E+04 -0.44957444727E+03  0.13465928347E+04  0.00000000000E+00 0. -1.
        -11    1    3    3    0    0  0.22049243456E+03  0.35144727830E+03 -0.12809941040E+03  0.43421372856E+03  0.00000000000E+00 0.  1.
         22    1    1    2    0    0 -0.76116666993E+03 -0.14998663874E+04  0.13554124189E+04  0.21601196043E+04  0.00000000000E+00 0.  1.
<mgrwt>
<rscale>  0 0.38634210E+04</rscale>
<asrwt>0</asrwt>
<pdfrwt beam="1">  1        2 0.36297421E+00 0.38634210E+04</pdfrwt>
<pdfrwt beam="2">  1       -2 0.24332212E+00 0.38634210E+04</pdfrwt>
<totfact> 0.23638696E-01</totfact>
</mgrwt>
</event>
<event>
 6    1  0.1719556E-004  0.5390124E+04  0.7818608E-02  0.7770992E-01
         -2   -1    0    0    0  501 -0.00000000000E+00  0.00000000000E+00  0.27923145459E+04  0.27923145459E+04  0.00000000000E+00 0. -1.
          2   -1    0    0  501    0  0.00000000000E+00 -0.00000000000E+00 -0.26011970261E+04  0.26011970261E+04  0.00000000000E+00 0.  1.
         23    2    1    2    0    0  0.80725681163E+03 -0.29066920284E+03  0.26512130907E+04  0.27880898473E+04  0.91443966373E+02 0.  0.
         11    1    3    3    0    0  0.18775569794E+03 -0.10798177969E+03  0.63033599371E+03  0.66651011382E+03  0.00000000000E+00 0. -1.
        -11    1    3    3    0    0  0.61950111369E+03 -0.18268742315E+03  0.20208770970E+04  0.21215797335E+04  0.00000000000E+00 0.  1.
         22    1    1    2    0    0 -0.80725681163E+03  0.29066920284E+03 -0.24600955709E+04  0.26054217247E+04  0.00000000000E+00 0.  1.
<mgrwt>
<rscale>  0 0.53901244E+04</rscale>
<asrwt>0</asrwt>
<pdfrwt beam="1">  1        2 0.40018416E+00 0.53901244E+04</pdfrwt>
<pdfrwt beam="2">  1       -2 0.42958685E+00 0.53901244E+04</pdfrwt>
<totfact> 0.10185454E-02</totfact>
</mgrwt>
</event>
<event>
 6    1  0.1719556E-004  0.2343240E+04  0.7818608E-02  0.8461065E-01
         -1   -1    0    0    0  501 -0.00000000000E+00  0.00000000000E+00  0.42149943416E+03  0.42149943416E+03  0.00000000000E+00 0. -1.
          1   -1    0    0  501    0  0.00000000000E+00 -0.00000000000E+00 -0.32566899201E+04  0.32566899201E+04  0.00000000000E+00 0.  1.
         23    2    1    2    0    0  0.30045936806E+03  0.75385066596E+03 -0.96655330914E+02  0.82194331203E+03  0.87646430459E+02 0.  0.
         11    1    3    3    0    0  0.26582260046E+02  0.13297793486E+03  0.54024550201E+01  0.13571637421E+03  0.00000000000E+00 0.  1.
        -11    1    3    3    0    0  0.27387710801E+03  0.62087273110E+03 -0.10205778593E+03  0.68622693782E+03  0.00000000000E+00 0. -1.
         22    1    1    2    0    0 -0.30045936806E+03 -0.75385066596E+03 -0.27385351551E+04  0.28562460423E+04  0.00000000000E+00 0.  1.
<mgrwt>
<rscale>  0 0.23432396E+04</rscale>
<asrwt>0</asrwt>
<pdfrwt beam="1">  1        1 0.50102921E+00 0.23432396E+04</pdfrwt>
<pdfrwt beam="2">  1       -1 0.64846068E-01 0.23432396E+04</pdfrwt>
<totfact> 0.83733223E-01</totfact>
</mgrwt>
</event>
<event>
 6    1  0.1719556E-004  0.1816421E+04  0.7818608E-02  0.8697615E-01
         -2   -1    0    0    0  501 -0.00000000000E+00  0.00000000000E+00  0.13454202998E+04  0.13454202998E+04  0.00000000000E+00 0. -1.
          2   -1    0    0  501    0  0.00000000000E+00 -0.00000000000E+00 -0.61307701342E+03  0.61307701342E+03  0.00000000000E+00 0.  1.
         23    2    1    2    0    0 -0.13871704945E+03  0.79382304833E+03 -0.79531608714E+02  0.81458372506E+03  0.88452905485E+02 0.  0.
         13    1    3    3    0    0 -0.96052247999E+02  0.29952648445E+03 -0.32480066416E+02  0.31622318693E+03  0.00000000000E+00 0.  1.
        -13    1    3    3    0    0 -0.42664801451E+02  0.49429656387E+03 -0.47051542298E+02  0.49836053814E+03  0.00000000000E+00 0. -1.
         22    1    1    2    0    0  0.13871704945E+03 -0.79382304833E+03  0.81187489504E+03  0.11439135881E+04  0.00000000000E+00 0. -1.
<mgrwt>
<rscale>  0 0.18164209E+04</rscale>
<asrwt>0</asrwt>
<pdfrwt beam="1">  1        2 0.94319541E-01 0.18164209E+04</pdfrwt>
<pdfrwt beam="2">  1       -2 0.20698774E+00 0.18164209E+04</pdfrwt>
<totfact> 0.54506057E+00</totfact>
</mgrwt>
</event>
<event>
 6    1  0.1719556E-004  0.2777777E+04  0.7818608E-02  0.8310201E-01
          2   -1    0    0  501    0  0.00000000000E+00  0.00000000000E+00  0.19177978481E+04  0.19177978481E+04  0.00000000000E+00 0.  1.
         -2   -1    0    0    0  501 -0.00000000000E+00 -0.00000000000E+00 -0.10058470860E+04  0.10058470860E+04  0.00000000000E+00 0. -1.
         23    2    1    2    0    0 -0.10838254002E+04 -0.10733803133E+02  0.13680400460E+04  0.17477154516E+04  0.90460045506E+02 0.  0.
         13    1    3    3    0    0 -0.65872935454E+03  0.61695613809E+01  0.89828524399E+03  0.11139473980E+04  0.00000000000E+00 0.  1.
        -13    1    3    3    0    0 -0.42509604570E+03 -0.16903364514E+02  0.46975480197E+03  0.63376805362E+03  0.00000000000E+00 0. -1.
         22    1    1    2    0    0  0.10838254002E+04  0.10733803133E+02 -0.45608928393E+03  0.11759294824E+04  0.00000000000E+00 0. -1.
<mgrwt>
<rscale>  0 0.27777771E+04</rscale>
<asrwt>0</asrwt>
<pdfrwt beam="1">  1        2 0.29504582E+00 0.27777771E+04</pdfrwt>
<pdfrwt beam="2">  1       -2 0.15474571E+00 0.27777771E+04</pdfrwt>
<totfact> 0.17843580E+00</totfact>
</mgrwt>
</event>
<event>
 6    1  0.1719556E-004  0.2111532E+04  0.7818608E-02  0.8556181E-01
          1   -1    0    0  501    0  0.00000000000E+00  0.00000000000E+00  0.18145976113E+04  0.18145976113E+04  0.00000000000E+00 0. -1.
         -1   -1    0    0    0  501 -0.00000000000E+00 -0.00000000000E+00 -0.61426370396E+03  0.61426370396E+03  0.00000000000E+00 0.  1.
         23    2    1    2    0    0  0.21348498076E+02 -0.50605608398E+03  0.16641959092E+04  0.17420451279E+04  0.92869181920E+02 0.  0.
         13    1    3    3    0    0  0.73287238813E+01 -0.38148900637E+03  0.11066684535E+04  0.11705992646E+04  0.00000000000E+00 0. -1.
        -13    1    3    3    0    0  0.14019774195E+02 -0.12456707760E+03  0.55752745570E+03  0.57144586336E+03  0.00000000000E+00 0.  1.
         22    1    1    2    0    0 -0.21348498076E+02  0.50605608398E+03 -0.46386200184E+03  0.68681618739E+03  0.00000000000E+00 0.  1.
<mgrwt>
<rscale>  0 0.21115316E+04</rscale>
<asrwt>0</asrwt>
<pdfrwt beam="1">  1        1 0.27916886E+00 0.21115316E+04</pdfrwt>
<pdfrwt beam="2">  1       -1 0.94502109E-01 0.21115316E+04</pdfrwt>
<totfact> 0.39633721E+00</totfact>
</mgrwt>
</event>
<event>
 6    1  0.1719556E-004  0.2991518E+04  0.7818608E-02  0.8246157E-01
         -2   -1    0    0    0  501 -0.00000000000E+00  0.00000000000E+00  0.10514806812E+04  0.10514806812E+04  0.00000000000E+00 0. -1.
          2   -1    0    0  501    0  0.00000000000E+00 -0.00000000000E+00 -0.21277566621E+04  0.21277566621E+04  0.00000000000E+00 0.  1.
         23    2    1    2    0    0 -0.19381530057E+03 -0.95703551329E+03 -0.17407994230E+04  0.19981053652E+04  0.92526075367E+02 0.  0.
         13    1    3    3    0    0 -0.10060312906E+03 -0.63387486025E+03 -0.10704204175E+04  0.12480858137E+04  0.00000000000E+00 0. -1.
        -13    1    3    3    0    0 -0.93212171516E+02 -0.32316065304E+03 -0.67037900552E+03  0.75001955150E+03  0.00000000000E+00 0.  1.
         22    1    1    2    0    0  0.19381530057E+03  0.95703551329E+03  0.66452344220E+03  0.11811319781E+04  0.00000000000E+00 0. -1.
<mgrwt>
<rscale>  0 0.29915180E+04</rscale>
<asrwt>0</asrwt>
<pdfrwt beam="1">  1        2 0.32734718E+00 0.29915180E+04</pdfrwt>
<pdfrwt beam="2">  1       -2 0.16176626E+00 0.29915180E+04</pdfrwt>
<totfact> 0.11871993E+00</totfact>
</mgrwt>
</event>
<event>
 6    1  0.1719556E-004  0.1215452E+04  0.7818608E-02  0.9099438E-01
         -2   -1    0    0    0  501 -0.00000000000E+00  0.00000000000E+00  0.21492507012E+03  0.21492507012E+03  0.00000000000E+00 0. -1.
          2   -1    0    0  501    0  0.00000000000E+00 -0.00000000000E+00 -0.17184164817E+04  0.17184164817E+04  0.00000000000E+00 0.  1.
         23    2    1    2    0    0 -0.40974819300E+03 -0.40953810625E+03 -0.10299385872E+04  0.11850987305E+04  0.89835769660E+02 0.  0.
         11    1    3    3    0    0 -0.23336922876E+03 -0.27084695089E+03 -0.70124161942E+03  0.78712075093E+03  0.00000000000E+00 0. -1.
        -11    1    3    3    0    0 -0.17637896425E+03 -0.13869115537E+03 -0.32869696781E+03  0.39797797961E+03  0.00000000000E+00 0.  1.
         22    1    1    2    0    0  0.40974819300E+03  0.40953810625E+03 -0.47355282436E+03  0.74824282128E+03  0.00000000000E+00 0. -1.
<mgrwt>
<rscale>  0 0.12154518E+04</rscale>
<asrwt>0</asrwt>
<pdfrwt beam="1">  1        2 0.26437176E+00 0.12154518E+04</pdfrwt>
<pdfrwt beam="2">  1       -2 0.33065397E-01 0.12154518E+04</pdfrwt>
<totfact> 0.80605621E+01</totfact>
</mgrwt>
</event>
<event>
 6    1  0.1719556E-004  0.2027288E+04  0.7818608E-02  0.8593968E-01
          1   -1    0    0  501    0  0.00000000000E+00  0.00000000000E+00  0.32717010475E+04  0.32717010475E+04  0.00000000000E+00 0.  1.
         -1   -1    0    0    0  501 -0.00000000000E+00 -0.00000000000E+00 -0.31404894542E+03  0.31404894542E+03  0.00000000000E+00 0. -1.
         23    2    1    2    0    0 -0.15587310217E+03  0.70578382589E+03  0.27336627185E+04  0.28290476229E+04  0.90395580710E+02 0.  0.
         13    1    3    3    0    0  0.55699590879E+01  0.12724454756E+03  0.51546874071E+03  0.53097101802E+03  0.00000000000E+00 0. -1.
        -13    1    3    3    0    0 -0.16144306126E+03  0.57853927833E+03  0.22181939778E+04  0.22980766049E+04  0.00000000000E+00 0.  1.
         22    1    1    2    0    0  0.15587310217E+03 -0.70578382589E+03  0.22398938355E+03  0.75670237003E+03  0.00000000000E+00 0. -1.
<mgrwt>
<rscale>  0 0.20272881E+04</rscale>
<asrwt>0</asrwt>
<pdfrwt beam="1">  1        1 0.50333860E+00 0.20272881E+04</pdfrwt>
<pdfrwt beam="2">  1       -1 0.48315225E-01 0.20272881E+04</pdfrwt>
<totfact> 0.14922442E+00</totfact>
</mgrwt>
</event>
<event>
 6    1  0.1719556E-004  0.7861197E+04  0.7818608E-02  0.7494602E-01
          2   -1    0    0  501    0  0.00000000000E+00  0.00000000000E+00  0.30574536008E+04  0.30574536008E+04  0.00000000000E+00 0.  1.
         -2   -1    0    0    0  501 -0.00000000000E+00 -0.00000000000E+00 -0.50530948646E+04  0.50530948646E+04  0.00000000000E+00 0. -1.
         23    2    1    2    0    0  0.29574970652E+04 -0.21824762091E+04  0.43740310367E+03  0.37026355593E+04  0.90539030166E+02 0.  0.
         11    1    3    3    0    0  0.12270463740E+04 -0.87387336611E+03  0.21606410454E+03  0.15218348009E+04  0.00000000000E+00 0. -1.
        -11    1    3    3    0    0  0.17304506912E+04 -0.13086028429E+04  0.22133899913E+03  0.21808007584E+04  0.00000000000E+00 0.  1.
         22    1    1    2    0    0 -0.29574970652E+04  0.21824762091E+04 -0.24330443675E+04  0.44079129061E+04  0.00000000000E+00 0. -1.
<mgrwt>
<rscale>  0 0.78611966E+04</rscale>
<asrwt>0</asrwt>
<pdfrwt beam="1">  1        2 0.47037748E+00 0.78611966E+04</pdfrwt>
<pdfrwt beam="2">  1       -2 0.77739920E+00 0.78611966E+04</pdfrwt>
<totfact> 0.10025118E-04</totfact>
</mgrwt>
</event>
<event>
 6    1  0.1719556E-004  0.2867168E+04  0.7818608E-02  0.8282714E-01
          1   -1    0    0  501    0  0.00000000000E+00  0.00000000000E+00  0.98915748810E+03  0.98915748810E+03  0.00000000000E+00 0.  1.
         -1   -1    0    0    0  501 -0.00000000000E+00 -0.00000000000E+00 -0.20776902778E+04  0.20776902778E+04  0.00000000000E+00 0. -1.
         23    2    1    2    0    0  0.43349059314E+03  0.11129962597E+04 -0.13901008002E+04  0.18349313590E+04  0.88983644913E+02 0.  0.
         11    1    3    3    0    0  0.18751288217E+03  0.48011600523E+03 -0.53287662163E+03  0.74137032133E+03  0.00000000000E+00 0.  1.
        -11    1    3    3    0    0  0.24597771098E+03  0.63288025449E+03 -0.85722417860E+03  0.10935610377E+04  0.00000000000E+00 0. -1.
         22    1    1    2    0    0 -0.43349059314E+03 -0.11129962597E+04  0.30156801054E+03  0.12319164069E+04  0.00000000000E+00 0.  1.
<mgrwt>
<rscale>  0 0.28671679E+04</rscale>
<asrwt>0</asrwt>
<pdfrwt beam="1">  1        1 0.15217808E+00 0.28671679E+04</pdfrwt>
<pdfrwt beam="2">  1       -1 0.31964465E+00 0.28671679E+04</pdfrwt>
<totfact> 0.32678666E-01</totfact>
</mgrwt>
</event>
<event>
 6    1  0.1719556E-004  0.1554507E+04  0.7818608E-02  0.8848994E-01
          2   -1    0    0  501    0  0.00000000000E+00  0.00000000000E+00  0.80252261461E+03  0.80252261461E+03  0.00000000000E+00 0.  1.
         -2   -1    0    0    0  501 -0.00000000000E+00 -0.00000000000E+00 -0.75277979692E+03  0.75277979692E+03  0.00000000000E+00 0. -1.
         23    2    1    2    0    0 -0.10566520618E+03  0.74510388837E+03  0.20901171027E+03  0.78607453866E+03  0.88782571744E+02 0.  0.
         11    1    3    3    0    0 -0.22222912817E+01  0.32001485028E+03  0.98503826955E+02  0.33483943451E+03  0.00000000000E+00 0. -1.
        -11    1    3    3    0    0 -0.10344291489E+03  0.42508903809E+03  0.11050788332E+03  0.45123510415E+03  0.00000000000E+00 0.  1.
         22    1    1    2    0    0  0.10566520618E+03 -0.74510388837E+03 -0.15926889258E+03  0.76922787287E+03  0.00000000000E+00 0. -1.
<mgrwt>
<rscale>  0 0.15545068E+04</rscale>
<asrwt>0</asrwt>
<pdfrwt beam="1">  1        2 0.12346502E+00 0.15545068E+04</pdfrwt>
<pdfrwt beam="2">  1       -2 0.11581228E+00 0.15545068E+04</pdfrwt>
<totfact> 0.19130377E+01</totfact>
</mgrwt>
</event>
<event>
 6    1  0.1719556E-004  0.2192524E+04  0.7818608E-02  0.8521546E-01
          2   -1    0    0  501    0  0.00000000000E+00  0.00000000000E+00  0.23766168430E+04  0.23766168430E+04  0.00000000000E+00 0.  1.
         -2   -1    0    0    0  501 -0.00000000000E+00 -0.00000000000E+00 -0.50567272978E+03  0.50567272978E+03  0.00000000000E+00 0. -1.
         23    2    1    2    0    0  0.59661832905E+03  0.65872012478E+03  0.97554129807E+02  0.89866217162E+03  0.90615987083E+02 0.  0.
         13    1    3    3    0    0  0.32357016303E+03  0.42345912830E+03  0.58263263599E+02  0.53610623166E+03  0.00000000000E+00 0. -1.
        -13    1    3    3    0    0  0.27304816603E+03  0.23526099648E+03  0.39290866208E+02  0.36255593996E+03  0.00000000000E+00 0.  1.
         22    1    1    2    0    0 -0.59661832905E+03 -0.65872012478E+03  0.17733899834E+04  0.19836274012E+04  0.00000000000E+00 0.  1.
<mgrwt>
<rscale>  0 0.21925240E+04</rscale>
<asrwt>0</asrwt>
<pdfrwt beam="1">  1        2 0.36563335E+00 0.21925240E+04</pdfrwt>
<pdfrwt beam="2">  1       -2 0.77795806E-01 0.21925240E+04</pdfrwt>
<totfact> 0.55187444E+00</totfact>
</mgrwt>
</event>
<event>
 6    1  0.1719556E-004  0.5417222E+03  0.7818608E-02  0.1003428E+00
          2   -1    0    0  501    0  0.00000000000E+00  0.00000000000E+00  0.47001384299E+03  0.47001384299E+03  0.00000000000E+00 0.  1.
         -2   -1    0    0    0  501 -0.00000000000E+00 -0.00000000000E+00 -0.15609272699E+03  0.15609272699E+03  0.00000000000E+00 0. -1.
         23    2    1    2    0    0 -0.47523523393E+02  0.21116513453E+03 -0.11694117349E+02  0.23511490829E+03  0.91066285766E+02 0.  0.
         13    1    3    3    0    0  0.13964537093E+01  0.17224131592E+03 -0.62076502144E+01  0.17235879993E+03  0.00000000000E+00 0.  1.
        -13    1    3    3    0    0 -0.48919977102E+02  0.38923818614E+02 -0.54864671345E+01  0.62756108362E+02  0.00000000000E+00 0. -1.
         22    1    1    2    0    0  0.47523523393E+02 -0.21116513453E+03  0.32561523335E+03  0.39099166169E+03  0.00000000000E+00 0.  1.
<mgrwt>
<rscale>  0 0.54172223E+03</rscale>
<asrwt>0</asrwt>
<pdfrwt beam="1">  1        2 0.72309821E-01 0.54172223E+03</pdfrwt>
<pdfrwt beam="2">  1       -2 0.24014266E-01 0.54172223E+03</pdfrwt>
<totfact> 0.10222668E+03</totfact>
</mgrwt>
</event>
<event>
 6    1  0.1719556E-004  0.1791748E+04  0.7818608E-02  0.8710700E-01
         -2   -1    0    0    0  501 -0.00000000000E+00  0.00000000000E+00  0.54930428319E+03  0.54930428319E+03  0.00000000000E+00 0. -1.
          2   -1    0    0  501    0  0.00000000000E+00 -0.00000000000E+00 -0.14611027216E+04  0.14611027216E+04  0.00000000000E+00 0.  1.
         23    2    1    2    0    0  0.13899888714E+02 -0.77901022511E+03  0.33882452931E+02  0.78510602709E+03  0.90516934437E+02 0.  0.
         11    1    3    3    0    0  0.42982355746E+02 -0.49092172718E+03  0.48526486244E+02  0.49518324385E+03  0.00000000000E+00 0. -1.
        -11    1    3    3    0    0 -0.29082467032E+02 -0.28808849793E+03 -0.14644033313E+02  0.28992278324E+03  0.00000000000E+00 0.  1.
         22    1    1    2    0    0 -0.13899888714E+02  0.77901022511E+03 -0.94568089137E+03  0.12253009777E+04  0.00000000000E+00 0.  1.
<mgrwt>
<rscale>  0 0.17917477E+04</rscale>
<asrwt>0</asrwt>
<pdfrwt beam="1">  1        2 0.22478503E+00 0.17917477E+04</pdfrwt>
<pdfrwt beam="2">  1       -2 0.84508351E-01 0.17917477E+04</pdfrwt>
<totfact> 0.15403778E+01</totfact>
</mgrwt>
</event>
<event>
 6    1  0.1719556E-004  0.1923261E+04  0.7818608E-02  0.8643364E-01
          2   -1    0    0  501    0  0.00000000000E+00  0.00000000000E+00  0.10788790751E+04  0.10788790751E+04  0.00000000000E+00 0.  1.
         -2   -1    0    0    0  501 -0.00000000000E+00 -0.00000000000E+00 -0.85712401725E+03  0.85712401725E+03  0.00000000000E+00 0. -1.
         23    2    1    2    0    0 -0.38317858868E+03 -0.19374686636E+03  0.97486344453E+03  0.10690913777E+04  0.90741166653E+02 0.  0.
         13    1    3    3    0    0 -0.27090399016E+03 -0.15459574392E+03  0.60638197029E+03  0.68190021984E+03  0.00000000000E+00 0. -1.
        -13    1    3    3    0    0 -0.11227459852E+03 -0.39151122435E+02  0.36848147424E+03  0.38719115785E+03  0.00000000000E+00 0.  1.
         22    1    1    2    0    0  0.38317858868E+03  0.19374686636E+03 -0.75310838665E+03  0.86691171470E+03  0.00000000000E+00 0. -1.
<mgrwt>
<rscale>  0 0.19232609E+04</rscale>
<asrwt>0</asrwt>
<pdfrwt beam="1">  1        2 0.16598140E+00 0.19232609E+04</pdfrwt>
<pdfrwt beam="2">  1       -2 0.13186523E+00 0.19232609E+04</pdfrwt>
<totfact> 0.87926909E+00</totfact>
</mgrwt>
</event>
<event>
 6    1  0.1719556E-004  0.1124571E+04  0.7818608E-02  0.9181569E-01
          2   -1    0    0  501    0  0.00000000000E+00  0.00000000000E+00  0.91740822582E+03  0.91740822582E+03  0.00000000000E+00 0.  1.
         -2   -1    0    0    0  501 -0.00000000000E+00 -0.00000000000E+00 -0.34462827921E+03  0.34462827921E+03  0.00000000000E+00 0. -1.
         23    2    1    2    0    0  0.40699720586E+03  0.19896884699E+03 -0.77800373498E+02  0.46926284214E+03  0.94442518190E+02 0.  0.
         11    1    3    3    0    0  0.37165873207E+02 -0.32968816071E+01  0.10125689346E+02  0.38661365008E+02  0.00000000000E+00 0. -1.
        -11    1    3    3    0    0  0.36983133265E+03  0.20226572860E+03 -0.87926062844E+02  0.43060147713E+03  0.00000000000E+00 0.  1.
         22    1    1    2    0    0 -0.40699720586E+03 -0.19896884699E+03  0.65058032011E+03  0.79277366289E+03  0.00000000000E+00 0.  1.
<mgrwt>
<rscale>  0 0.11245707E+04</rscale>
<asrwt>0</asrwt>
<pdfrwt beam="1">  1        2 0.14113973E+00 0.11245707E+04</pdfrwt>
<pdfrwt beam="2">  1       -2 0.53019736E-01 0.11245707E+04</pdfrwt>
<totfact> 0.94917966E+01</totfact>
</mgrwt>
</event>
<event>
 6    1  0.1719556E-004  0.2934173E+03  0.7818608E-02  0.1088578E+00
         -2   -1    0    0    0  501 -0.00000000000E+00  0.00000000000E+00  0.33440315468E+03  0.33440315468E+03  0.00000000000E+00 0. -1.
          2   -1    0    0  501    0  0.00000000000E+00 -0.00000000000E+00 -0.64363731488E+02  0.64363731488E+02  0.00000000000E+00 0.  1.
         23    2    1    2    0    0  0.10600126531E+03  0.29125954841E+02  0.46766478457E+02  0.14989865327E+03  0.90542328515E+02 0.  0.
         11    1    3    3    0    0  0.72593047922E+02  0.40678106218E+02  0.69033673569E+02  0.10812079827E+03  0.00000000000E+00 0.  1.
        -11    1    3    3    0    0  0.33408217389E+02 -0.11552151376E+02 -0.22267195112E+02  0.41777855003E+02  0.00000000000E+00 0. -1.
         22    1    1    2    0    0 -0.10600126531E+03 -0.29125954841E+02  0.22327294473E+03  0.24886823289E+03  0.00000000000E+00 0. -1.
<mgrwt>
<rscale>  0 0.29341735E+03</rscale>
<asrwt>0</asrwt>
<pdfrwt beam="1">  1        2 0.99021127E-02 0.29341735E+03</pdfrwt>
<pdfrwt beam="2">  1       -2 0.51446638E-01 0.29341735E+03</pdfrwt>
<totfact> 0.23515560E+03</totfact>
</mgrwt>
</event>
<event>
 6    1  0.1719556E-004  0.2035895E+04  0.7818608E-02  0.8590020E-01
         -2   -1    0    0    0  501 -0.00000000000E+00  0.00000000000E+00  0.24374514224E+03  0.24374514224E+03  0.00000000000E+00 0. -1.
          2   -1    0    0  501    0  0.00000000000E+00 -0.00000000000E+00 -0.42512327027E+04  0.42512327027E+04  0.00000000000E+00 0.  1.
         23    2    1    2    0    0  0.23096248629E+03 -0.69969570382E+02 -0.41865569981E+04  0.41944694851E+04  0.89862964761E+02 0.  0.
         11    1    3    3    0    0  0.22931340360E+03 -0.73538160963E+02 -0.36675787791E+04  0.36754763771E+04  0.00000000000E+00 0.  1.
        -11    1    3    3    0    0  0.16490826954E+01  0.35685905808E+01 -0.51897821905E+03  0.51899310800E+03  0.00000000000E+00 0. -1.
         22    1    1    2    0    0 -0.23096248629E+03  0.69969570382E+02  0.17906943761E+03  0.30050835985E+03  0.00000000000E+00 0. -1.
<mgrwt>
<rscale>  0 0.20358952E+04</rscale>
<asrwt>0</asrwt>
<pdfrwt beam="1">  1        2 0.65403576E+00 0.20358952E+04</pdfrwt>
<pdfrwt beam="2">  1       -2 0.37499255E-01 0.20358952E+04</pdfrwt>
<totfact> 0.13194989E+00</totfact>
</mgrwt>
</event>
<event>
 6    1  0.1719556E-004  0.2138555E+04  0.7818608E-02  0.8544447E-01
          1   -1    0    0  501    0  0.00000000000E+00  0.00000000000E+00  0.14990775807E+04  0.14990775807E+04  0.00000000000E+00 0. -1.
         -1   -1    0    0    0  501 -0.00000000000E+00 -0.00000000000E+00 -0.76270513730E+03  0.76270513730E+03  0.00000000000E+00 0.  1.
         23    2    1    2    0    0 -0.46099144380E+03 -0.27791050969E-01  0.13869293095E+04  0.14644513264E+04  0.92367017538E+02 0.  0.
         13    1    3    3    0    0 -0.40044532168E+03  0.10950018759E+02  0.12783602430E+04  0.13396571463E+04  0.00000000000E+00 0.  1.
        -13    1    3    3    0    0 -0.60546122122E+02 -0.10977809810E+02  0.10856906646E+03  0.12479418017E+03  0.00000000000E+00 0. -1.
         22    1    1    2    0    0  0.46099144380E+03  0.27791050969E-01 -0.65055686607E+03  0.79733139159E+03  0.00000000000E+00 0.  1.
<mgrwt>
<rscale>  0 0.21385548E+04</rscale>
<asrwt>0</asrwt>
<pdfrwt beam="1">  1        1 0.23062732E+00 0.21385548E+04</pdfrwt>
<pdfrwt beam="2">  1       -1 0.11733925E+00 0.21385548E+04</pdfrwt>
<totfact> 0.39264626E+00</totfact>
</mgrwt>
</event>
<event>
 6    1  0.1719556E-004  0.2385400E+04  0.7818608E-02  0.8444990E-01
          1   -1    0    0  501    0  0.00000000000E+00  0.00000000000E+00  0.17448404849E+04  0.17448404849E+04  0.00000000000E+00 0.  1.
         -1   -1    0    0    0  501 -0.00000000000E+00 -0.00000000000E+00 -0.81528006033E+03  0.81528006033E+03  0.00000000000E+00 0. -1.
         23    2    1    2    0    0 -0.95739490642E+03  0.70398428379E+03  0.54936376178E+03  0.13124233139E+04  0.91953974255E+02 0.  0.
         11    1    3    3    0    0 -0.21196617341E+03  0.11144704693E+03  0.10102079772E+03  0.25991403293E+03  0.00000000000E+00 0. -1.
        -11    1    3    3    0    0 -0.74542873301E+03  0.59253723685E+03  0.44834296406E+03  0.10525092809E+04  0.00000000000E+00 0.  1.
         22    1    1    2    0    0  0.95739490642E+03 -0.70398428379E+03  0.38019666276E+03  0.12476972313E+04  0.00000000000E+00 0. -1.
<mgrwt>
<rscale>  0 0.23854003E+04</rscale>
<asrwt>0</asrwt>
<pdfrwt beam="1">  1        1 0.26843700E+00 0.23854003E+04</pdfrwt>
<pdfrwt beam="2">  1       -1 0.12542770E+00 0.23854003E+04</pdfrwt>
<totfact> 0.22113218E+00</totfact>
</mgrwt>
</event>
<event>
 6    1  0.1719556E-004  0.3280447E+04  0.7818608E-02  0.8167889E-01
         -2   -1    0    0    0  501 -0.00000000000E+00  0.00000000000E+00  0.73469958963E+03  0.73469958963E+03  0.00000000000E+00 0. -1.
          2   -1    0    0  501    0  0.00000000000E+00 -0.00000000000E+00 -0.36618138558E+04  0.36618138558E+04  0.00000000000E+00 0.  1.
         23    2    1    2    0    0  0.57395420024E+03 -0.48637852742E+03  0.48696111027E+03  0.90053029731E+03  0.88522299762E+02 0.  0.
         11    1    3    3    0    0  0.24361249207E+03 -0.16093368714E+03  0.15805076847E+03  0.33200413155E+03  0.00000000000E+00 0. -1.
        -11    1    3    3    0    0  0.33034170818E+03 -0.32544484028E+03  0.32891034179E+03  0.56852616577E+03  0.00000000000E+00 0.  1.
         22    1    1    2    0    0 -0.57395420024E+03  0.48637852742E+03 -0.34140753764E+04  0.34959831481E+04  0.00000000000E+00 0.  1.
<mgrwt>
<rscale>  0 0.32804470E+04</rscale>
<asrwt>0</asrwt>
<pdfrwt beam="1">  1        2 0.56335598E+00 0.32804470E+04</pdfrwt>
<pdfrwt beam="2">  1       -2 0.11303070E+00 0.32804470E+04</pdfrwt>
<totfact> 0.31985282E-01</totfact>
</mgrwt>
</event>
<event>
 6    1  0.1719556E-004  0.4648641E+04  0.7818608E-02  0.7885119E-01
          2   -1    0    0  501    0  0.00000000000E+00  0.00000000000E+00  0.19779026308E+04  0.19779026308E+04  0.00000000000E+00 0. -1.
         -2   -1    0    0    0  501 -0.00000000000E+00 -0.00000000000E+00 -0.27314116879E+04  0.27314116879E+04  0.00000000000E+00 0.  1.
         23    2    1    2    0    0 -0.92043649054E+03 -0.11527547741E+04  0.14416383403E+04  0.20645612114E+04  0.89693861492E+02 0.  0.
         13    1    3    3    0    0 -0.81435065156E+03 -0.10217905109E+04  0.13148154936E+04  0.18536349733E+04  0.00000000000E+00 0. -1.
        -13    1    3    3    0    0 -0.10608583898E+03 -0.13096426320E+03  0.12682284676E+03  0.21092623811E+03  0.00000000000E+00 0.  1.
         22    1    1    2    0    0  0.92043649054E+03  0.11527547741E+04 -0.21951473974E+04  0.26447531073E+04  0.00000000000E+00 0.  1.
<mgrwt>
<rscale>  0 0.46486412E+04</rscale>
<asrwt>0</asrwt>
<pdfrwt beam="1">  1        2 0.30429271E+00 0.46486412E+04</pdfrwt>
<pdfrwt beam="2">  1       -2 0.42021718E+00 0.46486412E+04</pdfrwt>
<totfact> 0.28140260E-02</totfact>
</mgrwt>
</event>
<event>
 6    1  0.1719556E-004  0.1517005E+04  0.7818608E-02  0.8873223E-01
          2   -1    0    0  501    0  0.00000000000E+00  0.00000000000E+00  0.22440836431E+04  0.22440836431E+04  0.00000000000E+00 0.  1.
         -2   -1    0    0    0  501 -0.00000000000E+00 -0.00000000000E+00 -0.25637469298E+03  0.25637469298E+03  0.00000000000E+00 0. -1.
         23    2    1    2    0    0  0.72357041100E+01  0.59300921933E+03  0.22531060137E+03  0.64095296386E+03  0.91343008296E+02 0.  0.
         11    1    3    3    0    0 -0.21480047426E+02  0.18515835722E+03  0.33706042554E+02  0.18942308991E+03  0.00000000000E+00 0.  1.
        -11    1    3    3    0    0  0.28715751536E+02  0.40785086211E+03  0.19160455881E+03  0.45152987395E+03  0.00000000000E+00 0. -1.
         22    1    1    2    0    0 -0.72357041100E+01 -0.59300921933E+03  0.17623983488E+04  0.18595053723E+04  0.00000000000E+00 0.  1.
<mgrwt>
<rscale>  0 0.15170053E+04</rscale>
<asrwt>0</asrwt>
<pdfrwt beam="1">  1        2 0.34524362E+00 0.15170053E+04</pdfrwt>
<pdfrwt beam="2">  1       -2 0.39442262E-01 0.15170053E+04</pdfrwt>
<totfact> 0.28641079E+01</totfact>
</mgrwt>
</event>
<event>
 6    1  0.1719556E-004  0.2645088E+04  0.7818608E-02  0.8353045E-01
         -2   -1    0    0    0  501 -0.00000000000E+00  0.00000000000E+00  0.14042565396E+04  0.14042565396E+04  0.00000000000E+00 0. -1.
          2   -1    0    0  501    0  0.00000000000E+00 -0.00000000000E+00 -0.12455859054E+04  0.12455859054E+04  0.00000000000E+00 0.  1.
         23    2    1    2    0    0  0.38305798067E+03 -0.10422855021E+04  0.79622283769E+03  0.13693873319E+04  0.90323713305E+02 0.  0.
         11    1    3    3    0    0  0.70116815213E+02 -0.25293568454E+03  0.14983126759E+03  0.30222878261E+03  0.00000000000E+00 0. -1.
        -11    1    3    3    0    0  0.31294116546E+03 -0.78934981752E+03  0.64639157010E+03  0.10671585493E+04  0.00000000000E+00 0.  1.
         22    1    1    2    0    0 -0.38305798067E+03  0.10422855021E+04 -0.63755220346E+03  0.12804551130E+04  0.00000000000E+00 0.  1.
<mgrwt>
<rscale>  0 0.26450876E+04</rscale>
<asrwt>0</asrwt>
<pdfrwt beam="1">  1        2 0.19162860E+00 0.26450876E+04</pdfrwt>
<pdfrwt beam="2">  1       -2 0.21603947E+00 0.26450876E+04</pdfrwt>
<totfact> 0.16424488E+00</totfact>
</mgrwt>
</event>
<event>
 6    1  0.1719556E-004  0.4811342E+03  0.7818608E-02  0.1018824E+00
         -2   -1    0    0    0  501 -0.00000000000E+00  0.00000000000E+00  0.24908618768E+03  0.24908618768E+03  0.00000000000E+00 0. -1.
          2   -1    0    0  501    0  0.00000000000E+00 -0.00000000000E+00 -0.23233937689E+03  0.23233937689E+03  0.00000000000E+00 0.  1.
         23    2    1    2    0    0 -0.39326715553E+02  0.15777688474E+03  0.17549969921E+03  0.25417544797E+03  0.85818867475E+02 0.  0.
         11    1    3    3    0    0 -0.53567191283E+02  0.10684808774E+03  0.15872843869E+03  0.19869744609E+03  0.00000000000E+00 0.  1.
        -11    1    3    3    0    0  0.14240475730E+02  0.50928797003E+02  0.16771260521E+02  0.55478001880E+02  0.00000000000E+00 0. -1.
         22    1    1    2    0    0  0.39326715553E+02 -0.15777688474E+03 -0.15875288841E+03  0.22725011660E+03  0.00000000000E+00 0.  1.
<mgrwt>
<rscale>  0 0.48113420E+03</rscale>
<asrwt>0</asrwt>
<pdfrwt beam="1">  1        2 0.35744519E-01 0.48113420E+03</pdfrwt>
<pdfrwt beam="2">  1       -2 0.38320952E-01 0.48113420E+03</pdfrwt>
<totfact> 0.94117752E+02</totfact>
</mgrwt>
</event>
<event>
 6    1  0.1719556E-004  0.2159545E+04  0.7818608E-02  0.8535458E-01
          2   -1    0    0  501    0  0.00000000000E+00  0.00000000000E+00  0.28046839115E+04  0.28046839115E+04  0.00000000000E+00 0.  1.
         -2   -1    0    0    0  501 -0.00000000000E+00 -0.00000000000E+00 -0.41570041557E+03  0.41570041557E+03  0.00000000000E+00 0. -1.
         23    2    1    2    0    0 -0.39289814590E+03 -0.66327614036E+03  0.23199417544E+04  0.24463875871E+04  0.91533003838E+02 0.  0.
         11    1    3    3    0    0 -0.13208170256E+03 -0.27540324791E+03  0.10321799272E+04  0.10764236746E+04  0.00000000000E+00 0. -1.
        -11    1    3    3    0    0 -0.26081644334E+03 -0.38787289244E+03  0.12877618272E+04  0.13699639125E+04  0.00000000000E+00 0.  1.
         22    1    1    2    0    0  0.39289814590E+03  0.66327614036E+03  0.69041741458E+02  0.77399673997E+03  0.00000000000E+00 0. -1.
<mgrwt>
<rscale>  0 0.21595446E+04</rscale>
<asrwt>0</asrwt>
<pdfrwt beam="1">  1        2 0.43148982E+00 0.21595446E+04</pdfrwt>
<pdfrwt beam="2">  1       -2 0.63953912E-01 0.21595446E+04</pdfrwt>
<totfact> 0.47666786E+00</totfact>
</mgrwt>
</event>
<event>
 6    1  0.1719556E-004  0.1683528E+04  0.7818608E-02  0.8770815E-01
          2   -1    0    0  501    0  0.00000000000E+00  0.00000000000E+00  0.45523325718E+03  0.45523325718E+03  0.00000000000E+00 0.  1.
         -2   -1    0    0    0  501 -0.00000000000E+00 -0.00000000000E+00 -0.15564907892E+04  0.15564907892E+04  0.00000000000E+00 0. -1.
         23    2    1    2    0    0  0.25576136700E+03  0.77848208746E+03 -0.33555330824E+03  0.89022897477E+03  0.91996562424E+02 0.  0.
         13    1    3    3    0    0  0.10468123362E+03  0.46059716221E+03 -0.18111592776E+03  0.50587635426E+03  0.00000000000E+00 0.  1.
        -13    1    3    3    0    0  0.15108013338E+03  0.31788492525E+03 -0.15443738048E+03  0.38435262051E+03  0.00000000000E+00 0. -1.
         22    1    1    2    0    0 -0.25576136700E+03 -0.77848208746E+03 -0.76570422377E+03  0.11214950716E+04  0.00000000000E+00 0. -1.
<mgrwt>
<rscale>  0 0.16835277E+04</rscale>
<asrwt>0</asrwt>
<pdfrwt beam="1">  1        2 0.70035886E-01 0.16835277E+04</pdfrwt>
<pdfrwt beam="2">  1       -2 0.23946012E+00 0.16835277E+04</pdfrwt>
<totfact> 0.48801646E+00</totfact>
</mgrwt>
</event>
<event>
 6    1  0.1719556E-004  0.1324191E+04  0.7818608E-02  0.9010599E-01
          1   -1    0    0  501    0  0.00000000000E+00  0.00000000000E+00  0.11662744658E+04  0.11662744658E+04  0.00000000000E+00 0.  1.
         -1   -1    0    0    0  501 -0.00000000000E+00 -0.00000000000E+00 -0.37587224778E+03  0.37587224778E+03  0.00000000000E+00 0. -1.
         23    2    1    2    0    0 -0.25516169421E+03  0.26584485744E+03 -0.23909154976E+03  0.44869420143E+03  0.91546375205E+02 0.  0.
         13    1    3    3    0    0 -0.22479265059E+02  0.58849134345E+02 -0.70552792770E+02  0.94584536465E+02  0.00000000000E+00 0. -1.
        -13    1    3    3    0    0 -0.23268242915E+03  0.20699572309E+03 -0.16853875699E+03  0.35410966497E+03  0.00000000000E+00 0.  1.
         22    1    1    2    0    0  0.25516169421E+03 -0.26584485744E+03  0.10294937678E+04  0.10934525121E+04  0.00000000000E+00 0.  1.
<mgrwt>
<rscale>  0 0.13241906E+04</rscale>
<asrwt>0</asrwt>
<pdfrwt beam="1">  1        1 0.17942684E+00 0.13241906E+04</pdfrwt>
<pdfrwt beam="2">  1       -1 0.57826500E-01 0.13241906E+04</pdfrwt>
<totfact> 0.33611536E+01</totfact>
</mgrwt>
</event>
<event>
 6    1  0.1719556E-004  0.9869981E+03  0.7818608E-02  0.9322921E-01
          2   -1    0    0  501    0  0.00000000000E+00  0.00000000000E+00  0.17840189592E+04  0.17840189592E+04  0.00000000000E+00 0.  1.
         -2   -1    0    0    0  501 -0.00000000000E+00 -0.00000000000E+00 -0.13651274246E+03  0.13651274246E+03  0.00000000000E+00 0. -1.
         23    2    1    2    0    0 -0.70866133928E+02  0.15580544010E+03  0.17227655445E+04  0.17335522629E+04  0.89358729438E+02 0.  0.
         13    1    3    3    0    0 -0.91723064018E+02  0.11550660376E+03  0.13511175163E+04  0.13591443774E+04  0.00000000000E+00 0.  1.
        -13    1    3    3    0    0  0.20856930090E+02  0.40298836334E+02  0.37164802826E+03  0.37440788541E+03  0.00000000000E+00 0. -1.
         22    1    1    2    0    0  0.70866133928E+02 -0.15580544010E+03 -0.75259327820E+02  0.18697943878E+03  0.00000000000E+00 0. -1.
<mgrwt>
<rscale>  0 0.98699812E+03</rscale>
<asrwt>0</asrwt>
<pdfrwt beam="1">  1        2 0.27446444E+00 0.98699812E+03</pdfrwt>
<pdfrwt beam="2">  1       -2 0.21001962E-01 0.98699812E+03</pdfrwt>
<totfact> 0.17275559E+02</totfact>
</mgrwt>
</event>
<event>
 6    1  0.1719556E-004  0.3141325E+04  0.7818608E-02  0.8204487E-01
         -2   -1    0    0    0  501 -0.00000000000E+00  0.00000000000E+00  0.11118680453E+04  0.11118680453E+04  0.00000000000E+00 0. -1.
          2   -1    0    0  501    0  0.00000000000E+00 -0.00000000000E+00 -0.22187704103E+04  0.22187704103E+04  0.00000000000E+00 0.  1.
         23    2    1    2    0    0  0.27288509089E+03 -0.15285994566E+04 -0.31394685807E+03  0.15871187374E+04  0.96440060477E+02 0.  0.
         11    1    3    3    0    0  0.21893011538E+03 -0.10089360896E+04 -0.23368861115E+03  0.10585333227E+04  0.00000000000E+00 0.  1.
        -11    1    3    3    0    0  0.53954975512E+02 -0.51966336704E+03 -0.80258246921E+02  0.52858541469E+03  0.00000000000E+00 0. -1.
         22    1    1    2    0    0 -0.27288509089E+03  0.15285994566E+04 -0.79295550691E+03  0.17435197181E+04  0.00000000000E+00 0.  1.
<mgrwt>
<rscale>  0 0.31413245E+04</rscale>
<asrwt>0</asrwt>
<pdfrwt beam="1">  1        2 0.34134929E+00 0.31413245E+04</pdfrwt>
<pdfrwt beam="2">  1       -2 0.17105662E+00 0.31413245E+04</pdfrwt>
<totfact> 0.89324993E-01</totfact>
</mgrwt>
</event>
<event>
 6    1  0.1719556E-004  0.1811885E+04  0.7818608E-02  0.8700005E-01
          2   -1    0    0  501    0  0.00000000000E+00  0.00000000000E+00  0.22018262835E+04  0.22018262835E+04  0.00000000000E+00 0.  1.
         -2   -1    0    0    0  501 -0.00000000000E+00 -0.00000000000E+00 -0.37275053749E+03  0.37275053749E+03  0.00000000000E+00 0. -1.
         23    2    1    2    0    0 -0.31203162140E+03  0.77626799244E+03  0.14019521612E+04  0.16352205065E+04  0.92306629315E+02 0.  0.
         11    1    3    3    0    0 -0.21419023101E+03  0.63055148892E+03  0.10928915326E+04  0.12797986316E+04  0.00000000000E+00 0. -1.
        -11    1    3    3    0    0 -0.97841390392E+02  0.14571650352E+03  0.30906062857E+03  0.35542187496E+03  0.00000000000E+00 0.  1.
         22    1    1    2    0    0  0.31203162140E+03 -0.77626799244E+03  0.42712358482E+03  0.93935631448E+03  0.00000000000E+00 0.  1.
<mgrwt>
<rscale>  0 0.18118851E+04</rscale>
<asrwt>0</asrwt>
<pdfrwt beam="1">  1        2 0.33874250E+00 0.18118851E+04</pdfrwt>
<pdfrwt beam="2">  1       -2 0.57346238E-01 0.18118851E+04</pdfrwt>
<totfact> 0.13846745E+01</totfact>
</mgrwt>
</event>
<event>
 6    1  0.1719556E-004  0.2452703E+04  0.7818608E-02  0.8420032E-01
          2   -1    0    0  501    0  0.00000000000E+00  0.00000000000E+00  0.20347494105E+04  0.20347494105E+04  0.00000000000E+00 0.  1.
         -2   -1    0    0    0  501 -0.00000000000E+00 -0.00000000000E+00 -0.73912693749E+03  0.73912693749E+03  0.00000000000E+00 0. -1.
         23    2    1    2    0    0  0.20288073148E+03 -0.11777031831E+04  0.95133819874E+03  0.15302216370E+04  0.91588816330E+02 0.  0.
         13    1    3    3    0    0  0.10154627798E+03 -0.73655525424E+03  0.63778843351E+03  0.97959143271E+03  0.00000000000E+00 0.  1.
        -13    1    3    3    0    0  0.10133445350E+03 -0.44114792882E+03  0.31354976523E+03  0.55063020426E+03  0.00000000000E+00 0. -1.
         22    1    1    2    0    0 -0.20288073148E+03  0.11777031831E+04  0.34428427423E+03  0.12436547110E+04  0.00000000000E+00 0. -1.
<mgrwt>
<rscale>  0 0.24527031E+04</rscale>
<asrwt>0</asrwt>
<pdfrwt beam="1">  1        2 0.31303837E+00 0.24527031E+04</pdfrwt>
<pdfrwt beam="2">  1       -2 0.11371184E+00 0.24527031E+04</pdfrwt>
<totfact> 0.34674884E+00</totfact>
</mgrwt>
</event>
<event>
 6    1  0.1719556E-004  0.1167157E+04  0.7818608E-02  0.9142099E-01
          2   -1    0    0  501    0  0.00000000000E+00  0.00000000000E+00  0.44425208601E+03  0.44425208601E+03  0.00000000000E+00 0.  1.
         -2   -1    0    0    0  501 -0.00000000000E+00 -0.00000000000E+00 -0.76660101341E+03  0.76660101341E+03  0.00000000000E+00 0. -1.
         23    2    1    2    0    0 -0.23467313598E+03 -0.48028292530E+03  0.71610412642E+02  0.54681459851E+03  0.90194150928E+02 0.  0.
         13    1    3    3    0    0 -0.49252918423E+02 -0.19259083511E+03  0.42735302566E+02  0.20333073016E+03  0.00000000000E+00 0.  1.
        -13    1    3    3    0    0 -0.18542021755E+03 -0.28769209019E+03  0.28875110075E+02  0.34348386835E+03  0.00000000000E+00 0. -1.
         22    1    1    2    0    0  0.23467313598E+03  0.48028292530E+03 -0.39395934005E+03  0.66403850091E+03  0.00000000000E+00 0. -1.
<mgrwt>
<rscale>  0 0.11671574E+04</rscale>
<asrwt>0</asrwt>
<pdfrwt beam="1">  1        2 0.68346475E-01 0.11671574E+04</pdfrwt>
<pdfrwt beam="2">  1       -2 0.11793862E+00 0.11671574E+04</pdfrwt>
<totfact> 0.38672764E+01</totfact>
</mgrwt>
</event>
<event>
 6    1  0.1719556E-004  0.2644634E+04  0.7818608E-02  0.8353196E-01
         -2   -1    0    0    0  501 -0.00000000000E+00  0.00000000000E+00  0.12540104352E+04  0.12540104352E+04  0.00000000000E+00 0. -1.
          2   -1    0    0  501    0  0.00000000000E+00 -0.00000000000E+00 -0.13943440996E+04  0.13943440996E+04  0.00000000000E+00 0.  1.
         23    2    1    2    0    0  0.73190872301E+03 -0.14529930572E+02 -0.11711250164E+04  0.13840633068E+04  0.90531406098E+02 0.  0.
         13    1    3    3    0    0  0.37070322187E+03 -0.52172115368E+02 -0.58241861491E+03  0.69235413721E+03  0.00000000000E+00 0. -1.
        -13    1    3    3    0    0  0.36120550114E+03  0.37642184796E+02 -0.58870640152E+03  0.69170916961E+03  0.00000000000E+00 0.  1.
         22    1    1    2    0    0 -0.73190872301E+03  0.14529930572E+02  0.10307913520E+04  0.12642912280E+04  0.00000000000E+00 0. -1.
<mgrwt>
<rscale>  0 0.26446339E+04</rscale>
<asrwt>0</asrwt>
<pdfrwt beam="1">  1        2 0.21451448E+00 0.26446339E+04</pdfrwt>
<pdfrwt beam="2">  1       -2 0.19292468E+00 0.26446339E+04</pdfrwt>
<totfact> 0.19038923E+00</totfact>
</mgrwt>
</event>
<event>
 6    1  0.1719556E-004  0.2438295E+04  0.7818608E-02  0.8425304E-01
          2   -1    0    0  501    0  0.00000000000E+00  0.00000000000E+00  0.28961323394E+04  0.28961323394E+04  0.00000000000E+00 0.  1.
         -2   -1    0    0    0  501 -0.00000000000E+00 -0.00000000000E+00 -0.51320864981E+03  0.51320864981E+03  0.00000000000E+00 0. -1.
         23    2    1    2    0    0 -0.44214193098E+03 -0.12836380497E+03 -0.38210013911E+03  0.60624920926E+03  0.97830638704E+02 0.  0.
         13    1    3    3    0    0 -0.12442601744E+03 -0.13214747495E+02 -0.15449730511E+03  0.19881116834E+03  0.00000000000E+00 0.  1.
        -13    1    3    3    0    0 -0.31771591354E+03 -0.11514905747E+03 -0.22760283400E+03  0.40743804093E+03  0.00000000000E+00 0. -1.
         22    1    1    2    0    0  0.44214193098E+03  0.12836380497E+03  0.27650238287E+04  0.28030917799E+04  0.00000000000E+00 0.  1.
<mgrwt>
<rscale>  0 0.24382946E+04</rscale>
<asrwt>0</asrwt>
<pdfrwt beam="1">  1        2 0.44555881E+00 0.24382946E+04</pdfrwt>
<pdfrwt beam="2">  1       -2 0.78955178E-01 0.24382946E+04</pdfrwt>
<totfact> 0.25786803E+00</totfact>
</mgrwt>
</event>
<event>
 6    1  0.1719556E-004  0.1876838E+04  0.7818608E-02  0.8666472E-01
          1   -1    0    0  501    0  0.00000000000E+00  0.00000000000E+00  0.34892076682E+03  0.34892076682E+03  0.00000000000E+00 0.  1.
         -1   -1    0    0    0  501 -0.00000000000E+00 -0.00000000000E+00 -0.25238697858E+04  0.25238697858E+04  0.00000000000E+00 0. -1.
         23    2    1    2    0    0 -0.90006916568E+03 -0.31354984586E+02 -0.14818346482E+04  0.17363420632E+04  0.89119009103E+02 0.  0.
         11    1    3    3    0    0 -0.16955430602E+03  0.56457489734E+01 -0.21973471654E+03  0.27760382350E+03  0.00000000000E+00 0. -1.
        -11    1    3    3    0    0 -0.73051485966E+03 -0.37000733560E+02 -0.12620999317E+04  0.14587382397E+04  0.00000000000E+00 0.  1.
         22    1    1    2    0    0  0.90006916568E+03  0.31354984586E+02 -0.69311437073E+03  0.11364484894E+04  0.00000000000E+00 0.  1.
<mgrwt>
<rscale>  0 0.18768384E+04</rscale>
<asrwt>0</asrwt>
<pdfrwt beam="1">  1        1 0.53680119E-01 0.18768384E+04</pdfrwt>
<pdfrwt beam="2">  1       -1 0.38828765E+00 0.18768384E+04</pdfrwt>
<totfact> 0.58105622E-01</totfact>
</mgrwt>
</event>
<event>
 6    1  0.1719556E-004  0.1340592E+04  0.7818608E-02  0.8997981E-01
          2   -1    0    0  501    0  0.00000000000E+00  0.00000000000E+00  0.53487038143E+03  0.53487038143E+03  0.00000000000E+00 0.  1.
         -2   -1    0    0    0  501 -0.00000000000E+00 -0.00000000000E+00 -0.84000991770E+03  0.84000991770E+03  0.00000000000E+00 0. -1.
         23    2    1    2    0    0  0.24959397205E+03  0.58432612946E+03  0.55363366024E+02  0.64433494187E+03  0.91478076954E+02 0.  0.
         11    1    3    3    0    0  0.11582472404E+03  0.18572927987E+03  0.46644219436E+02  0.22379994483E+03  0.00000000000E+00 0.  1.
        -11    1    3    3    0    0  0.13376924801E+03  0.39859684959E+03  0.87191465885E+01  0.42053499704E+03  0.00000000000E+00 0. -1.
         22    1    1    2    0    0 -0.24959397205E+03 -0.58432612946E+03 -0.36050290230E+03  0.73054535726E+03  0.00000000000E+00 0. -1.
<mgrwt>
<rscale>  0 0.13405915E+04</rscale>
<asrwt>0</asrwt>
<pdfrwt beam="1">  1        2 0.82287752E-01 0.13405915E+04</pdfrwt>
<pdfrwt beam="2">  1       -2 0.12923229E+00 0.13405915E+04</pdfrwt>
<totfact> 0.24507221E+01</totfact>
</mgrwt>
</event>
<event>
 6    1  0.1719556E-004  0.3002481E+04  0.7818608E-02  0.8243023E-01
         -1   -1    0    0    0  501 -0.00000000000E+00  0.00000000000E+00  0.14759126930E+04  0.14759126930E+04  0.00000000000E+00 0. -1.
          1   -1    0    0  501    0  0.00000000000E+00 -0.00000000000E+00 -0.15270029425E+04  0.15270029425E+04  0.00000000000E+00 0.  1.
         23    2    1    2    0    0  0.56507695814E+03  0.25248790228E+03 -0.13919819189E+04  0.15260769244E+04  0.90746940335E+02 0.  0.
         13    1    3    3    0    0  0.52854180233E+03  0.24864829244E+03 -0.13456006657E+04  0.14669095274E+04  0.00000000000E+00 0. -1.
        -13    1    3    3    0    0  0.36535155814E+02  0.38396098432E+01 -0.46381253212E+02  0.59167396965E+02  0.00000000000E+00 0.  1.
         22    1    1    2    0    0 -0.56507695814E+03 -0.25248790228E+03  0.13408916694E+04  0.14768387111E+04  0.00000000000E+00 0. -1.
<mgrwt>
<rscale>  0 0.30024810E+04</rscale>
<asrwt>0</asrwt>
<pdfrwt beam="1">  1        1 0.23492353E+00 0.30024810E+04</pdfrwt>
<pdfrwt beam="2">  1       -1 0.22706349E+00 0.30024810E+04</pdfrwt>
<totfact> 0.52638158E-01</totfact>
</mgrwt>
</event>
<event>
 6    1  0.4571947E-004  0.4312655E+04  0.7818608E-02  0.7944282E-01
          2   -1    0    0  501    0  0.00000000000E+00  0.00000000000E+00  0.27331237663E+04  0.27331237663E+04  0.00000000000E+00 0.  1.
         -2   -1    0    0    0  501 -0.00000000000E+00 -0.00000000000E+00 -0.17012577812E+04  0.17012577812E+04  0.00000000000E+00 0. -1.
         23    2    1    2    0    0  0.68211859639E+03 -0.18480504018E+04  0.14154612534E+04  0.24274631642E+04  0.92036875502E+02 0.  0.
         11    1    3    3    0    0  0.21475328763E+03 -0.70024211874E+03  0.50466595548E+03  0.88946372946E+03  0.00000000000E+00 0. -1.
        -11    1    3    3    0    0  0.46736530876E+03 -0.11478082831E+04  0.91079529793E+03  0.15379994347E+04  0.00000000000E+00 0.  1.
         22    1    1    2    0    0 -0.68211859639E+03  0.18480504018E+04 -0.38359526833E+03  0.20069183833E+04  0.00000000000E+00 0. -1.
<mgrwt>
<rscale>  0 0.43126549E+04</rscale>
<asrwt>0</asrwt>
<pdfrwt beam="1">  1        2 0.42048058E+00 0.43126549E+04</pdfrwt>
<pdfrwt beam="2">  1       -2 0.26173197E+00 0.43126549E+04</pdfrwt>
<totfact> 0.10624983E-01</totfact>
</mgrwt>
</event>
<event>
 6    1  0.1719556E-004  0.1722539E+04  0.7818608E-02  0.8748613E-01
          2   -1    0    0  501    0  0.00000000000E+00  0.00000000000E+00  0.21666474671E+04  0.21666474671E+04  0.00000000000E+00 0.  1.
         -2   -1    0    0    0  501 -0.00000000000E+00 -0.00000000000E+00 -0.34236554597E+03  0.34236554597E+03  0.00000000000E+00 0. -1.
         23    2    1    2    0    0 -0.30494042496E+03  0.16943411747E+03 -0.22843693671E+03  0.42686237197E+03  0.91276873377E+02 0.  0.
         11    1    3    3    0    0 -0.11482369298E+02  0.33804636330E+02 -0.35678056871E+02  0.50472982716E+02  0.00000000000E+00 0.  1.
        -11    1    3    3    0    0 -0.29345805566E+03  0.13562948114E+03 -0.19275887984E+03  0.37638938925E+03  0.00000000000E+00 0. -1.
         22    1    1    2    0    0  0.30494042496E+03 -0.16943411747E+03  0.20527188579E+04  0.20821506411E+04  0.00000000000E+00 0.  1.
<mgrwt>
<rscale>  0 0.17225393E+04</rscale>
<asrwt>0</asrwt>
<pdfrwt beam="1">  1        2 0.33333037E+00 0.17225393E+04</pdfrwt>
<pdfrwt beam="2">  1       -2 0.52671624E-01 0.17225393E+04</pdfrwt>
<totfact> 0.17422558E+01</totfact>
</mgrwt>
</event>
<event>
 6    1  0.1719556E-004  0.3678356E+04  0.7818608E-02  0.8072775E-01
         -2   -1    0    0    0  501 -0.00000000000E+00  0.00000000000E+00  0.90933790759E+03  0.90933790759E+03  0.00000000000E+00 0. -1.
          2   -1    0    0  501    0  0.00000000000E+00 -0.00000000000E+00 -0.37198219332E+04  0.37198219332E+04  0.00000000000E+00 0.  1.
         23    2    1    2    0    0 -0.44665987250E+03 -0.12673600538E+04 -0.29843324241E+04  0.32741949655E+04  0.91684822572E+02 0.  0.
         13    1    3    3    0    0 -0.19503394339E+03 -0.60170051234E+03 -0.13005267936E+04  0.14461852186E+04  0.00000000000E+00 0. -1.
        -13    1    3    3    0    0 -0.25162592911E+03 -0.66565954145E+03 -0.16838056306E+04  0.18280097469E+04  0.00000000000E+00 0.  1.
         22    1    1    2    0    0  0.44665987250E+03  0.12673600538E+04  0.17384839852E+03  0.13549648753E+04  0.00000000000E+00 0. -1.
<mgrwt>
<rscale>  0 0.36783557E+04</rscale>
<asrwt>0</asrwt>
<pdfrwt beam="1">  1        2 0.57228028E+00 0.36783557E+04</pdfrwt>
<pdfrwt beam="2">  1       -2 0.13989814E+00 0.36783557E+04</pdfrwt>
<totfact> 0.16406292E-01</totfact>
</mgrwt>
</event>
<event>
 6    1  0.2784523E-004  0.2905375E+04  0.7818608E-02  0.8271280E-01
          2   -1    0    0  501    0  0.00000000000E+00  0.00000000000E+00  0.10718160963E+04  0.10718160963E+04  0.00000000000E+00 0.  1.
         -2   -1    0    0    0  501 -0.00000000000E+00 -0.00000000000E+00 -0.19689015387E+04  0.19689015387E+04  0.00000000000E+00 0. -1.
         23    2    1    2    0    0  0.60107178585E+03  0.86857257599E+03 -0.14905123502E+04  0.18291644557E+04  0.92249272738E+02 0.  0.
         13    1    3    3    0    0  0.36751199129E+03  0.45564655987E+03 -0.85114899400E+03  0.10330215202E+04  0.00000000000E+00 0. -1.
        -13    1    3    3    0    0  0.23355979456E+03  0.41292601611E+03 -0.63936335620E+03  0.79614293545E+03  0.00000000000E+00 0.  1.
         22    1    1    2    0    0 -0.60107178585E+03 -0.86857257599E+03  0.59342690777E+03  0.12115531793E+04  0.00000000000E+00 0.  1.
<mgrwt>
<rscale>  0 0.29053746E+04</rscale>
<asrwt>0</asrwt>
<pdfrwt beam="1">  1        2 0.16489478E+00 0.29053746E+04</pdfrwt>
<pdfrwt beam="2">  1       -2 0.30290793E+00 0.29053746E+04</pdfrwt>
<totfact> 0.59690616E-01</totfact>
</mgrwt>
</event>
<event>
 6    1  0.1719556E-004  0.2728838E+04  0.7818608E-02  0.8325708E-01
          2   -1    0    0  501    0  0.00000000000E+00  0.00000000000E+00  0.16339403432E+04  0.16339403432E+04  0.00000000000E+00 0.  1.
         -2   -1    0    0    0  501 -0.00000000000E+00 -0.00000000000E+00 -0.11393560239E+04  0.11393560239E+04  0.00000000000E+00 0. -1.
         23    2    1    2    0    0 -0.97412052940E+02 -0.11426051001E+04 -0.50097089435E+03  0.12546898657E+04  0.90770586236E+02 0.  0.
         11    1    3    3    0    0 -0.63414717424E+02 -0.46759053599E+03 -0.24761650796E+03  0.53289423974E+03  0.00000000000E+00 0. -1.
        -11    1    3    3    0    0 -0.33997335516E+02 -0.67501456411E+03 -0.25335438639E+03  0.72179562598E+03  0.00000000000E+00 0.  1.
         22    1    1    2    0    0  0.97412052940E+02  0.11426051001E+04  0.99555521360E+03  0.15186065014E+04  0.00000000000E+00 0.  1.
<mgrwt>
<rscale>  0 0.27288384E+04</rscale>
<asrwt>0</asrwt>
<pdfrwt beam="1">  1        2 0.25137544E+00 0.27288384E+04</pdfrwt>
<pdfrwt beam="2">  1       -2 0.17528554E+00 0.27288384E+04</pdfrwt>
<totfact> 0.18275548E+00</totfact>
</mgrwt>
</event>
<event>
 6    1  0.1719556E-004  0.4186792E+04  0.7818608E-02  0.7967889E-01
          2   -1    0    0  501    0  0.00000000000E+00  0.00000000000E+00  0.28777474233E+04  0.28777474233E+04  0.00000000000E+00 0.  1.
         -2   -1    0    0    0  501 -0.00000000000E+00 -0.00000000000E+00 -0.15228253507E+04  0.15228253507E+04  0.00000000000E+00 0. -1.
         23    2    1    2    0    0  0.58490146951E+03  0.13836375093E+04  0.22087402453E+04  0.26726931607E+04  0.90513944131E+02 0.  0.
         11    1    3    3    0    0  0.40931738605E+03  0.10603809250E+04  0.16416821741E+04  0.19967645803E+04  0.00000000000E+00 0.  1.
        -11    1    3    3    0    0  0.17558408346E+03  0.32325658427E+03  0.56705807123E+03  0.67592858038E+03  0.00000000000E+00 0. -1.
         22    1    1    2    0    0 -0.58490146951E+03 -0.13836375093E+04 -0.85381817273E+03  0.17278796133E+04  0.00000000000E+00 0. -1.
<mgrwt>
<rscale>  0 0.41867920E+04</rscale>
<asrwt>0</asrwt>
<pdfrwt beam="1">  1        2 0.44273037E+00 0.41867920E+04</pdfrwt>
<pdfrwt beam="2">  1       -2 0.23428082E+00 0.41867920E+04</pdfrwt>
<totfact> 0.12948008E-01</totfact>
</mgrwt>
</event>
<event>
 6    1  0.1719556E-004  0.1094973E+04  0.7818608E-02  0.9210105E-01
         -1   -1    0    0    0  501 -0.00000000000E+00  0.00000000000E+00  0.42505818455E+03  0.42505818455E+03  0.00000000000E+00 0.  1.
          1   -1    0    0  501    0  0.00000000000E+00 -0.00000000000E+00 -0.70517776362E+03  0.70517776362E+03  0.00000000000E+00 0. -1.
         23    2    1    2    0    0  0.45071238394E+03  0.68356910123E+02  0.16528340847E+03  0.49289919142E+03  0.88412033050E+02 0.  0.
         13    1    3    3    0    0  0.35648656825E+03  0.56448549401E+02  0.90729071420E+02  0.37215705888E+03  0.00000000000E+00 0.  1.
        -13    1    3    3    0    0  0.94225815684E+02  0.11908360721E+02  0.74554337048E+02  0.12074213253E+03  0.00000000000E+00 0. -1.
         22    1    1    2    0    0 -0.45071238394E+03 -0.68356910123E+02 -0.44540298754E+03  0.63733675675E+03  0.00000000000E+00 0. -1.
<mgrwt>
<rscale>  0 0.10949732E+04</rscale>
<asrwt>0</asrwt>
<pdfrwt beam="1">  1        1 0.10848889E+00 0.10949732E+04</pdfrwt>
<pdfrwt beam="2">  1       -1 0.65393568E-01 0.10949732E+04</pdfrwt>
<totfact> 0.63675954E+01</totfact>
</mgrwt>
</event>
<event>
 6    1  0.2253916E-004  0.1984390E+04  0.7818608E-02  0.8613954E-01
         -1   -1    0    0    0  501 -0.00000000000E+00  0.00000000000E+00  0.69728266560E+03  0.69728266560E+03  0.00000000000E+00 0. -1.
          1   -1    0    0  501    0  0.00000000000E+00 -0.00000000000E+00 -0.14118390050E+04  0.14118390050E+04  0.00000000000E+00 0.  1.
         23    2    1    2    0    0 -0.50358063405E+03 -0.18970878428E+03 -0.12413627364E+04  0.13560560309E+04  0.91233972460E+02 0.  0.
         11    1    3    3    0    0 -0.21082755639E+03 -0.56500670058E+02 -0.40672898360E+03  0.46159403197E+03  0.00000000000E+00 0. -1.
        -11    1    3    3    0    0 -0.29275307767E+03 -0.13320811422E+03 -0.83463375285E+03  0.89446199895E+03  0.00000000000E+00 0.  1.
         22    1    1    2    0    0  0.50358063405E+03  0.18970878428E+03  0.52680639700E+03  0.75306563973E+03  0.00000000000E+00 0. -1.
<mgrwt>
<rscale>  0 0.19843899E+04</rscale>
<asrwt>0</asrwt>
<pdfrwt beam="1">  1        1 0.21720600E+00 0.19843899E+04</pdfrwt>
<pdfrwt beam="2">  1       -1 0.10727426E+00 0.19843899E+04</pdfrwt>
<totfact> 0.56689378E+00</totfact>
</mgrwt>
</event>
<event>
 6    1  0.1719556E-004  0.1866387E+04  0.7818608E-02  0.8671771E-01
          2   -1    0    0  501    0  0.00000000000E+00  0.00000000000E+00  0.20084541424E+04  0.20084541424E+04  0.00000000000E+00 0.  1.
         -2   -1    0    0    0  501 -0.00000000000E+00 -0.00000000000E+00 -0.43359209136E+03  0.43359209136E+03  0.00000000000E+00 0. -1.
         23    2    1    2    0    0  0.72391421154E+03  0.95391445798E+02  0.33256152737E+02  0.73626193928E+03  0.88455400867E+02 0.  0.
         11    1    3    3    0    0  0.62879944615E+03  0.53344655043E+02  0.19473058410E+02  0.63135853182E+03  0.00000000000E+00 0. -1.
        -11    1    3    3    0    0  0.95114765388E+02  0.42046790755E+02  0.13783094327E+02  0.10490340746E+03  0.00000000000E+00 0.  1.
         22    1    1    2    0    0 -0.72391421154E+03 -0.95391445798E+02  0.15416058983E+04  0.17057842945E+04  0.00000000000E+00 0.  1.
<mgrwt>
<rscale>  0 0.18663867E+04</rscale>
<asrwt>0</asrwt>
<pdfrwt beam="1">  1        2 0.30899294E+00 0.18663867E+04</pdfrwt>
<pdfrwt beam="2">  1       -2 0.66706477E-01 0.18663867E+04</pdfrwt>
<totfact> 0.12812228E+01</totfact>
</mgrwt>
</event>
<event>
 6    1  0.1719556E-004  0.3376698E+04  0.7818608E-02  0.8143649E-01
          2   -1    0    0  501    0  0.00000000000E+00  0.00000000000E+00  0.18516589316E+04  0.18516589316E+04  0.00000000000E+00 0.  1.
         -2   -1    0    0    0  501 -0.00000000000E+00 -0.00000000000E+00 -0.15394421102E+04  0.15394421102E+04  0.00000000000E+00 0. -1.
         23    2    1    2    0    0  0.33862036977E+03  0.39150984102E+03  0.17688112661E+04  0.18452643472E+04  0.91452203982E+02 0.  0.
         11    1    3    3    0    0  0.15751029835E+03  0.23852159798E+03  0.10596038492E+04  0.10974800062E+04  0.00000000000E+00 0. -1.
        -11    1    3    3    0    0  0.18111007143E+03  0.15298824304E+03  0.70920741683E+03  0.74778434095E+03  0.00000000000E+00 0.  1.
         22    1    1    2    0    0 -0.33862036977E+03 -0.39150984102E+03 -0.14565944446E+04  0.15458366947E+04  0.00000000000E+00 0. -1.
<mgrwt>
<rscale>  0 0.33766976E+04</rscale>
<asrwt>0</asrwt>
<pdfrwt beam="1">  1        2 0.28487061E+00 0.33766976E+04</pdfrwt>
<pdfrwt beam="2">  1       -2 0.23683725E+00 0.33766976E+04</pdfrwt>
<totfact> 0.51962206E-01</totfact>
</mgrwt>
</event>
<event>
 6    1  0.1719556E-004  0.2554318E+04  0.7818608E-02  0.8383886E-01
         -2   -1    0    0    0  501 -0.00000000000E+00  0.00000000000E+00  0.13676339528E+04  0.13676339528E+04  0.00000000000E+00 0.  1.
          2   -1    0    0  501    0  0.00000000000E+00 -0.00000000000E+00 -0.11926692842E+04  0.11926692842E+04  0.00000000000E+00 0. -1.
         23    2    1    2    0    0  0.50650416036E+03 -0.89068904340E+03  0.84912233947E+03  0.13337788787E+04  0.89910585618E+02 0.  0.
         13    1    3    3    0    0  0.36398810137E+03 -0.56007534950E+03  0.53009987754E+03  0.85274709922E+03  0.00000000000E+00 0.  1.
        -13    1    3    3    0    0  0.14251605899E+03 -0.33061369390E+03  0.31902246192E+03  0.48103177949E+03  0.00000000000E+00 0. -1.
         22    1    1    2    0    0 -0.50650416036E+03  0.89068904340E+03 -0.67415767084E+03  0.12265243584E+04  0.00000000000E+00 0. -1.
<mgrwt>
<rscale>  0 0.25543179E+04</rscale>
<asrwt>0</asrwt>
<pdfrwt beam="1">  1        2 0.18348758E+00 0.25543179E+04</pdfrwt>
<pdfrwt beam="2">  1       -2 0.21040522E+00 0.25543179E+04</pdfrwt>
<totfact> 0.19336181E+00</totfact>
</mgrwt>
</event>
<event>
 6    1  0.1719556E-004  0.3742749E+04  0.7818608E-02  0.8058554E-01
          2   -1    0    0  501    0  0.00000000000E+00  0.00000000000E+00  0.23599831532E+04  0.23599831532E+04  0.00000000000E+00 0.  1.
         -2   -1    0    0    0  501 -0.00000000000E+00 -0.00000000000E+00 -0.14839267268E+04  0.14839267268E+04  0.00000000000E+00 0. -1.
         23    2    1    2    0    0  0.58397302492E+03  0.13164618105E+04  0.16638397656E+04  0.22023561094E+04  0.88957712148E+02 0.  0.
         13    1    3    3    0    0  0.14156740565E+03  0.41877057518E+03  0.52042521458E+03  0.68282686601E+03  0.00000000000E+00 0.  1.
        -13    1    3    3    0    0  0.44240561928E+03  0.89769123530E+03  0.11434145511E+04  0.15195292434E+04  0.00000000000E+00 0. -1.
         22    1    1    2    0    0 -0.58397302492E+03 -0.13164618105E+04 -0.78778333930E+03  0.16415537707E+04  0.00000000000E+00 0. -1.
<mgrwt>
<rscale>  0 0.37427488E+04</rscale>
<asrwt>0</asrwt>
<pdfrwt beam="1">  1        2 0.36307433E+00 0.37427488E+04</pdfrwt>
<pdfrwt beam="2">  1       -2 0.22829642E+00 0.37427488E+04</pdfrwt>
<totfact> 0.29583317E-01</totfact>
</mgrwt>
</event>
<event>
 6    1  0.1719556E-004  0.2513802E+04  0.7818608E-02  0.8398085E-01
         -2   -1    0    0    0  501 -0.00000000000E+00  0.00000000000E+00  0.44360436998E+03  0.44360436998E+03  0.00000000000E+00 0. -1.
          2   -1    0    0  501    0  0.00000000000E+00 -0.00000000000E+00 -0.35612817328E+04  0.35612817328E+04  0.00000000000E+00 0.  1.
         23    2    1    2    0    0  0.66969312913E+03  0.14996889008E+03 -0.32353127540E+04  0.33085976277E+04  0.92682742759E+02 0.  0.
         13    1    3    3    0    0  0.25340080336E+03  0.41829927541E+02 -0.14188997408E+04  0.14419563740E+04  0.00000000000E+00 0. -1.
        -13    1    3    3    0    0  0.41629232577E+03  0.10813896254E+03 -0.18164130132E+04  0.18666412537E+04  0.00000000000E+00 0.  1.
         22    1    1    2    0    0 -0.66969312913E+03 -0.14996889008E+03  0.11763539121E+03  0.69628847503E+03  0.00000000000E+00 0. -1.
<mgrwt>
<rscale>  0 0.25138020E+04</rscale>
<asrwt>0</asrwt>
<pdfrwt beam="1">  1        2 0.54788950E+00 0.25138020E+04</pdfrwt>
<pdfrwt beam="2">  1       -2 0.68246825E-01 0.25138020E+04</pdfrwt>
<totfact> 0.12897705E+00</totfact>
</mgrwt>
</event>
<event>
 6    1  0.1719556E-004  0.2838489E+04  0.7818608E-02  0.8291418E-01
          2   -1    0    0  501    0  0.00000000000E+00  0.00000000000E+00  0.17410122166E+04  0.17410122166E+04  0.00000000000E+00 0.  1.
         -2   -1    0    0    0  501 -0.00000000000E+00 -0.00000000000E+00 -0.11569446832E+04  0.11569446832E+04  0.00000000000E+00 0. -1.
         23    2    1    2    0    0  0.85444151119E+03  0.11180201261E+04  0.46926947004E+03  0.14861432104E+04  0.91479548566E+02 0.  0.
         11    1    3    3    0    0  0.27343094102E+03  0.34940876925E+03  0.10382895204E+03  0.45566590702E+03  0.00000000000E+00 0.  1.
        -11    1    3    3    0    0  0.58101057016E+03  0.76861135683E+03  0.36544051800E+03  0.10304773033E+04  0.00000000000E+00 0. -1.
         22    1    1    2    0    0 -0.85444151119E+03 -0.11180201261E+04  0.11479806333E+03  0.14118136894E+04  0.00000000000E+00 0. -1.
<mgrwt>
<rscale>  0 0.28384889E+04</rscale>
<asrwt>0</asrwt>
<pdfrwt beam="1">  1        2 0.26784803E+00 0.28384889E+04</pdfrwt>
<pdfrwt beam="2">  1       -2 0.17799149E+00 0.28384889E+04</pdfrwt>
<totfact> 0.15115009E+00</totfact>
</mgrwt>
</event>
<event>
 6    1  0.1719556E-004  0.2578636E+04  0.7818608E-02  0.8375494E-01
          1   -1    0    0  501    0  0.00000000000E+00  0.00000000000E+00  0.12058997720E+04  0.12058997720E+04  0.00000000000E+00 0. -1.
         -1   -1    0    0    0  501 -0.00000000000E+00 -0.00000000000E+00 -0.13785065840E+04  0.13785065840E+04  0.00000000000E+00 0.  1.
         23    2    1    2    0    0  0.52526536726E+03  0.10495238049E+04  0.44460430623E+03  0.12583771378E+04  0.91848291937E+02 0.  0.
         11    1    3    3    0    0  0.42351349477E+03  0.78827006506E+03  0.30678480493E+03  0.94596527011E+03  0.00000000000E+00 0. -1.
        -11    1    3    3    0    0  0.10175187250E+03  0.26125373982E+03  0.13781950130E+03  0.31241186768E+03  0.00000000000E+00 0.  1.
         22    1    1    2    0    0 -0.52526536726E+03 -0.10495238049E+04 -0.61721111829E+03  0.13260292182E+04  0.00000000000E+00 0.  1.
<mgrwt>
<rscale>  0 0.25786359E+04</rscale>
<asrwt>0</asrwt>
<pdfrwt beam="1">  1        1 0.18552304E+00 0.25786359E+04</pdfrwt>
<pdfrwt beam="2">  1       -1 0.21207794E+00 0.25786359E+04</pdfrwt>
<totfact> 0.11618249E+00</totfact>
</mgrwt>
</event>
<event>
 6    1  0.1719556E-004  0.7943625E+03  0.7818608E-02  0.9568213E-01
         -2   -1    0    0    0  501 -0.00000000000E+00  0.00000000000E+00  0.81626423706E+02  0.81626423706E+02  0.00000000000E+00 0. -1.
          2   -1    0    0  501    0  0.00000000000E+00 -0.00000000000E+00 -0.19326211496E+04  0.19326211496E+04  0.00000000000E+00 0.  1.
         23    2    1    2    0    0 -0.28850699282E+03 -0.35671762157E+02 -0.27528002061E+03  0.41194123806E+03  0.96993475802E+02 0.  0.
         13    1    3    3    0    0 -0.14472270000E+03  0.29324284784E+02 -0.11647289130E+03  0.18807048674E+03  0.00000000000E+00 0. -1.
        -13    1    3    3    0    0 -0.14378429281E+03 -0.64996046941E+02 -0.15880712930E+03  0.22387075132E+03  0.00000000000E+00 0.  1.
         22    1    1    2    0    0  0.28850699282E+03  0.35671762157E+02 -0.15757147053E+04  0.16023063352E+04  0.00000000000E+00 0.  1.
<mgrwt>
<rscale>  0 0.79436252E+03</rscale>
<asrwt>0</asrwt>
<pdfrwt beam="1">  1        2 0.29732635E+00 0.79436252E+03</pdfrwt>
<pdfrwt beam="2">  1       -2 0.12557911E-01 0.79436252E+03</pdfrwt>
<totfact> 0.35016473E+02</totfact>
</mgrwt>
</event>
<event>
 6    1  0.1719556E-004  0.4257994E+04  0.7818608E-02  0.7954431E-01
          2   -1    0    0  501    0  0.00000000000E+00  0.00000000000E+00  0.16585489115E+04  0.16585489115E+04  0.00000000000E+00 0.  1.
         -2   -1    0    0    0  501 -0.00000000000E+00 -0.00000000000E+00 -0.27328878342E+04  0.27328878342E+04  0.00000000000E+00 0. -1.
         23    2    1    2    0    0 -0.14035328029E+04 -0.63964965070E+03  0.97458335088E+03  0.18268435054E+04  0.92132952570E+02 0.  0.
         13    1    3    3    0    0 -0.11040649043E+04 -0.47432874651E+03  0.79104125452E+03  0.14386428810E+04  0.00000000000E+00 0.  1.
        -13    1    3    3    0    0 -0.29946789863E+03 -0.16532090420E+03  0.18354209636E+03  0.38820062443E+03  0.00000000000E+00 0. -1.
         22    1    1    2    0    0  0.14035328029E+04  0.63964965070E+03 -0.20489222736E+04  0.25645932403E+04  0.00000000000E+00 0. -1.
<mgrwt>
<rscale>  0 0.42579940E+04</rscale>
<asrwt>0</asrwt>
<pdfrwt beam="1">  1        2 0.25516137E+00 0.42579940E+04</pdfrwt>
<pdfrwt beam="2">  1       -2 0.42044428E+00 0.42579940E+04</pdfrwt>
<totfact> 0.43520747E-02</totfact>
</mgrwt>
</event>
<event>
 6    1  0.1719556E-004  0.1743770E+04  0.7818608E-02  0.8736787E-01
         -2   -1    0    0    0  501 -0.00000000000E+00  0.00000000000E+00  0.48318627450E+03  0.48318627450E+03  0.00000000000E+00 0. -1.
          2   -1    0    0  501    0  0.00000000000E+00 -0.00000000000E+00 -0.15732713871E+04  0.15732713871E+04  0.00000000000E+00 0.  1.
         23    2    1    2    0    0  0.14571133480E+03  0.70197119354E+03  0.33720465149E+02  0.72344066013E+03  0.90741221655E+02 0.  0.
         13    1    3    3    0    0  0.11778764206E+03  0.42258656958E+03 -0.12563178267E+02  0.43887489204E+03  0.00000000000E+00 0. -1.
        -13    1    3    3    0    0  0.27923692735E+02  0.27938462396E+03  0.46283643416E+02  0.28456576809E+03  0.00000000000E+00 0.  1.
         22    1    1    2    0    0 -0.14571133480E+03 -0.70197119354E+03 -0.11238055778E+04  0.13330170015E+04  0.00000000000E+00 0.  1.
<mgrwt>
<rscale>  0 0.17437696E+04</rscale>
<asrwt>0</asrwt>
<pdfrwt beam="1">  1        2 0.24204175E+00 0.17437696E+04</pdfrwt>
<pdfrwt beam="2">  1       -2 0.74336351E-01 0.17437696E+04</pdfrwt>
<totfact> 0.17826043E+01</totfact>
</mgrwt>
</event>
<event>
 6    1  0.1719556E-004  0.1705889E+04  0.7818608E-02  0.8758013E-01
         -2   -1    0    0    0  501 -0.00000000000E+00  0.00000000000E+00  0.94367082104E+03  0.94367082104E+03  0.00000000000E+00 0. -1.
          2   -1    0    0  501    0  0.00000000000E+00 -0.00000000000E+00 -0.77094086469E+03  0.77094086469E+03  0.00000000000E+00 0.  1.
         23    2    1    2    0    0  0.65118305948E+03  0.54689449073E+03  0.74476466335E+02  0.85858206636E+03  0.92105698452E+02 0.  0.
         11    1    3    3    0    0  0.59444434536E+03  0.48171108398E+03  0.91275765342E+02  0.77054585425E+03  0.00000000000E+00 0. -1.
        -11    1    3    3    0    0  0.56738714121E+02  0.65183406744E+02 -0.16799299007E+02  0.88036212106E+02  0.00000000000E+00 0.  1.
         22    1    1    2    0    0 -0.65118305948E+03 -0.54689449073E+03  0.98253490023E+02  0.85602961937E+03  0.00000000000E+00 0.  1.
<mgrwt>
<rscale>  0 0.17058891E+04</rscale>
<asrwt>0</asrwt>
<pdfrwt beam="1">  1        2 0.11860629E+00 0.17058891E+04</pdfrwt>
<pdfrwt beam="2">  1       -2 0.14518013E+00 0.17058891E+04</pdfrwt>
<totfact> 0.11233000E+01</totfact>
</mgrwt>
</event>
<event>
 6    1  0.1719556E-004  0.3423191E+04  0.7818608E-02  0.8132238E-01
         -2   -1    0    0    0  501 -0.00000000000E+00  0.00000000000E+00  0.10366286227E+04  0.10366286227E+04  0.00000000000E+00 0. -1.
          2   -1    0    0  501    0  0.00000000000E+00 -0.00000000000E+00 -0.28260453425E+04  0.28260453425E+04  0.00000000000E+00 0.  1.
         23    2    1    2    0    0  0.72327181753E+03  0.15448939911E+04 -0.75428089635E+03  0.18673479922E+04  0.90715422517E+02 0.  0.
         13    1    3    3    0    0  0.10264109868E+03  0.28680262102E+03 -0.11334355035E+03  0.32501953629E+03  0.00000000000E+00 0. -1.
        -13    1    3    3    0    0  0.62063071885E+03  0.12580913700E+04 -0.64093734600E+03  0.15423284560E+04  0.00000000000E+00 0.  1.
         22    1    1    2    0    0 -0.72327181753E+03 -0.15448939911E+04 -0.10351358234E+04  0.19953259730E+04  0.00000000000E+00 0.  1.
<mgrwt>
<rscale>  0 0.34231912E+04</rscale>
<asrwt>0</asrwt>
<pdfrwt beam="1">  1        2 0.43477621E+00 0.34231912E+04</pdfrwt>
<pdfrwt beam="2">  1       -2 0.15948133E+00 0.34231912E+04</pdfrwt>
<totfact> 0.46832192E-01</totfact>
</mgrwt>
</event>
<event>
 6    1  0.1719556E-004  0.1771509E+04  0.7818608E-02  0.8721599E-01
          2   -1    0    0  501    0  0.00000000000E+00  0.00000000000E+00  0.12486141931E+04  0.12486141931E+04  0.00000000000E+00 0.  1.
         -2   -1    0    0    0  501 -0.00000000000E+00 -0.00000000000E+00 -0.62834536861E+03  0.62834536861E+03  0.00000000000E+00 0. -1.
         23    2    1    2    0    0  0.91546776434E+02 -0.27441657168E+03  0.11953729583E+04  0.12331971585E+04  0.90407162910E+02 0.  0.
         11    1    3    3    0    0 -0.35129344886E+01 -0.12616445514E+03  0.54251458313E+03  0.55700258829E+03  0.00000000000E+00 0. -1.
        -11    1    3    3    0    0  0.95059710922E+02 -0.14825211654E+03  0.65285837519E+03  0.67619457019E+03  0.00000000000E+00 0.  1.
         22    1    1    2    0    0 -0.91546776434E+02  0.27441657168E+03 -0.57510413382E+03  0.64376240324E+03  0.00000000000E+00 0. -1.
<mgrwt>
<rscale>  0 0.17715089E+04</rscale>
<asrwt>0</asrwt>
<pdfrwt beam="1">  1        2 0.19209449E+00 0.17715089E+04</pdfrwt>
<pdfrwt beam="2">  1       -2 0.96668519E-01 0.17715089E+04</pdfrwt>
<totfact> 0.15005195E+01</totfact>
</mgrwt>
</event>
<event>
 6    1  0.1719556E-004  0.3164223E+04  0.7818608E-02  0.8198330E-01
          2   -1    0    0  501    0  0.00000000000E+00  0.00000000000E+00  0.35737448659E+04  0.35737448659E+04  0.00000000000E+00 0.  1.
         -2   -1    0    0    0  501 -0.00000000000E+00 -0.00000000000E+00 -0.70040738365E+03  0.70040738365E+03  0.00000000000E+00 0. -1.
         23    2    1    2    0    0  0.12827816812E+04 -0.39377920960E+03  0.30922040470E+03  0.13801433873E+04  0.92669321251E+02 0.  0.
         13    1    3    3    0    0  0.43647474835E+03 -0.10970673253E+03  0.14186770727E+03  0.47188157357E+03  0.00000000000E+00 0.  1.
        -13    1    3    3    0    0  0.84630693288E+03 -0.28407247706E+03  0.16735269743E+03  0.90826181368E+03  0.00000000000E+00 0. -1.
         22    1    1    2    0    0 -0.12827816812E+04  0.39377920960E+03  0.25641170775E+04  0.28940088623E+04  0.00000000000E+00 0. -1.
<mgrwt>
<rscale>  0 0.31642233E+04</rscale>
<asrwt>0</asrwt>
<pdfrwt beam="1">  1        2 0.54980689E+00 0.31642233E+04</pdfrwt>
<pdfrwt beam="2">  1       -2 0.10775498E+00 0.31642233E+04</pdfrwt>
<totfact> 0.41998197E-01</totfact>
</mgrwt>
</event>
<event>
 6    1  0.1719556E-004  0.2317296E+04  0.7818608E-02  0.8471133E-01
         -4   -1    0    0    0  501 -0.00000000000E+00  0.00000000000E+00  0.20599566146E+04  0.20599566146E+04  0.00000000000E+00 0. -1.
          4   -1    0    0  501    0  0.00000000000E+00 -0.00000000000E+00 -0.65169598071E+03  0.65169598071E+03  0.00000000000E+00 0.  1.
         23    2    1    2    0    0 -0.28360166309E+03 -0.71577777818E+03  0.17156371660E+04  0.18826483350E+04  0.90477272672E+02 0.  0.
         11    1    3    3    0    0 -0.17326403219E+03 -0.42505796085E+03  0.11278332565E+04  0.12176627404E+04  0.00000000000E+00 0. -1.
        -11    1    3    3    0    0 -0.11033763090E+03 -0.29071981732E+03  0.58780390954E+03  0.66498559462E+03  0.00000000000E+00 0.  1.
         22    1    1    2    0    0  0.28360166309E+03  0.71577777818E+03 -0.30737653215E+03  0.82900426027E+03  0.00000000000E+00 0.  1.
<mgrwt>
<rscale>  0 0.23172962E+04</rscale>
<asrwt>0</asrwt>
<pdfrwt beam="1">  1        4 0.10026092E+00 0.23172962E+04</pdfrwt>
<pdfrwt beam="2">  1       -4 0.31691640E+00 0.23172962E+04</pdfrwt>
<totfact> 0.35911320E-02</totfact>
</mgrwt>
</event>
<event>
 6    1  0.1719556E-004  0.3299064E+04  0.7818608E-02  0.8163134E-01
         -2   -1    0    0    0  501 -0.00000000000E+00  0.00000000000E+00  0.95874841915E+03  0.95874841915E+03  0.00000000000E+00 0. -1.
          2   -1    0    0  501    0  0.00000000000E+00 -0.00000000000E+00 -0.28380292962E+04  0.28380292962E+04  0.00000000000E+00 0.  1.
         23    2    1    2    0    0 -0.84558313026E+03 -0.14089558621E+04 -0.10887565613E+04  0.19732930992E+04  0.91254335690E+02 0.  0.
         13    1    3    3    0    0 -0.41951484725E+03 -0.78636568022E+03 -0.58141761677E+03  0.10641476097E+04  0.00000000000E+00 0.  1.
        -13    1    3    3    0    0 -0.42606828301E+03 -0.62259018191E+03 -0.50733894458E+03  0.90914548951E+03  0.00000000000E+00 0. -1.
         22    1    1    2    0    0  0.84558313026E+03  0.14089558621E+04 -0.79052431568E+03  0.18234846161E+04  0.00000000000E+00 0. -1.
<mgrwt>
<rscale>  0 0.32990642E+04</rscale>
<asrwt>0</asrwt>
<pdfrwt beam="1">  1        2 0.43661989E+00 0.32990642E+04</pdfrwt>
<pdfrwt beam="2">  1       -2 0.14749976E+00 0.32990642E+04</pdfrwt>
<totfact> 0.57339708E-01</totfact>
</mgrwt>
</event>
<event>
 6    1  0.1719556E-004  0.3965528E+04  0.7818608E-02  0.8011537E-01
         -2   -1    0    0    0  501 -0.00000000000E+00  0.00000000000E+00  0.31979410754E+04  0.31979410754E+04  0.00000000000E+00 0. -1.
          2   -1    0    0  501    0  0.00000000000E+00 -0.00000000000E+00 -0.12293387091E+04  0.12293387091E+04  0.00000000000E+00 0.  1.
         23    2    1    2    0    0  0.16001722244E+04  0.92476876924E+03  0.18717942819E+03  0.18603329389E+04  0.10027003937E+03 0.  0.
         13    1    3    3    0    0  0.99612368597E+03  0.54775504908E+03  0.72440719155E+02  0.11390986126E+04  0.00000000000E+00 0. -1.
        -13    1    3    3    0    0  0.60404853843E+03  0.37701372015E+03  0.11473870903E+03  0.72123432622E+03  0.00000000000E+00 0.  1.
         22    1    1    2    0    0 -0.16001722244E+04 -0.92476876924E+03  0.17814229381E+04  0.25669468457E+04  0.00000000000E+00 0. -1.
<mgrwt>
<rscale>  0 0.39655278E+04</rscale>
<asrwt>0</asrwt>
<pdfrwt beam="1">  1        2 0.18912903E+00 0.39655278E+04</pdfrwt>
<pdfrwt beam="2">  1       -2 0.49199093E+00 0.39655278E+04</pdfrwt>
<totfact> 0.26668429E-02</totfact>
</mgrwt>
</event>
<event>
 6    1  0.1719556E-004  0.2256483E+03  0.7818608E-02  0.1129741E+00
          2   -1    0    0  501    0  0.00000000000E+00  0.00000000000E+00  0.44933182930E+02  0.44933182930E+02  0.00000000000E+00 0.  1.
         -2   -1    0    0    0  501 -0.00000000000E+00 -0.00000000000E+00 -0.28329378156E+03  0.28329378156E+03  0.00000000000E+00 0. -1.
         23    2    1    2    0    0 -0.69222176751E+01  0.90619094451E+01 -0.27492663712E+03  0.28992408637E+03  0.91330634280E+02 0.  0.
         13    1    3    3    0    0 -0.21582818541E+02 -0.33192447939E+02 -0.18847162802E+03  0.19258533492E+03  0.00000000000E+00 0. -1.
        -13    1    3    3    0    0  0.14660600866E+02  0.42254357384E+02 -0.86455009101E+02  0.97338751453E+02  0.00000000000E+00 0.  1.
         22    1    1    2    0    0  0.69222176751E+01 -0.90619094451E+01  0.36566038499E+02  0.38302878114E+02  0.00000000000E+00 0.  1.
<mgrwt>
<rscale>  0 0.22564832E+03</rscale>
<asrwt>0</asrwt>
<pdfrwt beam="1">  1        2 0.69127975E-02 0.22564832E+03</pdfrwt>
<pdfrwt beam="2">  1       -2 0.43583658E-01 0.22564832E+03</pdfrwt>
<totfact> 0.50909884E+03</totfact>
</mgrwt>
</event>
<event>
 6    1  0.1719556E-004  0.1599008E+04  0.7818608E-02  0.8821158E-01
          1   -1    0    0  501    0  0.00000000000E+00  0.00000000000E+00  0.53594456971E+03  0.53594456971E+03  0.00000000000E+00 0. -1.
         -1   -1    0    0    0  501 -0.00000000000E+00 -0.00000000000E+00 -0.11926728642E+04  0.11926728642E+04  0.00000000000E+00 0.  1.
         23    2    1    2    0    0 -0.49964824764E+02 -0.79096266900E+03 -0.42148171622E+03  0.90190141249E+03  0.87526528933E+02 0.  0.
         11    1    3    3    0    0 -0.33595761075E+02 -0.73197084229E+03 -0.40988300143E+03  0.83959160547E+03  0.00000000000E+00 0.  1.
        -11    1    3    3    0    0 -0.16369063690E+02 -0.58991826713E+02 -0.11598714794E+02  0.62309807012E+02  0.00000000000E+00 0. -1.
         22    1    1    2    0    0  0.49964824764E+02  0.79096266900E+03 -0.23524657825E+03  0.82671602141E+03  0.00000000000E+00 0. -1.
<mgrwt>
<rscale>  0 0.15990079E+04</rscale>
<asrwt>0</asrwt>
<pdfrwt beam="1">  1        1 0.82453012E-01 0.15990079E+04</pdfrwt>
<pdfrwt beam="2">  1       -1 0.18348813E+00 0.15990079E+04</pdfrwt>
<totfact> 0.75846207E+00</totfact>
</mgrwt>
</event>
<event>
 6    1  0.1719556E-004  0.2400216E+04  0.7818608E-02  0.8439423E-01
         -2   -1    0    0    0  501 -0.00000000000E+00  0.00000000000E+00  0.82602292340E+03  0.82602292340E+03  0.00000000000E+00 0. -1.
          2   -1    0    0  501    0  0.00000000000E+00 -0.00000000000E+00 -0.17436073257E+04  0.17436073257E+04  0.00000000000E+00 0.  1.
         23    2    1    2    0    0  0.98348878096E+03  0.20852015550E+03  0.23881674013E+03  0.10373135587E+04  0.90857834520E+02 0.  0.
         11    1    3    3    0    0  0.27376392162E+03  0.73508620330E+02  0.28610420988E+02  0.28490131315E+03  0.00000000000E+00 0. -1.
        -11    1    3    3    0    0  0.70972485934E+03  0.13501153517E+03  0.21020631914E+03  0.75241224552E+03  0.00000000000E+00 0.  1.
         22    1    1    2    0    0 -0.98348878096E+03 -0.20852015550E+03 -0.11564011424E+04  0.15323166904E+04  0.00000000000E+00 0.  1.
<mgrwt>
<rscale>  0 0.24002163E+04</rscale>
<asrwt>0</asrwt>
<pdfrwt beam="1">  1        2 0.26824728E+00 0.24002163E+04</pdfrwt>
<pdfrwt beam="2">  1       -2 0.12708045E+00 0.24002163E+04</pdfrwt>
<totfact> 0.38363580E+00</totfact>
</mgrwt>
</event>
<event>
 6    1  0.1719556E-004  0.3503277E+04  0.7818608E-02  0.8113014E-01
          2   -1    0    0  501    0  0.00000000000E+00  0.00000000000E+00  0.14042257550E+04  0.14042257550E+04  0.00000000000E+00 0.  1.
         -2   -1    0    0    0  501 -0.00000000000E+00 -0.00000000000E+00 -0.21850027155E+04  0.21850027155E+04  0.00000000000E+00 0. -1.
         23    2    1    2    0    0 -0.26427237152E+03 -0.39418648265E+03 -0.21169138473E+04  0.21713128702E+04  0.89735578084E+02 0.  0.
         11    1    3    3    0    0 -0.13616971472E+03 -0.17148015456E+03 -0.11613426949E+04  0.11818056057E+04  0.00000000000E+00 0.  1.
        -11    1    3    3    0    0 -0.12810265680E+03 -0.22270632809E+03 -0.95557115233E+03  0.98950726446E+03  0.00000000000E+00 0. -1.
         22    1    1    2    0    0  0.26427237152E+03  0.39418648265E+03  0.13361368868E+04  0.14179156003E+04  0.00000000000E+00 0.  1.
<mgrwt>
<rscale>  0 0.35032768E+04</rscale>
<asrwt>0</asrwt>
<pdfrwt beam="1">  1        2 0.21603473E+00 0.35032768E+04</pdfrwt>
<pdfrwt beam="2">  1       -2 0.33615426E+00 0.35032768E+04</pdfrwt>
<totfact> 0.22458782E-01</totfact>
</mgrwt>
</event>
<event>
 6    1  0.1719556E-004  0.1716905E+04  0.7818608E-02  0.8751781E-01
         -1   -1    0    0    0  501 -0.00000000000E+00  0.00000000000E+00  0.83863219762E+03  0.83863219762E+03  0.00000000000E+00 0. -1.
          1   -1    0    0  501    0  0.00000000000E+00 -0.00000000000E+00 -0.87874116300E+03  0.87874116300E+03  0.00000000000E+00 0.  1.
         23    2    1    2    0    0  0.40645899316E+02 -0.45853088609E+03  0.70187924667E+03  0.84419000676E+03  0.90108978367E+02 0.  0.
         13    1    3    3    0    0  0.33518001214E+02 -0.27693838598E+03  0.34470792630E+03  0.44344320999E+03  0.00000000000E+00 0. -1.
        -13    1    3    3    0    0  0.71278981020E+01 -0.18159250012E+03  0.35717132037E+03  0.40074679677E+03  0.00000000000E+00 0.  1.
         22    1    1    2    0    0 -0.40645899316E+02  0.45853088609E+03 -0.74198821205E+03  0.87318335386E+03  0.00000000000E+00 0.  1.
<mgrwt>
<rscale>  0 0.17169049E+04</rscale>
<asrwt>0</asrwt>
<pdfrwt beam="1">  1        1 0.13519095E+00 0.17169049E+04</pdfrwt>
<pdfrwt beam="2">  1       -1 0.12902034E+00 0.17169049E+04</pdfrwt>
<totfact> 0.93090964E+00</totfact>
</mgrwt>
</event>
<event>
 6    1  0.1719556E-004  0.2928980E+04  0.7818608E-02  0.8264307E-01
         -2   -1    0    0    0  501 -0.00000000000E+00  0.00000000000E+00  0.15143742476E+04  0.15143742476E+04  0.00000000000E+00 0. -1.
          2   -1    0    0  501    0  0.00000000000E+00 -0.00000000000E+00 -0.14162488873E+04  0.14162488873E+04  0.00000000000E+00 0.  1.
         23    2    1    2    0    0  0.10214115121E+04 -0.57498000457E+02 -0.99737211584E+03  0.14317227988E+04  0.92149542325E+02 0.  0.
         13    1    3    3    0    0  0.61147327225E+03 -0.24646958039E+02 -0.65725516345E+03  0.89804865408E+03  0.00000000000E+00 0.  1.
        -13    1    3    3    0    0  0.40993823983E+03 -0.32851042418E+02 -0.34011695239E+03  0.53367414475E+03  0.00000000000E+00 0. -1.
         22    1    1    2    0    0 -0.10214115121E+04  0.57498000457E+02  0.10954974762E+04  0.14989003360E+04  0.00000000000E+00 0. -1.
<mgrwt>
<rscale>  0 0.29289799E+04</rscale>
<asrwt>0</asrwt>
<pdfrwt beam="1">  1        2 0.21788444E+00 0.29289799E+04</pdfrwt>
<pdfrwt beam="2">  1       -2 0.23298065E+00 0.29289799E+04</pdfrwt>
<totfact> 0.99894034E-01</totfact>
</mgrwt>
</event>
<event>
 6    1  0.1719556E-004  0.2533429E+04  0.7818608E-02  0.8391172E-01
          1   -1    0    0  501    0  0.00000000000E+00  0.00000000000E+00  0.12865027229E+04  0.12865027229E+04  0.00000000000E+00 0.  1.
         -1   -1    0    0    0  501 -0.00000000000E+00 -0.00000000000E+00 -0.12472302520E+04  0.12472302520E+04  0.00000000000E+00 0. -1.
         23    2    1    2    0    0 -0.31158535781E+03 -0.18187812743E+03  0.12322391989E+04  0.12874044859E+04  0.93977542096E+02 0.  0.
         13    1    3    3    0    0 -0.16639009647E+03 -0.14696806157E+03  0.67940335139E+03  0.71475463566E+03  0.00000000000E+00 0.  1.
        -13    1    3    3    0    0 -0.14519526134E+03 -0.34910065860E+02  0.55283584754E+03  0.57264985021E+03  0.00000000000E+00 0. -1.
         22    1    1    2    0    0  0.31158535781E+03  0.18187812743E+03 -0.11929667281E+04  0.12463284891E+04  0.00000000000E+00 0. -1.
<mgrwt>
<rscale>  0 0.25334286E+04</rscale>
<asrwt>0</asrwt>
<pdfrwt beam="1">  1        1 0.19792350E+00 0.25334286E+04</pdfrwt>
<pdfrwt beam="2">  1       -1 0.19188158E+00 0.25334286E+04</pdfrwt>
<totfact> 0.14045104E+00</totfact>
</mgrwt>
</event>
<event>
 6    1  0.1719556E-004  0.3376102E+04  0.7818608E-02  0.8143797E-01
          2   -1    0    0  501    0  0.00000000000E+00  0.00000000000E+00  0.25533559933E+04  0.25533559933E+04  0.00000000000E+00 0.  1.
         -2   -1    0    0    0  501 -0.00000000000E+00 -0.00000000000E+00 -0.11159886333E+04  0.11159886333E+04  0.00000000000E+00 0. -1.
         23    2    1    2    0    0  0.93076901447E+03 -0.10927542094E+04  0.16820875069E+04  0.22132091003E+04  0.91833655675E+02 0.  0.
         13    1    3    3    0    0  0.42834080447E+03 -0.53467428875E+03  0.73956243941E+03  0.10081195572E+04  0.00000000000E+00 0. -1.
        -13    1    3    3    0    0  0.50242821000E+03 -0.55807992068E+03  0.94252506753E+03  0.12050895431E+04  0.00000000000E+00 0.  1.
         22    1    1    2    0    0 -0.93076901447E+03  0.10927542094E+04 -0.24472014701E+03  0.14561355263E+04  0.00000000000E+00 0. -1.
<mgrwt>
<rscale>  0 0.33761021E+04</rscale>
<asrwt>0</asrwt>
<pdfrwt beam="1">  1        2 0.39282400E+00 0.33761021E+04</pdfrwt>
<pdfrwt beam="2">  1       -2 0.17169056E+00 0.33761021E+04</pdfrwt>
<totfact> 0.55761147E-01</totfact>
</mgrwt>
</event>
<event>
 6    1  0.1719556E-004  0.2618567E+04  0.7818608E-02  0.8361922E-01
         -2   -1    0    0    0  501 -0.00000000000E+00  0.00000000000E+00  0.17815453647E+04  0.17815453647E+04  0.00000000000E+00 0. -1.
          2   -1    0    0  501    0  0.00000000000E+00 -0.00000000000E+00 -0.96221142817E+03  0.96221142817E+03  0.00000000000E+00 0.  1.
         23    2    1    2    0    0  0.72786299192E+03 -0.60433421875E+03 -0.53579667338E+03  0.10910670601E+04  0.91350267984E+02 0.  0.
         11    1    3    3    0    0  0.15005935171E+03 -0.16752571041E+03 -0.15069638420E+03  0.27072508731E+03  0.00000000000E+00 0. -1.
        -11    1    3    3    0    0  0.57780364020E+03 -0.43680850834E+03 -0.38510028917E+03  0.82034197278E+03  0.00000000000E+00 0.  1.
         22    1    1    2    0    0 -0.72786299192E+03  0.60433421875E+03  0.13551306099E+04  0.16526897328E+04  0.00000000000E+00 0. -1.
<mgrwt>
<rscale>  0 0.26185670E+04</rscale>
<asrwt>0</asrwt>
<pdfrwt beam="1">  1        2 0.14803253E+00 0.26185670E+04</pdfrwt>
<pdfrwt beam="2">  1       -2 0.27408390E+00 0.26185670E+04</pdfrwt>
<totfact> 0.10772053E+00</totfact>
</mgrwt>
</event>
<event>
 6    1  0.1719556E-004  0.2718604E+04  0.7818608E-02  0.8328994E-01
         -2   -1    0    0    0  501 -0.00000000000E+00  0.00000000000E+00  0.59379212517E+03  0.59379212517E+03  0.00000000000E+00 0. -1.
          2   -1    0    0  501    0  0.00000000000E+00 -0.00000000000E+00 -0.31116989583E+04  0.31116989583E+04  0.00000000000E+00 0.  1.
         23    2    1    2    0    0 -0.46991152190E+03  0.74567018286E+03  0.14779461019E+03  0.89785773046E+03  0.86396743792E+02 0.  0.
         13    1    3    3    0    0 -0.15934675792E+03  0.31000298814E+03  0.28734271187E+02  0.34974119039E+03  0.00000000000E+00 0. -1.
        -13    1    3    3    0    0 -0.31056476398E+03  0.43566719471E+03  0.11906033900E+03  0.54811654007E+03  0.00000000000E+00 0.  1.
         22    1    1    2    0    0  0.46991152190E+03 -0.74567018286E+03 -0.26657014433E+04  0.28076333530E+04  0.00000000000E+00 0.  1.
<mgrwt>
<rscale>  0 0.27186043E+04</rscale>
<asrwt>0</asrwt>
<pdfrwt beam="1">  1        2 0.47872292E+00 0.27186043E+04</pdfrwt>
<pdfrwt beam="2">  1       -2 0.91352635E-01 0.27186043E+04</pdfrwt>
<totfact> 0.13224542E+00</totfact>
</mgrwt>
</event>
<event>
 6    1  0.1719556E-004  0.1675397E+04  0.7818608E-02  0.8775522E-01
          1   -1    0    0  501    0  0.00000000000E+00  0.00000000000E+00  0.22548807944E+03  0.22548807944E+03  0.00000000000E+00 0.  1.
         -1   -1    0    0    0  501 -0.00000000000E+00 -0.00000000000E+00 -0.31120879334E+04  0.31120879334E+04  0.00000000000E+00 0. -1.
         23    2    1    2    0    0 -0.53327403466E+02 -0.83248370619E+03 -0.13609513912E+04  0.15987614267E+04  0.89311126174E+02 0.  0.
         11    1    3    3    0    0 -0.63067332211E+02 -0.57703233525E+03 -0.10037678775E+04  0.11595230728E+04  0.00000000000E+00 0.  1.
        -11    1    3    3    0    0  0.97399287446E+01 -0.25545137094E+03 -0.35718351365E+03  0.43923835391E+03  0.00000000000E+00 0. -1.
         22    1    1    2    0    0  0.53327403466E+02  0.83248370619E+03 -0.15256484628E+04  0.17388145862E+04  0.00000000000E+00 0.  1.
<mgrwt>
<rscale>  0 0.16753969E+04</rscale>
<asrwt>0</asrwt>
<pdfrwt beam="1">  1        1 0.34690476E-01 0.16753969E+04</pdfrwt>
<pdfrwt beam="2">  1       -1 0.47878273E+00 0.16753969E+04</pdfrwt>
<totfact> 0.24989015E-01</totfact>
</mgrwt>
</event>
<event>
 6    1  0.1719556E-004  0.4610973E+04  0.7818608E-02  0.7891492E-01
          3   -1    0    0  501    0  0.00000000000E+00  0.00000000000E+00  0.13190300411E+04  0.13190300411E+04  0.00000000000E+00 0. -1.
         -3   -1    0    0    0  501 -0.00000000000E+00 -0.00000000000E+00 -0.40296793726E+04  0.40296793726E+04  0.00000000000E+00 0.  1.
         23    2    1    2    0    0 -0.62746901927E+03  0.17192580483E+04 -0.29806885215E+04  0.34987129892E+04  0.83204036954E+02 0.  0.
         13    1    3    3    0    0 -0.40804125802E+03  0.10379977678E+04 -0.17580742969E+04  0.20820091901E+04  0.00000000000E+00 0. -1.
        -13    1    3    3    0    0 -0.21942776125E+03  0.68126028045E+03 -0.12226142246E+04  0.14167037991E+04  0.00000000000E+00 0.  1.
         22    1    1    2    0    0  0.62746901927E+03 -0.17192580483E+04  0.27003919000E+03  0.18499964245E+04  0.00000000000E+00 0. -1.
<mgrwt>
<rscale>  0 0.46109731E+04</rscale>
<asrwt>0</asrwt>
<pdfrwt beam="1">  1        3 0.20292770E+00 0.46109731E+04</pdfrwt>
<pdfrwt beam="2">  1       -3 0.61995066E+00 0.46109731E+04</pdfrwt>
<totfact> 0.19223532E-04</totfact>
</mgrwt>
</event>
<event>
 6    1  0.1719556E-004  0.9368674E+03  0.7818608E-02  0.9380634E-01
          1   -1    0    0  501    0  0.00000000000E+00  0.00000000000E+00  0.97644751275E+03  0.97644751275E+03  0.00000000000E+00 0. -1.
         -1   -1    0    0    0  501 -0.00000000000E+00 -0.00000000000E+00 -0.22472292798E+03  0.22472292798E+03  0.00000000000E+00 0.  1.
         23    2    1    2    0    0 -0.10717074297E+03  0.22773516680E+03 -0.12062162778E+03  0.29324049359E+03  0.89952963527E+02 0.  0.
         11    1    3    3    0    0 -0.10034454815E+03  0.13611619077E+03 -0.47018695218E+02  0.17552037897E+03  0.00000000000E+00 0. -1.
        -11    1    3    3    0    0 -0.68261948145E+01  0.91618976026E+02 -0.73602932565E+02  0.11772011462E+03  0.00000000000E+00 0.  1.
         22    1    1    2    0    0  0.10717074297E+03 -0.22773516680E+03  0.87234621255E+03  0.90792994713E+03  0.00000000000E+00 0. -1.
<mgrwt>
<rscale>  0 0.93686743E+03</rscale>
<asrwt>0</asrwt>
<pdfrwt beam="1">  1        1 0.15022269E+00 0.93686743E+03</pdfrwt>
<pdfrwt beam="2">  1       -1 0.34572759E-01 0.93686743E+03</pdfrwt>
<totfact> 0.12584714E+02</totfact>
</mgrwt>
</event>
<event>
 6    1  0.1719556E-004  0.1330012E+04  0.7818608E-02  0.9006098E-01
         -1   -1    0    0    0  501 -0.00000000000E+00  0.00000000000E+00  0.49782340072E+03  0.49782340072E+03  0.00000000000E+00 0. -1.
          1   -1    0    0  501    0  0.00000000000E+00 -0.00000000000E+00 -0.88833267783E+03  0.88833267783E+03  0.00000000000E+00 0.  1.
         23    2    1    2    0    0 -0.22233332095E+03 -0.59073813630E+03 -0.40339784178E+03  0.75483225800E+03  0.92942281457E+02 0.  0.
         11    1    3    3    0    0 -0.49700456000E+02 -0.16587615795E+03 -0.15944049667E+03  0.23538544365E+03  0.00000000000E+00 0.  1.
        -11    1    3    3    0    0 -0.17263286495E+03 -0.42486197835E+03 -0.24395734511E+03  0.51944681435E+03  0.00000000000E+00 0. -1.
         22    1    1    2    0    0  0.22233332095E+03  0.59073813630E+03  0.12888564675E+02  0.63132382054E+03  0.00000000000E+00 0. -1.
<mgrwt>
<rscale>  0 0.13300117E+04</rscale>
<asrwt>0</asrwt>
<pdfrwt beam="1">  1        1 0.13666656E+00 0.13300117E+04</pdfrwt>
<pdfrwt beam="2">  1       -1 0.76588217E-01 0.13300117E+04</pdfrwt>
<totfact> 0.31212503E+01</totfact>
</mgrwt>
</event>
<event>
 6    1  0.2194455E-004  0.3686667E+04  0.7818608E-02  0.8070923E-01
          1   -1    0    0  501    0  0.00000000000E+00  0.00000000000E+00  0.23375292047E+04  0.23375292047E+04  0.00000000000E+00 0.  1.
         -1   -1    0    0    0  501 -0.00000000000E+00 -0.00000000000E+00 -0.14536199467E+04  0.14536199467E+04  0.00000000000E+00 0. -1.
         23    2    1    2    0    0  0.43534958042E+03  0.10683383348E+04  0.19191752308E+04  0.22411002202E+04  0.91763693359E+02 0.  0.
         13    1    3    3    0    0  0.27553352271E+03  0.78303759827E+03  0.13595726893E+04  0.15929546447E+04  0.00000000000E+00 0. -1.
        -13    1    3    3    0    0  0.15981605771E+03  0.28530073655E+03  0.55960254153E+03  0.64814557552E+03  0.00000000000E+00 0.  1.
         22    1    1    2    0    0 -0.43534958042E+03 -0.10683383348E+04 -0.10352659728E+04  0.15500489313E+04  0.00000000000E+00 0. -1.
<mgrwt>
<rscale>  0 0.36866674E+04</rscale>
<asrwt>0</asrwt>
<pdfrwt beam="1">  1        1 0.35961988E+00 0.36866674E+04</pdfrwt>
<pdfrwt beam="2">  1       -1 0.22363384E+00 0.36866674E+04</pdfrwt>
<totfact> 0.14660938E-01</totfact>
</mgrwt>
</event>
<event>
 6    1  0.1719556E-004  0.7793849E+03  0.7818608E-02  0.9590346E-01
         -2   -1    0    0    0  501 -0.00000000000E+00  0.00000000000E+00  0.21611015330E+03  0.21611015330E+03  0.00000000000E+00 0. -1.
          2   -1    0    0  501    0  0.00000000000E+00 -0.00000000000E+00 -0.70269808704E+03  0.70269808704E+03  0.00000000000E+00 0.  1.
         23    2    1    2    0    0  0.17912628984E+03  0.21073181205E+03 -0.56047370594E+03  0.63253349179E+03  0.97333030718E+02 0.  0.
         11    1    3    3    0    0  0.35536770511E+02  0.28315830559E+02 -0.18980187314E+03  0.19516505672E+03  0.00000000000E+00 0. -1.
        -11    1    3    3    0    0  0.14358951933E+03  0.18241598149E+03 -0.37067183280E+03  0.43736843507E+03  0.00000000000E+00 0.  1.
         22    1    1    2    0    0 -0.17912628984E+03 -0.21073181205E+03  0.73885772205E+02  0.28627474854E+03  0.00000000000E+00 0. -1.
<mgrwt>
<rscale>  0 0.77938486E+03</rscale>
<asrwt>0</asrwt>
<pdfrwt beam="1">  1        2 0.10810740E+00 0.77938486E+03</pdfrwt>
<pdfrwt beam="2">  1       -2 0.33247716E-01 0.77938486E+03</pdfrwt>
<totfact> 0.34635741E+02</totfact>
</mgrwt>
</event>
<event>
 6    1  0.1719556E-004  0.2952342E+04  0.7818608E-02  0.8257472E-01
          1   -1    0    0  501    0  0.00000000000E+00  0.00000000000E+00  0.37638517227E+04  0.37638517227E+04  0.00000000000E+00 0.  1.
         -1   -1    0    0    0  501 -0.00000000000E+00 -0.00000000000E+00 -0.57894978543E+03  0.57894978543E+03  0.00000000000E+00 0. -1.
         23    2    1    2    0    0  0.10329282223E+04 -0.92390209722E+03  0.23354311165E+04  0.27173365061E+04  0.95621073483E+02 0.  0.
         11    1    3    3    0    0  0.46394001295E+03 -0.47144634262E+03  0.11567976444E+04  0.13325474774E+04  0.00000000000E+00 0.  1.
        -11    1    3    3    0    0  0.56898820932E+03 -0.45245575461E+03  0.11786334721E+04  0.13847890286E+04  0.00000000000E+00 0. -1.
         22    1    1    2    0    0 -0.10329282223E+04  0.92390209722E+03  0.84947082076E+03  0.16254650021E+04  0.00000000000E+00 0.  1.
<mgrwt>
<rscale>  0 0.29523422E+04</rscale>
<asrwt>0</asrwt>
<pdfrwt beam="1">  1        1 0.57905410E+00 0.29523422E+04</pdfrwt>
<pdfrwt beam="2">  1       -1 0.89069200E-01 0.29523422E+04</pdfrwt>
<totfact> 0.16127121E-01</totfact>
</mgrwt>
</event>
<event>
 6    1  0.1719556E-004  0.1519684E+04  0.7818608E-02  0.8871468E-01
         -2   -1    0    0    0  501 -0.00000000000E+00  0.00000000000E+00  0.44710237035E+03  0.44710237035E+03  0.00000000000E+00 0. -1.
          2   -1    0    0  501    0  0.00000000000E+00 -0.00000000000E+00 -0.12913369812E+04  0.12913369812E+04  0.00000000000E+00 0.  1.
         23    2    1    2    0    0  0.68908232204E+03  0.31222621612E+03 -0.39557677390E+03  0.85888633370E+03  0.94260774451E+02 0.  0.
         13    1    3    3    0    0  0.36090969505E+03  0.21495922741E+03 -0.21591532325E+03  0.47231631800E+03  0.00000000000E+00 0.  1.
        -13    1    3    3    0    0  0.32817262699E+03  0.97266988706E+02 -0.17966145065E+03  0.38657001571E+03  0.00000000000E+00 0. -1.
         22    1    1    2    0    0 -0.68908232204E+03 -0.31222621612E+03 -0.44865783700E+03  0.87955301789E+03  0.00000000000E+00 0.  1.
<mgrwt>
<rscale>  0 0.15196839E+04</rscale>
<asrwt>0</asrwt>
<pdfrwt beam="1">  1        2 0.19866722E+00 0.15196839E+04</pdfrwt>
<pdfrwt beam="2">  1       -2 0.68784981E-01 0.15196839E+04</pdfrwt>
<totfact> 0.31164644E+01</totfact>
</mgrwt>
</event>
<event>
 6    1  0.1719556E-004  0.1034135E+04  0.7818608E-02  0.9271878E-01
         -2   -1    0    0    0  501 -0.00000000000E+00  0.00000000000E+00  0.16585892641E+03  0.16585892641E+03  0.00000000000E+00 0. -1.
          2   -1    0    0  501    0  0.00000000000E+00 -0.00000000000E+00 -0.16119663677E+04  0.16119663677E+04  0.00000000000E+00 0.  1.
         23    2    1    2    0    0  0.37436391391E+03 -0.21395539616E+03 -0.25073196829E+03  0.50705868571E+03  0.91196158050E+02 0.  0.
         13    1    3    3    0    0  0.17516053990E+03 -0.14657841407E+03 -0.10615051494E+03  0.25186182329E+03  0.00000000000E+00 0. -1.
        -13    1    3    3    0    0  0.19920337401E+03 -0.67376982086E+02 -0.14458145336E+03  0.25519686242E+03  0.00000000000E+00 0.  1.
         22    1    1    2    0    0 -0.37436391391E+03  0.21395539616E+03 -0.11953754730E+04  0.12707666084E+04  0.00000000000E+00 0.  1.
<mgrwt>
<rscale>  0 0.10341354E+04</rscale>
<asrwt>0</asrwt>
<pdfrwt beam="1">  1        2 0.24799482E+00 0.10341354E+04</pdfrwt>
<pdfrwt beam="2">  1       -2 0.25516759E-01 0.10341354E+04</pdfrwt>
<totfact> 0.15121359E+02</totfact>
</mgrwt>
</event>
<event>
 6    1  0.5463833E-004  0.2794418E+04  0.7818608E-02  0.8305003E-01
         -2   -1    0    0    0  501 -0.00000000000E+00  0.00000000000E+00  0.11450157511E+04  0.11450157511E+04  0.00000000000E+00 0. -1.
          2   -1    0    0  501    0  0.00000000000E+00 -0.00000000000E+00 -0.17049491279E+04  0.17049491279E+04  0.00000000000E+00 0.  1.
         23    2    1    2    0    0 -0.31336251235E+03 -0.69122002069E+03 -0.14748686185E+04  0.16612312344E+04  0.92035813914E+02 0.  0.
         13    1    3    3    0    0 -0.11921948137E+03 -0.22581715918E+03 -0.41039321371E+03  0.48335211180E+03  0.00000000000E+00 0. -1.
        -13    1    3    3    0    0 -0.19414303098E+03 -0.46540286151E+03 -0.10644754048E+04  0.11778791226E+04  0.00000000000E+00 0.  1.
         22    1    1    2    0    0  0.31336251235E+03  0.69122002069E+03  0.91493524175E+03  0.11887336446E+04  0.00000000000E+00 0. -1.
<mgrwt>
<rscale>  0 0.27944184E+04</rscale>
<asrwt>0</asrwt>
<pdfrwt beam="1">  1        2 0.26229987E+00 0.27944184E+04</pdfrwt>
<pdfrwt beam="2">  1       -2 0.17615627E+00 0.27944184E+04</pdfrwt>
<totfact> 0.16362342E+00</totfact>
</mgrwt>
</event>
<event>
 6    1  0.1719556E-004  0.1572752E+04  0.7818608E-02  0.8837465E-01
         -2   -1    0    0    0  501 -0.00000000000E+00  0.00000000000E+00  0.11725168086E+04  0.11725168086E+04  0.00000000000E+00 0. -1.
          2   -1    0    0  501    0  0.00000000000E+00 -0.00000000000E+00 -0.52740133481E+03  0.52740133481E+03  0.00000000000E+00 0.  1.
         23    2    1    2    0    0  0.36941855886E+03 -0.69022401565E+03  0.36795039522E+03  0.86943650957E+03  0.87481926240E+02 0.  0.
         13    1    3    3    0    0  0.26577551598E+03 -0.57051230469E+03  0.29194078762E+03  0.69379416124E+03  0.00000000000E+00 0. -1.
        -13    1    3    3    0    0  0.10364304288E+03 -0.11971171096E+03  0.76009607599E+02  0.17564234832E+03  0.00000000000E+00 0.  1.
         22    1    1    2    0    0 -0.36941855886E+03  0.69022401565E+03  0.27716507862E+03  0.83048163388E+03  0.00000000000E+00 0.  1.
<mgrwt>
<rscale>  0 0.15727516E+04</rscale>
<asrwt>0</asrwt>
<pdfrwt beam="1">  1        2 0.81138667E-01 0.15727516E+04</pdfrwt>
<pdfrwt beam="2">  1       -2 0.18038720E+00 0.15727516E+04</pdfrwt>
<totfact> 0.10007636E+01</totfact>
</mgrwt>
</event>
<event>
 6    1  0.1933270E-004  0.3055082E+04  0.7818608E-02  0.8228175E-01
         -2   -1    0    0    0  501 -0.00000000000E+00  0.00000000000E+00  0.12428693138E+04  0.12428693138E+04  0.00000000000E+00 0. -1.
          2   -1    0    0  501    0  0.00000000000E+00 -0.00000000000E+00 -0.18774144695E+04  0.18774144695E+04  0.00000000000E+00 0.  1.
         23    2    1    2    0    0  0.10930703097E+04 -0.10010096660E+04  0.54899188249E+02  0.14856105569E+04  0.84863140492E+02 0.  0.
         11    1    3    3    0    0  0.58352392032E+03 -0.47979135222E+03  0.14542691648E+02  0.75558678994E+03  0.00000000000E+00 0. -1.
        -11    1    3    3    0    0  0.50954638938E+03 -0.52121831380E+03  0.40356496601E+02  0.73002376700E+03  0.00000000000E+00 0.  1.
         22    1    1    2    0    0 -0.10930703097E+04  0.10010096660E+04 -0.68944434397E+03  0.16346732263E+04  0.00000000000E+00 0. -1.
<mgrwt>
<rscale>  0 0.30550816E+04</rscale>
<asrwt>0</asrwt>
<pdfrwt beam="1">  1        2 0.28883299E+00 0.30550816E+04</pdfrwt>
<pdfrwt beam="2">  1       -2 0.19121066E+00 0.30550816E+04</pdfrwt>
<totfact> 0.10133500E+00</totfact>
</mgrwt>
</event>
<event>
 6    1  0.1719556E-004  0.4593370E+04  0.7818608E-02  0.7894491E-01
         -2   -1    0    0    0  501 -0.00000000000E+00  0.00000000000E+00  0.11167907687E+04  0.11167907687E+04  0.00000000000E+00 0. -1.
          2   -1    0    0  501    0  0.00000000000E+00 -0.00000000000E+00 -0.47231427711E+04  0.47231427711E+04  0.00000000000E+00 0.  1.
         23    2    1    2    0    0  0.21104738140E+04 -0.54632330443E+03 -0.88898972960E+03  0.23561673888E+04  0.93022321200E+02 0.  0.
         13    1    3    3    0    0  0.10175757101E+04 -0.22565744175E+03 -0.39382892488E+03  0.11142184834E+04  0.00000000000E+00 0. -1.
        -13    1    3    3    0    0  0.10928981039E+04 -0.32066586268E+03 -0.49516080472E+03  0.12419489054E+04  0.00000000000E+00 0.  1.
         22    1    1    2    0    0 -0.21104738140E+04  0.54632330443E+03 -0.27173622728E+04  0.34837661509E+04  0.00000000000E+00 0.  1.
<mgrwt>
<rscale>  0 0.45933701E+04</rscale>
<asrwt>0</asrwt>
<pdfrwt beam="1">  1        2 0.72663736E+00 0.45933701E+04</pdfrwt>
<pdfrwt beam="2">  1       -2 0.17181396E+00 0.45933701E+04</pdfrwt>
<totfact> 0.11142342E-02</totfact>
</mgrwt>
</event>
<event>
 6    1  0.1719556E-004  0.3249314E+04  0.7818608E-02  0.8175914E-01
          2   -1    0    0  501    0  0.00000000000E+00  0.00000000000E+00  0.30229228249E+04  0.30229228249E+04  0.00000000000E+00 0.  1.
         -2   -1    0    0    0  501 -0.00000000000E+00 -0.00000000000E+00 -0.87316477599E+03  0.87316477599E+03  0.00000000000E+00 0. -1.
         23    2    1    2    0    0 -0.10961352012E+04  0.95007637393E+03  0.19496884270E+04  0.24317838930E+04  0.90168975713E+02 0.  0.
         13    1    3    3    0    0 -0.56758088795E+03  0.47784287678E+03  0.92377068022E+03  0.11848350724E+04  0.00000000000E+00 0. -1.
        -13    1    3    3    0    0 -0.52855431321E+03  0.47223349715E+03  0.10259177468E+04  0.12469488205E+04  0.00000000000E+00 0.  1.
         22    1    1    2    0    0  0.10961352012E+04 -0.95007637393E+03  0.20006962194E+03  0.14643037080E+04  0.00000000000E+00 0. -1.
<mgrwt>
<rscale>  0 0.32493136E+04</rscale>
<asrwt>0</asrwt>
<pdfrwt beam="1">  1        2 0.46506505E+00 0.32493136E+04</pdfrwt>
<pdfrwt beam="2">  1       -2 0.13433304E+00 0.32493136E+04</pdfrwt>
<totfact> 0.56395216E-01</totfact>
</mgrwt>
</event>
<event>
 6    1  0.1719556E-004  0.9629832E+03  0.7818608E-02  0.9350103E-01
          2   -1    0    0  501    0  0.00000000000E+00  0.00000000000E+00  0.21179716785E+04  0.21179716785E+04  0.00000000000E+00 0.  1.
         -2   -1    0    0    0  501 -0.00000000000E+00 -0.00000000000E+00 -0.10946046163E+03  0.10946046163E+03  0.00000000000E+00 0. -1.
         23    2    1    2    0    0  0.40738122891E+03 -0.24446503000E+03  0.11173304294E+04  0.12175183753E+04  0.90559864124E+02 0.  0.
         11    1    3    3    0    0  0.31260221384E+03 -0.16099239284E+03  0.89857252317E+03  0.96492034596E+03  0.00000000000E+00 0. -1.
        -11    1    3    3    0    0  0.94779015066E+02 -0.83472637165E+02  0.21875790626E+03  0.25259802930E+03  0.00000000000E+00 0.  1.
         22    1    1    2    0    0 -0.40738122891E+03  0.24446503000E+03  0.89118078742E+03  0.10099137648E+04  0.00000000000E+00 0. -1.
<mgrwt>
<rscale>  0 0.96298319E+03</rscale>
<asrwt>0</asrwt>
<pdfrwt beam="1">  1        2 0.32584177E+00 0.96298319E+03</pdfrwt>
<pdfrwt beam="2">  1       -2 0.16840073E-01 0.96298319E+03</pdfrwt>
<totfact> 0.16659164E+02</totfact>
</mgrwt>
</event>
<event>
 6    1  0.1719556E-004  0.2343943E+04  0.7818608E-02  0.8460794E-01
         -2   -1    0    0    0  501 -0.00000000000E+00  0.00000000000E+00  0.15553471587E+04  0.15553471587E+04  0.00000000000E+00 0. -1.
          2   -1    0    0  501    0  0.00000000000E+00 -0.00000000000E+00 -0.88309348401E+03  0.88309348401E+03  0.00000000000E+00 0.  1.
         23    2    1    2    0    0 -0.80640057304E+03  0.70290905011E+03  0.83023532373E+03  0.13570890725E+04  0.89649545804E+02 0.  0.
         11    1    3    3    0    0 -0.95394026700E+02  0.49558884161E+02  0.72385010010E+02  0.12959819830E+03  0.00000000000E+00 0.  1.
        -11    1    3    3    0    0 -0.71100654634E+03  0.65335016595E+03  0.75785031372E+03  0.12274908742E+04  0.00000000000E+00 0. -1.
         22    1    1    2    0    0  0.80640057304E+03 -0.70290905011E+03 -0.15798164903E+03  0.10813515702E+04  0.00000000000E+00 0.  1.
<mgrwt>
<rscale>  0 0.23439428E+04</rscale>
<asrwt>0</asrwt>
<pdfrwt beam="1">  1        2 0.13586054E+00 0.23439428E+04</pdfrwt>
<pdfrwt beam="2">  1       -2 0.23928418E+00 0.23439428E+04</pdfrwt>
<totfact> 0.20350810E+00</totfact>
</mgrwt>
</event>
<event>
 6    1  0.1719556E-004  0.3655428E+04  0.7818608E-02  0.8077912E-01
         -2   -1    0    0    0  501 -0.00000000000E+00  0.00000000000E+00  0.87736794727E+03  0.87736794727E+03  0.00000000000E+00 0. -1.
          2   -1    0    0  501    0  0.00000000000E+00 -0.00000000000E+00 -0.38074546420E+04  0.38074546420E+04  0.00000000000E+00 0.  1.
         23    2    1    2    0    0 -0.22534008730E+03 -0.10071784160E+04 -0.33973692413E+04  0.35518885688E+04  0.92779991184E+02 0.  0.
         11    1    3    3    0    0 -0.92250737063E+02 -0.24644967347E+03 -0.92580409873E+03  0.96247642531E+03  0.00000000000E+00 0.  1.
        -11    1    3    3    0    0 -0.13308935024E+03 -0.76072874253E+03 -0.24715651425E+04  0.25894121434E+04  0.00000000000E+00 0. -1.
         22    1    1    2    0    0  0.22534008730E+03  0.10071784160E+04  0.46728254652E+03  0.11329340205E+04  0.00000000000E+00 0. -1.
<mgrwt>
<rscale>  0 0.36554281E+04</rscale>
<asrwt>0</asrwt>
<pdfrwt beam="1">  1        2 0.58576227E+00 0.36554281E+04</pdfrwt>
<pdfrwt beam="2">  1       -2 0.13497968E+00 0.36554281E+04</pdfrwt>
<totfact> 0.15483445E-01</totfact>
</mgrwt>
</event>
<event>
 6    1  0.1719556E-004  0.1024275E+04  0.7818608E-02  0.9282314E-01
         -2   -1    0    0    0  501 -0.00000000000E+00  0.00000000000E+00  0.18558281393E+03  0.18558281393E+03  0.00000000000E+00 0. -1.
          2   -1    0    0  501    0  0.00000000000E+00 -0.00000000000E+00 -0.14133026126E+04  0.14133026126E+04  0.00000000000E+00 0.  1.
         23    2    1    2    0    0 -0.39266509462E+03  0.26783786675E+03 -0.34026128799E+03  0.59215527024E+03  0.94589220118E+02 0.  0.
         13    1    3    3    0    0 -0.13934455301E+03  0.15090321121E+03 -0.13532745793E+03  0.24597195872E+03  0.00000000000E+00 0. -1.
        -13    1    3    3    0    0 -0.25332054161E+03  0.11693465554E+03 -0.20493383006E+03  0.34618331151E+03  0.00000000000E+00 0.  1.
         22    1    1    2    0    0  0.39266509462E+03 -0.26783786675E+03 -0.88745851069E+03  0.10067301563E+04  0.00000000000E+00 0.  1.
<mgrwt>
<rscale>  0 0.10242747E+04</rscale>
<asrwt>0</asrwt>
<pdfrwt beam="1">  1        2 0.21743116E+00 0.10242747E+04</pdfrwt>
<pdfrwt beam="2">  1       -2 0.28551203E-01 0.10242747E+04</pdfrwt>
<totfact> 0.15923757E+02</totfact>
</mgrwt>
</event>
<event>
 6    1  0.1719556E-004  0.2811250E+04  0.7818608E-02  0.8299784E-01
         -1   -1    0    0    0  501 -0.00000000000E+00  0.00000000000E+00  0.18416322384E+04  0.18416322384E+04  0.00000000000E+00 0. -1.
          1   -1    0    0  501    0  0.00000000000E+00 -0.00000000000E+00 -0.10728425243E+04  0.10728425243E+04  0.00000000000E+00 0.  1.
         23    2    1    2    0    0 -0.20425806500E+02  0.41305987055E+03  0.17758960470E+04  0.18257604587E+04  0.92513851135E+02 0.  0.
         13    1    3    3    0    0 -0.44727210121E+02  0.11355178103E+03  0.57870985047E+03  0.59143860318E+03  0.00000000000E+00 0. -1.
        -13    1    3    3    0    0  0.24301403621E+02  0.29950808953E+03  0.11971861965E+04  0.12343218555E+04  0.00000000000E+00 0.  1.
         22    1    1    2    0    0  0.20425806500E+02 -0.41305987055E+03 -0.10071063329E+04  0.10887143041E+04  0.00000000000E+00 0.  1.
<mgrwt>
<rscale>  0 0.28112498E+04</rscale>
<asrwt>0</asrwt>
<pdfrwt beam="1">  1        1 0.16505270E+00 0.28112498E+04</pdfrwt>
<pdfrwt beam="2">  1       -1 0.28332804E+00 0.28112498E+04</pdfrwt>
<totfact> 0.48693229E-01</totfact>
</mgrwt>
</event>
<event>
 6    1  0.1719556E-004  0.3574458E+04  0.7818608E-02  0.8096368E-01
          1   -1    0    0  501    0  0.00000000000E+00  0.00000000000E+00  0.38426088033E+04  0.38426088033E+04  0.00000000000E+00 0. -1.
         -1   -1    0    0    0  501 -0.00000000000E+00 -0.00000000000E+00 -0.83125472778E+03  0.83125472778E+03  0.00000000000E+00 0.  1.
         23    2    1    2    0    0 -0.80763382006E+03 -0.65443519681E+03  0.34057578554E+04  0.35620577227E+04  0.92254193132E+02 0.  0.
         13    1    3    3    0    0 -0.52853232607E+02 -0.36370652686E+02  0.14652136534E+03  0.15995249006E+03  0.00000000000E+00 0.  1.
        -13    1    3    3    0    0 -0.75478058746E+03 -0.61806454412E+03  0.32592364900E+04  0.34021052326E+04  0.00000000000E+00 0. -1.
         22    1    1    2    0    0  0.80763382006E+03  0.65443519681E+03 -0.39440377982E+03  0.11118058084E+04  0.00000000000E+00 0.  1.
<mgrwt>
<rscale>  0 0.35744576E+04</rscale>
<asrwt>0</asrwt>
<pdfrwt beam="1">  1        1 0.59117058E+00 0.35744576E+04</pdfrwt>
<pdfrwt beam="2">  1       -1 0.12788534E+00 0.35744576E+04</pdfrwt>
<totfact> 0.56101494E-02</totfact>
</mgrwt>
</event>
<event>
 6    1  0.1719556E-004  0.2946348E+04  0.7818608E-02  0.8259220E-01
         -2   -1    0    0    0  501 -0.00000000000E+00  0.00000000000E+00  0.11268352071E+04  0.11268352071E+04  0.00000000000E+00 0. -1.
          2   -1    0    0  501    0  0.00000000000E+00 -0.00000000000E+00 -0.19259623063E+04  0.19259623063E+04  0.00000000000E+00 0.  1.
         23    2    1    2    0    0 -0.50451855186E+03  0.80611569613E+03 -0.15638269395E+04  0.18324994636E+04  0.90211434063E+02 0.  0.
         13    1    3    3    0    0 -0.90530862993E+02  0.11051988925E+03 -0.18670639333E+03  0.23509521557E+03  0.00000000000E+00 0. -1.
        -13    1    3    3    0    0 -0.41398768887E+03  0.69559580688E+03 -0.13771205462E+04  0.15974042481E+04  0.00000000000E+00 0.  1.
         22    1    1    2    0    0  0.50451855186E+03 -0.80611569613E+03  0.76469984025E+03  0.12202980498E+04  0.00000000000E+00 0. -1.
<mgrwt>
<rscale>  0 0.29463483E+04</rscale>
<asrwt>0</asrwt>
<pdfrwt beam="1">  1        2 0.29630189E+00 0.29463483E+04</pdfrwt>
<pdfrwt beam="2">  1       -2 0.17335927E+00 0.29463483E+04</pdfrwt>
<totfact> 0.12744786E+00</totfact>
</mgrwt>
</event>
<event>
 6    1  0.1719556E-004  0.2253482E+04  0.7818608E-02  0.8496492E-01
          2   -1    0    0  501    0  0.00000000000E+00  0.00000000000E+00  0.20695613383E+04  0.20695613383E+04  0.00000000000E+00 0.  1.
         -2   -1    0    0    0  501 -0.00000000000E+00 -0.00000000000E+00 -0.61343697949E+03  0.61343697949E+03  0.00000000000E+00 0. -1.
         23    2    1    2    0    0 -0.94954877689E+03  0.20014123358E+03  0.52731456250E+02  0.97677118402E+03  0.97989521770E+02 0.  0.
         13    1    3    3    0    0 -0.39480719587E+03  0.44560059025E+02 -0.83119584929E+01  0.39740081709E+03  0.00000000000E+00 0. -1.
        -13    1    3    3    0    0 -0.55474158102E+03  0.15558117456E+03  0.61043414743E+02  0.57937036693E+03  0.00000000000E+00 0.  1.
         22    1    1    2    0    0  0.94954877689E+03 -0.20014123358E+03  0.14033929026E+04  0.17062271338E+04  0.00000000000E+00 0.  1.
<mgrwt>
<rscale>  0 0.22534822E+04</rscale>
<asrwt>0</asrwt>
<pdfrwt beam="1">  1        2 0.31839405E+00 0.22534822E+04</pdfrwt>
<pdfrwt beam="2">  1       -2 0.94374920E-01 0.22534822E+04</pdfrwt>
<totfact> 0.52628894E+00</totfact>
</mgrwt>
</event>
<event>
 6    1  0.2253583E-004  0.4049354E+04  0.7818608E-02  0.7994664E-01
         -2   -1    0    0    0  501 -0.00000000000E+00  0.00000000000E+00  0.15772354265E+04  0.15772354265E+04  0.00000000000E+00 0. -1.
          2   -1    0    0  501    0  0.00000000000E+00 -0.00000000000E+00 -0.25990525803E+04  0.25990525803E+04  0.00000000000E+00 0.  1.
         23    2    1    2    0    0 -0.61843101282E+03 -0.12195737464E+04  0.10272726837E+04  0.17128379459E+04  0.93314637830E+02 0.  0.
         13    1    3    3    0    0 -0.22950857373E+03 -0.37426868685E+03  0.36124953404E+03  0.56855295375E+03  0.00000000000E+00 0.  1.
        -13    1    3    3    0    0 -0.38892243909E+03 -0.84530505952E+03  0.66602314968E+03  0.11442849921E+04  0.00000000000E+00 0. -1.
         22    1    1    2    0    0  0.61843101282E+03  0.12195737464E+04 -0.20490898375E+04  0.24634500609E+04  0.00000000000E+00 0.  1.
<mgrwt>
<rscale>  0 0.40493544E+04</rscale>
<asrwt>0</asrwt>
<pdfrwt beam="1">  1        2 0.39985424E+00 0.40493544E+04</pdfrwt>
<pdfrwt beam="2">  1       -2 0.24265161E+00 0.40493544E+04</pdfrwt>
<totfact> 0.17077168E-01</totfact>
</mgrwt>
</event>
<event>
 6    1  0.1719556E-004  0.5134566E+04  0.7818608E-02  0.7808078E-01
          2   -1    0    0  501    0  0.00000000000E+00  0.00000000000E+00  0.31112773725E+04  0.31112773725E+04  0.00000000000E+00 0. -1.
         -2   -1    0    0    0  501 -0.00000000000E+00 -0.00000000000E+00 -0.21184040917E+04  0.21184040917E+04  0.00000000000E+00 0.  1.
         23    2    1    2    0    0  0.35351688553E+03  0.16797685676E+04  0.24398949780E+04  0.29845827089E+04  0.89720753897E+02 0.  0.
         11    1    3    3    0    0  0.26640662936E+03  0.12953559918E+04  0.19426147418E+04  0.23500365258E+04  0.00000000000E+00 0.  1.
        -11    1    3    3    0    0  0.87110256162E+02  0.38441257584E+03  0.49728023617E+03  0.63454618309E+03  0.00000000000E+00 0. -1.
         22    1    1    2    0    0 -0.35351688553E+03 -0.16797685676E+04 -0.14470216972E+04  0.22450987553E+04  0.00000000000E+00 0.  1.
<mgrwt>
<rscale>  0 0.51345663E+04</rscale>
<asrwt>0</asrwt>
<pdfrwt beam="1">  1        2 0.47865806E+00 0.51345663E+04</pdfrwt>
<pdfrwt beam="2">  1       -2 0.32590832E+00 0.51345663E+04</pdfrwt>
<totfact> 0.23447292E-02</totfact>
</mgrwt>
</event>
<event>
 6    1  0.1719556E-004  0.9452922E+03  0.7818608E-02  0.9370670E-01
         -2   -1    0    0    0  501 -0.00000000000E+00  0.00000000000E+00  0.36223568547E+03  0.36223568547E+03  0.00000000000E+00 0. -1.
          2   -1    0    0  501    0  0.00000000000E+00 -0.00000000000E+00 -0.61670995344E+03  0.61670995344E+03  0.00000000000E+00 0.  1.
         23    2    1    2    0    0  0.13715111409E+03  0.13455328864E+03  0.31460234428E+03  0.37830997048E+03  0.85022251000E+02 0.  0.
         13    1    3    3    0    0  0.92897516847E+02  0.93762353578E+02  0.27832709461E+03  0.30803782102E+03  0.00000000000E+00 0. -1.
        -13    1    3    3    0    0  0.44253597241E+02  0.40790935058E+02  0.36275249662E+02  0.70272149460E+02  0.00000000000E+00 0.  1.
         22    1    1    2    0    0 -0.13715111409E+03 -0.13455328864E+03 -0.56907661225E+03  0.60063566842E+03  0.00000000000E+00 0. -1.
<mgrwt>
<rscale>  0 0.94529224E+03</rscale>
<asrwt>0</asrwt>
<pdfrwt beam="1">  1        2 0.94878453E-01 0.94529224E+03</pdfrwt>
<pdfrwt beam="2">  1       -2 0.55728568E-01 0.94529224E+03</pdfrwt>
<totfact> 0.14532097E+02</totfact>
</mgrwt>
</event>
<event>
 6    1  0.1719556E-004  0.2600009E+04  0.7818608E-02  0.8368198E-01
         -2   -1    0    0    0  501 -0.00000000000E+00  0.00000000000E+00  0.69064456307E+03  0.69064456307E+03  0.00000000000E+00 0. -1.
          2   -1    0    0  501    0  0.00000000000E+00 -0.00000000000E+00 -0.24470058566E+04  0.24470058566E+04  0.00000000000E+00 0.  1.
         23    2    1    2    0    0 -0.31096129902E+03 -0.42677834175E+03  0.55251824317E+03  0.76915693277E+03  0.86540717118E+02 0.  0.
         13    1    3    3    0    0 -0.19317954466E+03 -0.29321816182E+03  0.31080157358E+03  0.46892733449E+03  0.00000000000E+00 0.  1.
        -13    1    3    3    0    0 -0.11778175436E+03 -0.13356017993E+03  0.24171666960E+03  0.30022959828E+03  0.00000000000E+00 0. -1.
         22    1    1    2    0    0  0.31096129902E+03  0.42677834175E+03 -0.23088795367E+04  0.23684934869E+04  0.00000000000E+00 0.  1.
<mgrwt>
<rscale>  0 0.26000087E+04</rscale>
<asrwt>0</asrwt>
<pdfrwt beam="1">  1        2 0.37646244E+00 0.26000087E+04</pdfrwt>
<pdfrwt beam="2">  1       -2 0.10625301E+00 0.26000087E+04</pdfrwt>
<totfact> 0.23601797E+00</totfact>
</mgrwt>
</event>
<event>
 6    1  0.1719556E-004  0.2953819E+04  0.7818608E-02  0.8257042E-01
          1   -1    0    0  501    0  0.00000000000E+00  0.00000000000E+00  0.98689066230E+03  0.98689066230E+03  0.00000000000E+00 0. -1.
         -1   -1    0    0    0  501 -0.00000000000E+00 -0.00000000000E+00 -0.22102365966E+04  0.22102365966E+04  0.00000000000E+00 0.  1.
         23    2    1    2    0    0 -0.27882116367E+03  0.13817028068E+04 -0.10845879666E+04  0.17807594885E+04  0.89047239918E+02 0.  0.
         13    1    3    3    0    0 -0.12888850875E+03  0.50835442391E+03 -0.36015287662E+03  0.63619695263E+03  0.00000000000E+00 0.  1.
        -13    1    3    3    0    0 -0.14993265492E+03  0.87334838285E+03 -0.72443509001E+03  0.11445625358E+04  0.00000000000E+00 0. -1.
         22    1    1    2    0    0  0.27882116367E+03 -0.13817028068E+04 -0.13875796767E+03  0.14163677704E+04  0.00000000000E+00 0. -1.
<mgrwt>
<rscale>  0 0.29538191E+04</rscale>
<asrwt>0</asrwt>
<pdfrwt beam="1">  1        1 0.15182933E+00 0.29538191E+04</pdfrwt>
<pdfrwt beam="2">  1       -1 0.34003639E+00 0.29538191E+04</pdfrwt>
<totfact> 0.23934906E-01</totfact>
</mgrwt>
</event>
<event>
 6    1  0.1719556E-004  0.3144012E+04  0.7818608E-02  0.8203762E-01
          2   -1    0    0  501    0  0.00000000000E+00  0.00000000000E+00  0.40761829688E+04  0.40761829688E+04  0.00000000000E+00 0.  1.
         -2   -1    0    0    0  501 -0.00000000000E+00 -0.00000000000E+00 -0.60625429095E+03  0.60625429095E+03  0.00000000000E+00 0. -1.
         23    2    1    2    0    0  0.39861877035E+02  0.15701776499E+04  0.17656781729E+04  0.23647840059E+04  0.86816834164E+02 0.  0.
         13    1    3    3    0    0  0.31546661984E+02  0.18020210798E+03  0.19543305475E+03  0.26769772224E+03  0.00000000000E+00 0.  1.
        -13    1    3    3    0    0  0.83152150510E+01  0.13899755419E+04  0.15702451181E+04  0.20970862836E+04  0.00000000000E+00 0. -1.
         22    1    1    2    0    0 -0.39861877035E+02 -0.15701776499E+04  0.17042505050E+04  0.23176532539E+04  0.00000000000E+00 0.  1.
<mgrwt>
<rscale>  0 0.31440124E+04</rscale>
<asrwt>0</asrwt>
<pdfrwt beam="1">  1        2 0.62710506E+00 0.31440124E+04</pdfrwt>
<pdfrwt beam="2">  1       -2 0.93269893E-01 0.31440124E+04</pdfrwt>
<totfact> 0.24345694E-01</totfact>
</mgrwt>
</event>
<event>
 6    1  0.1719556E-004  0.1215594E+04  0.7818608E-02  0.9099316E-01
         -2   -1    0    0    0  501 -0.00000000000E+00  0.00000000000E+00  0.20621489390E+03  0.20621489390E+03  0.00000000000E+00 0. -1.
          2   -1    0    0  501    0  0.00000000000E+00 -0.00000000000E+00 -0.17914175224E+04  0.17914175224E+04  0.00000000000E+00 0.  1.
         23    2    1    2    0    0 -0.46836036083E+03  0.22180809507E+03 -0.28577754378E+03  0.59868073400E+03  0.90496177282E+02 0.  0.
         13    1    3    3    0    0 -0.36312435102E+03  0.15979478698E+03 -0.25852764349E+03  0.47352952464E+03  0.00000000000E+00 0.  1.
        -13    1    3    3    0    0 -0.10523600980E+03  0.62013308089E+02 -0.27249900284E+02  0.12515120936E+03  0.00000000000E+00 0. -1.
         22    1    1    2    0    0  0.46836036083E+03 -0.22180809507E+03 -0.12994250847E+04  0.13989516823E+04  0.00000000000E+00 0.  1.
<mgrwt>
<rscale>  0 0.12155936E+04</rscale>
<asrwt>0</asrwt>
<pdfrwt beam="1">  1        2 0.27560269E+00 0.12155936E+04</pdfrwt>
<pdfrwt beam="2">  1       -2 0.31725369E-01 0.12155936E+04</pdfrwt>
<totfact> 0.79412877E+01</totfact>
</mgrwt>
</event>
<event>
 6    1  0.1719556E-004  0.2330878E+04  0.7818608E-02  0.8465845E-01
          1   -1    0    0  501    0  0.00000000000E+00  0.00000000000E+00  0.17514541485E+04  0.17514541485E+04  0.00000000000E+00 0.  1.
         -1   -1    0    0    0  501 -0.00000000000E+00 -0.00000000000E+00 -0.77549724960E+03  0.77549724960E+03  0.00000000000E+00 0. -1.
         23    2    1    2    0    0  0.58832564090E+03  0.63180026748E+03  0.13346567259E+04  0.15920908718E+04  0.90255915731E+02 0.  0.
         11    1    3    3    0    0  0.38032859790E+03  0.46512972610E+03  0.89579924091E+03  0.10786342218E+04  0.00000000000E+00 0. -1.
        -11    1    3    3    0    0  0.20799704300E+03  0.16667054138E+03  0.43885748499E+03  0.51345664996E+03  0.00000000000E+00 0.  1.
         22    1    1    2    0    0 -0.58832564090E+03 -0.63180026748E+03 -0.35869982701E+03  0.93486052629E+03  0.00000000000E+00 0. -1.
<mgrwt>
<rscale>  0 0.23308778E+04</rscale>
<asrwt>0</asrwt>
<pdfrwt beam="1">  1        1 0.26945448E+00 0.23308778E+04</pdfrwt>
<pdfrwt beam="2">  1       -1 0.11930727E+00 0.23308778E+04</pdfrwt>
<totfact> 0.24882642E+00</totfact>
</mgrwt>
</event>
<event>
 6    1  0.1719556E-004  0.3168427E+04  0.7818608E-02  0.8197206E-01
         -2   -1    0    0    0  501 -0.00000000000E+00  0.00000000000E+00  0.17853155994E+04  0.17853155994E+04  0.00000000000E+00 0. -1.
          2   -1    0    0  501    0  0.00000000000E+00 -0.00000000000E+00 -0.14057636455E+04  0.14057636455E+04  0.00000000000E+00 0.  1.
         23    2    1    2    0    0 -0.41005227216E+02 -0.12100610386E+04 -0.83700296029E+03  0.14747066149E+04  0.90865277571E+02 0.  0.
         11    1    3    3    0    0 -0.13226367747E+02 -0.51967351855E+03 -0.41405989215E+03  0.66459092454E+03  0.00000000000E+00 0.  1.
        -11    1    3    3    0    0 -0.27778859468E+02 -0.69038752000E+03 -0.42294306814E+03  0.81011569031E+03  0.00000000000E+00 0. -1.
         22    1    1    2    0    0  0.41005227216E+02  0.12100610386E+04  0.12165549142E+04  0.17163726300E+04  0.00000000000E+00 0. -1.
<mgrwt>
<rscale>  0 0.31684266E+04</rscale>
<asrwt>0</asrwt>
<pdfrwt beam="1">  1        2 0.21627133E+00 0.31684266E+04</pdfrwt>
<pdfrwt beam="2">  1       -2 0.27466394E+00 0.31684266E+04</pdfrwt>
<totfact> 0.55031828E-01</totfact>
</mgrwt>
</event>
<event>
 6    1  0.1719556E-004  0.1397404E+04  0.7818608E-02  0.8955700E-01
         -1   -1    0    0    0  501 -0.00000000000E+00  0.00000000000E+00  0.34383398732E+03  0.34383398732E+03  0.00000000000E+00 0. -1.
          1   -1    0    0  501    0  0.00000000000E+00 -0.00000000000E+00 -0.14198255469E+04  0.14198255469E+04  0.00000000000E+00 0.  1.
         23    2    1    2    0    0  0.21656383076E+03  0.26472521548E+03  0.22436055138E+03  0.41907969464E+03  0.91163594370E+02 0.  0.
         11    1    3    3    0    0  0.15374609816E+03  0.23511067156E+03  0.15462477117E+03  0.32066136412E+03  0.00000000000E+00 0. -1.
        -11    1    3    3    0    0  0.62817732607E+02  0.29614543927E+02  0.69735780212E+02  0.98418330527E+02  0.00000000000E+00 0.  1.
         22    1    1    2    0    0 -0.21656383076E+03 -0.26472521548E+03 -0.13003521110E+04  0.13445798396E+04  0.00000000000E+00 0.  1.
<mgrwt>
<rscale>  0 0.13974037E+04</rscale>
<asrwt>0</asrwt>
<pdfrwt beam="1">  1        1 0.21843470E+00 0.13974037E+04</pdfrwt>
<pdfrwt beam="2">  1       -1 0.52897537E-01 0.13974037E+04</pdfrwt>
<totfact> 0.26141503E+01</totfact>
</mgrwt>
</event>
<event>
 6    1  0.1719556E-004  0.1707786E+04  0.7818608E-02  0.8756936E-01
         -1   -1    0    0    0  501 -0.00000000000E+00  0.00000000000E+00  0.24985156240E+03  0.24985156240E+03  0.00000000000E+00 0. -1.
          1   -1    0    0  501    0  0.00000000000E+00 -0.00000000000E+00 -0.29182665126E+04  0.29182665126E+04  0.00000000000E+00 0.  1.
         23    2    1    2    0    0 -0.45813728793E+03 -0.71712263561E+03 -0.14266729225E+04  0.16627683109E+04  0.72444313841E+02 0.  0.
         11    1    3    3    0    0 -0.33762106279E+03 -0.48031866984E+03 -0.10228388942E+04  0.11793614417E+04  0.00000000000E+00 0. -1.
        -11    1    3    3    0    0 -0.12051622513E+03 -0.23680396577E+03 -0.40383402832E+03  0.48340686916E+03  0.00000000000E+00 0.  1.
         22    1    1    2    0    0  0.45813728793E+03  0.71712263561E+03 -0.12417420276E+04  0.15053497641E+04  0.00000000000E+00 0.  1.
<mgrwt>
<rscale>  0 0.17077862E+04</rscale>
<asrwt>0</asrwt>
<pdfrwt beam="1">  1        1 0.44896406E+00 0.17077862E+04</pdfrwt>
<pdfrwt beam="2">  1       -1 0.38438704E-01 0.17077862E+04</pdfrwt>
<totfact> 0.42840504E+00</totfact>
</mgrwt>
</event>
<event>
 6    1  0.1719556E-004  0.1576442E+04  0.7818608E-02  0.8835153E-01
          4   -1    0    0  501    0  0.00000000000E+00  0.00000000000E+00  0.36194530980E+03  0.36194530980E+03  0.00000000000E+00 0.  1.
         -4   -1    0    0    0  501 -0.00000000000E+00 -0.00000000000E+00 -0.17165369001E+04  0.17165369001E+04  0.00000000000E+00 0. -1.
         23    2    1    2    0    0 -0.77304914070E+03 -0.17599076658E+02 -0.86206400592E+03  0.11616953629E+04  0.92016652826E+02 0.  0.
         11    1    3    3    0    0 -0.33687549851E+03 -0.43491764833E+02 -0.33511729911E+03  0.47715850539E+03  0.00000000000E+00 0. -1.
        -11    1    3    3    0    0 -0.43617364219E+03  0.25892688175E+02 -0.52694670681E+03  0.68453685749E+03  0.00000000000E+00 0.  1.
         22    1    1    2    0    0  0.77304914070E+03  0.17599076658E+02 -0.49252758434E+03  0.91678684697E+03  0.00000000000E+00 0.  1.
<mgrwt>
<rscale>  0 0.15764422E+04</rscale>
<asrwt>0</asrwt>
<pdfrwt beam="1">  1        4 0.55683893E-01 0.15764422E+04</pdfrwt>
<pdfrwt beam="2">  1       -4 0.26408260E+00 0.15764422E+04</pdfrwt>
<totfact> 0.30604873E-01</totfact>
</mgrwt>
</event>
<event>
 6    1  0.2180532E-004  0.3560212E+04  0.7818608E-02  0.8099667E-01
          2   -1    0    0  501    0  0.00000000000E+00  0.00000000000E+00  0.22436273183E+04  0.22436273183E+04  0.00000000000E+00 0.  1.
         -2   -1    0    0    0  501 -0.00000000000E+00 -0.00000000000E+00 -0.14123455888E+04  0.14123455888E+04  0.00000000000E+00 0. -1.
         23    2    1    2    0    0  0.19525082087E+03 -0.14436250959E+04  0.14644516834E+04  0.20675521533E+04  0.89313342213E+02 0.  0.
         11    1    3    3    0    0  0.49550187487E+02 -0.55447812586E+03  0.50966578894E+03  0.75475852400E+03  0.00000000000E+00 0. -1.
        -11    1    3    3    0    0  0.14570063338E+03 -0.88914697000E+03  0.95478589450E+03  0.13127936293E+04  0.00000000000E+00 0.  1.
         22    1    1    2    0    0 -0.19525082087E+03  0.14436250959E+04 -0.63316995391E+03  0.15884207538E+04  0.00000000000E+00 0. -1.
<mgrwt>
<rscale>  0 0.35602119E+04</rscale>
<asrwt>0</asrwt>
<pdfrwt beam="1">  1        2 0.34517343E+00 0.35602119E+04</pdfrwt>
<pdfrwt beam="2">  1       -2 0.21728394E+00 0.35602119E+04</pdfrwt>
<totfact> 0.41033141E-01</totfact>
</mgrwt>
</event>
<event>
 6    1  0.1719556E-004  0.1350517E+04  0.7818608E-02  0.8990437E-01
          2   -1    0    0  501    0  0.00000000000E+00  0.00000000000E+00  0.11277190052E+04  0.11277190052E+04  0.00000000000E+00 0.  1.
         -2   -1    0    0    0  501 -0.00000000000E+00 -0.00000000000E+00 -0.40433318778E+03  0.40433318778E+03  0.00000000000E+00 0. -1.
         23    2    1    2    0    0  0.10908627803E+03 -0.36231797281E+03  0.99393315431E+03  0.10668963148E+04  0.84796827295E+02 0.  0.
         13    1    3    3    0    0  0.35417064305E+02 -0.13070985545E+03  0.25076253087E+03  0.28499347650E+03  0.00000000000E+00 0.  1.
        -13    1    3    3    0    0  0.73669213729E+02 -0.23160811736E+03  0.74317062344E+03  0.78190283835E+03  0.00000000000E+00 0. -1.
         22    1    1    2    0    0 -0.10908627803E+03  0.36231797281E+03 -0.27054733689E+03  0.46515587814E+03  0.00000000000E+00 0. -1.
<mgrwt>
<rscale>  0 0.13505173E+04</rscale>
<asrwt>0</asrwt>
<pdfrwt beam="1">  1        2 0.17349523E+00 0.13505173E+04</pdfrwt>
<pdfrwt beam="2">  1       -2 0.62205106E-01 0.13505173E+04</pdfrwt>
<totfact> 0.49081899E+01</totfact>
</mgrwt>
</event>
<event>
 6    1  0.1719556E-004  0.2869146E+04  0.7818608E-02  0.8282117E-01
         -2   -1    0    0    0  501 -0.00000000000E+00  0.00000000000E+00  0.12869721933E+04  0.12869721933E+04  0.00000000000E+00 0. -1.
          2   -1    0    0  501    0  0.00000000000E+00 -0.00000000000E+00 -0.15991020525E+04  0.15991020525E+04  0.00000000000E+00 0.  1.
         23    2    1    2    0    0 -0.46825253977E+03  0.88460816838E+03  0.87576376594E+03  0.13327283998E+04  0.86085779258E+02 0.  0.
         13    1    3    3    0    0 -0.20313932821E+03  0.47032607800E+03  0.46611576842E+03  0.69262985489E+03  0.00000000000E+00 0.  1.
        -13    1    3    3    0    0 -0.26511321156E+03  0.41428209038E+03  0.40964799752E+03  0.64009854493E+03  0.00000000000E+00 0. -1.
         22    1    1    2    0    0  0.46825253977E+03 -0.88460816838E+03 -0.11878936251E+04  0.15533458460E+04  0.00000000000E+00 0.  1.
<mgrwt>
<rscale>  0 0.28691461E+04</rscale>
<asrwt>0</asrwt>
<pdfrwt beam="1">  1        2 0.24601570E+00 0.28691461E+04</pdfrwt>
<pdfrwt beam="2">  1       -2 0.19799572E+00 0.28691461E+04</pdfrwt>
<totfact> 0.13246411E+00</totfact>
</mgrwt>
</event>
<event>
 6    1  0.1719556E-004  0.1655473E+04  0.7818608E-02  0.8787175E-01
         -2   -1    0    0    0  501 -0.00000000000E+00  0.00000000000E+00  0.38811199327E+03  0.38811199327E+03  0.00000000000E+00 0. -1.
          2   -1    0    0  501    0  0.00000000000E+00 -0.00000000000E+00 -0.17653360203E+04  0.17653360203E+04  0.00000000000E+00 0.  1.
         23    2    1    2    0    0  0.62597002635E+02  0.48944019599E+03 -0.15500690787E+04  0.16306234712E+04  0.11290998922E+03 0.  0.
         13    1    3    3    0    0  0.35703218791E+02  0.63520799378E+02 -0.33361261348E+03  0.34147765324E+03  0.00000000000E+00 0. -1.
        -13    1    3    3    0    0  0.26893783843E+02  0.42591939661E+03 -0.12164564653E+04  0.12891458179E+04  0.00000000000E+00 0.  1.
         22    1    1    2    0    0 -0.62597002635E+02 -0.48944019599E+03  0.17284505176E+03  0.52282454237E+03  0.00000000000E+00 0. -1.
<mgrwt>
<rscale>  0 0.16554734E+04</rscale>
<asrwt>0</asrwt>
<pdfrwt beam="1">  1        2 0.27159016E+00 0.16554734E+04</pdfrwt>
<pdfrwt beam="2">  1       -2 0.59709537E-01 0.16554734E+04</pdfrwt>
<totfact> 0.22534421E+01</totfact>
</mgrwt>
</event>
<event>
 6    1  0.1719556E-004  0.1862022E+04  0.7818608E-02  0.8673995E-01
         -1   -1    0    0    0  501 -0.00000000000E+00  0.00000000000E+00  0.68423543240E+03  0.68423543240E+03  0.00000000000E+00 0.  1.
          1   -1    0    0  501    0  0.00000000000E+00 -0.00000000000E+00 -0.12667881850E+04  0.12667881850E+04  0.00000000000E+00 0. -1.
         23    2    1    2    0    0 -0.39165399483E+03 -0.20324379718E+02  0.59009192934E+03  0.71453605898E+03  0.92451946602E+02 0.  0.
         13    1    3    3    0    0 -0.32258303109E+03 -0.45375953750E+02  0.44042916716E+03  0.54781077062E+03  0.00000000000E+00 0. -1.
        -13    1    3    3    0    0 -0.69070963740E+02  0.25051574032E+02  0.14966276218E+03  0.16672528836E+03  0.00000000000E+00 0.  1.
         22    1    1    2    0    0  0.39165399483E+03  0.20324379718E+02 -0.11726446820E+04  0.12364875585E+04  0.00000000000E+00 0. -1.
<mgrwt>
<rscale>  0 0.18620219E+04</rscale>
<asrwt>0</asrwt>
<pdfrwt beam="1">  1        1 0.19489049E+00 0.18620219E+04</pdfrwt>
<pdfrwt beam="2">  1       -1 0.10526699E+00 0.18620219E+04</pdfrwt>
<totfact> 0.75920646E+00</totfact>
</mgrwt>
</event>
<event>
 6    1  0.1719556E-004  0.5196296E+03  0.7818608E-02  0.1008779E+00
         -2   -1    0    0    0  501 -0.00000000000E+00  0.00000000000E+00  0.14004861320E+03  0.14004861320E+03  0.00000000000E+00 0. -1.
          2   -1    0    0  501    0  0.00000000000E+00 -0.00000000000E+00 -0.48200207232E+03  0.48200207232E+03  0.00000000000E+00 0.  1.
         23    2    1    2    0    0 -0.20415210681E+03  0.11250141384E+03 -0.29308412427E+03  0.38388506517E+03  0.84467677411E+02 0.  0.
         13    1    3    3    0    0 -0.12040802391E+03  0.70354083154E+02 -0.23599327210E+03  0.27411788288E+03  0.00000000000E+00 0. -1.
        -13    1    3    3    0    0 -0.83744082905E+02  0.42147330690E+02 -0.57090852166E+02  0.10976718229E+03  0.00000000000E+00 0.  1.
         22    1    1    2    0    0  0.20415210681E+03 -0.11250141384E+03 -0.48869334849E+02  0.23816562036E+03  0.00000000000E+00 0. -1.
<mgrwt>
<rscale>  0 0.51962957E+03</rscale>
<asrwt>0</asrwt>
<pdfrwt beam="1">  1        2 0.74154167E-01 0.51962957E+03</pdfrwt>
<pdfrwt beam="2">  1       -2 0.21545940E-01 0.51962957E+03</pdfrwt>
<totfact> 0.12035142E+03</totfact>
</mgrwt>
</event>
<event>
 6    1  0.1719556E-004  0.2563469E+04  0.7818608E-02  0.8380717E-01
         -1   -1    0    0    0  501 -0.00000000000E+00  0.00000000000E+00  0.92789833215E+03  0.92789833215E+03  0.00000000000E+00 0. -1.
          1   -1    0    0  501    0  0.00000000000E+00 -0.00000000000E+00 -0.17704987601E+04  0.17704987601E+04  0.00000000000E+00 0.  1.
         23    2    1    2    0    0  0.51243839898E+03 -0.61540302875E+01 -0.16569809945E+04  0.17361878156E+04  0.78301534192E+02 0.  0.
         13    1    3    3    0    0  0.26408305607E+03 -0.28507271672E+02 -0.95417843590E+03  0.99045899086E+03  0.00000000000E+00 0. -1.
        -13    1    3    3    0    0  0.24835534291E+03  0.22353241384E+02 -0.70280255856E+03  0.74572882475E+03  0.00000000000E+00 0.  1.
         22    1    1    2    0    0 -0.51243839898E+03  0.61540302875E+01  0.81438056653E+03  0.96220927660E+03  0.00000000000E+00 0. -1.
<mgrwt>
<rscale>  0 0.25634686E+04</rscale>
<asrwt>0</asrwt>
<pdfrwt beam="1">  1        1 0.27238442E+00 0.25634686E+04</pdfrwt>
<pdfrwt beam="2">  1       -1 0.14275359E+00 0.25634686E+04</pdfrwt>
<totfact> 0.15011687E+00</totfact>
</mgrwt>
</event>
<event>
 6    1  0.1719556E-004  0.1441800E+04  0.7818608E-02  0.8924105E-01
         -2   -1    0    0    0  501 -0.00000000000E+00  0.00000000000E+00  0.42075750596E+03  0.42075750596E+03  0.00000000000E+00 0. -1.
          2   -1    0    0  501    0  0.00000000000E+00 -0.00000000000E+00 -0.12351458526E+04  0.12351458526E+04  0.00000000000E+00 0.  1.
         23    2    1    2    0    0  0.40987842782E+03 -0.29779128631E+02 -0.10850697982E+04  0.11638103081E+04  0.90503282248E+02 0.  0.
         13    1    3    3    0    0  0.17347807856E+03  0.25250365246E+02 -0.52210172141E+03  0.55074715813E+03  0.00000000000E+00 0. -1.
        -13    1    3    3    0    0  0.23640034927E+03 -0.55029493877E+02 -0.56296807682E+03  0.61306314997E+03  0.00000000000E+00 0.  1.
         22    1    1    2    0    0 -0.40987842782E+03  0.29779128631E+02  0.27068145158E+03  0.49209305047E+03  0.00000000000E+00 0. -1.
<mgrwt>
<rscale>  0 0.14418001E+04</rscale>
<asrwt>0</asrwt>
<pdfrwt beam="1">  1        2 0.19002244E+00 0.14418001E+04</pdfrwt>
<pdfrwt beam="2">  1       -2 0.64731924E-01 0.14418001E+04</pdfrwt>
<totfact> 0.38578957E+01</totfact>
</mgrwt>
</event>
<event>
 6    1  0.1719556E-004  0.1840705E+04  0.7818608E-02  0.8684948E-01
         -1   -1    0    0    0  501 -0.00000000000E+00  0.00000000000E+00  0.10399695623E+04  0.10399695623E+04  0.00000000000E+00 0.  1.
          1   -1    0    0  501    0  0.00000000000E+00 -0.00000000000E+00 -0.81449368852E+03  0.81449368852E+03  0.00000000000E+00 0. -1.
         23    2    1    2    0    0 -0.41076422279E+03  0.48603336520E+03  0.77971914892E+03  0.10105786100E+04  0.91386525480E+02 0.  0.
         11    1    3    3    0    0 -0.20729080720E+03  0.24709996214E+03  0.32328647439E+03  0.45666400620E+03  0.00000000000E+00 0.  1.
        -11    1    3    3    0    0 -0.20347341559E+03  0.23893340306E+03  0.45643267453E+03  0.55391460383E+03  0.00000000000E+00 0. -1.
         22    1    1    2    0    0  0.41076422279E+03 -0.48603336520E+03 -0.55424327518E+03  0.84388464075E+03  0.00000000000E+00 0. -1.
<mgrwt>
<rscale>  0 0.18407049E+04</rscale>
<asrwt>0</asrwt>
<pdfrwt beam="1">  1        1 0.12530672E+00 0.18407049E+04</pdfrwt>
<pdfrwt beam="2">  1       -1 0.15999532E+00 0.18407049E+04</pdfrwt>
<totfact> 0.59027352E+00</totfact>
</mgrwt>
</event>
<event>
 6    1  0.1719556E-004  0.2977042E+04  0.7818608E-02  0.8250317E-01
         -2   -1    0    0    0  501 -0.00000000000E+00  0.00000000000E+00  0.57767072932E+03  0.57767072932E+03  0.00000000000E+00 0. -1.
          2   -1    0    0  501    0  0.00000000000E+00 -0.00000000000E+00 -0.38355665401E+04  0.38355665401E+04  0.00000000000E+00 0.  1.
         23    2    1    2    0    0  0.27206129114E+03  0.51295269362E+03 -0.36602336359E+04  0.37068283668E+04  0.78284478127E+02 0.  0.
         11    1    3    3    0    0  0.20895247920E+03  0.35785799112E+03 -0.27934853891E+04  0.28240545497E+04  0.00000000000E+00 0.  1.
        -11    1    3    3    0    0  0.63108811937E+02  0.15509470250E+03 -0.86674824681E+03  0.88277381715E+03  0.00000000000E+00 0. -1.
         22    1    1    2    0    0 -0.27206129114E+03 -0.51295269362E+03  0.40233782519E+03  0.70640890255E+03  0.00000000000E+00 0. -1.
<mgrwt>
<rscale>  0 0.29770418E+04</rscale>
<asrwt>0</asrwt>
<pdfrwt beam="1">  1        2 0.59008717E+00 0.29770418E+04</pdfrwt>
<pdfrwt beam="2">  1       -2 0.88872419E-01 0.29770418E+04</pdfrwt>
<totfact> 0.43017559E-01</totfact>
</mgrwt>
</event>
<event>
 6    1  0.1719556E-004  0.1544952E+04  0.7818608E-02  0.8855099E-01
          2   -1    0    0  501    0  0.00000000000E+00  0.00000000000E+00  0.25230207500E+04  0.25230207500E+04  0.00000000000E+00 0.  1.
         -2   -1    0    0    0  501 -0.00000000000E+00 -0.00000000000E+00 -0.23650978474E+03  0.23650978474E+03  0.00000000000E+00 0. -1.
         23    2    1    2    0    0 -0.32615432866E+03  0.68595324948E+03  0.13711674946E+04  0.15700927785E+04  0.90457329408E+02 0.  0.
         13    1    3    3    0    0 -0.65556349303E+02  0.92932721698E+02  0.15591655177E+03  0.19298729702E+03  0.00000000000E+00 0. -1.
        -13    1    3    3    0    0 -0.26059797936E+03  0.59302052778E+03  0.12152509428E+04  0.13771054815E+04  0.00000000000E+00 0.  1.
         22    1    1    2    0    0  0.32615432866E+03 -0.68595324948E+03  0.91534347072E+03  0.11894377562E+04  0.00000000000E+00 0. -1.
<mgrwt>
<rscale>  0 0.15449519E+04</rscale>
<asrwt>0</asrwt>
<pdfrwt beam="1">  1        2 0.38815702E+00 0.15449519E+04</pdfrwt>
<pdfrwt beam="2">  1       -2 0.36386123E-01 0.15449519E+04</pdfrwt>
<totfact> 0.23170644E+01</totfact>
</mgrwt>
</event>
<event>
 6    1  0.1719556E-004  0.7908185E+03  0.7818608E-02  0.9573403E-01
         -1   -1    0    0    0  501 -0.00000000000E+00  0.00000000000E+00  0.25056015454E+04  0.25056015454E+04  0.00000000000E+00 0. -1.
          1   -1    0    0  501    0  0.00000000000E+00 -0.00000000000E+00 -0.62399575656E+02  0.62399575656E+02  0.00000000000E+00 0.  1.
         23    2    1    2    0    0  0.21739154305E+03 -0.32375715569E+03  0.12714704764E+04  0.13330790703E+04  0.91568862447E+02 0.  0.
         11    1    3    3    0    0  0.47638889285E+02 -0.12855964141E+03  0.34716042733E+03  0.37325247149E+03  0.00000000000E+00 0. -1.
        -11    1    3    3    0    0  0.16975265377E+03 -0.19519751428E+03  0.92431004905E+03  0.95982659882E+03  0.00000000000E+00 0.  1.
         22    1    1    2    0    0 -0.21739154305E+03  0.32375715569E+03  0.11717314934E+04  0.12349220507E+04  0.00000000000E+00 0.  1.
<mgrwt>
<rscale>  0 0.79081850E+03</rscale>
<asrwt>0</asrwt>
<pdfrwt beam="1">  1        1 0.95999367E-02 0.79081850E+03</pdfrwt>
<pdfrwt beam="2">  1       -1 0.38547708E+00 0.79081850E+03</pdfrwt>
<totfact> 0.67262678E+00</totfact>
</mgrwt>
</event>
<event>
 6    1  0.1719556E-004  0.2631163E+04  0.7818608E-02  0.8357692E-01
         -2   -1    0    0    0  501 -0.00000000000E+00  0.00000000000E+00  0.74228562368E+03  0.74228562368E+03  0.00000000000E+00 0. -1.
          2   -1    0    0  501    0  0.00000000000E+00 -0.00000000000E+00 -0.23316552963E+04  0.23316552963E+04  0.00000000000E+00 0.  1.
         23    2    1    2    0    0  0.44208459642E+03  0.12370518773E+04 -0.83100029336E+03  0.15570822407E+04  0.90595138093E+02 0.  0.
         11    1    3    3    0    0  0.40912836226E+03  0.11950731065E+04 -0.79107600540E+03  0.14904318142E+04  0.00000000000E+00 0. -1.
        -11    1    3    3    0    0  0.32956234159E+02  0.41978770878E+02 -0.39924287969E+02  0.66650426437E+02  0.00000000000E+00 0.  1.
         22    1    1    2    0    0 -0.44208459642E+03 -0.12370518773E+04 -0.75836937928E+03  0.15168586793E+04  0.00000000000E+00 0.  1.
<mgrwt>
<rscale>  0 0.26311626E+04</rscale>
<asrwt>0</asrwt>
<pdfrwt beam="1">  1        2 0.35871620E+00 0.26311626E+04</pdfrwt>
<pdfrwt beam="2">  1       -2 0.11419779E+00 0.26311626E+04</pdfrwt>
<totfact> 0.23014529E+00</totfact>
</mgrwt>
</event>
<event>
 6    1  0.1719556E-004  0.1252616E+04  0.7818608E-02  0.9068009E-01
          4   -1    0    0  501    0  0.00000000000E+00  0.00000000000E+00  0.49196841203E+03  0.49196841203E+03  0.00000000000E+00 0.  1.
         -4   -1    0    0    0  501 -0.00000000000E+00 -0.00000000000E+00 -0.79733098659E+03  0.79733098659E+03  0.00000000000E+00 0. -1.
         23    2    1    2    0    0 -0.35834426766E+02 -0.21748033836E+03 -0.75320236190E+03  0.79015785673E+03  0.91944748954E+02 0.  0.
         11    1    3    3    0    0  0.16612554134E+02 -0.12457422365E+03 -0.49669378515E+03  0.51234698238E+03  0.00000000000E+00 0.  1.
        -11    1    3    3    0    0 -0.52446980900E+02 -0.92906114709E+02 -0.25650857676E+03  0.27781087435E+03  0.00000000000E+00 0. -1.
         22    1    1    2    0    0  0.35834426766E+02  0.21748033836E+03  0.44783978734E+03  0.49914154189E+03  0.00000000000E+00 0.  1.
<mgrwt>
<rscale>  0 0.12526159E+04</rscale>
<asrwt>0</asrwt>
<pdfrwt beam="1">  1        4 0.75687449E-01 0.12526159E+04</pdfrwt>
<pdfrwt beam="2">  1       -4 0.12266630E+00 0.12526159E+04</pdfrwt>
<totfact> 0.15462499E+00</totfact>
</mgrwt>
</event>
<event>
 6    1  0.1782592E-004  0.3168127E+04  0.7818608E-02  0.8197286E-01
         -2   -1    0    0    0  501 -0.00000000000E+00  0.00000000000E+00  0.20723194445E+04  0.20723194445E+04  0.00000000000E+00 0. -1.
          2   -1    0    0  501    0  0.00000000000E+00 -0.00000000000E+00 -0.12108450168E+04  0.12108450168E+04  0.00000000000E+00 0.  1.
         23    2    1    2    0    0 -0.14646324944E+04  0.38628623626E+03  0.90666628062E+03  0.17677741804E+04  0.92824612034E+02 0.  0.
         13    1    3    3    0    0 -0.68242936156E+03  0.13446537612E+03  0.39909578133E+03  0.80191534065E+03  0.00000000000E+00 0. -1.
        -13    1    3    3    0    0 -0.78220313281E+03  0.25182086014E+03  0.50757049930E+03  0.96585883975E+03  0.00000000000E+00 0.  1.
         22    1    1    2    0    0  0.14646324944E+04 -0.38628623626E+03 -0.45191852835E+02  0.15153902809E+04  0.00000000000E+00 0. -1.
<mgrwt>
<rscale>  0 0.31681273E+04</rscale>
<asrwt>0</asrwt>
<pdfrwt beam="1">  1        2 0.18628385E+00 0.31681273E+04</pdfrwt>
<pdfrwt beam="2">  1       -2 0.31881838E+00 0.31681273E+04</pdfrwt>
<totfact> 0.38354701E-01</totfact>
</mgrwt>
</event>
<event>
 6    1  0.1719556E-004  0.2092515E+04  0.7818608E-02  0.8564548E-01
         -2   -1    0    0    0  501 -0.00000000000E+00  0.00000000000E+00  0.77042542862E+03  0.77042542862E+03  0.00000000000E+00 0. -1.
          2   -1    0    0  501    0  0.00000000000E+00 -0.00000000000E+00 -0.14208444857E+04  0.14208444857E+04  0.00000000000E+00 0.  1.
         23    2    1    2    0    0 -0.16959202040E+03 -0.76414735845E+03 -0.10496461217E+04  0.13125976843E+04  0.92049232545E+02 0.  0.
         13    1    3    3    0    0 -0.13688949300E+03 -0.47614183181E+03 -0.71504523814E+03  0.86990773642E+03  0.00000000000E+00 0.  1.
        -13    1    3    3    0    0 -0.32702527404E+02 -0.28800552664E+03 -0.33460088355E+03  0.44268994787E+03  0.00000000000E+00 0. -1.
         22    1    1    2    0    0  0.16959202040E+03  0.76414735845E+03  0.39922706458E+03  0.87867223007E+03  0.00000000000E+00 0. -1.
<mgrwt>
<rscale>  0 0.20925150E+04</rscale>
<asrwt>0</asrwt>
<pdfrwt beam="1">  1        2 0.21859146E+00 0.20925150E+04</pdfrwt>
<pdfrwt beam="2">  1       -2 0.11852699E+00 0.20925150E+04</pdfrwt>
<totfact> 0.71095565E+00</totfact>
</mgrwt>
</event>
<event>
 6    1  0.1719556E-004  0.2039490E+04  0.7818608E-02  0.8588377E-01
         -2   -1    0    0    0  501 -0.00000000000E+00  0.00000000000E+00  0.11248297453E+04  0.11248297453E+04  0.00000000000E+00 0. -1.
          2   -1    0    0  501    0  0.00000000000E+00 -0.00000000000E+00 -0.92447754929E+03  0.92447754929E+03  0.00000000000E+00 0.  1.
         23    2    1    2    0    0  0.79775895242E+03 -0.62803093370E+03  0.17191819918E+03  0.10336052260E+04  0.89116195208E+02 0.  0.
         13    1    3    3    0    0  0.29876794954E+03 -0.18226210296E+03  0.51260786733E+02  0.35370811427E+03  0.00000000000E+00 0.  1.
        -13    1    3    3    0    0  0.49899100288E+03 -0.44576883074E+03  0.12065741245E+03  0.67989711177E+03  0.00000000000E+00 0. -1.
         22    1    1    2    0    0 -0.79775895242E+03  0.62803093370E+03  0.28433996803E+02  0.10157020685E+04  0.00000000000E+00 0.  1.
<mgrwt>
<rscale>  0 0.20394900E+04</rscale>
<asrwt>0</asrwt>
<pdfrwt beam="1">  1        2 0.14222732E+00 0.20394900E+04</pdfrwt>
<pdfrwt beam="2">  1       -2 0.17305073E+00 0.20394900E+04</pdfrwt>
<totfact> 0.53000644E+00</totfact>
</mgrwt>
</event>
<event>
 6    1  0.1719556E-004  0.2823884E+04  0.7818608E-02  0.8295892E-01
         -2   -1    0    0    0  501 -0.00000000000E+00  0.00000000000E+00  0.80399915338E+03  0.80399915338E+03  0.00000000000E+00 0. -1.
          2   -1    0    0  501    0  0.00000000000E+00 -0.00000000000E+00 -0.24795791731E+04  0.24795791731E+04  0.00000000000E+00 0.  1.
         23    2    1    2    0    0 -0.89429966341E+03  0.94929148645E+03 -0.21323314074E+03  0.13241435588E+04  0.83436070600E+02 0.  0.
         11    1    3    3    0    0 -0.66800399067E+03  0.71398353132E+03 -0.19613027119E+03  0.99723061416E+03  0.00000000000E+00 0.  1.
        -11    1    3    3    0    0 -0.22629567274E+03  0.23530795513E+03 -0.17102869550E+02  0.32691294467E+03  0.00000000000E+00 0. -1.
         22    1    1    2    0    0  0.89429966341E+03 -0.94929148645E+03 -0.14623468790E+04  0.19594347677E+04  0.00000000000E+00 0. -1.
<mgrwt>
<rscale>  0 0.28238835E+04</rscale>
<asrwt>0</asrwt>
<pdfrwt beam="1">  1        2 0.38147372E+00 0.28238835E+04</pdfrwt>
<pdfrwt beam="2">  1       -2 0.12369218E+00 0.28238835E+04</pdfrwt>
<totfact> 0.15291079E+00</totfact>
</mgrwt>
</event>
<event>
 6    1  0.1719556E-004  0.1639830E+04  0.7818608E-02  0.8796446E-01
          1   -1    0    0  501    0  0.00000000000E+00  0.00000000000E+00  0.79929431141E+03  0.79929431141E+03  0.00000000000E+00 0.  1.
         -1   -1    0    0    0  501 -0.00000000000E+00 -0.00000000000E+00 -0.84106729630E+03  0.84106729630E+03  0.00000000000E+00 0. -1.
         23    2    1    2    0    0  0.50395442868E+03  0.60662414348E+03  0.19403226882E+03  0.81721700601E+03  0.90731449531E+02 0.  0.
         11    1    3    3    0    0  0.28860783283E+03  0.40147734704E+03  0.93100079227E+02  0.50313632955E+03  0.00000000000E+00 0. -1.
        -11    1    3    3    0    0  0.21534659584E+03  0.20514679643E+03  0.10093218959E+03  0.31408067646E+03  0.00000000000E+00 0.  1.
         22    1    1    2    0    0 -0.50395442868E+03 -0.60662414348E+03 -0.23580525371E+03  0.82314460170E+03  0.00000000000E+00 0. -1.
<mgrwt>
<rscale>  0 0.16398296E+04</rscale>
<asrwt>0</asrwt>
<pdfrwt beam="1">  1        1 0.12296836E+00 0.16398296E+04</pdfrwt>
<pdfrwt beam="2">  1       -1 0.12939497E+00 0.16398296E+04</pdfrwt>
<totfact> 0.10868579E+01</totfact>
</mgrwt>
</event>
<event>
 6    1  0.1719556E-004  0.1613498E+04  0.7818608E-02  0.8812298E-01
          2   -1    0    0  501    0  0.00000000000E+00  0.00000000000E+00  0.72449482557E+03  0.72449482557E+03  0.00000000000E+00 0.  1.
         -2   -1    0    0    0  501 -0.00000000000E+00 -0.00000000000E+00 -0.89834147625E+03  0.89834147625E+03  0.00000000000E+00 0. -1.
         23    2    1    2    0    0  0.51370864157E+02 -0.80114037535E+03 -0.41830986205E+02  0.80926823314E+03  0.93275801026E+02 0.  0.
         13    1    3    3    0    0  0.15957437178E+02 -0.12865006834E+03 -0.40600328532E+02  0.13584500934E+03  0.00000000000E+00 0. -1.
        -13    1    3    3    0    0  0.35413426979E+02 -0.67249030701E+03 -0.12306576726E+01  0.67342322380E+03  0.00000000000E+00 0.  1.
         22    1    1    2    0    0 -0.51370864157E+02  0.80114037535E+03 -0.13201566448E+03  0.81356806868E+03  0.00000000000E+00 0.  1.
<mgrwt>
<rscale>  0 0.16134978E+04</rscale>
<asrwt>0</asrwt>
<pdfrwt beam="1">  1        2 0.11146074E+00 0.16134978E+04</pdfrwt>
<pdfrwt beam="2">  1       -2 0.13820638E+00 0.16134978E+04</pdfrwt>
<totfact> 0.13945569E+01</totfact>
</mgrwt>
</event>
<event>
 6    1  0.1719556E-004  0.2785869E+04  0.7818608E-02  0.8307669E-01
          2   -1    0    0  501    0  0.00000000000E+00  0.00000000000E+00  0.26348334998E+04  0.26348334998E+04  0.00000000000E+00 0.  1.
         -2   -1    0    0    0  501 -0.00000000000E+00 -0.00000000000E+00 -0.73639073865E+03  0.73639073865E+03  0.00000000000E+00 0. -1.
         23    2    1    2    0    0 -0.10807558510E+04 -0.86043638109E+03  0.74856548168E+03  0.15738367640E+04  0.90707794655E+02 0.  0.
         13    1    3    3    0    0 -0.51342176722E+03 -0.37051712484E+03  0.38134903625E+03  0.73912917566E+03  0.00000000000E+00 0.  1.
        -13    1    3    3    0    0 -0.56733408378E+03 -0.48991925625E+03  0.36721644543E+03  0.83470758835E+03  0.00000000000E+00 0. -1.
         22    1    1    2    0    0  0.10807558510E+04  0.86043638109E+03  0.11498772794E+04  0.17973874744E+04  0.00000000000E+00 0.  1.
<mgrwt>
<rscale>  0 0.27858693E+04</rscale>
<asrwt>0</asrwt>
<pdfrwt beam="1">  1        2 0.40535899E+00 0.27858693E+04</pdfrwt>
<pdfrwt beam="2">  1       -2 0.11329088E+00 0.27858693E+04</pdfrwt>
<totfact> 0.15461228E+00</totfact>
</mgrwt>
</event>
<event>
 6    1  0.1719556E-004  0.1766737E+04  0.7818608E-02  0.8724191E-01
         -2   -1    0    0    0  501 -0.00000000000E+00  0.00000000000E+00  0.50818604951E+03  0.50818604951E+03  0.00000000000E+00 0. -1.
          2   -1    0    0  501    0  0.00000000000E+00 -0.00000000000E+00 -0.15355394432E+04  0.15355394432E+04  0.00000000000E+00 0.  1.
         23    2    1    2    0    0 -0.72088317221E+03  0.50281777929E+03 -0.59485159317E+03  0.10641561616E+04  0.77984941674E+02 0.  0.
         13    1    3    3    0    0 -0.22926179127E+03  0.14902573940E+03 -0.14363279852E+03  0.30886893782E+03  0.00000000000E+00 0.  1.
        -13    1    3    3    0    0 -0.49162138094E+03  0.35379203988E+03 -0.45121879465E+03  0.75528722373E+03  0.00000000000E+00 0. -1.
         22    1    1    2    0    0  0.72088317221E+03 -0.50281777929E+03 -0.43250180056E+03  0.97956933120E+03  0.00000000000E+00 0.  1.
<mgrwt>
<rscale>  0 0.17667368E+04</rscale>
<asrwt>0</asrwt>
<pdfrwt beam="1">  1        2 0.23623683E+00 0.17667368E+04</pdfrwt>
<pdfrwt beam="2">  1       -2 0.78182471E-01 0.17667368E+04</pdfrwt>
<totfact> 0.16699027E+01</totfact>
</mgrwt>
</event>
<event>
 6    1  0.1719556E-004  0.3237593E+04  0.7818608E-02  0.8178959E-01
          2   -1    0    0  501    0  0.00000000000E+00  0.00000000000E+00  0.13249867191E+04  0.13249867191E+04  0.00000000000E+00 0.  1.
         -2   -1    0    0    0  501 -0.00000000000E+00 -0.00000000000E+00 -0.19777569574E+04  0.19777569574E+04  0.00000000000E+00 0. -1.
         23    2    1    2    0    0 -0.14690798055E+04  0.28832937087E+03 -0.95122793845E+03  0.17761768422E+04  0.92953120690E+02 0.  0.
         11    1    3    3    0    0 -0.97482840642E+03  0.18919985071E+03 -0.68231386956E+03  0.12048399155E+04  0.00000000000E+00 0. -1.
        -11    1    3    3    0    0 -0.49425139908E+03  0.99129520163E+02 -0.26891406889E+03  0.57133692661E+03  0.00000000000E+00 0.  1.
         22    1    1    2    0    0  0.14690798055E+04 -0.28832937087E+03  0.29845770020E+03  0.15265668344E+04  0.00000000000E+00 0.  1.
<mgrwt>
<rscale>  0 0.32375927E+04</rscale>
<asrwt>0</asrwt>
<pdfrwt beam="1">  1        2 0.20384411E+00 0.32375927E+04</pdfrwt>
<pdfrwt beam="2">  1       -2 0.30427030E+00 0.32375927E+04</pdfrwt>
<totfact> 0.40154042E-01</totfact>
</mgrwt>
</event>
<event>
 6    1  0.1719556E-004  0.4093085E+04  0.7818608E-02  0.7986027E-01
         -2   -1    0    0    0  501 -0.00000000000E+00  0.00000000000E+00  0.17325386357E+04  0.17325386357E+04  0.00000000000E+00 0. -1.
          2   -1    0    0  501    0  0.00000000000E+00 -0.00000000000E+00 -0.24174562738E+04  0.24174562738E+04  0.00000000000E+00 0.  1.
         23    2    1    2    0    0  0.34355246080E+02  0.20234100545E+04 -0.40193900323E+02  0.20260746592E+04  0.89411651901E+02 0.  0.
         13    1    3    3    0    0 -0.73112447082E+01  0.63994225840E+03 -0.50124540148E+02  0.64194393673E+03  0.00000000000E+00 0.  1.
        -13    1    3    3    0    0  0.41666490788E+02  0.13834677961E+04  0.99306398249E+01  0.13841307225E+04  0.00000000000E+00 0. -1.
         22    1    1    2    0    0 -0.34355246080E+02 -0.20234100545E+04 -0.64472373783E+03  0.21239202503E+04  0.00000000000E+00 0. -1.
<mgrwt>
<rscale>  0 0.40930851E+04</rscale>
<asrwt>0</asrwt>
<pdfrwt beam="1">  1        2 0.37191635E+00 0.40930851E+04</pdfrwt>
<pdfrwt beam="2">  1       -2 0.26654441E+00 0.40930851E+04</pdfrwt>
<totfact> 0.15477668E-01</totfact>
</mgrwt>
</event>
<event>
 6    1  0.1719556E-004  0.2180759E+04  0.7818608E-02  0.8526479E-01
         -2   -1    0    0    0  501 -0.00000000000E+00  0.00000000000E+00  0.85120654567E+03  0.85120654567E+03  0.00000000000E+00 0. -1.
          2   -1    0    0  501    0  0.00000000000E+00 -0.00000000000E+00 -0.13967558705E+04  0.13967558705E+04  0.00000000000E+00 0.  1.
         23    2    1    2    0    0  0.22834781170E+03  0.46593770639E+02 -0.13691234986E+04  0.13920487977E+04  0.94799779135E+02 0.  0.
         13    1    3    3    0    0  0.23631374095E+03  0.45854211991E+02 -0.12706618216E+04  0.12932626407E+04  0.00000000000E+00 0.  1.
        -13    1    3    3    0    0 -0.79659292474E+01  0.73955864841E+00 -0.98461676965E+02  0.98786156958E+02  0.00000000000E+00 0. -1.
         22    1    1    2    0    0 -0.22834781170E+03 -0.46593770639E+02  0.82357417378E+03  0.85591361848E+03  0.00000000000E+00 0. -1.
<mgrwt>
<rscale>  0 0.21807593E+04</rscale>
<asrwt>0</asrwt>
<pdfrwt beam="1">  1        2 0.21488552E+00 0.21807593E+04</pdfrwt>
<pdfrwt beam="2">  1       -2 0.13095485E+00 0.21807593E+04</pdfrwt>
<totfact> 0.56729139E+00</totfact>
</mgrwt>
</event>
<event>
 6    1  0.1719556E-004  0.2374111E+04  0.7818608E-02  0.8449260E-01
          2   -1    0    0  501    0  0.00000000000E+00  0.00000000000E+00  0.28395355788E+04  0.28395355788E+04  0.00000000000E+00 0.  1.
         -2   -1    0    0    0  501 -0.00000000000E+00 -0.00000000000E+00 -0.49624349721E+03  0.49624349721E+03  0.00000000000E+00 0. -1.
         23    2    1    2    0    0 -0.89546824898E+03  0.55934946850E+03  0.41666519760E+03  0.11388206415E+04  0.92560000795E+02 0.  0.
         13    1    3    3    0    0 -0.40932933951E+03  0.21139129076E+03  0.15309240799E+03  0.48546273944E+03  0.00000000000E+00 0. -1.
        -13    1    3    3    0    0 -0.48613890947E+03  0.34795817774E+03  0.26357278961E+03  0.65335790206E+03  0.00000000000E+00 0.  1.
         22    1    1    2    0    0  0.89546824898E+03 -0.55934946850E+03  0.19266268840E+04  0.21969584345E+04  0.00000000000E+00 0.  1.
<mgrwt>
<rscale>  0 0.23741113E+04</rscale>
<asrwt>0</asrwt>
<pdfrwt beam="1">  1        2 0.43685162E+00 0.23741113E+04</pdfrwt>
<pdfrwt beam="2">  1       -2 0.76345155E-01 0.23741113E+04</pdfrwt>
<totfact> 0.30271228E+00</totfact>
</mgrwt>
</event>
<event>
 6    1  0.1719556E-004  0.2556055E+04  0.7818608E-02  0.8383283E-01
          2   -1    0    0  501    0  0.00000000000E+00  0.00000000000E+00  0.18210040267E+04  0.18210040267E+04  0.00000000000E+00 0.  1.
         -2   -1    0    0    0  501 -0.00000000000E+00 -0.00000000000E+00 -0.89695259537E+03  0.89695259537E+03  0.00000000000E+00 0. -1.
         23    2    1    2    0    0  0.60683527432E+03  0.87109401037E+02 -0.72628532085E+03  0.95743156019E+03  0.11553236451E+03 0.  0.
         11    1    3    3    0    0  0.27291646857E+03 -0.16430865882E+02 -0.29430438734E+03  0.40170691378E+03  0.00000000000E+00 0. -1.
        -11    1    3    3    0    0  0.33391880575E+03  0.10354026692E+03 -0.43198093351E+03  0.55572464640E+03  0.00000000000E+00 0.  1.
         22    1    1    2    0    0 -0.60683527432E+03 -0.87109401037E+02  0.16503367522E+04  0.17605250619E+04  0.00000000000E+00 0.  1.
<mgrwt>
<rscale>  0 0.25560550E+04</rscale>
<asrwt>0</asrwt>
<pdfrwt beam="1">  1        2 0.28015446E+00 0.25560550E+04</pdfrwt>
<pdfrwt beam="2">  1       -2 0.13799271E+00 0.25560550E+04</pdfrwt>
<totfact> 0.27810623E+00</totfact>
</mgrwt>
</event>
<event>
 6    1  0.1719556E-004  0.2159103E+04  0.7818608E-02  0.8535646E-01
          2   -1    0    0  501    0  0.00000000000E+00  0.00000000000E+00  0.82971127203E+03  0.82971127203E+03  0.00000000000E+00 0.  1.
         -2   -1    0    0    0  501 -0.00000000000E+00 -0.00000000000E+00 -0.14046225022E+04  0.14046225022E+04  0.00000000000E+00 0. -1.
         23    2    1    2    0    0  0.15461302476E+03 -0.39234510881E+03 -0.13140755998E+04  0.13833321073E+04  0.94726793357E+02 0.  0.
         11    1    3    3    0    0  0.45666560096E+02 -0.38971166387E+02 -0.23950945379E+03  0.24691894414E+03  0.00000000000E+00 0. -1.
        -11    1    3    3    0    0  0.10894646467E+03 -0.35337394242E+03 -0.10745661460E+04  0.11364131632E+04  0.00000000000E+00 0.  1.
         22    1    1    2    0    0 -0.15461302476E+03  0.39234510881E+03  0.73916436959E+03  0.85100166692E+03  0.00000000000E+00 0.  1.
<mgrwt>
<rscale>  0 0.21591027E+04</rscale>
<asrwt>0</asrwt>
<pdfrwt beam="1">  1        2 0.12764789E+00 0.21591027E+04</pdfrwt>
<pdfrwt beam="2">  1       -2 0.21609577E+00 0.21591027E+04</pdfrwt>
<totfact> 0.31467153E+00</totfact>
</mgrwt>
</event>
<event>
 6    1  0.1719556E-004  0.1662112E+04  0.7818608E-02  0.8783273E-01
          2   -1    0    0  501    0  0.00000000000E+00  0.00000000000E+00  0.18342953292E+04  0.18342953292E+04  0.00000000000E+00 0.  1.
         -2   -1    0    0    0  501 -0.00000000000E+00 -0.00000000000E+00 -0.37652294084E+03  0.37652294084E+03  0.00000000000E+00 0. -1.
         23    2    1    2    0    0  0.37256119205E+03  0.25386972255E+03  0.16559904402E+04  0.17183326622E+04  0.84327470922E+02 0.  0.
         11    1    3    3    0    0  0.16953771591E+03  0.66192591357E+02  0.63448977242E+03  0.66007709214E+03  0.00000000000E+00 0. -1.
        -11    1    3    3    0    0  0.20302347614E+03  0.18767713119E+03  0.10215006677E+04  0.10582555701E+04  0.00000000000E+00 0.  1.
         22    1    1    2    0    0 -0.37256119205E+03 -0.25386972255E+03 -0.19821805180E+03  0.49248560782E+03  0.00000000000E+00 0. -1.
<mgrwt>
<rscale>  0 0.16621122E+04</rscale>
<asrwt>0</asrwt>
<pdfrwt beam="1">  1        2 0.28219928E+00 0.16621122E+04</pdfrwt>
<pdfrwt beam="2">  1       -2 0.57926607E-01 0.16621122E+04</pdfrwt>
<totfact> 0.21984266E+01</totfact>
</mgrwt>
</event>
<event>
 6    1  0.1719556E-004  0.3959735E+04  0.7818608E-02  0.8012719E-01
         -2   -1    0    0    0  501 -0.00000000000E+00  0.00000000000E+00  0.19981379882E+04  0.19981379882E+04  0.00000000000E+00 0. -1.
          2   -1    0    0  501    0  0.00000000000E+00 -0.00000000000E+00 -0.19617643570E+04  0.19617643570E+04  0.00000000000E+00 0.  1.
         23    2    1    2    0    0 -0.19094296858E+04 -0.13043594800E+03 -0.48453952982E+03  0.19763989339E+04  0.91863641553E+02 0.  0.
         11    1    3    3    0    0 -0.12977610474E+04 -0.47206485599E+02 -0.34028887794E+03  0.13424636713E+04  0.00000000000E+00 0.  1.
        -11    1    3    3    0    0 -0.61166863835E+03 -0.83229462402E+02 -0.14425065187E+03  0.63393526256E+03  0.00000000000E+00 0. -1.
         22    1    1    2    0    0  0.19094296858E+04  0.13043594800E+03  0.52091316093E+03  0.19835034113E+04  0.00000000000E+00 0. -1.
<mgrwt>
<rscale>  0 0.39597353E+04</rscale>
<asrwt>0</asrwt>
<pdfrwt beam="1">  1        2 0.30180990E+00 0.39597353E+04</pdfrwt>
<pdfrwt beam="2">  1       -2 0.30740584E+00 0.39597353E+04</pdfrwt>
<totfact> 0.15897183E-01</totfact>
</mgrwt>
</event>
<event>
 6    1  0.1719556E-004  0.9730321E+03  0.7818608E-02  0.9338627E-01
          1   -1    0    0  501    0  0.00000000000E+00  0.00000000000E+00  0.72406452065E+03  0.72406452065E+03  0.00000000000E+00 0.  1.
         -1   -1    0    0    0  501 -0.00000000000E+00 -0.00000000000E+00 -0.32690162818E+03  0.32690162818E+03  0.00000000000E+00 0. -1.
         23    2    1    2    0    0 -0.23763361868E+03  0.41600312837E+03  0.14537495999E+03  0.50974022329E+03  0.95775136138E+02 0.  0.
         11    1    3    3    0    0 -0.11135257259E+03  0.22531069959E+03  0.12336113980E+03  0.27996835105E+03  0.00000000000E+00 0. -1.
        -11    1    3    3    0    0 -0.12628104609E+03  0.19069242878E+03  0.22013820193E+02  0.22977187224E+03  0.00000000000E+00 0.  1.
         22    1    1    2    0    0  0.23763361868E+03 -0.41600312837E+03  0.25178793247E+03  0.54122592554E+03  0.00000000000E+00 0.  1.
<mgrwt>
<rscale>  0 0.97303211E+03</rscale>
<asrwt>0</asrwt>
<pdfrwt beam="1">  1        1 0.11139454E+00 0.97303211E+03</pdfrwt>
<pdfrwt beam="2">  1       -1 0.50292558E-01 0.97303211E+03</pdfrwt>
<totfact> 0.10307468E+02</totfact>
</mgrwt>
</event>
<event>
 6    1  0.1719556E-004  0.2705566E+04  0.7818608E-02  0.8333201E-01
         -2   -1    0    0    0  501 -0.00000000000E+00  0.00000000000E+00  0.63189712516E+03  0.63189712516E+03  0.00000000000E+00 0. -1.
          2   -1    0    0  501    0  0.00000000000E+00 -0.00000000000E+00 -0.28960750580E+04  0.28960750580E+04  0.00000000000E+00 0.  1.
         23    2    1    2    0    0 -0.34378699925E+03 -0.29920110991E+03 -0.27920372512E+04  0.28305868771E+04  0.95074980855E+02 0.  0.
         11    1    3    3    0    0 -0.19236151483E+03 -0.22691658218E+03 -0.17365963942E+04  0.17618913486E+04  0.00000000000E+00 0.  1.
        -11    1    3    3    0    0 -0.15142548443E+03 -0.72284527728E+02 -0.10554408569E+04  0.10686955286E+04  0.00000000000E+00 0. -1.
         22    1    1    2    0    0  0.34378699925E+03  0.29920110991E+03  0.52785931838E+03  0.69738530600E+03  0.00000000000E+00 0. -1.
<mgrwt>
<rscale>  0 0.27055657E+04</rscale>
<asrwt>0</asrwt>
<pdfrwt beam="1">  1        2 0.44554999E+00 0.27055657E+04</pdfrwt>
<pdfrwt beam="2">  1       -2 0.97214946E-01 0.27055657E+04</pdfrwt>
<totfact> 0.15637412E+00</totfact>
</mgrwt>
</event>
<event>
 6    1  0.1719556E-004  0.1103951E+04  0.7818608E-02  0.9201350E-01
         -1   -1    0    0    0  501 -0.00000000000E+00  0.00000000000E+00  0.19071707568E+03  0.19071707568E+03  0.00000000000E+00 0.  1.
          1   -1    0    0  501    0  0.00000000000E+00 -0.00000000000E+00 -0.15975326600E+04  0.15975326600E+04  0.00000000000E+00 0. -1.
         23    2    1    2    0    0  0.33669560664E+03  0.37768229701E+03 -0.36657352120E+03  0.63148208446E+03  0.91573072171E+02 0.  0.
         11    1    3    3    0    0  0.13236160956E+03  0.10591256041E+03 -0.83068986523E+02  0.18877903130E+03  0.00000000000E+00 0. -1.
        -11    1    3    3    0    0  0.20433399708E+03  0.27176973660E+03 -0.28350453468E+03  0.44270305316E+03  0.00000000000E+00 0.  1.
         22    1    1    2    0    0 -0.33669560664E+03 -0.37768229701E+03 -0.10402420631E+04  0.11567676512E+04  0.00000000000E+00 0. -1.
<mgrwt>
<rscale>  0 0.11039506E+04</rscale>
<asrwt>0</asrwt>
<pdfrwt beam="1">  1        1 0.24577425E+00 0.11039506E+04</pdfrwt>
<pdfrwt beam="2">  1       -1 0.29341089E-01 0.11039506E+04</pdfrwt>
<totfact> 0.59217369E+01</totfact>
</mgrwt>
</event>
<event>
 6    1  0.1719556E-004  0.2218320E+04  0.7818608E-02  0.8510842E-01
         -1   -1    0    0    0  501 -0.00000000000E+00  0.00000000000E+00  0.19566468852E+04  0.19566468852E+04  0.00000000000E+00 0.  1.
          1   -1    0    0  501    0  0.00000000000E+00 -0.00000000000E+00 -0.62874675423E+03  0.62874675423E+03  0.00000000000E+00 0. -1.
         23    2    1    2    0    0 -0.86254902308E+03 -0.94406808031E+02  0.14668109590E+04  0.17066447101E+04  0.90544544247E+02 0.  0.
         11    1    3    3    0    0 -0.67676083726E+03 -0.37150229282E+02  0.11236681480E+04  0.13122558734E+04  0.00000000000E+00 0.  1.
        -11    1    3    3    0    0 -0.18578818582E+03 -0.57256578748E+02  0.34314281098E+03  0.39438883672E+03  0.00000000000E+00 0. -1.
         22    1    1    2    0    0  0.86254902308E+03  0.94406808031E+02 -0.13891082803E+03  0.87874892931E+03  0.00000000000E+00 0. -1.
<mgrwt>
<rscale>  0 0.22183195E+04</rscale>
<asrwt>0</asrwt>
<pdfrwt beam="1">  1        1 0.96730271E-01 0.22183195E+04</pdfrwt>
<pdfrwt beam="2">  1       -1 0.30102260E+00 0.22183195E+04</pdfrwt>
<totfact> 0.94739627E-01</totfact>
</mgrwt>
</event>
<event>
 6    1  0.1719556E-004  0.1278670E+04  0.7818608E-02  0.9046653E-01
         -2   -1    0    0    0  501 -0.00000000000E+00  0.00000000000E+00  0.32186803899E+03  0.32186803899E+03  0.00000000000E+00 0. -1.
          2   -1    0    0  501    0  0.00000000000E+00 -0.00000000000E+00 -0.12699283243E+04  0.12699283243E+04  0.00000000000E+00 0.  1.
         23    2    1    2    0    0  0.26145777060E+03  0.56181211188E+03 -0.29771866012E+03  0.69349950571E+03  0.91170987524E+02 0.  0.
         11    1    3    3    0    0  0.62545582398E+02  0.23421326184E+03 -0.13097021256E+03  0.27553765347E+03  0.00000000000E+00 0.  1.
        -11    1    3    3    0    0  0.19891218820E+03  0.32759885004E+03 -0.16674844756E+03  0.41796185224E+03  0.00000000000E+00 0. -1.
         22    1    1    2    0    0 -0.26145777060E+03 -0.56181211188E+03 -0.65034162515E+03  0.89829685754E+03  0.00000000000E+00 0. -1.
<mgrwt>
<rscale>  0 0.12786702E+04</rscale>
<asrwt>0</asrwt>
<pdfrwt beam="1">  1        2 0.19537359E+00 0.12786702E+04</pdfrwt>
<pdfrwt beam="2">  1       -2 0.49518159E-01 0.12786702E+04</pdfrwt>
<totfact> 0.65208469E+01</totfact>
</mgrwt>
</event>
<event>
 6    1  0.1719556E-004  0.1639509E+04  0.7818608E-02  0.8796637E-01
         -2   -1    0    0    0  501 -0.00000000000E+00  0.00000000000E+00  0.80007992814E+03  0.80007992814E+03  0.00000000000E+00 0. -1.
          2   -1    0    0  501    0  0.00000000000E+00 -0.00000000000E+00 -0.83991304323E+03  0.83991304323E+03  0.00000000000E+00 0.  1.
         23    2    1    2    0    0 -0.53995877002E+03  0.36534086127E+03  0.47292619784E+03  0.81056453491E+03  0.91248333737E+02 0.  0.
         13    1    3    3    0    0 -0.28458967625E+03  0.16779166757E+03  0.28931664342E+03  0.43914627141E+03  0.00000000000E+00 0. -1.
        -13    1    3    3    0    0 -0.25536909377E+03  0.19754919370E+03  0.18360955442E+03  0.37141826349E+03  0.00000000000E+00 0.  1.
         22    1    1    2    0    0  0.53995877002E+03 -0.36534086127E+03 -0.51275931293E+03  0.82942843647E+03  0.00000000000E+00 0.  1.
<mgrwt>
<rscale>  0 0.16395092E+04</rscale>
<asrwt>0</asrwt>
<pdfrwt beam="1">  1        2 0.12921739E+00 0.16395092E+04</pdfrwt>
<pdfrwt beam="2">  1       -2 0.12308922E+00 0.16395092E+04</pdfrwt>
<totfact> 0.15369227E+01</totfact>
</mgrwt>
</event>
<event>
 6    1  0.1719556E-004  0.1359774E+04  0.7818608E-02  0.8983462E-01
          2   -1    0    0  501    0  0.00000000000E+00  0.00000000000E+00  0.43509922712E+03  0.43509922712E+03  0.00000000000E+00 0. -1.
         -2   -1    0    0    0  501 -0.00000000000E+00 -0.00000000000E+00 -0.10623933907E+04  0.10623933907E+04  0.00000000000E+00 0.  1.
         23    2    1    2    0    0 -0.19819227080E+02 -0.29570852913E+03  0.35499962024E+03  0.47146268956E+03  0.91738766664E+02 0.  0.
         11    1    3    3    0    0  0.29763588562E+02 -0.19515112433E+03  0.24162337875E+03  0.31201232297E+03  0.00000000000E+00 0. -1.
        -11    1    3    3    0    0 -0.49582815643E+02 -0.10055740480E+03  0.11337624150E+03  0.15945036658E+03  0.00000000000E+00 0.  1.
         22    1    1    2    0    0  0.19819227080E+02  0.29570852913E+03 -0.98229378386E+03  0.10260299283E+04  0.00000000000E+00 0.  1.
<mgrwt>
<rscale>  0 0.13597743E+04</rscale>
<asrwt>0</asrwt>
<pdfrwt beam="1">  1        2 0.66938343E-01 0.13597743E+04</pdfrwt>
<pdfrwt beam="2">  1       -2 0.16344514E+00 0.13597743E+04</pdfrwt>
<totfact> 0.16745913E+01</totfact>
</mgrwt>
</event>
<event>
 6    1  0.1719556E-004  0.7762568E+03  0.7818608E-02  0.9595035E-01
          2   -1    0    0  501    0  0.00000000000E+00  0.00000000000E+00  0.14054488666E+04  0.14054488666E+04  0.00000000000E+00 0.  1.
         -2   -1    0    0    0  501 -0.00000000000E+00 -0.00000000000E+00 -0.10718542783E+03  0.10718542783E+03  0.00000000000E+00 0. -1.
         23    2    1    2    0    0  0.30147968449E+03  0.16964559165E+03  0.33930484522E+03  0.49318777250E+03  0.91851913560E+02 0.  0.
         13    1    3    3    0    0  0.15299645489E+03  0.13785582372E+03  0.18873151755E+03  0.27934159923E+03  0.00000000000E+00 0. -1.
        -13    1    3    3    0    0  0.14848322960E+03  0.31789767936E+02  0.15057332767E+03  0.21384617327E+03  0.00000000000E+00 0.  1.
         22    1    1    2    0    0 -0.30147968449E+03 -0.16964559165E+03  0.95895859353E+03  0.10194465219E+04  0.00000000000E+00 0.  1.
<mgrwt>
<rscale>  0 0.77625676E+03</rscale>
<asrwt>0</asrwt>
<pdfrwt beam="1">  1        2 0.21622289E+00 0.77625676E+03</pdfrwt>
<pdfrwt beam="2">  1       -2 0.16490067E-01 0.77625676E+03</pdfrwt>
<totfact> 0.43245924E+02</totfact>
</mgrwt>
</event>
<event>
 6    1  0.1719556E-004  0.2446400E+04  0.7818608E-02  0.8422333E-01
          2   -1    0    0  501    0  0.00000000000E+00  0.00000000000E+00  0.41690840004E+04  0.41690840004E+04  0.00000000000E+00 0.  1.
         -2   -1    0    0    0  501 -0.00000000000E+00 -0.00000000000E+00 -0.35888423447E+03  0.35888423447E+03  0.00000000000E+00 0. -1.
         23    2    1    2    0    0  0.82186082962E+03 -0.63494982937E+03  0.30976813432E+04  0.32684846058E+04  0.93516873090E+02 0.  0.
         11    1    3    3    0    0  0.63659500790E+03 -0.47868267169E+03  0.22490035199E+04  0.23858765971E+04  0.00000000000E+00 0. -1.
        -11    1    3    3    0    0  0.18526582172E+03 -0.15626715768E+03  0.84867782330E+03  0.88260800870E+03  0.00000000000E+00 0.  1.
         22    1    1    2    0    0 -0.82186082962E+03  0.63494982937E+03  0.71251842275E+03  0.12594836290E+04  0.00000000000E+00 0. -1.
<mgrwt>
<rscale>  0 0.24464002E+04</rscale>
<asrwt>0</asrwt>
<pdfrwt beam="1">  1        2 0.64139750E+00 0.24464002E+04</pdfrwt>
<pdfrwt beam="2">  1       -2 0.55212962E-01 0.24464002E+04</pdfrwt>
<totfact> 0.68656119E-01</totfact>
</mgrwt>
</event>
<event>
 6    1  0.1719556E-004  0.1799710E+04  0.7818608E-02  0.8706454E-01
          2   -1    0    0  501    0  0.00000000000E+00  0.00000000000E+00  0.29295846006E+04  0.29295846006E+04  0.00000000000E+00 0.  1.
         -2   -1    0    0    0  501 -0.00000000000E+00 -0.00000000000E+00 -0.27640053079E+03  0.27640053079E+03  0.00000000000E+00 0. -1.
         23    2    1    2    0    0  0.84460610562E+03 -0.28318185341E+03  0.15245903248E+04  0.17681828928E+04  0.92431858479E+02 0.  0.
         13    1    3    3    0    0  0.35515983588E+03 -0.11744380220E+03  0.55147933864E+03  0.66637903377E+03  0.00000000000E+00 0. -1.
        -13    1    3    3    0    0  0.48944626973E+03 -0.16573805122E+03  0.97311098611E+03  0.11018038591E+04  0.00000000000E+00 0.  1.
         22    1    1    2    0    0 -0.84460610562E+03  0.28318185341E+03  0.11285937450E+04  0.14378022385E+04  0.00000000000E+00 0. -1.
<mgrwt>
<rscale>  0 0.17997097E+04</rscale>
<asrwt>0</asrwt>
<pdfrwt beam="1">  1        2 0.45070530E+00 0.17997097E+04</pdfrwt>
<pdfrwt beam="2">  1       -2 0.42523161E-01 0.17997097E+04</pdfrwt>
<totfact> 0.95661921E+00</totfact>
</mgrwt>
</event>
<event>
 6    1  0.1719556E-004  0.1090079E+04  0.7818608E-02  0.9214916E-01
          2   -1    0    0  501    0  0.00000000000E+00  0.00000000000E+00  0.30639018653E+04  0.30639018653E+04  0.00000000000E+00 0.  1.
         -2   -1    0    0    0  501 -0.00000000000E+00 -0.00000000000E+00 -0.96957467059E+02  0.96957467059E+02  0.00000000000E+00 0. -1.
         23    2    1    2    0    0 -0.34235120726E+03 -0.27937831052E+03  0.57883407453E+03  0.73221207355E+03  0.76348184757E+02 0.  0.
         11    1    3    3    0    0 -0.17346984384E+03 -0.18985922906E+03  0.32393882350E+03  0.41361174422E+03  0.00000000000E+00 0. -1.
        -11    1    3    3    0    0 -0.16888136342E+03 -0.89519081460E+02  0.25489525102E+03  0.31860032933E+03  0.00000000000E+00 0.  1.
         22    1    1    2    0    0  0.34235120726E+03  0.27937831052E+03  0.23881103237E+04  0.24286472588E+04  0.00000000000E+00 0.  1.
<mgrwt>
<rscale>  0 0.10900792E+04</rscale>
<asrwt>0</asrwt>
<pdfrwt beam="1">  1        2 0.47136944E+00 0.10900792E+04</pdfrwt>
<pdfrwt beam="2">  1       -2 0.14916536E-01 0.10900792E+04</pdfrwt>
<totfact> 0.57051331E+01</totfact>
</mgrwt>
</event>
<event>
 6    1  0.1719556E-004  0.6811918E+04  0.7818608E-02  0.7597149E-01
          2   -1    0    0  501    0  0.00000000000E+00  0.00000000000E+00  0.34698613857E+04  0.34698613857E+04  0.00000000000E+00 0.  1.
         -2   -1    0    0    0  501 -0.00000000000E+00 -0.00000000000E+00 -0.33432336760E+04  0.33432336760E+04  0.00000000000E+00 0. -1.
         23    2    1    2    0    0 -0.29170455520E+04  0.15107097123E+04 -0.83409597247E+03  0.33904661626E+04  0.90255865060E+02 0.  0.
         13    1    3    3    0    0 -0.25275535396E+04  0.13047587754E+04 -0.69049229447E+03  0.29270637107E+04  0.00000000000E+00 0.  1.
        -13    1    3    3    0    0 -0.38949201243E+03  0.20595093684E+03 -0.14360367800E+03  0.46340245194E+03  0.00000000000E+00 0. -1.
         22    1    1    2    0    0  0.29170455520E+04 -0.15107097123E+04  0.96072368223E+03  0.34226288991E+04  0.00000000000E+00 0.  1.
<mgrwt>
<rscale>  0 0.68119182E+04</rscale>
<asrwt>0</asrwt>
<pdfrwt beam="1">  1        2 0.53382483E+00 0.68119182E+04</pdfrwt>
<pdfrwt beam="2">  1       -2 0.51434364E+00 0.68119182E+04</pdfrwt>
<totfact> 0.73922008E-04</totfact>
</mgrwt>
</event>
<event>
 6    1  0.1719556E-004  0.5144758E+03  0.7818608E-02  0.1010068E+00
         -2   -1    0    0    0  501 -0.00000000000E+00  0.00000000000E+00  0.56026589666E+03  0.56026589666E+03  0.00000000000E+00 0. -1.
          2   -1    0    0  501    0  0.00000000000E+00 -0.00000000000E+00 -0.11810702472E+03  0.11810702472E+03  0.00000000000E+00 0.  1.
         23    2    1    2    0    0  0.10142084915E+03 -0.71723015681E+02  0.51292331442E+03  0.53541143726E+03  0.90247997487E+02 0.  0.
         13    1    3    3    0    0  0.93268176184E+02 -0.13516246451E+02  0.33700914981E+03  0.34993829265E+03  0.00000000000E+00 0. -1.
        -13    1    3    3    0    0  0.81526729685E+01 -0.58206769230E+02  0.17591416461E+03  0.18547314461E+03  0.00000000000E+00 0.  1.
         22    1    1    2    0    0 -0.10142084915E+03  0.71723015681E+02 -0.70764442482E+02  0.14296148412E+03  0.00000000000E+00 0.  1.
<mgrwt>
<rscale>  0 0.51447580E+03</rscale>
<asrwt>0</asrwt>
<pdfrwt beam="1">  1        2 0.18170312E-01 0.51447580E+03</pdfrwt>
<pdfrwt beam="2">  1       -2 0.86194751E-01 0.51447580E+03</pdfrwt>
<totfact> 0.37546393E+02</totfact>
</mgrwt>
</event>
<event>
 6    1  0.1719556E-004  0.7757632E+03  0.7818608E-02  0.9595777E-01
          2   -1    0    0  501    0  0.00000000000E+00  0.00000000000E+00  0.17427684863E+04  0.17427684863E+04  0.00000000000E+00 0.  1.
         -2   -1    0    0    0  501 -0.00000000000E+00 -0.00000000000E+00 -0.86329389623E+02  0.86329389623E+02  0.00000000000E+00 0. -1.
         23    2    1    2    0    0 -0.99999955614E+02 -0.28984370301E+03  0.30078616858E+03  0.43920427397E+03  0.91753538152E+02 0.  0.
         13    1    3    3    0    0 -0.73233375390E+02 -0.15806548896E+03  0.22596439088E+03  0.28532040238E+03  0.00000000000E+00 0.  1.
        -13    1    3    3    0    0 -0.26766580224E+02 -0.13177821405E+03  0.74821777705E+02  0.15388387158E+03  0.00000000000E+00 0. -1.
         22    1    1    2    0    0  0.99999955614E+02  0.28984370301E+03  0.13556529281E+04  0.13898936019E+04  0.00000000000E+00 0.  1.
<mgrwt>
<rscale>  0 0.77576321E+03</rscale>
<asrwt>0</asrwt>
<pdfrwt beam="1">  1        2 0.26811820E+00 0.77576321E+03</pdfrwt>
<pdfrwt beam="2">  1       -2 0.13281446E-01 0.77576321E+03</pdfrwt>
<totfact> 0.40543905E+02</totfact>
</mgrwt>
</event>
<event>
 6    1  0.1719556E-004  0.4464385E+04  0.7818608E-02  0.7916902E-01
         -2   -1    0    0    0  501 -0.00000000000E+00  0.00000000000E+00  0.11164801072E+04  0.11164801072E+04  0.00000000000E+00 0. -1.
          2   -1    0    0  501    0  0.00000000000E+00 -0.00000000000E+00 -0.44628508739E+04  0.44628508739E+04  0.00000000000E+00 0.  1.
         23    2    1    2    0    0 -0.68316813498E+02  0.19972078280E+04 -0.43343818139E+03  0.20468131054E+04  0.89827256504E+02 0.  0.
         11    1    3    3    0    0 -0.59502627073E+02  0.15531158668E+04 -0.37453483099E+03  0.15987450697E+04  0.00000000000E+00 0. -1.
        -11    1    3    3    0    0 -0.88141864242E+01  0.44409196122E+03 -0.58903350406E+02  0.44806803568E+03  0.00000000000E+00 0.  1.
         22    1    1    2    0    0  0.68316813498E+02 -0.19972078280E+04 -0.29129325853E+04  0.35325178757E+04  0.00000000000E+00 0.  1.
<mgrwt>
<rscale>  0 0.44643854E+04</rscale>
<asrwt>0</asrwt>
<pdfrwt beam="1">  1        2 0.68659245E+00 0.44643854E+04</pdfrwt>
<pdfrwt beam="2">  1       -2 0.17176617E+00 0.44643854E+04</pdfrwt>
<totfact> 0.20873742E-02</totfact>
</mgrwt>
</event>
<event>
 6    1  0.1719556E-004  0.9245348E+03  0.7818608E-02  0.9395421E-01
         -2   -1    0    0    0  501 -0.00000000000E+00  0.00000000000E+00  0.26061233720E+03  0.26061233720E+03  0.00000000000E+00 0. -1.
          2   -1    0    0  501    0  0.00000000000E+00 -0.00000000000E+00 -0.81995785011E+03  0.81995785011E+03  0.00000000000E+00 0.  1.
         23    2    1    2    0    0 -0.38687353381E+03  0.18465106489E+03 -0.47026156286E+03  0.64273106492E+03  0.90499377789E+02 0.  0.
         13    1    3    3    0    0 -0.18954908766E+03  0.13342811287E+03 -0.28400042849E+03  0.36658990891E+03  0.00000000000E+00 0.  1.
        -13    1    3    3    0    0 -0.19732444615E+03  0.51222952021E+02 -0.18626113438E+03  0.27614115601E+03  0.00000000000E+00 0. -1.
         22    1    1    2    0    0  0.38687353381E+03 -0.18465106489E+03 -0.89083950046E+02  0.43783912238E+03  0.00000000000E+00 0. -1.
<mgrwt>
<rscale>  0 0.92453476E+03</rscale>
<asrwt>0</asrwt>
<pdfrwt beam="1">  1        2 0.12614736E+00 0.92453476E+03</pdfrwt>
<pdfrwt beam="2">  1       -2 0.40094206E-01 0.92453476E+03</pdfrwt>
<totfact> 0.19643494E+02</totfact>
</mgrwt>
</event>
<event>
 6    1  0.1719556E-004  0.2108787E+04  0.7818608E-02  0.8557382E-01
          2   -1    0    0  501    0  0.00000000000E+00  0.00000000000E+00  0.58323731635E+03  0.58323731635E+03  0.00000000000E+00 0.  1.
         -2   -1    0    0    0  501 -0.00000000000E+00 -0.00000000000E+00 -0.19061634944E+04  0.19061634944E+04  0.00000000000E+00 0. -1.
         23    2    1    2    0    0  0.64308743429E+03  0.78462338201E+03 -0.33217005670E+03  0.10713764838E+04  0.91188397488E+02 0.  0.
         11    1    3    3    0    0  0.35250141755E+03  0.45303039316E+03 -0.23272842244E+03  0.61939995570E+03  0.00000000000E+00 0. -1.
        -11    1    3    3    0    0  0.29058601673E+03  0.33159298884E+03 -0.99441634263E+02  0.45197652815E+03  0.00000000000E+00 0.  1.
         22    1    1    2    0    0 -0.64308743429E+03 -0.78462338201E+03 -0.99075612136E+03  0.14180243269E+04  0.00000000000E+00 0.  1.
<mgrwt>
<rscale>  0 0.21087870E+04</rscale>
<asrwt>0</asrwt>
<pdfrwt beam="1">  1        2 0.89728818E-01 0.21087870E+04</pdfrwt>
<pdfrwt beam="2">  1       -2 0.29325592E+00 0.21087870E+04</pdfrwt>
<totfact> 0.16528857E+00</totfact>
</mgrwt>
</event>
<event>
 6    1  0.1719556E-004  0.3260657E+04  0.7818608E-02  0.8172979E-01
          2   -1    0    0  501    0  0.00000000000E+00  0.00000000000E+00  0.23981180773E+04  0.23981180773E+04  0.00000000000E+00 0.  1.
         -2   -1    0    0    0  501 -0.00000000000E+00 -0.00000000000E+00 -0.11083569186E+04  0.11083569186E+04  0.00000000000E+00 0. -1.
         23    2    1    2    0    0 -0.15777709688E+04  0.37579491771E+03  0.48187559706E+03  0.16944975869E+04  0.92384689297E+02 0.  0.
         13    1    3    3    0    0 -0.10076841918E+04  0.20232297263E+03  0.27860461785E+03  0.10648861670E+04  0.00000000000E+00 0.  1.
        -13    1    3    3    0    0 -0.57008677701E+03  0.17347194508E+03  0.20327097921E+03  0.62961141988E+03  0.00000000000E+00 0. -1.
         22    1    1    2    0    0  0.15777709688E+04 -0.37579491771E+03  0.80788556164E+03  0.18119774090E+04  0.00000000000E+00 0. -1.
<mgrwt>
<rscale>  0 0.32606568E+04</rscale>
<asrwt>0</asrwt>
<pdfrwt beam="1">  1        2 0.36894124E+00 0.32606568E+04</pdfrwt>
<pdfrwt beam="2">  1       -2 0.17051645E+00 0.32606568E+04</pdfrwt>
<totfact> 0.70564676E-01</totfact>
</mgrwt>
</event>
<event>
 6    1  0.1719556E-004  0.2209455E+04  0.7818608E-02  0.8514503E-01
         -2   -1    0    0    0  501 -0.00000000000E+00  0.00000000000E+00  0.17895183954E+04  0.17895183954E+04  0.00000000000E+00 0. -1.
          2   -1    0    0  501    0  0.00000000000E+00 -0.00000000000E+00 -0.68198390671E+03  0.68198390671E+03  0.00000000000E+00 0.  1.
         23    2    1    2    0    0 -0.20719835593E+03  0.10043114316E+04  0.10047816430E+04  0.14409050201E+04  0.12267239544E+03 0.  0.
         11    1    3    3    0    0 -0.18960481661E+03  0.78356972106E+03  0.72619636743E+03  0.10850311785E+04  0.00000000000E+00 0.  1.
        -11    1    3    3    0    0 -0.17593539320E+02  0.22074171051E+03  0.27858527556E+03  0.35587384161E+03  0.00000000000E+00 0. -1.
         22    1    1    2    0    0  0.20719835593E+03 -0.10043114316E+04  0.10275284565E+03  0.10305972820E+04  0.00000000000E+00 0.  1.
<mgrwt>
<rscale>  0 0.22094549E+04</rscale>
<asrwt>0</asrwt>
<pdfrwt beam="1">  1        2 0.10492060E+00 0.22094549E+04</pdfrwt>
<pdfrwt beam="2">  1       -2 0.27531052E+00 0.22094549E+04</pdfrwt>
<totfact> 0.17398207E+00</totfact>
</mgrwt>
</event>
<event>
 6    1  0.1719556E-004  0.2829210E+04  0.7818608E-02  0.8294257E-01
          2   -1    0    0  501    0  0.00000000000E+00  0.00000000000E+00  0.10813654523E+04  0.10813654523E+04  0.00000000000E+00 0.  1.
         -2   -1    0    0    0  501 -0.00000000000E+00 -0.00000000000E+00 -0.18505368604E+04  0.18505368604E+04  0.00000000000E+00 0. -1.
         23    2    1    2    0    0 -0.33096478213E+03  0.17381270261E+03  0.10274055138E+04  0.10968444991E+04  0.88075097042E+02 0.  0.
         11    1    3    3    0    0 -0.17436868716E+03  0.44775481269E+02  0.52510629314E+03  0.55510890992E+03  0.00000000000E+00 0.  1.
        -11    1    3    3    0    0 -0.15659609498E+03  0.12903722135E+03  0.50229922069E+03  0.54173558916E+03  0.00000000000E+00 0. -1.
         22    1    1    2    0    0  0.33096478213E+03 -0.17381270261E+03 -0.17965769220E+04  0.18350578136E+04  0.00000000000E+00 0. -1.
<mgrwt>
<rscale>  0 0.28292095E+04</rscale>
<asrwt>0</asrwt>
<pdfrwt beam="1">  1        2 0.16636392E+00 0.28292095E+04</pdfrwt>
<pdfrwt beam="2">  1       -2 0.28469798E+00 0.28292095E+04</pdfrwt>
<totfact> 0.76564913E-01</totfact>
</mgrwt>
</event>
<event>
 6    1  0.1719556E-004  0.3204179E+04  0.7818608E-02  0.8187714E-01
          1   -1    0    0  501    0  0.00000000000E+00  0.00000000000E+00  0.25950109238E+04  0.25950109238E+04  0.00000000000E+00 0. -1.
         -1   -1    0    0    0  501 -0.00000000000E+00 -0.00000000000E+00 -0.98908686052E+03  0.98908686052E+03  0.00000000000E+00 0.  1.
         23    2    1    2    0    0  0.15130706732E+04  0.69405892285E+02  0.13830445244E+04  0.20531257634E+04  0.91176771710E+02 0.  0.
         13    1    3    3    0    0  0.12783510780E+04  0.28526918357E+02  0.11843389011E+04  0.17428866562E+04  0.00000000000E+00 0. -1.
        -13    1    3    3    0    0  0.23471959522E+03  0.40878973928E+02  0.19870562338E+03  0.31023910723E+03  0.00000000000E+00 0.  1.
         22    1    1    2    0    0 -0.15130706732E+04 -0.69405892285E+02  0.22287953881E+03  0.15309720209E+04  0.00000000000E+00 0. -1.
<mgrwt>
<rscale>  0 0.32041793E+04</rscale>
<asrwt>0</asrwt>
<pdfrwt beam="1">  1        1 0.39923245E+00 0.32041793E+04</pdfrwt>
<pdfrwt beam="2">  1       -1 0.15216721E+00 0.32041793E+04</pdfrwt>
<totfact> 0.32634376E-01</totfact>
</mgrwt>
</event>
<event>
 6    1  0.1719556E-004  0.3251247E+04  0.7818608E-02  0.8175413E-01
          1   -1    0    0  501    0  0.00000000000E+00  0.00000000000E+00  0.26984441976E+04  0.26984441976E+04  0.00000000000E+00 0.  1.
         -1   -1    0    0    0  501 -0.00000000000E+00 -0.00000000000E+00 -0.97932408110E+03  0.97932408110E+03  0.00000000000E+00 0. -1.
         23    2    1    2    0    0  0.99906370944E+03  0.82038630031E+03 -0.25213377474E+03  0.13204384586E+04  0.93937773063E+02 0.  0.
         11    1    3    3    0    0  0.30476550930E+03  0.26158130999E+03 -0.35168459769E+02  0.40316698520E+03  0.00000000000E+00 0.  1.
        -11    1    3    3    0    0  0.69429820014E+03  0.55880499032E+03 -0.21696531497E+03  0.91727147335E+03  0.00000000000E+00 0. -1.
         22    1    1    2    0    0 -0.99906370944E+03 -0.82038630031E+03  0.19712538913E+04  0.23573298202E+04  0.00000000000E+00 0.  1.
<mgrwt>
<rscale>  0 0.32512468E+04</rscale>
<asrwt>0</asrwt>
<pdfrwt beam="1">  1        1 0.41514526E+00 0.32512468E+04</pdfrwt>
<pdfrwt beam="2">  1       -1 0.15066524E+00 0.32512468E+04</pdfrwt>
<totfact> 0.28240990E-01</totfact>
</mgrwt>
</event>
<event>
 6    1  0.1719556E-004  0.2932739E+04  0.7818608E-02  0.8263203E-01
         -2   -1    0    0    0  501 -0.00000000000E+00  0.00000000000E+00  0.61982054543E+03  0.61982054543E+03  0.00000000000E+00 0. -1.
          2   -1    0    0  501    0  0.00000000000E+00 -0.00000000000E+00 -0.34691312945E+04  0.34691312945E+04  0.00000000000E+00 0.  1.
         23    2    1    2    0    0 -0.19646106041E+03  0.11083339310E+04 -0.27332594408E+04  0.29573737574E+04  0.91385551452E+02 0.  0.
         11    1    3    3    0    0 -0.12100914450E+03  0.79406179249E+03 -0.20416241471E+04  0.21939476979E+04  0.00000000000E+00 0. -1.
        -11    1    3    3    0    0 -0.75451915917E+02  0.31427213848E+03 -0.69163529379E+03  0.76342605946E+03  0.00000000000E+00 0.  1.
         22    1    1    2    0    0  0.19646106041E+03 -0.11083339310E+04 -0.11605130822E+03  0.11315780826E+04  0.00000000000E+00 0. -1.
<mgrwt>
<rscale>  0 0.29327386E+04</rscale>
<asrwt>0</asrwt>
<pdfrwt beam="1">  1        2 0.53371250E+00 0.29327386E+04</pdfrwt>
<pdfrwt beam="2">  1       -2 0.95357008E-01 0.29327386E+04</pdfrwt>
<totfact> 0.67895772E-01</totfact>
</mgrwt>
</event>
<event>
 6    1  0.1719556E-004  0.1067845E+04  0.7818608E-02  0.9237111E-01
          2   -1    0    0  501    0  0.00000000000E+00  0.00000000000E+00  0.13433933634E+04  0.13433933634E+04  0.00000000000E+00 0.  1.
         -2   -1    0    0    0  501 -0.00000000000E+00 -0.00000000000E+00 -0.21220401527E+03  0.21220401527E+03  0.00000000000E+00 0. -1.
         23    2    1    2    0    0  0.48465116096E+03  0.15310533200E+03  0.78834942515E+03  0.94251728333E+03  0.92282299125E+02 0.  0.
         13    1    3    3    0    0  0.47530610873E+02  0.39753441354E+02  0.65165384210E+02  0.89922312964E+02  0.00000000000E+00 0.  1.
        -13    1    3    3    0    0  0.43712055009E+03  0.11335189065E+03  0.72318404094E+03  0.85259497037E+03  0.00000000000E+00 0. -1.
         22    1    1    2    0    0 -0.48465116096E+03 -0.15310533200E+03  0.34283992297E+03  0.61308009534E+03  0.00000000000E+00 0. -1.
<mgrwt>
<rscale>  0 0.10678454E+04</rscale>
<asrwt>0</asrwt>
<pdfrwt beam="1">  1        2 0.20667590E+00 0.10678454E+04</pdfrwt>
<pdfrwt beam="2">  1       -2 0.32646772E-01 0.10678454E+04</pdfrwt>
<totfact> 0.13556921E+02</totfact>
</mgrwt>
</event>
<event>
 6    1  0.1719556E-004  0.3266312E+04  0.7818608E-02  0.8171520E-01
         -2   -1    0    0    0  501 -0.00000000000E+00  0.00000000000E+00  0.11913045663E+04  0.11913045663E+04  0.00000000000E+00 0. -1.
          2   -1    0    0  501    0  0.00000000000E+00 -0.00000000000E+00 -0.22388892936E+04  0.22388892936E+04  0.00000000000E+00 0.  1.
         23    2    1    2    0    0 -0.27104878248E+03  0.15032112451E+04  0.79030182904E+02  0.15322021197E+04  0.91027886344E+02 0.  0.
         11    1    3    3    0    0 -0.13116018408E+03  0.88411228433E+03  0.81441026822E+02  0.89749103953E+03  0.00000000000E+00 0.  1.
        -11    1    3    3    0    0 -0.13988859840E+03  0.61909896075E+03 -0.24108439171E+01  0.63471108021E+03  0.00000000000E+00 0. -1.
         22    1    1    2    0    0  0.27104878248E+03 -0.15032112451E+04 -0.11266149102E+04  0.18979917402E+04  0.00000000000E+00 0.  1.
<mgrwt>
<rscale>  0 0.32663123E+04</rscale>
<asrwt>0</asrwt>
<pdfrwt beam="1">  1        2 0.34444451E+00 0.32663123E+04</pdfrwt>
<pdfrwt beam="2">  1       -2 0.18327763E+00 0.32663123E+04</pdfrwt>
<totfact> 0.70784231E-01</totfact>
</mgrwt>
</event>
<event>
 6    1  0.1719556E-004  0.9832276E+03  0.7818608E-02  0.9327134E-01
         -2   -1    0    0    0  501 -0.00000000000E+00  0.00000000000E+00  0.37805056687E+03  0.37805056687E+03  0.00000000000E+00 0. -1.
          2   -1    0    0  501    0  0.00000000000E+00 -0.00000000000E+00 -0.63929043024E+03  0.63929043024E+03  0.00000000000E+00 0.  1.
         23    2    1    2    0    0  0.10605777625E+03 -0.81370880294E+02  0.35357010795E+03  0.38816632114E+03  0.88271170645E+02 0.  0.
         11    1    3    3    0    0  0.63357672999E+02 -0.83508770439E+02  0.30948414185E+03  0.32675425556E+03  0.00000000000E+00 0.  1.
        -11    1    3    3    0    0  0.42700103249E+02  0.21378901444E+01  0.44085966095E+02  0.61412065576E+02  0.00000000000E+00 0. -1.
         22    1    1    2    0    0 -0.10605777625E+03  0.81370880294E+02 -0.61480997132E+03  0.62917467598E+03  0.00000000000E+00 0.  1.
<mgrwt>
<rscale>  0 0.98322756E+03</rscale>
<asrwt>0</asrwt>
<pdfrwt beam="1">  1        2 0.98352374E-01 0.98322756E+03</pdfrwt>
<pdfrwt beam="2">  1       -2 0.58161626E-01 0.98322756E+03</pdfrwt>
<totfact> 0.12690788E+02</totfact>
</mgrwt>
</event>
<event>
 6    1  0.1719556E-004  0.2368144E+04  0.7818608E-02  0.8451527E-01
         -2   -1    0    0    0  501 -0.00000000000E+00  0.00000000000E+00  0.17545644903E+04  0.17545644903E+04  0.00000000000E+00 0. -1.
          2   -1    0    0  501    0  0.00000000000E+00 -0.00000000000E+00 -0.79907380082E+03  0.79907380082E+03  0.00000000000E+00 0.  1.
         23    2    1    2    0    0 -0.23915095392E+03 -0.51914138065E+02  0.17257542309E+04  0.17454339978E+04  0.91781907927E+02 0.  0.
         11    1    3    3    0    0 -0.63448353796E+02  0.43359970085E+01  0.72757491841E+03  0.73034906474E+03  0.00000000000E+00 0.  1.
        -11    1    3    3    0    0 -0.17570260012E+03 -0.56250135074E+02  0.99817931250E+03  0.10150849330E+04  0.00000000000E+00 0. -1.
         22    1    1    2    0    0  0.23915095392E+03  0.51914138065E+02 -0.77026354144E+03  0.80820429333E+03  0.00000000000E+00 0.  1.
<mgrwt>
<rscale>  0 0.23681440E+04</rscale>
<asrwt>0</asrwt>
<pdfrwt beam="1">  1        2 0.12293443E+00 0.23681440E+04</pdfrwt>
<pdfrwt beam="2">  1       -2 0.26993300E+00 0.23681440E+04</pdfrwt>
<totfact> 0.15089108E+00</totfact>
</mgrwt>
</event>
<event>
 6    1  0.1719556E-004  0.2995558E+04  0.7818608E-02  0.8245000E-01
         -4   -1    0    0    0  501 -0.00000000000E+00  0.00000000000E+00  0.14019156856E+04  0.14019156856E+04  0.00000000000E+00 0. -1.
          4   -1    0    0  501    0  0.00000000000E+00 -0.00000000000E+00 -0.16001973164E+04  0.16001973164E+04  0.00000000000E+00 0.  1.
         23    2    1    2    0    0 -0.39011610698E+03 -0.12302529207E+04 -0.85797207663E+03  0.15526633442E+04  0.94522750221E+02 0.  0.
         13    1    3    3    0    0 -0.10113528362E+03 -0.20865281841E+03 -0.17097435843E+03  0.28809126238E+03  0.00000000000E+00 0. -1.
        -13    1    3    3    0    0 -0.28898082336E+03 -0.10216001023E+04 -0.68699771821E+03  0.12645720818E+04  0.00000000000E+00 0.  1.
         22    1    1    2    0    0  0.39011610698E+03  0.12302529207E+04  0.65969044585E+03  0.14494496577E+04  0.00000000000E+00 0.  1.
<mgrwt>
<rscale>  0 0.29955579E+04</rscale>
<asrwt>0</asrwt>
<pdfrwt beam="1">  1        4 0.24618420E+00 0.29955579E+04</pdfrwt>
<pdfrwt beam="2">  1       -4 0.21567934E+00 0.29955579E+04</pdfrwt>
<totfact> 0.11786958E-02</totfact>
</mgrwt>
</event>
<event>
 6    1  0.1719556E-004  0.8280216E+03  0.7818608E-02  0.9520320E-01
         -2   -1    0    0    0  501 -0.00000000000E+00  0.00000000000E+00  0.28272138137E+03  0.28272138137E+03  0.00000000000E+00 0. -1.
          2   -1    0    0  501    0  0.00000000000E+00 -0.00000000000E+00 -0.60626804768E+03  0.60626804768E+03  0.00000000000E+00 0.  1.
         23    2    1    2    0    0 -0.37117922501E+02  0.38952880199E+03 -0.29156782696E+03  0.49639157638E+03  0.91007536146E+02 0.  0.
         13    1    3    3    0    0 -0.55883629195E+02  0.17115108680E+03 -0.10409414280E+03  0.20796938498E+03  0.00000000000E+00 0. -1.
        -13    1    3    3    0    0  0.18765706695E+02  0.21837771519E+03 -0.18747368416E+03  0.28842219140E+03  0.00000000000E+00 0.  1.
         22    1    1    2    0    0  0.37117922501E+02 -0.38952880199E+03 -0.31978839349E+02  0.39259785266E+03  0.00000000000E+00 0. -1.
<mgrwt>
<rscale>  0 0.82802159E+03</rscale>
<asrwt>0</asrwt>
<pdfrwt beam="1">  1        2 0.93272006E-01 0.82802159E+03</pdfrwt>
<pdfrwt beam="2">  1       -2 0.43495598E-01 0.82802159E+03</pdfrwt>
<totfact> 0.24681955E+02</totfact>
</mgrwt>
</event>
<event>
 6    1  0.1719556E-004  0.2031043E+04  0.7818608E-02  0.8592243E-01
          2   -1    0    0  501    0  0.00000000000E+00  0.00000000000E+00  0.24587861664E+04  0.24587861664E+04  0.00000000000E+00 0.  1.
         -2   -1    0    0    0  501 -0.00000000000E+00 -0.00000000000E+00 -0.41942791456E+03  0.41942791456E+03  0.00000000000E+00 0. -1.
         23    2    1    2    0    0 -0.18539544477E+01 -0.10134616257E+04  0.10258391168E+04  0.14449210401E+04  0.91340105332E+02 0.  0.
         13    1    3    3    0    0 -0.19958285027E+02 -0.62469895470E+03  0.68854541333E+03  0.92991499792E+03  0.00000000000E+00 0. -1.
        -13    1    3    3    0    0  0.18104330579E+02 -0.38876267096E+03  0.33729370348E+03  0.51500604222E+03  0.00000000000E+00 0.  1.
         22    1    1    2    0    0  0.18539544477E+01  0.10134616257E+04  0.10135191351E+04  0.14332930409E+04  0.00000000000E+00 0. -1.
<mgrwt>
<rscale>  0 0.20310426E+04</rscale>
<asrwt>0</asrwt>
<pdfrwt beam="1">  1        2 0.37827479E+00 0.20310426E+04</pdfrwt>
<pdfrwt beam="2">  1       -2 0.64527373E-01 0.20310426E+04</pdfrwt>
<totfact> 0.75611405E+00</totfact>
</mgrwt>
</event>
<event>
 6    1  0.1719556E-004  0.1734428E+04  0.7818608E-02  0.8741969E-01
         -2   -1    0    0    0  501 -0.00000000000E+00  0.00000000000E+00  0.85383278051E+03  0.85383278051E+03  0.00000000000E+00 0. -1.
          2   -1    0    0  501    0  0.00000000000E+00 -0.00000000000E+00 -0.88080490082E+03  0.88080490082E+03  0.00000000000E+00 0.  1.
         23    2    1    2    0    0  0.36448518048E+03 -0.35273426168E+03 -0.71416406819E+03  0.88052780585E+03  0.89599076088E+02 0.  0.
         13    1    3    3    0    0  0.29524405110E+03 -0.28130615850E+03 -0.50649421436E+03  0.65026040453E+03  0.00000000000E+00 0. -1.
        -13    1    3    3    0    0  0.69241129373E+02 -0.71428103176E+02 -0.20766985383E+03  0.23026740132E+03  0.00000000000E+00 0.  1.
         22    1    1    2    0    0 -0.36448518048E+03  0.35273426168E+03  0.68719194788E+03  0.85410987548E+03  0.00000000000E+00 0. -1.
<mgrwt>
<rscale>  0 0.17344280E+04</rscale>
<asrwt>0</asrwt>
<pdfrwt beam="1">  1        2 0.13550845E+00 0.17344280E+04</pdfrwt>
<pdfrwt beam="2">  1       -2 0.13135889E+00 0.17344280E+04</pdfrwt>
<totfact> 0.12128532E+01</totfact>
</mgrwt>
</event>
<event>
 6    1  0.1719556E-004  0.2719915E+04  0.7818608E-02  0.8328572E-01
         -2   -1    0    0    0  501 -0.00000000000E+00  0.00000000000E+00  0.10226589386E+04  0.10226589386E+04  0.00000000000E+00 0. -1.
          2   -1    0    0  501    0  0.00000000000E+00 -0.00000000000E+00 -0.18085054570E+04  0.18085054570E+04  0.00000000000E+00 0.  1.
         23    2    1    2    0    0 -0.10768592962E+04 -0.35663488315E+02 -0.12545327795E+04  0.16561900812E+04  0.90638081713E+02 0.  0.
         11    1    3    3    0    0 -0.59688810578E+03 -0.41018837091E+02 -0.63485671192E+03  0.87235371294E+03  0.00000000000E+00 0.  1.
        -11    1    3    3    0    0 -0.47997119043E+03  0.53553487760E+01 -0.61967606760E+03  0.78383636823E+03  0.00000000000E+00 0. -1.
         22    1    1    2    0    0  0.10768592962E+04  0.35663488315E+02  0.46868626104E+03  0.11749743144E+04  0.00000000000E+00 0. -1.
<mgrwt>
<rscale>  0 0.27199149E+04</rscale>
<asrwt>0</asrwt>
<pdfrwt beam="1">  1        2 0.27823161E+00 0.27199149E+04</pdfrwt>
<pdfrwt beam="2">  1       -2 0.15733215E+00 0.27199149E+04</pdfrwt>
<totfact> 0.19714684E+00</totfact>
</mgrwt>
</event>
<event>
 6    1  0.1719556E-004  0.1539886E+04  0.7818608E-02  0.8858354E-01
         -2   -1    0    0    0  501 -0.00000000000E+00  0.00000000000E+00  0.35334539446E+03  0.35334539446E+03  0.00000000000E+00 0. -1.
          2   -1    0    0  501    0  0.00000000000E+00 -0.00000000000E+00 -0.16777133462E+04  0.16777133462E+04  0.00000000000E+00 0.  1.
         23    2    1    2    0    0  0.75115924211E+03  0.10914098677E+03 -0.50219285838E+03  0.91207534216E+03  0.59428955463E+02 0.  0.
         11    1    3    3    0    0  0.57114632712E+03  0.10325901609E+03 -0.40134502808E+03  0.70565457764E+03  0.00000000000E+00 0.  1.
        -11    1    3    3    0    0  0.18001291500E+03  0.58819706817E+01 -0.10084783031E+03  0.20642076452E+03  0.00000000000E+00 0. -1.
         22    1    1    2    0    0 -0.75115924211E+03 -0.10914098677E+03 -0.82217509339E+03  0.11189833985E+04  0.00000000000E+00 0.  1.
<mgrwt>
<rscale>  0 0.15398861E+04</rscale>
<asrwt>0</asrwt>
<pdfrwt beam="1">  1        2 0.25810974E+00 0.15398861E+04</pdfrwt>
<pdfrwt beam="2">  1       -2 0.54360830E-01 0.15398861E+04</pdfrwt>
<totfact> 0.30961642E+01</totfact>
</mgrwt>
</event>
<event>
 6    1  0.1719556E-004  0.6409552E+03  0.7818608E-02  0.9823901E-01
         -2   -1    0    0    0  501 -0.00000000000E+00  0.00000000000E+00  0.10331463835E+03  0.10331463835E+03  0.00000000000E+00 0. -1.
          2   -1    0    0  501    0  0.00000000000E+00 -0.00000000000E+00 -0.99410787605E+03  0.99410787605E+03  0.00000000000E+00 0.  1.
         23    2    1    2    0    0  0.23989261400E+03  0.14171220079E+03 -0.20610330027E+03  0.35821271703E+03  0.90592307395E+02 0.  0.
         11    1    3    3    0    0  0.23287194143E+03  0.13458624754E+03 -0.21537675157E+03  0.34457211763E+03  0.00000000000E+00 0. -1.
        -11    1    3    3    0    0  0.70206725721E+01  0.71259532483E+01  0.92734513012E+01  0.13640599404E+02  0.00000000000E+00 0.  1.
         22    1    1    2    0    0 -0.23989261400E+03 -0.14171220079E+03 -0.68468993743E+03  0.73920979737E+03  0.00000000000E+00 0.  1.
<mgrwt>
<rscale>  0 0.64095521E+03</rscale>
<asrwt>0</asrwt>
<pdfrwt beam="1">  1        2 0.15293967E+00 0.64095521E+03</pdfrwt>
<pdfrwt beam="2">  1       -2 0.15894560E-01 0.64095521E+03</pdfrwt>
<totfact> 0.81300899E+02</totfact>
</mgrwt>
</event>
<event>
 6    1  0.1719556E-004  0.2070536E+04  0.7818608E-02  0.8574335E-01
         -2   -1    0    0    0  501 -0.00000000000E+00  0.00000000000E+00  0.91559405352E+03  0.91559405352E+03  0.00000000000E+00 0. -1.
          2   -1    0    0  501    0  0.00000000000E+00 -0.00000000000E+00 -0.11705835702E+04  0.11705835702E+04  0.00000000000E+00 0.  1.
         23    2    1    2    0    0  0.50413907876E+03  0.21151605840E+03 -0.10112149208E+04  0.11530259129E+04  0.89542650187E+02 0.  0.
         11    1    3    3    0    0  0.27959887525E+03  0.99346103057E+02 -0.46063912165E+03  0.54793574406E+03  0.00000000000E+00 0. -1.
        -11    1    3    3    0    0  0.22454020351E+03  0.11216995534E+03 -0.55057579911E+03  0.60509016885E+03  0.00000000000E+00 0.  1.
         22    1    1    2    0    0 -0.50413907876E+03 -0.21151605840E+03  0.75622540405E+03  0.93315171083E+03  0.00000000000E+00 0. -1.
<mgrwt>
<rscale>  0 0.20705355E+04</rscale>
<asrwt>0</asrwt>
<pdfrwt beam="1">  1        2 0.18008978E+00 0.20705355E+04</pdfrwt>
<pdfrwt beam="2">  1       -2 0.14086062E+00 0.20705355E+04</pdfrwt>
<totfact> 0.64422903E+00</totfact>
</mgrwt>
</event>
<event>
 6    1  0.1719556E-004  0.2079016E+04  0.7818608E-02  0.8570544E-01
          1   -1    0    0  501    0  0.00000000000E+00  0.00000000000E+00  0.53614715081E+03  0.53614715081E+03  0.00000000000E+00 0.  1.
         -1   -1    0    0    0  501 -0.00000000000E+00 -0.00000000000E+00 -0.20154476859E+04  0.20154476859E+04  0.00000000000E+00 0. -1.
         23    2    1    2    0    0  0.79490837408E+02  0.41954643977E+02 -0.20096348101E+04  0.20136976081E+04  0.90923054676E+02 0.  0.
         13    1    3    3    0    0  0.63457055554E-01 -0.82434170056E+01 -0.91511483800E+03  0.91515196808E+03  0.00000000000E+00 0. -1.
        -13    1    3    3    0    0  0.79427380352E+02  0.50198060983E+02 -0.10945199721E+04  0.10985456401E+04  0.00000000000E+00 0.  1.
         22    1    1    2    0    0 -0.79490837408E+02 -0.41954643977E+02  0.53033427493E+03  0.53789722861E+03  0.00000000000E+00 0.  1.
<mgrwt>
<rscale>  0 0.20790157E+04</rscale>
<asrwt>0</asrwt>
<pdfrwt beam="1">  1        1 0.82484176E-01 0.20790157E+04</pdfrwt>
<pdfrwt beam="2">  1       -1 0.31006888E+00 0.20790157E+04</pdfrwt>
<totfact> 0.10532205E+00</totfact>
</mgrwt>
</event>
<event>
 6    1  0.1719556E-004  0.2837088E+04  0.7818608E-02  0.8291846E-01
         -2   -1    0    0    0  501 -0.00000000000E+00  0.00000000000E+00  0.10200109552E+04  0.10200109552E+04  0.00000000000E+00 0. -1.
          2   -1    0    0  501    0  0.00000000000E+00 -0.00000000000E+00 -0.19727892900E+04  0.19727892900E+04  0.00000000000E+00 0.  1.
         23    2    1    2    0    0  0.10352196154E+04 -0.53540887482E+03 -0.13272526937E+04  0.17686379354E+04  0.90211518497E+02 0.  0.
         11    1    3    3    0    0  0.90125535971E+03 -0.49502792947E+03 -0.11464725318E+04  0.15400367335E+04  0.00000000000E+00 0. -1.
        -11    1    3    3    0    0  0.13396425574E+03 -0.40380945352E+02 -0.18078016185E+03  0.22860120184E+03  0.00000000000E+00 0.  1.
         22    1    1    2    0    0 -0.10352196154E+04  0.53540887482E+03  0.37447435888E+03  0.12241623099E+04  0.00000000000E+00 0. -1.
<mgrwt>
<rscale>  0 0.28370877E+04</rscale>
<asrwt>0</asrwt>
<pdfrwt beam="1">  1        2 0.30350604E+00 0.28370877E+04</pdfrwt>
<pdfrwt beam="2">  1       -2 0.15692476E+00 0.28370877E+04</pdfrwt>
<totfact> 0.15937542E+00</totfact>
</mgrwt>
</event>
<event>
 6    1  0.1753235E-004  0.2898874E+04  0.7818608E-02  0.8273213E-01
          1   -1    0    0  501    0  0.00000000000E+00  0.00000000000E+00  0.13517826601E+04  0.13517826601E+04  0.00000000000E+00 0.  1.
         -1   -1    0    0    0  501 -0.00000000000E+00 -0.00000000000E+00 -0.15541457404E+04  0.15541457404E+04  0.00000000000E+00 0. -1.
         23    2    1    2    0    0 -0.11170511510E+04 -0.94914101769E+02 -0.10204145034E+04  0.15181171411E+04  0.81375270687E+02 0.  0.
         13    1    3    3    0    0 -0.38177489026E+03 -0.62116112340E+02 -0.38551936360E+03  0.54610956589E+03  0.00000000000E+00 0.  1.
        -13    1    3    3    0    0 -0.73527626078E+03 -0.32797989429E+02 -0.63489513981E+03  0.97200757525E+03  0.00000000000E+00 0. -1.
         22    1    1    2    0    0  0.11170511510E+04  0.94914101769E+02  0.81805142309E+03  0.13878112594E+04  0.00000000000E+00 0.  1.
<mgrwt>
<rscale>  0 0.28988738E+04</rscale>
<asrwt>0</asrwt>
<pdfrwt beam="1">  1        1 0.20796656E+00 0.28988738E+04</pdfrwt>
<pdfrwt beam="2">  1       -1 0.23909934E+00 0.28988738E+04</pdfrwt>
<totfact> 0.58624090E-01</totfact>
</mgrwt>
</event>
<event>
 6    1  0.1719556E-004  0.2603472E+04  0.7818608E-02  0.8367023E-01
          2   -1    0    0  501    0  0.00000000000E+00  0.00000000000E+00  0.12816324777E+04  0.12816324777E+04  0.00000000000E+00 0.  1.
         -2   -1    0    0    0  501 -0.00000000000E+00 -0.00000000000E+00 -0.13221545180E+04  0.13221545180E+04  0.00000000000E+00 0. -1.
         23    2    1    2    0    0  0.93628560700E+03  0.76357198382E+03  0.46000264870E+03  0.12960416548E+04  0.91916384703E+02 0.  0.
         13    1    3    3    0    0  0.46027706992E+03  0.31782750343E+03  0.20111951475E+03  0.59440589015E+03  0.00000000000E+00 0. -1.
        -13    1    3    3    0    0  0.47600853708E+03  0.44574448040E+03  0.25888313395E+03  0.70163576464E+03  0.00000000000E+00 0.  1.
         22    1    1    2    0    0 -0.93628560700E+03 -0.76357198382E+03 -0.50052468901E+03  0.13077453409E+04  0.00000000000E+00 0. -1.
<mgrwt>
<rscale>  0 0.26034717E+04</rscale>
<asrwt>0</asrwt>
<pdfrwt beam="1">  1        2 0.19717423E+00 0.26034717E+04</pdfrwt>
<pdfrwt beam="2">  1       -2 0.20340839E+00 0.26034717E+04</pdfrwt>
<totfact> 0.18932497E+00</totfact>
</mgrwt>
</event>
<event>
 6    1  0.1719556E-004  0.2786637E+04  0.7818608E-02  0.8307429E-01
         -2   -1    0    0    0  501 -0.00000000000E+00  0.00000000000E+00  0.13719900134E+04  0.13719900134E+04  0.00000000000E+00 0. -1.
          2   -1    0    0  501    0  0.00000000000E+00 -0.00000000000E+00 -0.14149789335E+04  0.14149789335E+04  0.00000000000E+00 0.  1.
         23    2    1    2    0    0  0.10113784776E+04  0.20208380125E+03 -0.95619532807E+03  0.14094094269E+04  0.91657730939E+02 0.  0.
         11    1    3    3    0    0  0.75041227886E+03  0.16154654817E+03 -0.76200231941E+03  0.10816022422E+04  0.00000000000E+00 0. -1.
        -11    1    3    3    0    0  0.26096619872E+03  0.40537253087E+02 -0.19419300866E+03  0.32780718475E+03  0.00000000000E+00 0.  1.
         22    1    1    2    0    0 -0.10113784776E+04 -0.20208380125E+03  0.91320640789E+03  0.13775595200E+04  0.00000000000E+00 0. -1.
<mgrwt>
<rscale>  0 0.27866374E+04</rscale>
<asrwt>0</asrwt>
<pdfrwt beam="1">  1        2 0.21768906E+00 0.27866374E+04</pdfrwt>
<pdfrwt beam="2">  1       -2 0.21107539E+00 0.27866374E+04</pdfrwt>
<totfact> 0.13929381E+00</totfact>
</mgrwt>
</event>
<event>
 6    1  0.1719556E-004  0.2381929E+04  0.7818608E-02  0.8446300E-01
          2   -1    0    0  501    0  0.00000000000E+00  0.00000000000E+00  0.14942316811E+04  0.14942316811E+04  0.00000000000E+00 0.  1.
         -2   -1    0    0    0  501 -0.00000000000E+00 -0.00000000000E+00 -0.94924783804E+03  0.94924783804E+03  0.00000000000E+00 0. -1.
         23    2    1    2    0    0  0.58860749017E+03 -0.76700859236E+03  0.98325725370E+03  0.13819501786E+04  0.90722163420E+02 0.  0.
         11    1    3    3    0    0  0.44111699958E+03 -0.53029156395E+03  0.74306362234E+03  0.10138722291E+04  0.00000000000E+00 0.  1.
        -11    1    3    3    0    0  0.14749049060E+03 -0.23671702841E+03  0.24019363137E+03  0.36807794950E+03  0.00000000000E+00 0. -1.
         22    1    1    2    0    0 -0.58860749017E+03  0.76700859236E+03 -0.43827341067E+03  0.10615293405E+04  0.00000000000E+00 0. -1.
<mgrwt>
<rscale>  0 0.23819288E+04</rscale>
<asrwt>0</asrwt>
<pdfrwt beam="1">  1        2 0.22988180E+00 0.23819288E+04</pdfrwt>
<pdfrwt beam="2">  1       -2 0.14603813E+00 0.23819288E+04</pdfrwt>
<totfact> 0.37045846E+00</totfact>
</mgrwt>
</event>
<event>
 6    1  0.1719556E-004  0.3788918E+04  0.7818608E-02  0.8048537E-01
          2   -1    0    0  501    0  0.00000000000E+00  0.00000000000E+00  0.15912957779E+04  0.15912957779E+04  0.00000000000E+00 0.  1.
         -2   -1    0    0    0  501 -0.00000000000E+00 -0.00000000000E+00 -0.22553793634E+04  0.22553793634E+04  0.00000000000E+00 0. -1.
         23    2    1    2    0    0 -0.11757701754E+04  0.18648892078E+03  0.11626882596E+04  0.16662373419E+04  0.85377207450E+02 0.  0.
         11    1    3    3    0    0 -0.86072259453E+03  0.13134303496E+03  0.79659306777E+03  0.11801080006E+04  0.00000000000E+00 0. -1.
        -11    1    3    3    0    0 -0.31504758091E+03  0.55145885825E+02  0.36609519187E+03  0.48612934129E+03  0.00000000000E+00 0.  1.
         22    1    1    2    0    0  0.11757701754E+04 -0.18648892078E+03 -0.18267718451E+04  0.21804377994E+04  0.00000000000E+00 0. -1.
<mgrwt>
<rscale>  0 0.37889184E+04</rscale>
<asrwt>0</asrwt>
<pdfrwt beam="1">  1        2 0.24481474E+00 0.37889184E+04</pdfrwt>
<pdfrwt beam="2">  1       -2 0.34698144E+00 0.37889184E+04</pdfrwt>
<totfact> 0.14707095E-01</totfact>
</mgrwt>
</event>
<event>
 6    1  0.1719556E-004  0.3038029E+04  0.7818608E-02  0.8232954E-01
          2   -1    0    0  501    0  0.00000000000E+00  0.00000000000E+00  0.19699733376E+04  0.19699733376E+04  0.00000000000E+00 0.  1.
         -2   -1    0    0    0  501 -0.00000000000E+00 -0.00000000000E+00 -0.11712873787E+04  0.11712873787E+04  0.00000000000E+00 0. -1.
         23    2    1    2    0    0  0.84961821367E+03 -0.59258422533E+03 -0.74720121284E+03  0.12804075999E+04  0.90148744777E+02 0.  0.
         13    1    3    3    0    0  0.64578161261E+03 -0.42951348965E+03 -0.60127106302E+03  0.98134734942E+03  0.00000000000E+00 0. -1.
        -13    1    3    3    0    0  0.20383660106E+03 -0.16307073568E+03 -0.14593014982E+03  0.29906025044E+03  0.00000000000E+00 0.  1.
         22    1    1    2    0    0 -0.84961821367E+03  0.59258422533E+03  0.15458871718E+04  0.18608531165E+04  0.00000000000E+00 0.  1.
<mgrwt>
<rscale>  0 0.30380289E+04</rscale>
<asrwt>0</asrwt>
<pdfrwt beam="1">  1        2 0.30307282E+00 0.30380289E+04</pdfrwt>
<pdfrwt beam="2">  1       -2 0.18019806E+00 0.30380289E+04</pdfrwt>
<totfact> 0.10710805E+00</totfact>
</mgrwt>
</event>
<event>
 6    1  0.1719556E-004  0.4099915E+04  0.7818608E-02  0.7984688E-01
         -2   -1    0    0    0  501 -0.00000000000E+00  0.00000000000E+00  0.13153244395E+04  0.13153244395E+04  0.00000000000E+00 0. -1.
          2   -1    0    0  501    0  0.00000000000E+00 -0.00000000000E+00 -0.31948963124E+04  0.31948963124E+04  0.00000000000E+00 0.  1.
         23    2    1    2    0    0  0.44741515515E+03  0.78230678019E+03 -0.29645074930E+04  0.30998060898E+04  0.91153161003E+02 0.  0.
         13    1    3    3    0    0  0.30795112784E+03  0.56329023765E+03 -0.19700509972E+04  0.20720112742E+04  0.00000000000E+00 0. -1.
        -13    1    3    3    0    0  0.13946402731E+03  0.21901654254E+03 -0.99445649581E+03  0.10277948155E+04  0.00000000000E+00 0.  1.
         22    1    1    2    0    0 -0.44741515515E+03 -0.78230678019E+03  0.10849356202E+04  0.14104146622E+04  0.00000000000E+00 0. -1.
<mgrwt>
<rscale>  0 0.40999147E+04</rscale>
<asrwt>0</asrwt>
<pdfrwt beam="1">  1        2 0.49152251E+00 0.40999147E+04</pdfrwt>
<pdfrwt beam="2">  1       -2 0.20235761E+00 0.40999147E+04</pdfrwt>
<totfact> 0.13112174E-01</totfact>
</mgrwt>
</event>
<event>
 6    1  0.1719556E-004  0.5855887E+03  0.7818608E-02  0.9935764E-01
          2   -1    0    0  501    0  0.00000000000E+00  0.00000000000E+00  0.15880683160E+04  0.15880683160E+04  0.00000000000E+00 0.  1.
         -2   -1    0    0    0  501 -0.00000000000E+00 -0.00000000000E+00 -0.53982889848E+02  0.53982889848E+02  0.00000000000E+00 0. -1.
         23    2    1    2    0    0  0.47008695597E+02  0.13620361893E+03  0.14774838856E+04  0.14872449474E+04  0.90430403275E+02 0.  0.
         13    1    3    3    0    0  0.33461594691E+02  0.21851640435E+01  0.39289659598E+03  0.39432497815E+03  0.00000000000E+00 0.  1.
        -13    1    3    3    0    0  0.13547100906E+02  0.13401845489E+03  0.10845872897E+04  0.10929199692E+04  0.00000000000E+00 0. -1.
         22    1    1    2    0    0 -0.47008695597E+02 -0.13620361893E+03  0.56601540467E+02  0.15480625845E+03  0.00000000000E+00 0. -1.
<mgrwt>
<rscale>  0 0.58558865E+03</rscale>
<asrwt>0</asrwt>
<pdfrwt beam="1">  1        2 0.24431817E+00 0.58558865E+03</pdfrwt>
<pdfrwt beam="2">  1       -2 0.83050612E-02 0.58558865E+03</pdfrwt>
<totfact> 0.10719101E+03</totfact>
</mgrwt>
</event>
<event>
 6    1  0.1719556E-004  0.2308709E+04  0.7818608E-02  0.8474495E-01
          2   -1    0    0  501    0  0.00000000000E+00  0.00000000000E+00  0.98559277234E+03  0.98559277234E+03  0.00000000000E+00 0.  1.
         -2   -1    0    0    0  501 -0.00000000000E+00 -0.00000000000E+00 -0.13520128315E+04  0.13520128315E+04  0.00000000000E+00 0. -1.
         23    2    1    2    0    0  0.94416277750E+03  0.32693086704E+03 -0.76516613994E+03  0.12618149275E+04  0.91490695739E+02 0.  0.
         11    1    3    3    0    0  0.41748583100E+03  0.12310556791E+03 -0.38440724616E+03  0.58070502912E+03  0.00000000000E+00 0. -1.
        -11    1    3    3    0    0  0.52667694650E+03  0.20382529913E+03 -0.38075889378E+03  0.68110989843E+03  0.00000000000E+00 0.  1.
         22    1    1    2    0    0 -0.94416277750E+03 -0.32693086704E+03  0.39874608079E+03  0.10757906763E+04  0.00000000000E+00 0.  1.
<mgrwt>
<rscale>  0 0.23087088E+04</rscale>
<asrwt>0</asrwt>
<pdfrwt beam="1">  1        2 0.15162966E+00 0.23087088E+04</pdfrwt>
<pdfrwt beam="2">  1       -2 0.20800197E+00 0.23087088E+04</pdfrwt>
<totfact> 0.27494015E+00</totfact>
</mgrwt>
</event>
<event>
 6    1  0.1719556E-004  0.3994808E+04  0.7818608E-02  0.8005595E-01
          4   -1    0    0  501    0  0.00000000000E+00  0.00000000000E+00  0.18594222285E+04  0.18594222285E+04  0.00000000000E+00 0.  1.
         -4   -1    0    0    0  501 -0.00000000000E+00 -0.00000000000E+00 -0.21456250606E+04  0.21456250606E+04  0.00000000000E+00 0. -1.
         23    2    1    2    0    0  0.79606361936E+03 -0.15058898629E+04 -0.11869366317E+04  0.20781993597E+04  0.93125965390E+02 0.  0.
         13    1    3    3    0    0  0.13086939011E+03 -0.24973028427E+03 -0.15544973677E+03  0.32195750157E+03  0.00000000000E+00 0. -1.
        -13    1    3    3    0    0  0.66519422924E+03 -0.12561595787E+04 -0.10314868950E+04  0.17562418581E+04  0.00000000000E+00 0.  1.
         22    1    1    2    0    0 -0.79606361936E+03  0.15058898629E+04  0.90073379971E+03  0.19268479295E+04  0.00000000000E+00 0.  1.
<mgrwt>
<rscale>  0 0.39948081E+04</rscale>
<asrwt>0</asrwt>
<pdfrwt beam="1">  1        4 0.28606496E+00 0.39948081E+04</pdfrwt>
<pdfrwt beam="2">  1       -4 0.33009616E+00 0.39948081E+04</pdfrwt>
<totfact> 0.11617658E-03</totfact>
</mgrwt>
</event>
<event>
 6    1  0.1719556E-004  0.8646610E+04  0.7818608E-02  0.7427979E-01
         -2   -1    0    0    0  501 -0.00000000000E+00  0.00000000000E+00  0.36854414480E+04  0.36854414480E+04  0.00000000000E+00 0. -1.
          2   -1    0    0  501    0  0.00000000000E+00 -0.00000000000E+00 -0.50715676816E+04  0.50715676816E+04  0.00000000000E+00 0.  1.
         23    2    1    2    0    0 -0.15392820724E+04 -0.14117175286E+04  0.31399562784E+04  0.37722565194E+04  0.90874304918E+02 0.  0.
         13    1    3    3    0    0 -0.51538937801E+03 -0.51244391722E+03  0.11501158207E+04  0.13605114407E+04  0.00000000000E+00 0. -1.
        -13    1    3    3    0    0 -0.10238926944E+04 -0.89927361137E+03  0.19898404577E+04  0.24117450787E+04  0.00000000000E+00 0.  1.
         22    1    1    2    0    0  0.15392820724E+04  0.14117175286E+04 -0.45260825120E+04  0.49847526101E+04  0.00000000000E+00 0.  1.
<mgrwt>
<rscale>  0 0.86466099E+04</rscale>
<asrwt>0</asrwt>
<pdfrwt beam="1">  1        2 0.78024118E+00 0.86466099E+04</pdfrwt>
<pdfrwt beam="2">  1       -2 0.56699099E+00 0.86466099E+04</pdfrwt>
<totfact> 0.10843963E-05</totfact>
</mgrwt>
</event>
<event>
 6    1  0.1719556E-004  0.2694450E+04  0.7818608E-02  0.8336808E-01
          1   -1    0    0  501    0  0.00000000000E+00  0.00000000000E+00  0.26128058704E+04  0.26128058704E+04  0.00000000000E+00 0.  1.
         -1   -1    0    0    0  501 -0.00000000000E+00 -0.00000000000E+00 -0.69466144737E+03  0.69466144737E+03  0.00000000000E+00 0. -1.
         23    2    1    2    0    0  0.13222070880E+04  0.12500002267E+03  0.69268941735E+03  0.15003711498E+04  0.86245979906E+02 0.  0.
         13    1    3    3    0    0  0.11870345902E+04  0.10861505347E+03  0.59122435453E+03  0.13305617556E+04  0.00000000000E+00 0. -1.
        -13    1    3    3    0    0  0.13517249781E+03  0.16384969200E+02  0.10146506282E+03  0.16980939418E+03  0.00000000000E+00 0.  1.
         22    1    1    2    0    0 -0.13222070880E+04 -0.12500002267E+03  0.12254550056E+04  0.18070961679E+04  0.00000000000E+00 0.  1.
<mgrwt>
<rscale>  0 0.26944502E+04</rscale>
<asrwt>0</asrwt>
<pdfrwt beam="1">  1        1 0.40197013E+00 0.26944502E+04</pdfrwt>
<pdfrwt beam="2">  1       -1 0.10687099E+00 0.26944502E+04</pdfrwt>
<totfact> 0.80618781E-01</totfact>
</mgrwt>
</event>
<event>
 6    1  0.1719556E-004  0.1933199E+04  0.7818608E-02  0.8638505E-01
         -1   -1    0    0    0  501 -0.00000000000E+00  0.00000000000E+00  0.58566546670E+03  0.58566546670E+03  0.00000000000E+00 0. -1.
          1   -1    0    0  501    0  0.00000000000E+00 -0.00000000000E+00 -0.15953038666E+04  0.15953038666E+04  0.00000000000E+00 0.  1.
         23    2    1    2    0    0 -0.57258223051E+03 -0.65764919869E+03 -0.40347359657E+02  0.87717563797E+03  0.86349934404E+02 0.  0.
         13    1    3    3    0    0 -0.86499850734E+02 -0.14653542868E+03  0.64036113266E+01  0.17028171444E+03  0.00000000000E+00 0. -1.
        -13    1    3    3    0    0 -0.48608237978E+03 -0.51111377001E+03 -0.46750970983E+02  0.70689392353E+03  0.00000000000E+00 0.  1.
         22    1    1    2    0    0  0.57258223051E+03  0.65764919869E+03 -0.96929104021E+03  0.13037936953E+04  0.00000000000E+00 0.  1.
<mgrwt>
<rscale>  0 0.19331988E+04</rscale>
<asrwt>0</asrwt>
<pdfrwt beam="1">  1        1 0.24543136E+00 0.19331988E+04</pdfrwt>
<pdfrwt beam="2">  1       -1 0.90102380E-01 0.19331988E+04</pdfrwt>
<totfact> 0.63192203E+00</totfact>
</mgrwt>
</event>
<event>
 6    1  0.1719556E-004  0.1630711E+04  0.7818608E-02  0.8801900E-01
          2   -1    0    0  501    0  0.00000000000E+00  0.00000000000E+00  0.25876857513E+04  0.25876857513E+04  0.00000000000E+00 0.  1.
         -2   -1    0    0    0  501 -0.00000000000E+00 -0.00000000000E+00 -0.25691098999E+03  0.25691098999E+03  0.00000000000E+00 0. -1.
         23    2    1    2    0    0 -0.69748248087E+03 -0.41017646256E+03  0.10334801611E+04  0.13156429090E+04  0.90047093320E+02 0.  0.
         11    1    3    3    0    0 -0.14224258099E+03 -0.92520093641E+02  0.16207891646E+03  0.23465398939E+03  0.00000000000E+00 0. -1.
        -11    1    3    3    0    0 -0.55523989988E+03 -0.31765636892E+03  0.87140124466E+03  0.10809889196E+04  0.00000000000E+00 0.  1.
         22    1    1    2    0    0  0.69748248087E+03  0.41017646256E+03  0.12972946002E+04  0.15289538323E+04  0.00000000000E+00 0.  1.
<mgrwt>
<rscale>  0 0.16307114E+04</rscale>
<asrwt>0</asrwt>
<pdfrwt beam="1">  1        2 0.39810548E+00 0.16307114E+04</pdfrwt>
<pdfrwt beam="2">  1       -2 0.39524770E-01 0.16307114E+04</pdfrwt>
<totfact> 0.17967109E+01</totfact>
</mgrwt>
</event>
<event>
 6    1  0.1719556E-004  0.1390157E+04  0.7818608E-02  0.8960975E-01
          2   -1    0    0  501    0  0.00000000000E+00  0.00000000000E+00  0.23792288335E+04  0.23792288335E+04  0.00000000000E+00 0.  1.
         -2   -1    0    0    0  501 -0.00000000000E+00 -0.00000000000E+00 -0.20306324222E+03  0.20306324222E+03  0.00000000000E+00 0. -1.
         23    2    1    2    0    0 -0.12604539150E+03  0.47170958769E+03  0.18269798568E+03  0.52990067289E+03  0.94967327656E+02 0.  0.
         13    1    3    3    0    0 -0.92573074753E+02  0.26027988146E+03  0.14684544590E+03  0.31285615839E+03  0.00000000000E+00 0. -1.
        -13    1    3    3    0    0 -0.33472316744E+02  0.21142970623E+03  0.35852539777E+02  0.21704451450E+03  0.00000000000E+00 0.  1.
         22    1    1    2    0    0  0.12604539150E+03 -0.47170958769E+03  0.19934676056E+04  0.20523914028E+04  0.00000000000E+00 0.  1.
<mgrwt>
<rscale>  0 0.13901567E+04</rscale>
<asrwt>0</asrwt>
<pdfrwt beam="1">  1        2 0.36603519E+00 0.13901567E+04</pdfrwt>
<pdfrwt beam="2">  1       -2 0.31240500E-01 0.13901567E+04</pdfrwt>
<totfact> 0.37930691E+01</totfact>
</mgrwt>
</event>
<event>
 6    1  0.1719556E-004  0.3817035E+04  0.7818608E-02  0.8042509E-01
         -2   -1    0    0    0  501 -0.00000000000E+00  0.00000000000E+00  0.15363746215E+04  0.15363746215E+04  0.00000000000E+00 0. -1.
          2   -1    0    0  501    0  0.00000000000E+00 -0.00000000000E+00 -0.23708013146E+04  0.23708013146E+04  0.00000000000E+00 0.  1.
         23    2    1    2    0    0  0.64525676265E+03  0.16296686010E+04 -0.11876878437E+04  0.21191688111E+04  0.89988870534E+02 0.  0.
         11    1    3    3    0    0  0.49234210913E+03  0.11321866401E+04 -0.83934097728E+03  0.14928967200E+04  0.00000000000E+00 0. -1.
        -11    1    3    3    0    0  0.15291465352E+03  0.49748196092E+03 -0.34834686646E+03  0.62627209109E+03  0.00000000000E+00 0.  1.
         22    1    1    2    0    0 -0.64525676265E+03 -0.16296686010E+04  0.35326115068E+03  0.17880071251E+04  0.00000000000E+00 0. -1.
<mgrwt>
<rscale>  0 0.38170350E+04</rscale>
<asrwt>0</asrwt>
<pdfrwt beam="1">  1        2 0.36473866E+00 0.38170350E+04</pdfrwt>
<pdfrwt beam="2">  1       -2 0.23636533E+00 0.38170350E+04</pdfrwt>
<totfact> 0.25812321E-01</totfact>
</mgrwt>
</event>
<event>
 6    1  0.1719556E-004  0.3959828E+04  0.7818608E-02  0.8012700E-01
         -2   -1    0    0    0  501 -0.00000000000E+00  0.00000000000E+00  0.15055354948E+04  0.15055354948E+04  0.00000000000E+00 0. -1.
          2   -1    0    0  501    0  0.00000000000E+00 -0.00000000000E+00 -0.26037647067E+04  0.26037647067E+04  0.00000000000E+00 0.  1.
         23    2    1    2    0    0  0.43795810671E+03 -0.19158709537E+04 -0.78935889506E+03  0.21198857934E+04  0.91975526775E+02 0.  0.
         13    1    3    3    0    0  0.22003191648E+03 -0.93818271625E+03 -0.33786087573E+03  0.10211517148E+04  0.00000000000E+00 0.  1.
        -13    1    3    3    0    0  0.21792619023E+03 -0.97768823743E+03 -0.45149801933E+03  0.10987340786E+04  0.00000000000E+00 0. -1.
         22    1    1    2    0    0 -0.43795810671E+03  0.19158709537E+04 -0.30887031690E+03  0.19894144081E+04  0.00000000000E+00 0.  1.
<mgrwt>
<rscale>  0 0.39598284E+04</rscale>
<asrwt>0</asrwt>
<pdfrwt beam="1">  1        2 0.40057919E+00 0.39598284E+04</pdfrwt>
<pdfrwt beam="2">  1       -2 0.23162085E+00 0.39598284E+04</pdfrwt>
<totfact> 0.20013586E-01</totfact>
</mgrwt>
</event>
<event>
 6    1  0.1719556E-004  0.8374692E+03  0.7818608E-02  0.9507311E-01
          1   -1    0    0  501    0  0.00000000000E+00  0.00000000000E+00  0.15458207890E+04  0.15458207890E+04  0.00000000000E+00 0.  1.
         -1   -1    0    0    0  501 -0.00000000000E+00 -0.00000000000E+00 -0.11342756296E+03  0.11342756296E+03  0.00000000000E+00 0. -1.
         23    2    1    2    0    0  0.35792383934E+03 -0.28253000826E+01  0.11356546901E+04  0.11943061880E+04  0.92402589457E+02 0.  0.
         11    1    3    3    0    0  0.16787578833E+03 -0.22056354501E+02  0.40223385545E+03  0.43641819113E+03  0.00000000000E+00 0. -1.
        -11    1    3    3    0    0  0.19004805101E+03  0.19231054418E+02  0.73342083461E+03  0.75788799686E+03  0.00000000000E+00 0.  1.
         22    1    1    2    0    0 -0.35792383934E+03  0.28253000826E+01  0.29673853596E+03  0.46494216394E+03  0.00000000000E+00 0. -1.
<mgrwt>
<rscale>  0 0.83746925E+03</rscale>
<asrwt>0</asrwt>
<pdfrwt beam="1">  1        1 0.23781857E+00 0.83746925E+03</pdfrwt>
<pdfrwt beam="2">  1       -1 0.17450395E-01 0.83746925E+03</pdfrwt>
<totfact> 0.15814993E+02</totfact>
</mgrwt>
</event>
<event>
 6    1  0.1835143E-004  0.2550741E+04  0.7818608E-02  0.8385128E-01
          2   -1    0    0  501    0  0.00000000000E+00  0.00000000000E+00  0.10245596619E+04  0.10245596619E+04  0.00000000000E+00 0.  1.
         -2   -1    0    0    0  501 -0.00000000000E+00 -0.00000000000E+00 -0.15875797005E+04  0.15875797005E+04  0.00000000000E+00 0. -1.
         23    2    1    2    0    0  0.10180871495E+04 -0.26186872448E+03  0.45251551056E+03  0.11505001715E+04  0.11748908257E+03 0.  0.
         13    1    3    3    0    0  0.83982740130E+03 -0.23493498150E+03  0.32947886097E+03  0.93223432104E+03  0.00000000000E+00 0. -1.
        -13    1    3    3    0    0  0.17825974818E+03 -0.26933742982E+02  0.12303664959E+03  0.21826585046E+03  0.00000000000E+00 0.  1.
         22    1    1    2    0    0 -0.10180871495E+04  0.26186872448E+03 -0.10155355491E+04  0.14616391909E+04  0.00000000000E+00 0. -1.
<mgrwt>
<rscale>  0 0.25507412E+04</rscale>
<asrwt>0</asrwt>
<pdfrwt beam="1">  1        2 0.15762456E+00 0.25507412E+04</pdfrwt>
<pdfrwt beam="2">  1       -2 0.24424303E+00 0.25507412E+04</pdfrwt>
<totfact> 0.15043931E+00</totfact>
</mgrwt>
</event>
<event>
 6    1  0.1719556E-004  0.2026351E+04  0.7818608E-02  0.8594399E-01
          1   -1    0    0  501    0  0.00000000000E+00  0.00000000000E+00  0.26385316686E+04  0.26385316686E+04  0.00000000000E+00 0.  1.
         -1   -1    0    0    0  501 -0.00000000000E+00 -0.00000000000E+00 -0.38905127741E+03  0.38905127741E+03  0.00000000000E+00 0. -1.
         23    2    1    2    0    0  0.99969428220E+03 -0.10504354066E+03  0.12903369236E+04  0.16382021505E+04  0.91181722241E+02 0.  0.
         13    1    3    3    0    0  0.38131382296E+03 -0.20752261860E+02  0.55556512222E+03  0.67415390897E+03  0.00000000000E+00 0.  1.
        -13    1    3    3    0    0  0.61838045924E+03 -0.84291278797E+02  0.73477180134E+03  0.96404824158E+03  0.00000000000E+00 0. -1.
         22    1    1    2    0    0 -0.99969428220E+03  0.10504354066E+03  0.95914346761E+03  0.13893807954E+04  0.00000000000E+00 0.  1.
<mgrwt>
<rscale>  0 0.20263505E+04</rscale>
<asrwt>0</asrwt>
<pdfrwt beam="1">  1        1 0.40592794E+00 0.20263505E+04</pdfrwt>
<pdfrwt beam="2">  1       -1 0.59854044E-01 0.20263505E+04</pdfrwt>
<totfact> 0.28421257E+00</totfact>
</mgrwt>
</event>
<event>
 6    1  0.1719556E-004  0.2021868E+04  0.7818608E-02  0.8596464E-01
          3   -1    0    0  501    0  0.00000000000E+00  0.00000000000E+00  0.28596226998E+04  0.28596226998E+04  0.00000000000E+00 0. -1.
         -3   -1    0    0    0  501 -0.00000000000E+00 -0.00000000000E+00 -0.35738539366E+03  0.35738539366E+03  0.00000000000E+00 0.  1.
         23    2    1    2    0    0  0.10635545168E+03 -0.72693316115E+03  0.23538671518E+04  0.24675035867E+04  0.90222389377E+02 0.  0.
         11    1    3    3    0    0  0.81219406239E+02 -0.27806409201E+03  0.98359110741E+03  0.10253622276E+04  0.00000000000E+00 0. -1.
        -11    1    3    3    0    0  0.25136045442E+02 -0.44886906915E+03  0.13702760444E+04  0.14421413591E+04  0.00000000000E+00 0.  1.
         22    1    1    2    0    0 -0.10635545168E+03  0.72693316115E+03  0.14837015438E+03  0.74950450672E+03  0.00000000000E+00 0.  1.
<mgrwt>
<rscale>  0 0.20218678E+04</rscale>
<asrwt>0</asrwt>
<pdfrwt beam="1">  1        3 0.43994194E+00 0.20218678E+04</pdfrwt>
<pdfrwt beam="2">  1       -3 0.54982370E-01 0.20218678E+04</pdfrwt>
<totfact> 0.54515618E-02</totfact>
</mgrwt>
</event>
<event>
 6    1  0.1719556E-004  0.2647051E+04  0.7818608E-02  0.8352392E-01
          2   -1    0    0  501    0  0.00000000000E+00  0.00000000000E+00  0.33895346503E+04  0.33895346503E+04  0.00000000000E+00 0.  1.
         -2   -1    0    0    0  501 -0.00000000000E+00 -0.00000000000E+00 -0.51680240769E+03  0.51680240769E+03  0.00000000000E+00 0. -1.
         23    2    1    2    0    0  0.25964473962E+03  0.11890580873E+04  0.67657770545E+03  0.13954867485E+04  0.91385709225E+02 0.  0.
         13    1    3    3    0    0  0.13868897655E+03  0.50447717712E+03  0.24996502006E+03  0.57983994835E+03  0.00000000000E+00 0. -1.
        -13    1    3    3    0    0  0.12095576307E+03  0.68458091017E+03  0.42661268539E+03  0.81564680011E+03  0.00000000000E+00 0.  1.
         22    1    1    2    0    0 -0.25964473962E+03 -0.11890580873E+04  0.21961545371E+04  0.25108503095E+04  0.00000000000E+00 0.  1.
<mgrwt>
<rscale>  0 0.26470509E+04</rscale>
<asrwt>0</asrwt>
<pdfrwt beam="1">  1        2 0.52146686E+00 0.26470509E+04</pdfrwt>
<pdfrwt beam="2">  1       -2 0.79508065E-01 0.26470509E+04</pdfrwt>
<totfact> 0.11972901E+00</totfact>
</mgrwt>
</event>
<event>
 6    1  0.1719556E-004  0.1009616E+04  0.7818608E-02  0.9298061E-01
          2   -1    0    0  501    0  0.00000000000E+00  0.00000000000E+00  0.14709246518E+04  0.14709246518E+04  0.00000000000E+00 0. -1.
         -2   -1    0    0    0  501 -0.00000000000E+00 -0.00000000000E+00 -0.17324552355E+03  0.17324552355E+03  0.00000000000E+00 0.  1.
         23    2    1    2    0    0 -0.49743455406E+03 -0.52435460101E+02  0.68514200900E+03  0.85335266448E+03  0.92739335974E+02 0.  0.
         11    1    3    3    0    0 -0.14965106928E+03 -0.47739542144E+02  0.16671814130E+03  0.22906209870E+03  0.00000000000E+00 0.  1.
        -11    1    3    3    0    0 -0.34778348478E+03 -0.46959179575E+01  0.51842386770E+03  0.62429056579E+03  0.00000000000E+00 0. -1.
         22    1    1    2    0    0  0.49743455406E+03  0.52435460101E+02  0.61253711929E+03  0.79081751091E+03  0.00000000000E+00 0.  1.
<mgrwt>
<rscale>  0 0.10096160E+04</rscale>
<asrwt>0</asrwt>
<pdfrwt beam="1">  1        2 0.22629609E+00 0.10096160E+04</pdfrwt>
<pdfrwt beam="2">  1       -2 0.26653158E-01 0.10096160E+04</pdfrwt>
<totfact> 0.16777080E+02</totfact>
</mgrwt>
</event>
<event>
 6    1  0.1719556E-004  0.2238744E+04  0.7818608E-02  0.8502473E-01
          2   -1    0    0  501    0  0.00000000000E+00  0.00000000000E+00  0.12333665477E+04  0.12333665477E+04  0.00000000000E+00 0.  1.
         -2   -1    0    0    0  501 -0.00000000000E+00 -0.00000000000E+00 -0.10159130127E+04  0.10159130127E+04  0.00000000000E+00 0. -1.
         23    2    1    2    0    0 -0.51779017360E+03 -0.52297884344E+03 -0.73583851385E+03  0.10449626316E+04  0.94207475144E+02 0.  0.
         13    1    3    3    0    0 -0.90569370675E+02 -0.90586150235E+02 -0.81344801813E+02  0.15174201231E+03  0.00000000000E+00 0.  1.
        -13    1    3    3    0    0 -0.42722080292E+03 -0.43239269320E+03 -0.65449371204E+03  0.89322061926E+03  0.00000000000E+00 0. -1.
         22    1    1    2    0    0  0.51779017360E+03  0.52297884344E+03  0.95329204889E+03  0.12043169288E+04  0.00000000000E+00 0.  1.
<mgrwt>
<rscale>  0 0.22387435E+04</rscale>
<asrwt>0</asrwt>
<pdfrwt beam="1">  1        2 0.18974870E+00 0.22387435E+04</pdfrwt>
<pdfrwt beam="2">  1       -2 0.15629431E+00 0.22387435E+04</pdfrwt>
<totfact> 0.44257027E+00</totfact>
</mgrwt>
</event>
<event>
 6    1  0.1719556E-004  0.3804976E+04  0.7818608E-02  0.8045088E-01
          2   -1    0    0  501    0  0.00000000000E+00  0.00000000000E+00  0.21856174650E+04  0.21856174650E+04  0.00000000000E+00 0.  1.
         -2   -1    0    0    0  501 -0.00000000000E+00 -0.00000000000E+00 -0.16560357859E+04  0.16560357859E+04  0.00000000000E+00 0. -1.
         23    2    1    2    0    0  0.15138530572E+03 -0.34224025029E+03  0.21470780811E+04  0.21814302207E+04  0.92992589742E+02 0.  0.
         11    1    3    3    0    0  0.28072763144E+01 -0.10341770698E+03  0.64514923970E+03  0.65339164703E+03  0.00000000000E+00 0.  1.
        -11    1    3    3    0    0  0.14857802941E+03 -0.23882254331E+03  0.15019288414E+04  0.15280385737E+04  0.00000000000E+00 0. -1.
         22    1    1    2    0    0 -0.15138530572E+03  0.34224025029E+03 -0.16174964019E+04  0.16602230302E+04  0.00000000000E+00 0. -1.
<mgrwt>
<rscale>  0 0.38049761E+04</rscale>
<asrwt>0</asrwt>
<pdfrwt beam="1">  1        2 0.33624884E+00 0.38049761E+04</pdfrwt>
<pdfrwt beam="2">  1       -2 0.25477474E+00 0.38049761E+04</pdfrwt>
<totfact> 0.25327637E-01</totfact>
</mgrwt>
</event>
<event>
 6    1  0.1719556E-004  0.4246145E+04  0.7818608E-02  0.7956652E-01
          2   -1    0    0  501    0  0.00000000000E+00  0.00000000000E+00  0.15795879024E+04  0.15795879024E+04  0.00000000000E+00 0.  1.
         -2   -1    0    0    0  501 -0.00000000000E+00 -0.00000000000E+00 -0.28535530612E+04  0.28535530612E+04  0.00000000000E+00 0. -1.
         23    2    1    2    0    0  0.64089361065E+01  0.94627933398E+03 -0.26204227738E+04  0.27874089801E+04  0.86877250416E+02 0.  0.
         11    1    3    3    0    0  0.16031399179E+02  0.15529179775E+03 -0.52159261065E+03  0.54445514021E+03  0.00000000000E+00 0. -1.
        -11    1    3    3    0    0 -0.96224630725E+01  0.79098753623E+03 -0.20988301632E+04  0.22429538399E+04  0.00000000000E+00 0.  1.
         22    1    1    2    0    0 -0.64089361065E+01 -0.94627933398E+03  0.13464576150E+04  0.16457319835E+04  0.00000000000E+00 0.  1.
<mgrwt>
<rscale>  0 0.42461455E+04</rscale>
<asrwt>0</asrwt>
<pdfrwt beam="1">  1        2 0.24301352E+00 0.42461455E+04</pdfrwt>
<pdfrwt beam="2">  1       -2 0.43900816E+00 0.42461455E+04</pdfrwt>
<totfact> 0.36351702E-02</totfact>
</mgrwt>
</event>
<event>
 6    1  0.1719556E-004  0.3599740E+04  0.7818608E-02  0.8090551E-01
          2   -1    0    0  501    0  0.00000000000E+00  0.00000000000E+00  0.14072175141E+04  0.14072175141E+04  0.00000000000E+00 0. -1.
         -2   -1    0    0    0  501 -0.00000000000E+00 -0.00000000000E+00 -0.23020834191E+04  0.23020834191E+04  0.00000000000E+00 0.  1.
         23    2    1    2    0    0 -0.10434914265E+04  0.88534118547E+03 -0.16505977052E+04  0.21460242700E+04  0.90796539015E+02 0.  0.
         13    1    3    3    0    0 -0.96228303707E+03  0.82721113403E+03 -0.14926371695E+04  0.19591407871E+04  0.00000000000E+00 0.  1.
        -13    1    3    3    0    0 -0.81208389402E+02  0.58130051432E+02 -0.15796053561E+03  0.18688348295E+03  0.00000000000E+00 0. -1.
         22    1    1    2    0    0  0.10434914265E+04 -0.88534118547E+03  0.75573180012E+03  0.15632766631E+04  0.00000000000E+00 0. -1.
<mgrwt>
<rscale>  0 0.35997400E+04</rscale>
<asrwt>0</asrwt>
<pdfrwt beam="1">  1        2 0.21649500E+00 0.35997400E+04</pdfrwt>
<pdfrwt beam="2">  1       -2 0.35416668E+00 0.35997400E+04</pdfrwt>
<totfact> 0.17099445E-01</totfact>
</mgrwt>
</event>
<event>
 6    1  0.1719556E-004  0.5036608E+04  0.7818608E-02  0.7822885E-01
          2   -1    0    0  501    0  0.00000000000E+00  0.00000000000E+00  0.23121129331E+04  0.23121129331E+04  0.00000000000E+00 0.  1.
         -2   -1    0    0    0  501 -0.00000000000E+00 -0.00000000000E+00 -0.27428828620E+04  0.27428828620E+04  0.00000000000E+00 0. -1.
         23    2    1    2    0    0  0.91015722892E+03 -0.11024880976E+04 -0.22950596386E+04  0.27056464579E+04  0.96735844643E+02 0.  0.
         13    1    3    3    0    0  0.13371454039E+03 -0.21557916796E+03 -0.38051346999E+03  0.45732314266E+03  0.00000000000E+00 0.  1.
        -13    1    3    3    0    0  0.77644268853E+03 -0.88690892966E+03 -0.19145461686E+04  0.22483233152E+04  0.00000000000E+00 0. -1.
         22    1    1    2    0    0 -0.91015722892E+03  0.11024880976E+04  0.18642897097E+04  0.23493493372E+04  0.00000000000E+00 0.  1.
<mgrwt>
<rscale>  0 0.50366080E+04</rscale>
<asrwt>0</asrwt>
<pdfrwt beam="1">  1        2 0.35570968E+00 0.50366080E+04</pdfrwt>
<pdfrwt beam="2">  1       -2 0.42198198E+00 0.50366080E+04</pdfrwt>
<totfact> 0.17257978E-02</totfact>
</mgrwt>
</event>
<event>
 6    1  0.1719556E-004  0.2384199E+04  0.7818608E-02  0.8445443E-01
          2   -1    0    0  501    0  0.00000000000E+00  0.00000000000E+00  0.15836516710E+04  0.15836516710E+04  0.00000000000E+00 0.  1.
         -2   -1    0    0    0  501 -0.00000000000E+00 -0.00000000000E+00 -0.89735726361E+03  0.89735726361E+03  0.00000000000E+00 0. -1.
         23    2    1    2    0    0  0.21801830303E+02  0.70930789416E+03 -0.65082042097E+03  0.96724902209E+03  0.91708461177E+02 0.  0.
         11    1    3    3    0    0  0.57038964870E+02  0.50594677880E+03 -0.46381520980E+03  0.68873807455E+03  0.00000000000E+00 0. -1.
        -11    1    3    3    0    0 -0.35237134567E+02  0.20336111536E+03 -0.18700521117E+03  0.27851094753E+03  0.00000000000E+00 0.  1.
         22    1    1    2    0    0 -0.21801830303E+02 -0.70930789416E+03  0.13371148284E+04  0.15137599125E+04  0.00000000000E+00 0.  1.
<mgrwt>
<rscale>  0 0.23841991E+04</rscale>
<asrwt>0</asrwt>
<pdfrwt beam="1">  1        2 0.24363872E+00 0.23841991E+04</pdfrwt>
<pdfrwt beam="2">  1       -2 0.13805496E+00 0.23841991E+04</pdfrwt>
<totfact> 0.38201215E+00</totfact>
</mgrwt>
</event>
<event>
 6    1  0.1719556E-004  0.1009613E+04  0.7818608E-02  0.9298064E-01
          2   -1    0    0  501    0  0.00000000000E+00  0.00000000000E+00  0.14536624748E+04  0.14536624748E+04  0.00000000000E+00 0.  1.
         -2   -1    0    0    0  501 -0.00000000000E+00 -0.00000000000E+00 -0.17530164945E+03  0.17530164945E+03  0.00000000000E+00 0. -1.
         23    2    1    2    0    0  0.25665893124E+03 -0.11544355490E+03 -0.30816406794E+02  0.28988009160E+03  0.62288002256E+02 0.  0.
         13    1    3    3    0    0  0.17088220126E+03 -0.43628734674E+02 -0.19509899816E+02  0.17743964999E+03  0.00000000000E+00 0. -1.
        -13    1    3    3    0    0  0.85776729984E+02 -0.71814820225E+02 -0.11306506978E+02  0.11244044162E+03  0.00000000000E+00 0.  1.
         22    1    1    2    0    0 -0.25665893124E+03  0.11544355490E+03  0.13091772322E+04  0.13390840327E+04  0.00000000000E+00 0. -1.
<mgrwt>
<rscale>  0 0.10096127E+04</rscale>
<asrwt>0</asrwt>
<pdfrwt beam="1">  1        2 0.22364037E+00 0.10096127E+04</pdfrwt>
<pdfrwt beam="2">  1       -2 0.26969485E-01 0.10096127E+04</pdfrwt>
<totfact> 0.16791551E+02</totfact>
</mgrwt>
</event>
<event>
 6    1  0.2047394E-004  0.2955244E+04  0.7818608E-02  0.8256628E-01
          1   -1    0    0  501    0  0.00000000000E+00  0.00000000000E+00  0.18756210977E+04  0.18756210977E+04  0.00000000000E+00 0. -1.
         -1   -1    0    0    0  501 -0.00000000000E+00 -0.00000000000E+00 -0.11640763576E+04  0.11640763576E+04  0.00000000000E+00 0.  1.
         23    2    1    2    0    0  0.47520199904E+03  0.44638817002E+03  0.17184172544E+04  0.18401677147E+04  0.90443461879E+02 0.  0.
         13    1    3    3    0    0  0.23041589116E+03  0.25735434603E+03  0.81135351281E+03  0.88182609684E+03  0.00000000000E+00 0.  1.
        -13    1    3    3    0    0  0.24478610788E+03  0.18903382399E+03  0.90706374163E+03  0.95834161790E+03  0.00000000000E+00 0. -1.
         22    1    1    2    0    0 -0.47520199904E+03 -0.44638817002E+03 -0.10068725144E+04  0.11995297405E+04  0.00000000000E+00 0.  1.
<mgrwt>
<rscale>  0 0.29552436E+04</rscale>
<asrwt>0</asrwt>
<pdfrwt beam="1">  1        1 0.28855709E+00 0.29552436E+04</pdfrwt>
<pdfrwt beam="2">  1       -1 0.17908867E+00 0.29552436E+04</pdfrwt>
<totfact> 0.65331646E-01</totfact>
</mgrwt>
</event>
<event>
 6    1  0.1719556E-004  0.2440346E+04  0.7818608E-02  0.8424551E-01
          2   -1    0    0  501    0  0.00000000000E+00  0.00000000000E+00  0.13061485152E+04  0.13061485152E+04  0.00000000000E+00 0.  1.
         -2   -1    0    0    0  501 -0.00000000000E+00 -0.00000000000E+00 -0.11398563733E+04  0.11398563733E+04  0.00000000000E+00 0. -1.
         23    2    1    2    0    0  0.20928178241E+03 -0.53825183566E+03 -0.99209804834E+03  0.11516395088E+04  0.92201506094E+02 0.  0.
         13    1    3    3    0    0  0.76288814651E+02 -0.30775166402E+03 -0.49623317711E+03  0.58887896550E+03  0.00000000000E+00 0. -1.
        -13    1    3    3    0    0  0.13299296776E+03 -0.23050017164E+03 -0.49586487123E+03  0.56276054333E+03  0.00000000000E+00 0.  1.
         22    1    1    2    0    0 -0.20928178241E+03  0.53825183566E+03  0.11583901903E+04  0.12943653796E+04  0.00000000000E+00 0.  1.
<mgrwt>
<rscale>  0 0.24403456E+04</rscale>
<asrwt>0</asrwt>
<pdfrwt beam="1">  1        2 0.20094593E+00 0.24403456E+04</pdfrwt>
<pdfrwt beam="2">  1       -2 0.17536252E+00 0.24403456E+04</pdfrwt>
<totfact> 0.28705208E+00</totfact>
</mgrwt>
</event>
<event>
 6    1  0.1719556E-004  0.2776293E+04  0.7818608E-02  0.8310667E-01
          2   -1    0    0  501    0  0.00000000000E+00  0.00000000000E+00  0.37798092374E+04  0.37798092374E+04  0.00000000000E+00 0.  1.
         -2   -1    0    0    0  501 -0.00000000000E+00 -0.00000000000E+00 -0.50980089303E+03  0.50980089303E+03  0.00000000000E+00 0. -1.
         23    2    1    2    0    0 -0.37150234024E+03  0.11020244949E+04  0.46963839412E+03  0.12573595084E+04  0.88998516849E+02 0.  0.
         11    1    3    3    0    0 -0.11423994575E+03  0.47262681379E+03  0.18505256785E+03  0.52026082227E+03  0.00000000000E+00 0. -1.
        -11    1    3    3    0    0 -0.25726239449E+03  0.62939768114E+03  0.28458582627E+03  0.73709868617E+03  0.00000000000E+00 0.  1.
         22    1    1    2    0    0  0.37150234024E+03 -0.11020244949E+04  0.28003699503E+04  0.30322506220E+04  0.00000000000E+00 0.  1.
<mgrwt>
<rscale>  0 0.27762926E+04</rscale>
<asrwt>0</asrwt>
<pdfrwt beam="1">  1        2 0.58150910E+00 0.27762926E+04</pdfrwt>
<pdfrwt beam="2">  1       -2 0.78430909E-01 0.27762926E+04</pdfrwt>
<totfact> 0.64126661E-01</totfact>
</mgrwt>
</event>
<event>
 6    1  0.1719556E-004  0.1715729E+04  0.7818608E-02  0.8752444E-01
         -2   -1    0    0    0  501 -0.00000000000E+00  0.00000000000E+00  0.53793071231E+03  0.53793071231E+03  0.00000000000E+00 0.  1.
          2   -1    0    0  501    0  0.00000000000E+00 -0.00000000000E+00 -0.13680792440E+04  0.13680792440E+04  0.00000000000E+00 0. -1.
         23    2    1    2    0    0  0.91643086973E+02 -0.34232944712E+03 -0.12812103166E+04  0.13323858289E+04  0.90356051231E+02 0.  0.
         11    1    3    3    0    0  0.22059492944E+01 -0.12225170944E+03 -0.55496141496E+03  0.56827151853E+03  0.00000000000E+00 0. -1.
        -11    1    3    3    0    0  0.89437137679E+02 -0.22007773768E+03 -0.72624890161E+03  0.76411431037E+03  0.00000000000E+00 0.  1.
         22    1    1    2    0    0 -0.91643086973E+02  0.34232944712E+03  0.45106178489E+03  0.57362412741E+03  0.00000000000E+00 0.  1.
<mgrwt>
<rscale>  0 0.17157294E+04</rscale>
<asrwt>0</asrwt>
<pdfrwt beam="1">  1        2 0.21047373E+00 0.17157294E+04</pdfrwt>
<pdfrwt beam="2">  1       -2 0.82758572E-01 0.17157294E+04</pdfrwt>
<totfact> 0.18368999E+01</totfact>
</mgrwt>
</event>
<event>
 6    1  0.1719556E-004  0.1857684E+04  0.7818608E-02  0.8676211E-01
          2   -1    0    0  501    0  0.00000000000E+00  0.00000000000E+00  0.11607284835E+04  0.11607284835E+04  0.00000000000E+00 0.  1.
         -2   -1    0    0    0  501 -0.00000000000E+00 -0.00000000000E+00 -0.74328132182E+03  0.74328132182E+03  0.00000000000E+00 0. -1.
         23    2    1    2    0    0 -0.72241198492E+03 -0.20189033916E+03  0.76680883563E+03  0.10765484079E+04  0.91224444272E+02 0.  0.
         11    1    3    3    0    0 -0.22999531861E+03 -0.57971506794E+02  0.18457322862E+03  0.30054254092E+03  0.00000000000E+00 0. -1.
        -11    1    3    3    0    0 -0.49241666632E+03 -0.14391883236E+03  0.58223560701E+03  0.77600586702E+03  0.00000000000E+00 0.  1.
         22    1    1    2    0    0  0.72241198492E+03  0.20189033916E+03 -0.34936167391E+03  0.82746139741E+03  0.00000000000E+00 0. -1.
<mgrwt>
<rscale>  0 0.18576844E+04</rscale>
<asrwt>0</asrwt>
<pdfrwt beam="1">  1        2 0.17857361E+00 0.18576844E+04</pdfrwt>
<pdfrwt beam="2">  1       -2 0.11435097E+00 0.18576844E+04</pdfrwt>
<totfact> 0.11238591E+01</totfact>
</mgrwt>
</event>
<event>
 6    1  0.1719556E-004  0.1510764E+04  0.7818608E-02  0.8877326E-01
          1   -1    0    0  501    0  0.00000000000E+00  0.00000000000E+00  0.36838514733E+03  0.36838514733E+03  0.00000000000E+00 0.  1.
         -1   -1    0    0    0  501 -0.00000000000E+00 -0.00000000000E+00 -0.15489276472E+04  0.15489276472E+04  0.00000000000E+00 0. -1.
         23    2    1    2    0    0  0.40300763025E+02 -0.71072322532E+03 -0.28250088825E+03  0.77135014647E+03  0.91774953484E+02 0.  0.
         11    1    3    3    0    0 -0.12374623604E+02 -0.25705633480E+03 -0.64710209099E+02  0.26536484645E+03  0.00000000000E+00 0.  1.
        -11    1    3    3    0    0  0.52675386629E+02 -0.45366689053E+03 -0.21779067915E+03  0.50598530002E+03  0.00000000000E+00 0. -1.
         22    1    1    2    0    0 -0.40300763025E+02  0.71072322532E+03 -0.89804161157E+03  0.11459626480E+04  0.00000000000E+00 0.  1.
<mgrwt>
<rscale>  0 0.15107640E+04</rscale>
<asrwt>0</asrwt>
<pdfrwt beam="1">  1        1 0.56674639E-01 0.15107640E+04</pdfrwt>
<pdfrwt beam="2">  1       -1 0.23829656E+00 0.15107640E+04</pdfrwt>
<totfact> 0.53837595E+00</totfact>
</mgrwt>
</event>
<event>
 6    1  0.1719556E-004  0.1736234E+04  0.7818608E-02  0.8740964E-01
         -1   -1    0    0    0  501 -0.00000000000E+00  0.00000000000E+00  0.86454658839E+03  0.86454658839E+03  0.00000000000E+00 0. -1.
          1   -1    0    0  501    0  0.00000000000E+00 -0.00000000000E+00 -0.87170199585E+03  0.87170199585E+03  0.00000000000E+00 0.  1.
         23    2    1    2    0    0 -0.15746156653E+03  0.76836828899E+03  0.36302929858E+03  0.86894201270E+03  0.89922062673E+02 0.  0.
         11    1    3    3    0    0 -0.14209051409E+03  0.66599237833E+03  0.28025685395E+03  0.73639626993E+03  0.00000000000E+00 0.  1.
        -11    1    3    3    0    0 -0.15371052441E+02  0.10237591066E+03  0.82772444625E+02  0.13254574277E+03  0.00000000000E+00 0. -1.
         22    1    1    2    0    0  0.15746156653E+03 -0.76836828899E+03 -0.37018470604E+03  0.86730657154E+03  0.00000000000E+00 0. -1.
<mgrwt>
<rscale>  0 0.17362338E+04</rscale>
<asrwt>0</asrwt>
<pdfrwt beam="1">  1        1 0.13410800E+00 0.17362338E+04</pdfrwt>
<pdfrwt beam="2">  1       -1 0.13300717E+00 0.17362338E+04</pdfrwt>
<totfact> 0.87200601E+00</totfact>
</mgrwt>
</event>
<event>
 6    1  0.1719556E-004  0.3789703E+04  0.7818608E-02  0.8048368E-01
         -2   -1    0    0    0  501 -0.00000000000E+00  0.00000000000E+00  0.16124656946E+04  0.16124656946E+04  0.00000000000E+00 0. -1.
          2   -1    0    0  501    0  0.00000000000E+00 -0.00000000000E+00 -0.22266905530E+04  0.22266905530E+04  0.00000000000E+00 0.  1.
         23    2    1    2    0    0  0.10086077312E+04 -0.22327905691E+03  0.13006055939E+04  0.16634451562E+04  0.91278606871E+02 0.  0.
         11    1    3    3    0    0  0.60935345353E+03 -0.10568258854E+03  0.72149496417E+03  0.95028176041E+03  0.00000000000E+00 0.  1.
        -11    1    3    3    0    0  0.39925427769E+03 -0.11759646837E+03  0.57911062971E+03  0.71316339577E+03  0.00000000000E+00 0. -1.
         22    1    1    2    0    0 -0.10086077312E+04  0.22327905691E+03 -0.19148304522E+04  0.21757110914E+04  0.00000000000E+00 0.  1.
<mgrwt>
<rscale>  0 0.37897030E+04</rscale>
<asrwt>0</asrwt>
<pdfrwt beam="1">  1        2 0.34256778E+00 0.37897030E+04</pdfrwt>
<pdfrwt beam="2">  1       -2 0.24807165E+00 0.37897030E+04</pdfrwt>
<totfact> 0.26437918E-01</totfact>
</mgrwt>
</event>
<event>
 6    1  0.1719556E-004  0.4161932E+04  0.7818608E-02  0.7972653E-01
          3   -1    0    0  501    0  0.00000000000E+00  0.00000000000E+00  0.12202287176E+04  0.12202287176E+04  0.00000000000E+00 0.  1.
         -3   -1    0    0    0  501 -0.00000000000E+00 -0.00000000000E+00 -0.35488580175E+04  0.35488580175E+04  0.00000000000E+00 0. -1.
         23    2    1    2    0    0 -0.65402598915E+03  0.30498044793E+02 -0.34271488086E+04  0.34902492802E+04  0.88379616970E+02 0.  0.
         13    1    3    3    0    0 -0.14472700095E+03 -0.16224139132E+02 -0.61839922008E+03  0.63531623849E+03  0.00000000000E+00 0.  1.
        -13    1    3    3    0    0 -0.50929898821E+03  0.46722183925E+02 -0.28087495885E+04  0.28549330417E+04  0.00000000000E+00 0. -1.
         22    1    1    2    0    0  0.65402598915E+03 -0.30498044793E+02  0.10985195086E+04  0.12788374549E+04  0.00000000000E+00 0.  1.
<mgrwt>
<rscale>  0 0.41619315E+04</rscale>
<asrwt>0</asrwt>
<pdfrwt beam="1">  1        3 0.18772749E+00 0.41619315E+04</pdfrwt>
<pdfrwt beam="2">  1       -3 0.54597816E+00 0.41619315E+04</pdfrwt>
<totfact> 0.61685559E-04</totfact>
</mgrwt>
</event>
<event>
 6    1  0.1719556E-004  0.5982180E+04  0.7818608E-02  0.7692615E-01
         -2   -1    0    0    0  501 -0.00000000000E+00  0.00000000000E+00  0.25199290687E+04  0.25199290687E+04  0.00000000000E+00 0. -1.
          2   -1    0    0  501    0  0.00000000000E+00 -0.00000000000E+00 -0.35503461831E+04  0.35503461831E+04  0.00000000000E+00 0.  1.
         23    2    1    2    0    0  0.20594650422E+04  0.34882902392E+03 -0.26867654702E+04  0.34044605876E+04  0.92548651297E+02 0.  0.
         11    1    3    3    0    0  0.17868910515E+04  0.33403112519E+03 -0.23419155537E+04  0.29646458276E+04  0.00000000000E+00 0.  1.
        -11    1    3    3    0    0  0.27257399072E+03  0.14797898732E+02 -0.34484991649E+03  0.43981476002E+03  0.00000000000E+00 0. -1.
         22    1    1    2    0    0 -0.20594650422E+04 -0.34882902392E+03  0.16563483557E+04  0.26658146642E+04  0.00000000000E+00 0. -1.
<mgrwt>
<rscale>  0 0.59821804E+04</rscale>
<asrwt>0</asrwt>
<pdfrwt beam="1">  1        2 0.54620710E+00 0.59821804E+04</pdfrwt>
<pdfrwt beam="2">  1       -2 0.38768140E+00 0.59821804E+04</pdfrwt>
<totfact> 0.45019730E-03</totfact>
</mgrwt>
</event>
<event>
 6    1  0.4125192E-004  0.3826532E+04  0.7818608E-02  0.8040485E-01
         -2   -1    0    0    0  501 -0.00000000000E+00  0.00000000000E+00  0.16643063573E+04  0.16643063573E+04  0.00000000000E+00 0. -1.
          2   -1    0    0  501    0  0.00000000000E+00 -0.00000000000E+00 -0.21994669418E+04  0.21994669418E+04  0.00000000000E+00 0.  1.
         23    2    1    2    0    0 -0.66616687544E+03  0.67011177468E+03 -0.19463333278E+04  0.21654692604E+04  0.90639937570E+02 0.  0.
         11    1    3    3    0    0 -0.33013016975E+03  0.39089345347E+03 -0.10906822041E+04  0.12047287210E+04  0.00000000000E+00 0.  1.
        -11    1    3    3    0    0 -0.33603670569E+03  0.27921832121E+03 -0.85565112375E+03  0.96074053940E+03  0.00000000000E+00 0. -1.
         22    1    1    2    0    0  0.66616687544E+03 -0.67011177468E+03  0.14111727433E+04  0.16983040387E+04  0.00000000000E+00 0. -1.
<mgrwt>
<rscale>  0 0.38265320E+04</rscale>
<asrwt>0</asrwt>
<pdfrwt beam="1">  1        2 0.33837953E+00 0.38265320E+04</pdfrwt>
<pdfrwt beam="2">  1       -2 0.25604713E+00 0.38265320E+04</pdfrwt>
<totfact> 0.24390973E-01</totfact>
</mgrwt>
</event>
<event>
 6    1  0.1719556E-004  0.6541394E+03  0.7818608E-02  0.9799043E-01
         -2   -1    0    0    0  501 -0.00000000000E+00  0.00000000000E+00  0.20516588369E+03  0.20516588369E+03  0.00000000000E+00 0. -1.
          2   -1    0    0  501    0  0.00000000000E+00 -0.00000000000E+00 -0.52140538750E+03  0.52140538750E+03  0.00000000000E+00 0.  1.
         23    2    1    2    0    0  0.24606629408E+03  0.19898786235E+03 -0.21788064671E+03  0.39518138719E+03  0.92474656669E+02 0.  0.
         11    1    3    3    0    0  0.10321595950E+03  0.40665403869E+02 -0.41499290868E+02  0.11844577033E+03  0.00000000000E+00 0. -1.
        -11    1    3    3    0    0  0.14285033458E+03  0.15832245848E+03 -0.17638135584E+03  0.27673561686E+03  0.00000000000E+00 0.  1.
         22    1    1    2    0    0 -0.24606629408E+03 -0.19898786235E+03 -0.98358857102E+02  0.33138988400E+03  0.00000000000E+00 0.  1.
<mgrwt>
<rscale>  0 0.65413943E+03</rscale>
<asrwt>0</asrwt>
<pdfrwt beam="1">  1        2 0.80216212E-01 0.65413943E+03</pdfrwt>
<pdfrwt beam="2">  1       -2 0.31563983E-01 0.65413943E+03</pdfrwt>
<totfact> 0.55007951E+02</totfact>
</mgrwt>
</event>
<event>
 6    1  0.1719556E-004  0.2091889E+04  0.7818608E-02  0.8564825E-01
          2   -1    0    0  501    0  0.00000000000E+00  0.00000000000E+00  0.14993439210E+04  0.14993439210E+04  0.00000000000E+00 0.  1.
         -2   -1    0    0    0  501 -0.00000000000E+00 -0.00000000000E+00 -0.72965233610E+03  0.72965233610E+03  0.00000000000E+00 0. -1.
         23    2    1    2    0    0 -0.52797504862E+03 -0.26195279282E+03  0.13038272219E+04  0.14335857994E+04  0.88464128188E+02 0.  0.
         13    1    3    3    0    0 -0.24670678100E+03 -0.73999881272E+02  0.57880540268E+03  0.63352656802E+03  0.00000000000E+00 0. -1.
        -13    1    3    3    0    0 -0.28126826762E+03 -0.18795291155E+03  0.72502181921E+03  0.80005923134E+03  0.00000000000E+00 0.  1.
         22    1    1    2    0    0  0.52797504862E+03  0.26195279282E+03 -0.53413563696E+03  0.79541045775E+03  0.00000000000E+00 0. -1.
<mgrwt>
<rscale>  0 0.20918889E+04</rscale>
<asrwt>0</asrwt>
<pdfrwt beam="1">  1        2 0.23066829E+00 0.20918889E+04</pdfrwt>
<pdfrwt beam="2">  1       -2 0.11225421E+00 0.20918889E+04</pdfrwt>
<totfact> 0.73285422E+00</totfact>
</mgrwt>
</event>
<event>
 6    1  0.1719556E-004  0.4207365E+04  0.7818608E-02  0.7963973E-01
          2   -1    0    0  501    0  0.00000000000E+00  0.00000000000E+00  0.19619921048E+04  0.19619921048E+04  0.00000000000E+00 0.  1.
         -2   -1    0    0    0  501 -0.00000000000E+00 -0.00000000000E+00 -0.22556058816E+04  0.22556058816E+04  0.00000000000E+00 0. -1.
         23    2    1    2    0    0  0.13497072641E+04 -0.13126852393E+04  0.79146838864E+03  0.20445228515E+04  0.93804283899E+02 0.  0.
         13    1    3    3    0    0  0.11415562006E+04 -0.10675846398E+04  0.67531913866E+03  0.17026283979E+04  0.00000000000E+00 0.  1.
        -13    1    3    3    0    0  0.20815106352E+03 -0.24510059948E+03  0.11614924998E+03  0.34189445357E+03  0.00000000000E+00 0. -1.
         22    1    1    2    0    0 -0.13497072641E+04  0.13126852393E+04 -0.10850821655E+04  0.21730751349E+04  0.00000000000E+00 0. -1.
<mgrwt>
<rscale>  0 0.42073654E+04</rscale>
<asrwt>0</asrwt>
<pdfrwt beam="1">  1        2 0.30184494E+00 0.42073654E+04</pdfrwt>
<pdfrwt beam="2">  1       -2 0.34701629E+00 0.42073654E+04</pdfrwt>
<totfact> 0.88399545E-02</totfact>
</mgrwt>
</event>
<event>
 6    1  0.1719556E-004  0.4922276E+04  0.7818608E-02  0.7840610E-01
          2   -1    0    0  501    0  0.00000000000E+00  0.00000000000E+00  0.26422768749E+04  0.26422768749E+04  0.00000000000E+00 0.  1.
         -2   -1    0    0    0  501 -0.00000000000E+00 -0.00000000000E+00 -0.22924166256E+04  0.22924166256E+04  0.00000000000E+00 0. -1.
         23    2    1    2    0    0 -0.49959551906E+03 -0.12517506350E+04 -0.18884981363E+04  0.23218935470E+04  0.91044484205E+02 0.  0.
         11    1    3    3    0    0 -0.29272431729E+03 -0.79449125821E+03 -0.11200014974E+04  0.14040324923E+04  0.00000000000E+00 0. -1.
        -11    1    3    3    0    0 -0.20687120177E+03 -0.45725937680E+03 -0.76849663886E+03  0.91786105470E+03  0.00000000000E+00 0.  1.
         22    1    1    2    0    0  0.49959551906E+03  0.12517506350E+04  0.22383583856E+04  0.26127999535E+04  0.00000000000E+00 0.  1.
<mgrwt>
<rscale>  0 0.49222757E+04</rscale>
<asrwt>0</asrwt>
<pdfrwt beam="1">  1        2 0.40650413E+00 0.49222757E+04</pdfrwt>
<pdfrwt beam="2">  1       -2 0.35267948E+00 0.49222757E+04</pdfrwt>
<totfact> 0.31498927E-02</totfact>
</mgrwt>
</event>
<event>
 6    1  0.1719556E-004  0.9718249E+03  0.7818608E-02  0.9339998E-01
          4   -1    0    0  501    0  0.00000000000E+00  0.00000000000E+00  0.11680894073E+03  0.11680894073E+03  0.00000000000E+00 0.  1.
         -4   -1    0    0    0  501 -0.00000000000E+00 -0.00000000000E+00 -0.20213429227E+04  0.20213429227E+04  0.00000000000E+00 0. -1.
         23    2    1    2    0    0 -0.19367723592E+03  0.38386449480E+03 -0.14371818546E+04  0.15031079019E+04  0.94756844554E+02 0.  0.
         11    1    3    3    0    0 -0.11967833201E+03  0.13653134984E+03 -0.55674123518E+03  0.58559757137E+03  0.00000000000E+00 0. -1.
        -11    1    3    3    0    0 -0.73998903910E+02  0.24733314496E+03 -0.88044061942E+03  0.91751033057E+03  0.00000000000E+00 0.  1.
         22    1    1    2    0    0  0.19367723592E+03 -0.38386449480E+03 -0.46735212739E+03  0.63504396152E+03  0.00000000000E+00 0.  1.
<mgrwt>
<rscale>  0 0.97182493E+03</rscale>
<asrwt>0</asrwt>
<pdfrwt beam="1">  1        4 0.17970608E-01 0.97182493E+03</pdfrwt>
<pdfrwt beam="2">  1       -4 0.31097581E+00 0.97182493E+03</pdfrwt>
<totfact> 0.15089399E+00</totfact>
</mgrwt>
</event>
<event>
 6    1  0.1719556E-004  0.2465376E+04  0.7818608E-02  0.8415425E-01
         -2   -1    0    0    0  501 -0.00000000000E+00  0.00000000000E+00  0.70951935856E+03  0.70951935856E+03  0.00000000000E+00 0. -1.
          2   -1    0    0  501    0  0.00000000000E+00 -0.00000000000E+00 -0.21416178753E+04  0.21416178753E+04  0.00000000000E+00 0.  1.
         23    2    1    2    0    0 -0.79501377435E+03 -0.59650471884E+03  0.12301007780E+03  0.10055404410E+04  0.90085061278E+02 0.  0.
         11    1    3    3    0    0 -0.35872156989E+03 -0.24248876207E+03  0.93129599925E+02  0.44289399050E+03  0.00000000000E+00 0. -1.
        -11    1    3    3    0    0 -0.43629220446E+03 -0.35401595677E+03  0.29880477871E+02  0.56264645051E+03  0.00000000000E+00 0.  1.
         22    1    1    2    0    0  0.79501377435E+03  0.59650471884E+03 -0.15551085946E+04  0.18455967929E+04  0.00000000000E+00 0.  1.
<mgrwt>
<rscale>  0 0.24653757E+04</rscale>
<asrwt>0</asrwt>
<pdfrwt beam="1">  1        2 0.32947968E+00 0.24653757E+04</pdfrwt>
<pdfrwt beam="2">  1       -2 0.10915682E+00 0.24653757E+04</pdfrwt>
<totfact> 0.33338136E+00</totfact>
</mgrwt>
</event>
<event>
 6    1  0.1719556E-004  0.2845790E+04  0.7818608E-02  0.8289192E-01
         -1   -1    0    0    0  501 -0.00000000000E+00  0.00000000000E+00  0.67760424676E+03  0.67760424676E+03  0.00000000000E+00 0. -1.
          1   -1    0    0  501    0  0.00000000000E+00 -0.00000000000E+00 -0.29879242487E+04  0.29879242487E+04  0.00000000000E+00 0.  1.
         23    2    1    2    0    0 -0.60567892857E+03  0.94289885971E+03 -0.22824497020E+04  0.25445102182E+04  0.95133509256E+02 0.  0.
         11    1    3    3    0    0 -0.23188103224E+03  0.44591450149E+03 -0.99443561784E+03  0.11142310145E+04  0.00000000000E+00 0.  1.
        -11    1    3    3    0    0 -0.37379789633E+03  0.49698435822E+03 -0.12880140841E+04  0.14302792037E+04  0.00000000000E+00 0. -1.
         22    1    1    2    0    0  0.60567892857E+03 -0.94289885971E+03 -0.27870299950E+02  0.11210182772E+04  0.00000000000E+00 0. -1.
<mgrwt>
<rscale>  0 0.28457900E+04</rscale>
<asrwt>0</asrwt>
<pdfrwt beam="1">  1        1 0.45968065E+00 0.28457900E+04</pdfrwt>
<pdfrwt beam="2">  1       -1 0.10424681E+00 0.28457900E+04</pdfrwt>
<totfact> 0.45512387E-01</totfact>
</mgrwt>
</event>
<event>
 6    1  0.1719556E-004  0.1397616E+04  0.7818608E-02  0.8955546E-01
          2   -1    0    0  501    0  0.00000000000E+00  0.00000000000E+00  0.99046517038E+03  0.99046517038E+03  0.00000000000E+00 0.  1.
         -2   -1    0    0    0  501 -0.00000000000E+00 -0.00000000000E+00 -0.49303360251E+03  0.49303360251E+03  0.00000000000E+00 0. -1.
         23    2    1    2    0    0 -0.40811236928E+03  0.28680741584E+03 -0.26497476709E+03  0.57241281684E+03  0.92901054646E+02 0.  0.
         11    1    3    3    0    0 -0.12515875742E+03  0.10152946930E+03 -0.13446194387E+03  0.20988797499E+03  0.00000000000E+00 0. -1.
        -11    1    3    3    0    0 -0.28295361186E+03  0.18527794653E+03 -0.13051282322E+03  0.36252484185E+03  0.00000000000E+00 0.  1.
         22    1    1    2    0    0  0.40811236928E+03 -0.28680741584E+03  0.76240633495E+03  0.91108595605E+03  0.00000000000E+00 0.  1.
<mgrwt>
<rscale>  0 0.13976160E+04</rscale>
<asrwt>0</asrwt>
<pdfrwt beam="1">  1        2 0.15237926E+00 0.13976160E+04</pdfrwt>
<pdfrwt beam="2">  1       -2 0.75851323E-01 0.13976160E+04</pdfrwt>
<totfact> 0.38739159E+01</totfact>
</mgrwt>
</event>
<event>
 6    1  0.1719556E-004  0.4823421E+04  0.7818608E-02  0.7856339E-01
         -1   -1    0    0    0  501 -0.00000000000E+00  0.00000000000E+00  0.17741702563E+04  0.17741702563E+04  0.00000000000E+00 0. -1.
          1   -1    0    0  501    0  0.00000000000E+00 -0.00000000000E+00 -0.32783482022E+04  0.32783482022E+04  0.00000000000E+00 0.  1.
         23    2    1    2    0    0  0.57273907699E+03 -0.69545516569E+03 -0.30947867213E+04  0.32244801070E+04  0.88764702681E+02 0.  0.
         13    1    3    3    0    0  0.28374605237E+03 -0.40848518479E+03 -0.16398183797E+04  0.17135857979E+04  0.00000000000E+00 0.  1.
        -13    1    3    3    0    0  0.28899302462E+03 -0.28696998090E+03 -0.14549683416E+04  0.15108943091E+04  0.00000000000E+00 0. -1.
         22    1    1    2    0    0 -0.57273907699E+03  0.69545516569E+03  0.15906087754E+04  0.18280383514E+04  0.00000000000E+00 0. -1.
<mgrwt>
<rscale>  0 0.48234211E+04</rscale>
<asrwt>0</asrwt>
<pdfrwt beam="1">  1        1 0.50436126E+00 0.48234211E+04</pdfrwt>
<pdfrwt beam="2">  1       -1 0.27294927E+00 0.48234211E+04</pdfrwt>
<totfact> 0.13418981E-02</totfact>
</mgrwt>
</event>
<event>
 6    1  0.1719556E-004  0.1985199E+04  0.7818608E-02  0.8613572E-01
         -2   -1    0    0    0  501 -0.00000000000E+00  0.00000000000E+00  0.65838698346E+03  0.65838698346E+03  0.00000000000E+00 0. -1.
          2   -1    0    0  501    0  0.00000000000E+00 -0.00000000000E+00 -0.14964664766E+04  0.14964664766E+04  0.00000000000E+00 0.  1.
         23    2    1    2    0    0  0.32826260176E+03  0.71571970212E+02 -0.14313139206E+04  0.14730866609E+04  0.91901515195E+02 0.  0.
         13    1    3    3    0    0  0.12395801545E+03 -0.26326302711E+01 -0.66886370116E+03  0.68025816501E+03  0.00000000000E+00 0. -1.
        -13    1    3    3    0    0  0.20430458630E+03  0.74204600483E+02 -0.76245021944E+03  0.79282849585E+03  0.00000000000E+00 0.  1.
         22    1    1    2    0    0 -0.32826260176E+03 -0.71571970212E+02  0.59323442743E+03  0.68176679922E+03  0.00000000000E+00 0. -1.
<mgrwt>
<rscale>  0 0.19851993E+04</rscale>
<asrwt>0</asrwt>
<pdfrwt beam="1">  1        2 0.23022561E+00 0.19851993E+04</pdfrwt>
<pdfrwt beam="2">  1       -2 0.10129031E+00 0.19851993E+04</pdfrwt>
<totfact> 0.95046142E+00</totfact>
</mgrwt>
</event>
<event>
 6    1  0.1719556E-004  0.9738349E+03  0.7818608E-02  0.9337717E-01
         -1   -1    0    0    0  501 -0.00000000000E+00  0.00000000000E+00  0.16097093293E+03  0.16097093293E+03  0.00000000000E+00 0. -1.
          1   -1    0    0  501    0  0.00000000000E+00 -0.00000000000E+00 -0.14728657959E+04  0.14728657959E+04  0.00000000000E+00 0.  1.
         23    2    1    2    0    0 -0.12541877851E+03 -0.45976668143E+03 -0.77721639267E+03  0.91759910208E+03  0.10395922151E+03 0.  0.
         13    1    3    3    0    0 -0.11357364638E+03 -0.22475179695E+03 -0.42525891304E+03  0.49422412578E+03  0.00000000000E+00 0.  1.
        -13    1    3    3    0    0 -0.11845132122E+02 -0.23501488448E+03 -0.35195747963E+03  0.42337497630E+03  0.00000000000E+00 0. -1.
         22    1    1    2    0    0  0.12541877851E+03  0.45976668143E+03 -0.53467847025E+03  0.71623762670E+03  0.00000000000E+00 0.  1.
<mgrwt>
<rscale>  0 0.97383486E+03</rscale>
<asrwt>0</asrwt>
<pdfrwt beam="1">  1        1 0.22659474E+00 0.97383486E+03</pdfrwt>
<pdfrwt beam="2">  1       -1 0.24764758E-01 0.97383486E+03</pdfrwt>
<totfact> 0.97657968E+01</totfact>
</mgrwt>
</event>
<event>
 6    1  0.1719556E-004  0.9123702E+03  0.7818608E-02  0.9410249E-01
         -1   -1    0    0    0  501 -0.00000000000E+00  0.00000000000E+00  0.12628237989E+04  0.12628237989E+04  0.00000000000E+00 0. -1.
          1   -1    0    0  501    0  0.00000000000E+00 -0.00000000000E+00 -0.16479326953E+03  0.16479326953E+03  0.00000000000E+00 0.  1.
         23    2    1    2    0    0 -0.35388721056E+03 -0.18399042830E+03  0.88549472496E+03  0.97566562895E+03  0.93455209013E+02 0.  0.
         11    1    3    3    0    0 -0.19485396287E+03 -0.13843376557E+03  0.44498884222E+03  0.50512082119E+03  0.00000000000E+00 0. -1.
        -11    1    3    3    0    0 -0.15903324769E+03 -0.45556662723E+02  0.44050588273E+03  0.47054480776E+03  0.00000000000E+00 0.  1.
         22    1    1    2    0    0  0.35388721056E+03  0.18399042830E+03  0.21253580446E+03  0.45195143952E+03  0.00000000000E+00 0.  1.
<mgrwt>
<rscale>  0 0.91237024E+03</rscale>
<asrwt>0</asrwt>
<pdfrwt beam="1">  1        1 0.25352812E-01 0.91237024E+03</pdfrwt>
<pdfrwt beam="2">  1       -1 0.19428058E+00 0.91237024E+03</pdfrwt>
<totfact> 0.31951922E+01</totfact>
</mgrwt>
</event>
<event>
 6    1  0.1719556E-004  0.1846525E+04  0.7818608E-02  0.8681942E-01
         -2   -1    0    0    0  501 -0.00000000000E+00  0.00000000000E+00  0.24011500717E+04  0.24011500717E+04  0.00000000000E+00 0. -1.
          2   -1    0    0  501    0  0.00000000000E+00 -0.00000000000E+00 -0.35500231922E+03  0.35500231922E+03  0.00000000000E+00 0.  1.
         23    2    1    2    0    0  0.21413036904E+03  0.27512846001E+03  0.22980059705E+04  0.23260593238E+04  0.90404939890E+02 0.  0.
         13    1    3    3    0    0  0.26250252164E+02  0.16431857685E+02  0.41045599517E+03  0.41162264959E+03  0.00000000000E+00 0. -1.
        -13    1    3    3    0    0  0.18788011687E+03  0.25869660233E+03  0.18875499753E+04  0.19144366742E+04  0.00000000000E+00 0.  1.
         22    1    1    2    0    0 -0.21413036904E+03 -0.27512846001E+03 -0.25185821794E+03  0.43009306714E+03  0.00000000000E+00 0.  1.
<mgrwt>
<rscale>  0 0.18465252E+04</rscale>
<asrwt>0</asrwt>
<pdfrwt beam="1">  1        2 0.54615743E-01 0.18465252E+04</pdfrwt>
<pdfrwt beam="2">  1       -2 0.36940769E+00 0.18465252E+04</pdfrwt>
<totfact> 0.10057546E+00</totfact>
</mgrwt>
</event>
<event>
 6    1  0.1719556E-004  0.3063970E+04  0.7818608E-02  0.8225696E-01
          1   -1    0    0  501    0  0.00000000000E+00  0.00000000000E+00  0.18405154118E+04  0.18405154118E+04  0.00000000000E+00 0.  1.
         -1   -1    0    0    0  501 -0.00000000000E+00 -0.00000000000E+00 -0.12751746679E+04  0.12751746679E+04  0.00000000000E+00 0. -1.
         23    2    1    2    0    0  0.44351640880E+03 -0.14649550683E+04  0.28579921231E+03  0.15597518981E+04  0.91348984393E+02 0.  0.
         11    1    3    3    0    0  0.15085704962E+03 -0.59930424073E+03  0.80841939687E+02  0.62326466416E+03  0.00000000000E+00 0. -1.
        -11    1    3    3    0    0  0.29265935918E+03 -0.86565082756E+03  0.20495727263E+03  0.93648723396E+03  0.00000000000E+00 0.  1.
         22    1    1    2    0    0 -0.44351640880E+03  0.14649550683E+04  0.27954153158E+03  0.15559381816E+04  0.00000000000E+00 0.  1.
<mgrwt>
<rscale>  0 0.30639704E+04</rscale>
<asrwt>0</asrwt>
<pdfrwt beam="1">  1        1 0.28315622E+00 0.30639704E+04</pdfrwt>
<pdfrwt beam="2">  1       -1 0.19618072E+00 0.30639704E+04</pdfrwt>
<totfact> 0.51773595E-01</totfact>
</mgrwt>
</event>
<event>
 6    1  0.1719556E-004  0.1698912E+04  0.7818608E-02  0.8761985E-01
          1   -1    0    0  501    0  0.00000000000E+00  0.00000000000E+00  0.17941246746E+04  0.17941246746E+04  0.00000000000E+00 0.  1.
         -1   -1    0    0    0  501 -0.00000000000E+00 -0.00000000000E+00 -0.40218789662E+03  0.40218789662E+03  0.00000000000E+00 0. -1.
         23    2    1    2    0    0 -0.68836308298E+02 -0.83750481577E+03  0.84842964237E+03  0.11955364922E+04  0.57635860761E+02 0.  0.
         11    1    3    3    0    0 -0.13117743351E+02 -0.30471864902E+03  0.34378802373E+03  0.45958213141E+03  0.00000000000E+00 0. -1.
        -11    1    3    3    0    0 -0.55718564947E+02 -0.53278616675E+03  0.50464161864E+03  0.73595436083E+03  0.00000000000E+00 0.  1.
         22    1    1    2    0    0  0.68836308298E+02  0.83750481577E+03  0.54350713559E+03  0.10007760790E+04  0.00000000000E+00 0. -1.
<mgrwt>
<rscale>  0 0.16989117E+04</rscale>
<asrwt>0</asrwt>
<pdfrwt beam="1">  1        1 0.27601918E+00 0.16989117E+04</pdfrwt>
<pdfrwt beam="2">  1       -1 0.61875062E-01 0.16989117E+04</pdfrwt>
<totfact> 0.10367122E+01</totfact>
</mgrwt>
</event>
<event>
 6    1  0.1719556E-004  0.2808038E+04  0.7818608E-02  0.8300777E-01
         -2   -1    0    0    0  501 -0.00000000000E+00  0.00000000000E+00  0.18191822243E+04  0.18191822243E+04  0.00000000000E+00 0. -1.
          2   -1    0    0  501    0  0.00000000000E+00 -0.00000000000E+00 -0.10836022741E+04  0.10836022741E+04  0.00000000000E+00 0.  1.
         23    2    1    2    0    0 -0.10090878404E+04  0.97183091213E+03  0.29877027260E+03  0.14352981149E+04  0.90018950639E+02 0.  0.
         11    1    3    3    0    0 -0.36977660561E+03  0.29830975552E+03  0.11024616944E+03  0.48772704064E+03  0.00000000000E+00 0. -1.
        -11    1    3    3    0    0 -0.63931123477E+03  0.67352115661E+03  0.18852410316E+03  0.94757107426E+03  0.00000000000E+00 0.  1.
         22    1    1    2    0    0  0.10090878404E+04 -0.97183091213E+03  0.43680967755E+03  0.14674863835E+04  0.00000000000E+00 0.  1.
<mgrwt>
<rscale>  0 0.28080385E+04</rscale>
<asrwt>0</asrwt>
<pdfrwt beam="1">  1        2 0.16670804E+00 0.28080385E+04</pdfrwt>
<pdfrwt beam="2">  1       -2 0.27987419E+00 0.28080385E+04</pdfrwt>
<totfact> 0.81813019E-01</totfact>
</mgrwt>
</event>
<event>
 6    1  0.1719556E-004  0.1902770E+04  0.7818608E-02  0.8653479E-01
          1   -1    0    0  501    0  0.00000000000E+00  0.00000000000E+00  0.11457526498E+04  0.11457526498E+04  0.00000000000E+00 0.  1.
         -1   -1    0    0    0  501 -0.00000000000E+00 -0.00000000000E+00 -0.78999037848E+03  0.78999037848E+03  0.00000000000E+00 0. -1.
         23    2    1    2    0    0 -0.26660179137E+03 -0.45200014559E+03  0.98295601748E+03  0.11179700513E+04  0.90960741457E+02 0.  0.
         11    1    3    3    0    0 -0.18104424454E+03 -0.37347904590E+03  0.73285000744E+03  0.84221894399E+03  0.00000000000E+00 0. -1.
        -11    1    3    3    0    0 -0.85557546823E+02 -0.78521099695E+02  0.25010601004E+03  0.27575110729E+03  0.00000000000E+00 0.  1.
         22    1    1    2    0    0  0.26660179137E+03  0.45200014559E+03 -0.62719374613E+03  0.81777297703E+03  0.00000000000E+00 0. -1.
<mgrwt>
<rscale>  0 0.19027702E+04</rscale>
<asrwt>0</asrwt>
<pdfrwt beam="1">  1        1 0.17626964E+00 0.19027702E+04</pdfrwt>
<pdfrwt beam="2">  1       -1 0.12153698E+00 0.19027702E+04</pdfrwt>
<totfact> 0.65768716E+00</totfact>
</mgrwt>
</event>
<event>
 6    1  0.1719556E-004  0.1655399E+04  0.7818608E-02  0.8787219E-01
         -1   -1    0    0    0  501 -0.00000000000E+00  0.00000000000E+00  0.43636295183E+03  0.43636295183E+03  0.00000000000E+00 0. -1.
          1   -1    0    0  501    0  0.00000000000E+00 -0.00000000000E+00 -0.15699926226E+04  0.15699926226E+04  0.00000000000E+00 0.  1.
         23    2    1    2    0    0  0.34596463846E+03 -0.16034813201E+03  0.31838888078E+03  0.50510245501E+03  0.91399978952E+02 0.  0.
         13    1    3    3    0    0  0.36057552418E+02 -0.51286936850E+02  0.39025533521E+02  0.73847743665E+02  0.00000000000E+00 0. -1.
        -13    1    3    3    0    0  0.30990708604E+03 -0.10906119516E+03  0.27936334726E+03  0.43125471135E+03  0.00000000000E+00 0.  1.
         22    1    1    2    0    0 -0.34596463846E+03  0.16034813201E+03 -0.14520185516E+04  0.15012531194E+04  0.00000000000E+00 0.  1.
<mgrwt>
<rscale>  0 0.16553992E+04</rscale>
<asrwt>0</asrwt>
<pdfrwt beam="1">  1        1 0.24153733E+00 0.16553992E+04</pdfrwt>
<pdfrwt beam="2">  1       -1 0.67132761E-01 0.16553992E+04</pdfrwt>
<totfact> 0.12562347E+01</totfact>
</mgrwt>
</event>
<event>
 6    1  0.1719556E-004  0.2512144E+04  0.7818608E-02  0.8398672E-01
          2   -1    0    0  501    0  0.00000000000E+00  0.00000000000E+00  0.14426081793E+04  0.14426081793E+04  0.00000000000E+00 0.  1.
         -2   -1    0    0    0  501 -0.00000000000E+00 -0.00000000000E+00 -0.10936558519E+04  0.10936558519E+04  0.00000000000E+00 0. -1.
         23    2    1    2    0    0  0.46575221030E+03  0.84809800861E+03  0.98067968840E+03  0.13807231136E+04  0.92023429354E+02 0.  0.
         11    1    3    3    0    0  0.44034958825E+03  0.77892444842E+03  0.93427628775E+03  0.12936395317E+04  0.00000000000E+00 0.  1.
        -11    1    3    3    0    0  0.25402622059E+02  0.69173560193E+02  0.46403400650E+02  0.87083581857E+02  0.00000000000E+00 0. -1.
         22    1    1    2    0    0 -0.46575221030E+03 -0.84809800861E+03 -0.63172736094E+03  0.11555409176E+04  0.00000000000E+00 0. -1.
<mgrwt>
<rscale>  0 0.25121440E+04</rscale>
<asrwt>0</asrwt>
<pdfrwt beam="1">  1        2 0.22193972E+00 0.25121440E+04</pdfrwt>
<pdfrwt beam="2">  1       -2 0.16825475E+00 0.25121440E+04</pdfrwt>
<totfact> 0.26742452E+00</totfact>
</mgrwt>
</event>
<event>
 6    1  0.1719556E-004  0.1151948E+04  0.7818608E-02  0.9155988E-01
         -1   -1    0    0    0  501 -0.00000000000E+00  0.00000000000E+00  0.28965271018E+03  0.28965271018E+03  0.00000000000E+00 0.  1.
          1   -1    0    0  501    0  0.00000000000E+00 -0.00000000000E+00 -0.11453230915E+04  0.11453230915E+04  0.00000000000E+00 0. -1.
         23    2    1    2    0    0  0.95928698303E+02 -0.43389563641E+03 -0.87984736072E+03  0.98994516811E+03  0.91609602400E+02 0.  0.
         11    1    3    3    0    0  0.93148453931E+02 -0.21033291263E+03 -0.45667641157E+03  0.51134128866E+03  0.00000000000E+00 0. -1.
        -11    1    3    3    0    0  0.27802443717E+01 -0.22356272378E+03 -0.42317094915E+03  0.47860387945E+03  0.00000000000E+00 0.  1.
         22    1    1    2    0    0 -0.95928698303E+02  0.43389563641E+03  0.24176979431E+02  0.44503063354E+03  0.00000000000E+00 0.  1.
<mgrwt>
<rscale>  0 0.11519478E+04</rscale>
<asrwt>0</asrwt>
<pdfrwt beam="1">  1        1 0.17620355E+00 0.11519478E+04</pdfrwt>
<pdfrwt beam="2">  1       -1 0.44561956E-01 0.11519478E+04</pdfrwt>
<totfact> 0.58049468E+01</totfact>
</mgrwt>
</event>
<event>
 6    1  0.1719556E-004  0.1298541E+04  0.7818608E-02  0.9030723E-01
         -2   -1    0    0    0  501 -0.00000000000E+00  0.00000000000E+00  0.18326765339E+03  0.18326765339E+03  0.00000000000E+00 0. -1.
          2   -1    0    0  501    0  0.00000000000E+00 -0.00000000000E+00 -0.23001989456E+04  0.23001989456E+04  0.00000000000E+00 0.  1.
         23    2    1    2    0    0  0.49888576527E+03  0.37060159050E+03 -0.14008095770E+04  0.15352773475E+04  0.92609486547E+02 0.  0.
         11    1    3    3    0    0  0.32099142200E+03  0.18359062502E+03 -0.79635446147E+03  0.87802132029E+03  0.00000000000E+00 0. -1.
        -11    1    3    3    0    0  0.17789434327E+03  0.18701096548E+03 -0.60445511551E+03  0.65725602717E+03  0.00000000000E+00 0.  1.
         22    1    1    2    0    0 -0.49888576527E+03 -0.37060159050E+03 -0.71612171519E+03  0.94818925149E+03  0.00000000000E+00 0. -1.
<mgrwt>
<rscale>  0 0.12985408E+04</rscale>
<asrwt>0</asrwt>
<pdfrwt beam="1">  1        2 0.35387679E+00 0.12985408E+04</pdfrwt>
<pdfrwt beam="2">  1       -2 0.28195021E-01 0.12985408E+04</pdfrwt>
<totfact> 0.51280699E+01</totfact>
</mgrwt>
</event>
<event>
 6    1  0.1719556E-004  0.1804708E+04  0.7818608E-02  0.8703800E-01
         -2   -1    0    0    0  501 -0.00000000000E+00  0.00000000000E+00  0.16300131200E+04  0.16300131200E+04  0.00000000000E+00 0. -1.
          2   -1    0    0  501    0  0.00000000000E+00 -0.00000000000E+00 -0.49953149779E+03  0.49953149779E+03  0.00000000000E+00 0.  1.
         23    2    1    2    0    0 -0.40153355757E+03  0.58442556473E+03  0.12210886569E+04  0.14147075222E+04  0.86933462513E+02 0.  0.
         13    1    3    3    0    0 -0.68807652710E+02  0.13380243504E+03  0.32172936199E+03  0.35517230615E+03  0.00000000000E+00 0. -1.
        -13    1    3    3    0    0 -0.33272590486E+03  0.45062312969E+03  0.89935929487E+03  0.10595352161E+04  0.00000000000E+00 0.  1.
         22    1    1    2    0    0  0.40153355757E+03 -0.58442556473E+03 -0.90607034612E+02  0.71483709563E+03  0.00000000000E+00 0.  1.
<mgrwt>
<rscale>  0 0.18047082E+04</rscale>
<asrwt>0</asrwt>
<pdfrwt beam="1">  1        2 0.76851001E-01 0.18047082E+04</pdfrwt>
<pdfrwt beam="2">  1       -2 0.25077125E+00 0.18047082E+04</pdfrwt>
<totfact> 0.36977253E+00</totfact>
</mgrwt>
</event>
<event>
 6    1  0.1719556E-004  0.6094287E+04  0.7818608E-02  0.7678820E-01
         -2   -1    0    0    0  501 -0.00000000000E+00  0.00000000000E+00  0.31369374925E+04  0.31369374925E+04  0.00000000000E+00 0.  1.
          2   -1    0    0  501    0  0.00000000000E+00 -0.00000000000E+00 -0.29599198590E+04  0.29599198590E+04  0.00000000000E+00 0. -1.
         23    2    1    2    0    0  0.72972886454E+03 -0.28914144823E+04  0.71184456074E+03  0.30672003137E+04  0.90626496364E+02 0.  0.
         11    1    3    3    0    0  0.16331403731E+03 -0.51715467792E+03  0.14434287336E+03  0.56120878536E+03  0.00000000000E+00 0.  1.
        -11    1    3    3    0    0  0.56641482723E+03 -0.23742598043E+04  0.56750168738E+03  0.25059915284E+04  0.00000000000E+00 0. -1.
         22    1    1    2    0    0 -0.72972886454E+03  0.28914144823E+04 -0.53482692725E+03  0.30296570377E+04  0.00000000000E+00 0. -1.
<mgrwt>
<rscale>  0 0.60942870E+04</rscale>
<asrwt>0</asrwt>
<pdfrwt beam="1">  1        2 0.45537228E+00 0.60942870E+04</pdfrwt>
<pdfrwt beam="2">  1       -2 0.48260577E+00 0.60942870E+04</pdfrwt>
<totfact> 0.26418666E-03</totfact>
</mgrwt>
</event>
<event>
 6    1  0.1719556E-004  0.2501335E+04  0.7818608E-02  0.8402510E-01
         -2   -1    0    0    0  501 -0.00000000000E+00  0.00000000000E+00  0.52910781630E+03  0.52910781630E+03  0.00000000000E+00 0. -1.
          2   -1    0    0  501    0  0.00000000000E+00 -0.00000000000E+00 -0.29562397826E+04  0.29562397826E+04  0.00000000000E+00 0.  1.
         23    2    1    2    0    0 -0.91639395439E+03  0.84694962589E+03 -0.12911476387E+04  0.17978755425E+04  0.90513497246E+02 0.  0.
         13    1    3    3    0    0 -0.38315103603E+03  0.31937967539E+03 -0.46402120834E+03  0.68126630274E+03  0.00000000000E+00 0. -1.
        -13    1    3    3    0    0 -0.53324291836E+03  0.52756995050E+03 -0.82712643032E+03  0.11166092398E+04  0.00000000000E+00 0.  1.
         22    1    1    2    0    0  0.91639395439E+03 -0.84694962589E+03 -0.11359843277E+04  0.16874720564E+04  0.00000000000E+00 0.  1.
<mgrwt>
<rscale>  0 0.25013353E+04</rscale>
<asrwt>0</asrwt>
<pdfrwt beam="1">  1        2 0.45480612E+00 0.25013353E+04</pdfrwt>
<pdfrwt beam="2">  1       -2 0.81401203E-01 0.25013353E+04</pdfrwt>
<totfact> 0.21982410E+00</totfact>
</mgrwt>
</event>
<event>
 6    1  0.1719556E-004  0.3148286E+04  0.7818608E-02  0.8202610E-01
         -2   -1    0    0    0  501 -0.00000000000E+00  0.00000000000E+00  0.92363438283E+03  0.92363438283E+03  0.00000000000E+00 0.  1.
          2   -1    0    0  501    0  0.00000000000E+00 -0.00000000000E+00 -0.26827992590E+04  0.26827992590E+04  0.00000000000E+00 0. -1.
         23    2    1    2    0    0  0.21380910992E+03 -0.90108168595E+03 -0.23362777579E+04  0.25152316355E+04  0.10263468235E+03 0.  0.
         13    1    3    3    0    0  0.21344535786E+02 -0.83410474988E+02 -0.14740636476E+03  0.17070891283E+03  0.00000000000E+00 0. -1.
        -13    1    3    3    0    0  0.19246457414E+03 -0.81767121097E+03 -0.21888713931E+04  0.23445227227E+04  0.00000000000E+00 0.  1.
         22    1    1    2    0    0 -0.21380910992E+03  0.90108168595E+03  0.57711288174E+03  0.10912020063E+04  0.00000000000E+00 0.  1.
<mgrwt>
<rscale>  0 0.31482857E+04</rscale>
<asrwt>0</asrwt>
<pdfrwt beam="1">  1        2 0.41273835E+00 0.31482857E+04</pdfrwt>
<pdfrwt beam="2">  1       -2 0.14209760E+00 0.31482857E+04</pdfrwt>
<totfact> 0.79410366E-01</totfact>
</mgrwt>
</event>
<event>
 6    1  0.1719556E-004  0.2169549E+04  0.7818608E-02  0.8531210E-01
         -2   -1    0    0    0  501 -0.00000000000E+00  0.00000000000E+00  0.39971123311E+03  0.39971123311E+03  0.00000000000E+00 0. -1.
          2   -1    0    0  501    0  0.00000000000E+00 -0.00000000000E+00 -0.29439645534E+04  0.29439645534E+04  0.00000000000E+00 0.  1.
         23    2    1    2    0    0 -0.24347038914E+03  0.94084687576E+03 -0.20105139495E+04  0.22349159433E+04  0.90621511468E+02 0.  0.
         13    1    3    3    0    0 -0.93056917224E+02  0.48609909659E+03 -0.10957789425E+04  0.12023657565E+04  0.00000000000E+00 0. -1.
        -13    1    3    3    0    0 -0.15041347191E+03  0.45474777916E+03 -0.91473500695E+03  0.10325501867E+04  0.00000000000E+00 0.  1.
         22    1    1    2    0    0  0.24347038914E+03 -0.94084687576E+03 -0.53373937076E+03  0.11087598432E+04  0.00000000000E+00 0. -1.
<mgrwt>
<rscale>  0 0.21695490E+04</rscale>
<asrwt>0</asrwt>
<pdfrwt beam="1">  1        2 0.45291763E+00 0.21695490E+04</pdfrwt>
<pdfrwt beam="2">  1       -2 0.61494035E-01 0.21695490E+04</pdfrwt>
<totfact> 0.42559517E+00</totfact>
</mgrwt>
</event>
<event>
 6    1  0.1719556E-004  0.2463630E+04  0.7818608E-02  0.8416058E-01
         -2   -1    0    0    0  501 -0.00000000000E+00  0.00000000000E+00  0.88000042391E+03  0.88000042391E+03  0.00000000000E+00 0. -1.
          2   -1    0    0  501    0  0.00000000000E+00 -0.00000000000E+00 -0.17242806614E+04  0.17242806614E+04  0.00000000000E+00 0.  1.
         23    2    1    2    0    0 -0.66008135102E+03 -0.56175420026E+03 -0.13456769382E+04  0.16029450663E+04  0.85506094536E+02 0.  0.
         13    1    3    3    0    0 -0.20705521791E+03 -0.17800304547E+03 -0.49942867981E+03  0.56919764025E+03  0.00000000000E+00 0.  1.
        -13    1    3    3    0    0 -0.45302613312E+03 -0.38375115480E+03 -0.84624825838E+03  0.10337474261E+04  0.00000000000E+00 0. -1.
         22    1    1    2    0    0  0.66008135102E+03  0.56175420026E+03  0.50139670069E+03  0.10013360190E+04  0.00000000000E+00 0. -1.
<mgrwt>
<rscale>  0 0.24636296E+04</rscale>
<asrwt>0</asrwt>
<pdfrwt beam="1">  1        2 0.26527394E+00 0.24636296E+04</pdfrwt>
<pdfrwt beam="2">  1       -2 0.13538468E+00 0.24636296E+04</pdfrwt>
<totfact> 0.33310897E+00</totfact>
</mgrwt>
</event>
<event>
 6    1  0.1719556E-004  0.3537788E+04  0.7818608E-02  0.8104893E-01
          2   -1    0    0  501    0  0.00000000000E+00  0.00000000000E+00  0.25086286028E+04  0.25086286028E+04  0.00000000000E+00 0.  1.
         -2   -1    0    0    0  501 -0.00000000000E+00 -0.00000000000E+00 -0.12472894806E+04  0.12472894806E+04  0.00000000000E+00 0. -1.
         23    2    1    2    0    0 -0.90366889836E+03 -0.74376792722E+03 -0.77539304990E+03  0.14068573885E+04  0.90582129737E+02 0.  0.
         11    1    3    3    0    0 -0.63889084626E+03 -0.47515380564E+03 -0.54524025455E+03  0.96500755833E+03  0.00000000000E+00 0. -1.
        -11    1    3    3    0    0 -0.26477805210E+03 -0.26861412158E+03 -0.23015279535E+03  0.44184983014E+03  0.00000000000E+00 0.  1.
         22    1    1    2    0    0  0.90366889836E+03  0.74376792722E+03  0.20367321721E+04  0.23490606949E+04  0.00000000000E+00 0.  1.
<mgrwt>
<rscale>  0 0.35377880E+04</rscale>
<asrwt>0</asrwt>
<pdfrwt beam="1">  1        2 0.38594286E+00 0.35377880E+04</pdfrwt>
<pdfrwt beam="2">  1       -2 0.19189069E+00 0.35377880E+04</pdfrwt>
<totfact> 0.42433500E-01</totfact>
</mgrwt>
</event>
<event>
 6    1  0.1719556E-004  0.2436823E+04  0.7818608E-02  0.8425845E-01
          2   -1    0    0  501    0  0.00000000000E+00  0.00000000000E+00  0.17655231092E+04  0.17655231092E+04  0.00000000000E+00 0.  1.
         -2   -1    0    0    0  501 -0.00000000000E+00 -0.00000000000E+00 -0.84084213047E+03  0.84084213047E+03  0.00000000000E+00 0. -1.
         23    2    1    2    0    0  0.96358066292E+03 -0.73675610348E+03  0.36070690992E+03  0.12686941290E+04  0.90432672261E+02 0.  0.
         13    1    3    3    0    0  0.67487514063E+03 -0.46263228082E+03  0.24151964405E+03  0.85312180910E+03  0.00000000000E+00 0. -1.
        -13    1    3    3    0    0  0.28870552229E+03 -0.27412382267E+03  0.11918726587E+03  0.41557231994E+03  0.00000000000E+00 0.  1.
         22    1    1    2    0    0 -0.96358066292E+03  0.73675610348E+03  0.56397406886E+03  0.13376711107E+04  0.00000000000E+00 0. -1.
<mgrwt>
<rscale>  0 0.24368227E+04</rscale>
<asrwt>0</asrwt>
<pdfrwt beam="1">  1        2 0.27161894E+00 0.24368227E+04</pdfrwt>
<pdfrwt beam="2">  1       -2 0.12936033E+00 0.24368227E+04</pdfrwt>
<totfact> 0.35557021E+00</totfact>
</mgrwt>
</event>
<event>
 6    1  0.1719556E-004  0.5959816E+04  0.7818608E-02  0.7695404E-01
         -2   -1    0    0    0  501 -0.00000000000E+00  0.00000000000E+00  0.28612937511E+04  0.28612937511E+04  0.00000000000E+00 0. -1.
          2   -1    0    0  501    0  0.00000000000E+00 -0.00000000000E+00 -0.31034392731E+04  0.31034392731E+04  0.00000000000E+00 0.  1.
         23    2    1    2    0    0 -0.12348236610E+04  0.14718658105E+04 -0.23999243855E+04  0.30755829655E+04  0.91624689016E+02 0.  0.
         11    1    3    3    0    0 -0.66227139232E+03  0.85986384154E+03 -0.13600304286E+04  0.17400149395E+04  0.00000000000E+00 0.  1.
        -11    1    3    3    0    0 -0.57255226866E+03  0.61200196899E+03 -0.10398939569E+04  0.13355680260E+04  0.00000000000E+00 0. -1.
         22    1    1    2    0    0  0.12348236610E+04 -0.14718658105E+04  0.21577788635E+04  0.28891500587E+04  0.00000000000E+00 0. -1.
<mgrwt>
<rscale>  0 0.59598159E+04</rscale>
<asrwt>0</asrwt>
<pdfrwt beam="1">  1        2 0.47745220E+00 0.59598159E+04</pdfrwt>
<pdfrwt beam="2">  1       -2 0.44019904E+00 0.59598159E+04</pdfrwt>
<totfact> 0.40868068E-03</totfact>
</mgrwt>
</event>
<event>
 6    1  0.1719556E-004  0.2419763E+04  0.7818608E-02  0.8432142E-01
          2   -1    0    0  501    0  0.00000000000E+00  0.00000000000E+00  0.38484981891E+04  0.38484981891E+04  0.00000000000E+00 0.  1.
         -2   -1    0    0    0  501 -0.00000000000E+00 -0.00000000000E+00 -0.38035948957E+03  0.38035948957E+03  0.00000000000E+00 0. -1.
         23    2    1    2    0    0  0.69937844448E+02  0.11860319506E+04  0.13527749622E+04  0.18026823282E+04  0.90002156476E+02 0.  0.
         11    1    3    3    0    0  0.29051268881E+01  0.41132704803E+02  0.25170933953E+02  0.48310610457E+02  0.00000000000E+00 0.  1.
        -11    1    3    3    0    0  0.67032717560E+02  0.11448992458E+04  0.13276040282E+04  0.17543717177E+04  0.00000000000E+00 0. -1.
         22    1    1    2    0    0 -0.69937844448E+02 -0.11860319506E+04  0.21153637374E+04  0.24261753505E+04  0.00000000000E+00 0.  1.
<mgrwt>
<rscale>  0 0.24197626E+04</rscale>
<asrwt>0</asrwt>
<pdfrwt beam="1">  1        2 0.59207662E+00 0.24197626E+04</pdfrwt>
<pdfrwt beam="2">  1       -2 0.58516847E-01 0.24197626E+04</pdfrwt>
<totfact> 0.11090044E+00</totfact>
</mgrwt>
</event>
<event>
 6    1  0.1719556E-004  0.1222486E+04  0.7818608E-02  0.9093400E-01
         -2   -1    0    0    0  501 -0.00000000000E+00  0.00000000000E+00  0.20632927589E+03  0.20632927589E+03  0.00000000000E+00 0. -1.
          2   -1    0    0  501    0  0.00000000000E+00 -0.00000000000E+00 -0.18107838102E+04  0.18107838102E+04  0.00000000000E+00 0.  1.
         23    2    1    2    0    0  0.46629270643E+02 -0.32138709504E+03  0.42250816855E+02  0.33869047326E+03  0.86383745063E+02 0.  0.
         13    1    3    3    0    0  0.66620910575E+02 -0.18195143878E+03  0.39788282439E+02  0.19780742963E+03  0.00000000000E+00 0. -1.
        -13    1    3    3    0    0 -0.19991639932E+02 -0.13943565626E+03  0.24625344152E+01  0.14088304362E+03  0.00000000000E+00 0.  1.
         22    1    1    2    0    0 -0.46629270643E+02  0.32138709504E+03 -0.16467053511E+04  0.16784226128E+04  0.00000000000E+00 0.  1.
<mgrwt>
<rscale>  0 0.12224855E+04</rscale>
<asrwt>0</asrwt>
<pdfrwt beam="1">  1        2 0.27858212E+00 0.12224855E+04</pdfrwt>
<pdfrwt beam="2">  1       -2 0.31742966E-01 0.12224855E+04</pdfrwt>
<totfact> 0.77360117E+01</totfact>
</mgrwt>
</event>
<event>
 6    1  0.1719556E-004  0.1618746E+04  0.7818608E-02  0.8809113E-01
         -2   -1    0    0    0  501 -0.00000000000E+00  0.00000000000E+00  0.91778018691E+03  0.91778018691E+03  0.00000000000E+00 0. -1.
          2   -1    0    0  501    0  0.00000000000E+00 -0.00000000000E+00 -0.71377106762E+03  0.71377106762E+03  0.00000000000E+00 0.  1.
         23    2    1    2    0    0  0.55843917443E+03  0.20335676122E+03 -0.44774515091E+03  0.74951275617E+03  0.89918672296E+02 0.  0.
         11    1    3    3    0    0  0.29799273156E+03  0.85562886320E+02 -0.28194247581E+03  0.41906113545E+03  0.00000000000E+00 0. -1.
        -11    1    3    3    0    0  0.26044644287E+03  0.11779387490E+03 -0.16580267511E+03  0.33045162073E+03  0.00000000000E+00 0.  1.
         22    1    1    2    0    0 -0.55843917443E+03 -0.20335676122E+03  0.65175427020E+03  0.88203849836E+03  0.00000000000E+00 0. -1.
<mgrwt>
<rscale>  0 0.16187464E+04</rscale>
<asrwt>0</asrwt>
<pdfrwt beam="1">  1        2 0.10981093E+00 0.16187464E+04</pdfrwt>
<pdfrwt beam="2">  1       -2 0.14119695E+00 0.16187464E+04</pdfrwt>
<totfact> 0.13438887E+01</totfact>
</mgrwt>
</event>
<event>
 6    1  0.1731791E-004  0.4700430E+04  0.7818608E-02  0.7876457E-01
          2   -1    0    0  501    0  0.00000000000E+00  0.00000000000E+00  0.29438563336E+04  0.29438563336E+04  0.00000000000E+00 0.  1.
         -2   -1    0    0    0  501 -0.00000000000E+00 -0.00000000000E+00 -0.18762843890E+04  0.18762843890E+04  0.00000000000E+00 0. -1.
         23    2    1    2    0    0 -0.16383801244E+04 -0.13079292442E+04 -0.55344414240E+03  0.21701102521E+04  0.90054136583E+02 0.  0.
         11    1    3    3    0    0 -0.10242540860E+04 -0.82066357012E+03 -0.39135791194E+03  0.13695788196E+04  0.00000000000E+00 0.  1.
        -11    1    3    3    0    0 -0.61412603842E+03 -0.48726567411E+03 -0.16208623046E+03  0.80053143245E+03  0.00000000000E+00 0. -1.
         22    1    1    2    0    0  0.16383801244E+04  0.13079292442E+04  0.16210160871E+04  0.26500304705E+04  0.00000000000E+00 0.  1.
<mgrwt>
<rscale>  0 0.47004305E+04</rscale>
<asrwt>0</asrwt>
<pdfrwt beam="1">  1        2 0.45290098E+00 0.47004305E+04</pdfrwt>
<pdfrwt beam="2">  1       -2 0.28865914E+00 0.47004305E+04</pdfrwt>
<totfact> 0.52447130E-02</totfact>
</mgrwt>
</event>
<event>
 6    1  0.1719556E-004  0.2985358E+04  0.7818608E-02  0.8247924E-01
         -1   -1    0    0    0  501 -0.00000000000E+00  0.00000000000E+00  0.11316204392E+04  0.11316204392E+04  0.00000000000E+00 0. -1.
          1   -1    0    0  501    0  0.00000000000E+00 -0.00000000000E+00 -0.19689385087E+04  0.19689385087E+04  0.00000000000E+00 0.  1.
         23    2    1    2    0    0  0.11735041645E+04  0.33125185179E+03  0.47246060142E+03  0.13110450530E+04  0.93703242849E+02 0.  0.
         13    1    3    3    0    0  0.75572811193E+03  0.24252955428E+03  0.26966831867E+03  0.83825208974E+03  0.00000000000E+00 0. -1.
        -13    1    3    3    0    0  0.41777605255E+03  0.88722297509E+02  0.20279228274E+03  0.47279296325E+03  0.00000000000E+00 0.  1.
         22    1    1    2    0    0 -0.11735041645E+04 -0.33125185179E+03 -0.13097786710E+04  0.17895138950E+04  0.00000000000E+00 0.  1.
<mgrwt>
<rscale>  0 0.29853583E+04</rscale>
<asrwt>0</asrwt>
<pdfrwt beam="1">  1        1 0.30291362E+00 0.29853583E+04</pdfrwt>
<pdfrwt beam="2">  1       -1 0.17409545E+00 0.29853583E+04</pdfrwt>
<totfact> 0.61215535E-01</totfact>
</mgrwt>
</event>
<event>
 6    1  0.1719556E-004  0.1131981E+04  0.7818608E-02  0.9174570E-01
         -2   -1    0    0    0  501 -0.00000000000E+00  0.00000000000E+00  0.45066605362E+03  0.45066605362E+03  0.00000000000E+00 0. -1.
          2   -1    0    0  501    0  0.00000000000E+00 -0.00000000000E+00 -0.71082599190E+03  0.71082599190E+03  0.00000000000E+00 0.  1.
         23    2    1    2    0    0 -0.35460390141E+03  0.30036045451E+03 -0.45582552571E+03  0.65726456547E+03  0.90881624168E+02 0.  0.
         13    1    3    3    0    0 -0.91979893376E+02  0.11283814040E+03 -0.98387266548E+02  0.17570657624E+03  0.00000000000E+00 0. -1.
        -13    1    3    3    0    0 -0.26262400804E+03  0.18752231411E+03 -0.35743825916E+03  0.48155798923E+03  0.00000000000E+00 0.  1.
         22    1    1    2    0    0  0.35460390141E+03 -0.30036045451E+03  0.19566558743E+03  0.50422748005E+03  0.00000000000E+00 0. -1.
<mgrwt>
<rscale>  0 0.11319808E+04</rscale>
<asrwt>0</asrwt>
<pdfrwt beam="1">  1        2 0.10935784E+00 0.11319808E+04</pdfrwt>
<pdfrwt beam="2">  1       -2 0.69333239E-01 0.11319808E+04</pdfrwt>
<totfact> 0.75623815E+01</totfact>
</mgrwt>
</event>
<event>
 6    1  0.1719556E-004  0.4097197E+04  0.7818608E-02  0.7985221E-01
         -1   -1    0    0    0  501 -0.00000000000E+00  0.00000000000E+00  0.28588713036E+04  0.28588713036E+04  0.00000000000E+00 0. -1.
          1   -1    0    0  501    0  0.00000000000E+00 -0.00000000000E+00 -0.14679765763E+04  0.14679765763E+04  0.00000000000E+00 0.  1.
         23    2    1    2    0    0 -0.14461587665E+04 -0.90596380923E+03 -0.49920145208E+03  0.17803583022E+04  0.91257836742E+02 0.  0.
         11    1    3    3    0    0 -0.33457139708E+03 -0.25596804210E+03 -0.12199833895E+03  0.43856727309E+03  0.00000000000E+00 0. -1.
        -11    1    3    3    0    0 -0.11115873695E+04 -0.64999576713E+03 -0.37720311313E+03  0.13417910291E+04  0.00000000000E+00 0.  1.
         22    1    1    2    0    0  0.14461587665E+04  0.90596380923E+03  0.18900961795E+04  0.25464895777E+04  0.00000000000E+00 0. -1.
<mgrwt>
<rscale>  0 0.40971971E+04</rscale>
<asrwt>0</asrwt>
<pdfrwt beam="1">  1        1 0.22584255E+00 0.40971971E+04</pdfrwt>
<pdfrwt beam="2">  1       -1 0.43982636E+00 0.40971971E+04</pdfrwt>
<totfact> 0.20333674E-02</totfact>
</mgrwt>
</event>
<event>
 6    1  0.1719556E-004  0.3297838E+04  0.7818608E-02  0.8163446E-01
         -2   -1    0    0    0  501 -0.00000000000E+00  0.00000000000E+00  0.79936631367E+03  0.79936631367E+03  0.00000000000E+00 0. -1.
          2   -1    0    0  501    0  0.00000000000E+00 -0.00000000000E+00 -0.34013623710E+04  0.34013623710E+04  0.00000000000E+00 0.  1.
         23    2    1    2    0    0 -0.12300914155E+04  0.55331606526E+03 -0.96412680858E+02  0.13551651878E+04  0.88846624294E+02 0.  0.
         11    1    3    3    0    0 -0.68739110994E+03  0.29435673168E+03 -0.95561359530E+02  0.75384640143E+03  0.00000000000E+00 0.  1.
        -11    1    3    3    0    0 -0.54270030551E+03  0.25895933358E+03 -0.85132132855E+00  0.60131878633E+03  0.00000000000E+00 0. -1.
         22    1    1    2    0    0  0.12300914155E+04 -0.55331606526E+03 -0.25055833764E+04  0.28455634969E+04  0.00000000000E+00 0.  1.
<mgrwt>
<rscale>  0 0.32978384E+04</rscale>
<asrwt>0</asrwt>
<pdfrwt beam="1">  1        2 0.52328652E+00 0.32978384E+04</pdfrwt>
<pdfrwt beam="2">  1       -2 0.12297943E+00 0.32978384E+04</pdfrwt>
<totfact> 0.39643943E-01</totfact>
</mgrwt>
</event>
<event>
 6    1  0.1719556E-004  0.6397114E+03  0.7818608E-02  0.9826279E-01
          2   -1    0    0  501    0  0.00000000000E+00  0.00000000000E+00  0.11079106651E+04  0.11079106651E+04  0.00000000000E+00 0.  1.
         -2   -1    0    0    0  501 -0.00000000000E+00 -0.00000000000E+00 -0.92342896542E+02  0.92342896542E+02  0.00000000000E+00 0. -1.
         23    2    1    2    0    0 -0.98326967423E+02 -0.20959318279E+03  0.91411935995E+03  0.94749028422E+03  0.92337098030E+02 0.  0.
         11    1    3    3    0    0  0.15831105574E+02 -0.42307529921E+02  0.21119001898E+03  0.21596706950E+03  0.00000000000E+00 0. -1.
        -11    1    3    3    0    0 -0.11415807300E+03 -0.16728565287E+03  0.70292934096E+03  0.73152321472E+03  0.00000000000E+00 0.  1.
         22    1    1    2    0    0  0.98326967423E+02  0.20959318279E+03  0.10144840859E+03  0.25276327740E+03  0.00000000000E+00 0. -1.
<mgrwt>
<rscale>  0 0.63971143E+03</rscale>
<asrwt>0</asrwt>
<pdfrwt beam="1">  1        2 0.17044779E+00 0.63971143E+03</pdfrwt>
<pdfrwt beam="2">  1       -2 0.14206600E-01 0.63971143E+03</pdfrwt>
<totfact> 0.83508374E+02</totfact>
</mgrwt>
</event>
<event>
 6    1  0.1719556E-004  0.1061215E+04  0.7818608E-02  0.9243841E-01
          2   -1    0    0  501    0  0.00000000000E+00  0.00000000000E+00  0.51135879297E+03  0.51135879297E+03  0.00000000000E+00 0.  1.
         -2   -1    0    0    0  501 -0.00000000000E+00 -0.00000000000E+00 -0.55058123605E+03  0.55058123605E+03  0.00000000000E+00 0. -1.
         23    2    1    2    0    0  0.30457494728E+03  0.19739320881E+03 -0.40330931611E+03  0.54784934781E+03  0.75832222968E+02 0.  0.
         11    1    3    3    0    0  0.11817123955E+03  0.41461394807E+02 -0.10776822829E+03  0.16521949081E+03  0.00000000000E+00 0. -1.
        -11    1    3    3    0    0  0.18640370772E+03  0.15593181400E+03 -0.29554108783E+03  0.38262985699E+03  0.00000000000E+00 0.  1.
         22    1    1    2    0    0 -0.30457494728E+03 -0.19739320881E+03  0.36408687303E+03  0.51409068121E+03  0.00000000000E+00 0.  1.
<mgrwt>
<rscale>  0 0.10612154E+04</rscale>
<asrwt>0</asrwt>
<pdfrwt beam="1">  1        2 0.78670584E-01 0.10612154E+04</pdfrwt>
<pdfrwt beam="2">  1       -2 0.84704805E-01 0.10612154E+04</pdfrwt>
<totfact> 0.72539261E+01</totfact>
</mgrwt>
</event>
<event>
 6    1  0.1719556E-004  0.1500571E+04  0.7818608E-02  0.8884073E-01
         -2   -1    0    0    0  501 -0.00000000000E+00  0.00000000000E+00  0.51151188125E+03  0.51151188125E+03  0.00000000000E+00 0. -1.
          2   -1    0    0  501    0  0.00000000000E+00 -0.00000000000E+00 -0.11005182985E+04  0.11005182985E+04  0.00000000000E+00 0.  1.
         23    2    1    2    0    0  0.47321751969E+03 -0.57573184970E+03 -0.23335444789E+03  0.78626368311E+03  0.91401845309E+02 0.  0.
         13    1    3    3    0    0  0.16562897011E+03 -0.16691757633E+03 -0.11202271851E+03  0.26046789147E+03  0.00000000000E+00 0. -1.
        -13    1    3    3    0    0  0.30758854958E+03 -0.40881427337E+03 -0.12133172938E+03  0.52579579164E+03  0.00000000000E+00 0.  1.
         22    1    1    2    0    0 -0.47321751969E+03  0.57573184970E+03 -0.35565196941E+03  0.82576649668E+03  0.00000000000E+00 0.  1.
<mgrwt>
<rscale>  0 0.15005708E+04</rscale>
<asrwt>0</asrwt>
<pdfrwt beam="1">  1        2 0.16931051E+00 0.15005708E+04</pdfrwt>
<pdfrwt beam="2">  1       -2 0.78694136E-01 0.15005708E+04</pdfrwt>
<totfact> 0.30175214E+01</totfact>
</mgrwt>
</event>
<event>
 6    1  0.1719556E-004  0.3542954E+04  0.7818608E-02  0.8103685E-01
          2   -1    0    0  501    0  0.00000000000E+00  0.00000000000E+00  0.33640411509E+04  0.33640411509E+04  0.00000000000E+00 0.  1.
         -2   -1    0    0    0  501 -0.00000000000E+00 -0.00000000000E+00 -0.93284555673E+03  0.93284555673E+03  0.00000000000E+00 0. -1.
         23    2    1    2    0    0  0.23058174970E+03  0.14556627425E+04  0.26962949758E+02  0.14768766772E+04  0.91190767099E+02 0.  0.
         11    1    3    3    0    0  0.14288443252E+03  0.62310494861E+03 -0.38147283579E-01  0.63927751367E+03  0.00000000000E+00 0.  1.
        -11    1    3    3    0    0  0.87697317180E+02  0.83255779385E+03  0.27001097041E+02  0.83759916355E+03  0.00000000000E+00 0. -1.
         22    1    1    2    0    0 -0.23058174970E+03 -0.14556627425E+04  0.24042326444E+04  0.28200100304E+04  0.00000000000E+00 0.  1.
<mgrwt>
<rscale>  0 0.35429540E+04</rscale>
<asrwt>0</asrwt>
<pdfrwt beam="1">  1        2 0.51754478E+00 0.35429540E+04</pdfrwt>
<pdfrwt beam="2">  1       -2 0.14351470E+00 0.35429540E+04</pdfrwt>
<totfact> 0.27767351E-01</totfact>
</mgrwt>
</event>
<event>
 6    1  0.1719556E-004  0.2310386E+04  0.7818608E-02  0.8473837E-01
         -2   -1    0    0    0  501 -0.00000000000E+00  0.00000000000E+00  0.14038075725E+04  0.14038075725E+04  0.00000000000E+00 0. -1.
          2   -1    0    0  501    0  0.00000000000E+00 -0.00000000000E+00 -0.95060800334E+03  0.95060800334E+03  0.00000000000E+00 0.  1.
         23    2    1    2    0    0  0.16190071769E+03 -0.92778070843E+03  0.90549199283E+03  0.13096393693E+04  0.90833051427E+02 0.  0.
         13    1    3    3    0    0  0.78934224875E+02 -0.45646581438E+03  0.50829582282E+03  0.68771817996E+03  0.00000000000E+00 0. -1.
        -13    1    3    3    0    0  0.82966492812E+02 -0.47131489405E+03  0.39719617001E+03  0.62192118935E+03  0.00000000000E+00 0.  1.
         22    1    1    2    0    0 -0.16190071769E+03  0.92778070843E+03 -0.45229242364E+03  0.10447762066E+04  0.00000000000E+00 0.  1.
<mgrwt>
<rscale>  0 0.23103859E+04</rscale>
<asrwt>0</asrwt>
<pdfrwt beam="1">  1        2 0.14624738E+00 0.23103859E+04</pdfrwt>
<pdfrwt beam="2">  1       -2 0.21597040E+00 0.23103859E+04</pdfrwt>
<totfact> 0.25754375E+00</totfact>
</mgrwt>
</event>
<event>
 6    1  0.1719556E-004  0.3826211E+04  0.7818608E-02  0.8040553E-01
         -2   -1    0    0    0  501 -0.00000000000E+00  0.00000000000E+00  0.33196329905E+04  0.33196329905E+04  0.00000000000E+00 0. -1.
          2   -1    0    0  501    0  0.00000000000E+00 -0.00000000000E+00 -0.11025234127E+04  0.11025234127E+04  0.00000000000E+00 0.  1.
         23    2    1    2    0    0 -0.17874096421E+04  0.34889729134E+02  0.32560839922E+03  0.18194986787E+04  0.92217626245E+02 0.  0.
         13    1    3    3    0    0 -0.13000671818E+04  0.66423987004E+02  0.23810183655E+03  0.13233591001E+04  0.00000000000E+00 0. -1.
        -13    1    3    3    0    0 -0.48734246028E+03 -0.31534257870E+02  0.87506562673E+02  0.49613957866E+03  0.00000000000E+00 0.  1.
         22    1    1    2    0    0  0.17874096421E+04 -0.34889729134E+02  0.18915011786E+04  0.26026577244E+04  0.00000000000E+00 0. -1.
<mgrwt>
<rscale>  0 0.38262112E+04</rscale>
<asrwt>0</asrwt>
<pdfrwt beam="1">  1        2 0.16961899E+00 0.38262112E+04</pdfrwt>
<pdfrwt beam="2">  1       -2 0.51071276E+00 0.38262112E+04</pdfrwt>
<totfact> 0.24643829E-02</totfact>
</mgrwt>
</event>
<event>
 6    1  0.1719556E-004  0.6931089E+03  0.7818608E-02  0.9729090E-01
          2   -1    0    0  501    0  0.00000000000E+00  0.00000000000E+00  0.11680800328E+04  0.11680800328E+04  0.00000000000E+00 0.  1.
         -2   -1    0    0    0  501 -0.00000000000E+00 -0.00000000000E+00 -0.10281829183E+03  0.10281829183E+03  0.00000000000E+00 0. -1.
         23    2    1    2    0    0 -0.28938692586E+03 -0.15858348295E+03  0.38933485037E+03  0.51872103478E+03  0.92716623586E+02 0.  0.
         13    1    3    3    0    0 -0.22700477218E+03 -0.87565617969E+02  0.31745171175E+03  0.39996811540E+03  0.00000000000E+00 0.  1.
        -13    1    3    3    0    0 -0.62382153686E+02 -0.71017864978E+02  0.71883138617E+02  0.11875291938E+03  0.00000000000E+00 0. -1.
         22    1    1    2    0    0  0.28938692586E+03  0.15858348295E+03  0.67592689061E+03  0.75217728986E+03  0.00000000000E+00 0.  1.
<mgrwt>
<rscale>  0 0.69310892E+03</rscale>
<asrwt>0</asrwt>
<pdfrwt beam="1">  1        2 0.17970461E+00 0.69310892E+03</pdfrwt>
<pdfrwt beam="2">  1       -2 0.15818200E-01 0.69310892E+03</pdfrwt>
<totfact> 0.63957218E+02</totfact>
</mgrwt>
</event>
<event>
 6    1  0.1719556E-004  0.2675397E+04  0.7818608E-02  0.8343032E-01
         -1   -1    0    0    0  501 -0.00000000000E+00  0.00000000000E+00  0.96253538722E+03  0.96253538722E+03  0.00000000000E+00 0. -1.
          1   -1    0    0  501    0  0.00000000000E+00 -0.00000000000E+00 -0.18590875998E+04  0.18590875998E+04  0.00000000000E+00 0.  1.
         23    2    1    2    0    0 -0.26727078953E+03  0.19756033010E+03 -0.18136362327E+04  0.18461708564E+04  0.92772234731E+02 0.  0.
         11    1    3    3    0    0 -0.12478604515E+03  0.11294652648E+03 -0.68179733145E+03  0.70226496145E+03  0.00000000000E+00 0.  1.
        -11    1    3    3    0    0 -0.14248474438E+03  0.84613803615E+02 -0.11318389013E+04  0.11439058950E+04  0.00000000000E+00 0. -1.
         22    1    1    2    0    0  0.26727078953E+03 -0.19756033010E+03  0.91708402017E+03  0.97545213056E+03  0.00000000000E+00 0. -1.
<mgrwt>
<rscale>  0 0.26753972E+04</rscale>
<asrwt>0</asrwt>
<pdfrwt beam="1">  1        1 0.28601348E+00 0.26753972E+04</pdfrwt>
<pdfrwt beam="2">  1       -1 0.14808237E+00 0.26753972E+04</pdfrwt>
<totfact> 0.11738089E+00</totfact>
</mgrwt>
</event>
<event>
 6    1  0.1719556E-004  0.2843824E+04  0.7818608E-02  0.8289790E-01
          2   -1    0    0  501    0  0.00000000000E+00  0.00000000000E+00  0.34953553813E+04  0.34953553813E+04  0.00000000000E+00 0.  1.
         -2   -1    0    0    0  501 -0.00000000000E+00 -0.00000000000E+00 -0.57843458705E+03  0.57843458705E+03  0.00000000000E+00 0. -1.
         23    2    1    2    0    0 -0.10776340900E+04  0.89293791048E+03  0.11122336964E+04  0.17900367275E+04  0.92381526892E+02 0.  0.
         13    1    3    3    0    0 -0.37497528661E+03  0.34493301153E+03  0.35934992714E+03  0.62347222725E+03  0.00000000000E+00 0.  1.
        -13    1    3    3    0    0 -0.70265880339E+03  0.54800489895E+03  0.75288376923E+03  0.11665645002E+04  0.00000000000E+00 0. -1.
         22    1    1    2    0    0  0.10776340900E+04 -0.89293791048E+03  0.18046870979E+04  0.22837532409E+04  0.00000000000E+00 0.  1.
<mgrwt>
<rscale>  0 0.28438245E+04</rscale>
<asrwt>0</asrwt>
<pdfrwt beam="1">  1        2 0.53774697E+00 0.28438245E+04</pdfrwt>
<pdfrwt beam="2">  1       -2 0.88989939E-01 0.28438245E+04</pdfrwt>
<totfact> 0.77007663E-01</totfact>
</mgrwt>
</event>
<event>
 6    1  0.1719556E-004  0.2035175E+04  0.7818608E-02  0.8590350E-01
         -2   -1    0    0    0  501 -0.00000000000E+00  0.00000000000E+00  0.37246761428E+03  0.37246761428E+03  0.00000000000E+00 0. -1.
          2   -1    0    0  501    0  0.00000000000E+00 -0.00000000000E+00 -0.27800651178E+04  0.27800651178E+04  0.00000000000E+00 0.  1.
         23    2    1    2    0    0 -0.70639667970E+03 -0.72869422183E+03 -0.12553111469E+04  0.16170343160E+04  0.94880797060E+02 0.  0.
         11    1    3    3    0    0 -0.37508020625E+03 -0.38490675085E+03 -0.73952803549E+03  0.91418820997E+03  0.00000000000E+00 0. -1.
        -11    1    3    3    0    0 -0.33131647344E+03 -0.34378747098E+03 -0.51578311140E+03  0.70284610604E+03  0.00000000000E+00 0.  1.
         22    1    1    2    0    0  0.70639667970E+03  0.72869422183E+03 -0.11522863566E+04  0.15354984160E+04  0.00000000000E+00 0.  1.
<mgrwt>
<rscale>  0 0.20351749E+04</rscale>
<asrwt>0</asrwt>
<pdfrwt beam="1">  1        2 0.42770230E+00 0.20351749E+04</pdfrwt>
<pdfrwt beam="2">  1       -2 0.57302713E-01 0.20351749E+04</pdfrwt>
<totfact> 0.62930967E+00</totfact>
</mgrwt>
</event>
<event>
 6    1  0.1719556E-004  0.1692161E+04  0.7818608E-02  0.8765848E-01
          2   -1    0    0  501    0  0.00000000000E+00  0.00000000000E+00  0.35406156232E+03  0.35406156232E+03  0.00000000000E+00 0.  1.
         -2   -1    0    0    0  501 -0.00000000000E+00 -0.00000000000E+00 -0.20218303386E+04  0.20218303386E+04  0.00000000000E+00 0. -1.
         23    2    1    2    0    0 -0.74198593598E+03 -0.39016713007E+03 -0.70442263304E+03  0.10988604564E+04  0.92247157984E+02 0.  0.
         11    1    3    3    0    0 -0.38842921397E+02 -0.44332363441E+02 -0.62467919592E+02  0.85885807728E+02  0.00000000000E+00 0. -1.
        -11    1    3    3    0    0 -0.70314301458E+03 -0.34583476663E+03 -0.64195471344E+03  0.10129746487E+04  0.00000000000E+00 0.  1.
         22    1    1    2    0    0  0.74198593598E+03  0.39016713007E+03 -0.96334614327E+03  0.12770314445E+04  0.00000000000E+00 0. -1.
<mgrwt>
<rscale>  0 0.16921612E+04</rscale>
<asrwt>0</asrwt>
<pdfrwt beam="1">  1        2 0.54471010E-01 0.16921612E+04</pdfrwt>
<pdfrwt beam="2">  1       -2 0.31105082E+00 0.16921612E+04</pdfrwt>
<totfact> 0.23681133E+00</totfact>
</mgrwt>
</event>
<event>
 6    1  0.2339116E-004  0.2214291E+04  0.7818608E-02  0.8512503E-01
          2   -1    0    0  501    0  0.00000000000E+00  0.00000000000E+00  0.20030946554E+04  0.20030946554E+04  0.00000000000E+00 0.  1.
         -2   -1    0    0    0  501 -0.00000000000E+00 -0.00000000000E+00 -0.61193880815E+03  0.61193880815E+03  0.00000000000E+00 0. -1.
         23    2    1    2    0    0 -0.59488795858E+03 -0.14477321998E+03  0.17834618476E+04  0.18878780699E+04  0.92176334156E+02 0.  0.
         11    1    3    3    0    0 -0.14632573815E+03 -0.42096528292E+02  0.57347654160E+03  0.59334533209E+03  0.00000000000E+00 0.  1.
        -11    1    3    3    0    0 -0.44856222043E+03 -0.10267669168E+03  0.12099853060E+04  0.12945327378E+04  0.00000000000E+00 0. -1.
         22    1    1    2    0    0  0.59488795858E+03  0.14477321998E+03 -0.39230600039E+03  0.72715539359E+03  0.00000000000E+00 0. -1.
<mgrwt>
<rscale>  0 0.22142912E+04</rscale>
<asrwt>0</asrwt>
<pdfrwt beam="1">  1        2 0.30816841E+00 0.22142912E+04</pdfrwt>
<pdfrwt beam="2">  1       -2 0.94144433E-01 0.22142912E+04</pdfrwt>
<totfact> 0.57829825E+00</totfact>
</mgrwt>
</event>
<event>
 6    1  0.1719556E-004  0.4103096E+04  0.7818608E-02  0.7984066E-01
          2   -1    0    0  501    0  0.00000000000E+00  0.00000000000E+00  0.22494139793E+04  0.22494139793E+04  0.00000000000E+00 0.  1.
         -2   -1    0    0    0  501 -0.00000000000E+00 -0.00000000000E+00 -0.18710866111E+04  0.18710866111E+04  0.00000000000E+00 0. -1.
         23    2    1    2    0    0  0.11943007327E+04  0.14659078172E+04  0.98601546307E+03  0.21344178153E+04  0.90955748402E+02 0.  0.
         11    1    3    3    0    0  0.68995346726E+03  0.88826300202E+03  0.62696428130E+03  0.12876844170E+04  0.00000000000E+00 0.  1.
        -11    1    3    3    0    0  0.50434726548E+03  0.57764481517E+03  0.35905118177E+03  0.84673339831E+03  0.00000000000E+00 0. -1.
         22    1    1    2    0    0 -0.11943007327E+04 -0.14659078172E+04 -0.60768809491E+03  0.19860827751E+04  0.00000000000E+00 0. -1.
<mgrwt>
<rscale>  0 0.41030956E+04</rscale>
<asrwt>0</asrwt>
<pdfrwt beam="1">  1        2 0.34606369E+00 0.41030956E+04</pdfrwt>
<pdfrwt beam="2">  1       -2 0.28785948E+00 0.41030956E+04</pdfrwt>
<totfact> 0.14287688E-01</totfact>
</mgrwt>
</event>
<event>
 6    1  0.1719556E-004  0.3675771E+04  0.7818608E-02  0.8073353E-01
          1   -1    0    0  501    0  0.00000000000E+00  0.00000000000E+00  0.17763397343E+04  0.17763397343E+04  0.00000000000E+00 0.  1.
         -1   -1    0    0    0  501 -0.00000000000E+00 -0.00000000000E+00 -0.19015636357E+04  0.19015636357E+04  0.00000000000E+00 0. -1.
         23    2    1    2    0    0 -0.11620206373E+04  0.85366851952E+03 -0.12010859053E+04  0.18788700312E+04  0.92213553346E+02 0.  0.
         11    1    3    3    0    0 -0.64732083369E+03  0.53202065147E+03 -0.69623520644E+03  0.10894097934E+04  0.00000000000E+00 0. -1.
        -11    1    3    3    0    0 -0.51469980360E+03  0.32164786804E+03 -0.50485069882E+03  0.78946023772E+03  0.00000000000E+00 0.  1.
         22    1    1    2    0    0  0.11620206373E+04 -0.85366851952E+03  0.10758620039E+04  0.17990333388E+04  0.00000000000E+00 0.  1.
<mgrwt>
<rscale>  0 0.36757710E+04</rscale>
<asrwt>0</asrwt>
<pdfrwt beam="1">  1        1 0.27328304E+00 0.36757710E+04</pdfrwt>
<pdfrwt beam="2">  1       -1 0.29254825E+00 0.36757710E+04</pdfrwt>
<totfact> 0.12545005E-01</totfact>
</mgrwt>
</event>
<event>
 6    1  0.1719556E-004  0.1096562E+04  0.7818608E-02  0.9208549E-01
          2   -1    0    0  501    0  0.00000000000E+00  0.00000000000E+00  0.10006582836E+04  0.10006582836E+04  0.00000000000E+00 0. -1.
         -2   -1    0    0    0  501 -0.00000000000E+00 -0.00000000000E+00 -0.30041435712E+03  0.30041435712E+03  0.00000000000E+00 0.  1.
         23    2    1    2    0    0 -0.50103359959E+03  0.17112542327E+03  0.20103881275E+03  0.57338842074E+03  0.89661019424E+02 0.  0.
         11    1    3    3    0    0 -0.12654204008E+03  0.28931928902E+02  0.89165457913E+02  0.15748150146E+03  0.00000000000E+00 0. -1.
        -11    1    3    3    0    0 -0.37449155951E+03  0.14219349436E+03  0.11187335483E+03  0.41590691928E+03  0.00000000000E+00 0.  1.
         22    1    1    2    0    0  0.50103359959E+03 -0.17112542327E+03  0.49920511370E+03  0.72768421994E+03  0.00000000000E+00 0. -1.
<mgrwt>
<rscale>  0 0.10965621E+04</rscale>
<asrwt>0</asrwt>
<pdfrwt beam="1">  1        2 0.15394743E+00 0.10965621E+04</pdfrwt>
<pdfrwt beam="2">  1       -2 0.46217594E-01 0.10965621E+04</pdfrwt>
<totfact> 0.11087794E+02</totfact>
</mgrwt>
</event>
<event>
 6    1  0.1719556E-004  0.1163132E+04  0.7818608E-02  0.9145754E-01
          1   -1    0    0  501    0  0.00000000000E+00  0.00000000000E+00  0.27117621002E+03  0.27117621002E+03  0.00000000000E+00 0.  1.
         -1   -1    0    0    0  501 -0.00000000000E+00 -0.00000000000E+00 -0.12472288393E+04  0.12472288393E+04  0.00000000000E+00 0. -1.
         23    2    1    2    0    0 -0.47631934498E+03 -0.32388033000E+03 -0.43105804741E+03  0.72543740758E+03  0.93111790402E+02 0.  0.
         13    1    3    3    0    0 -0.23445878524E+03 -0.21471950425E+03 -0.24445128369E+03  0.40103842407E+03  0.00000000000E+00 0.  1.
        -13    1    3    3    0    0 -0.24186055974E+03 -0.10916082576E+03 -0.18660676372E+03  0.32439898351E+03  0.00000000000E+00 0. -1.
         22    1    1    2    0    0  0.47631934498E+03  0.32388033000E+03 -0.54499458183E+03  0.79296764171E+03  0.00000000000E+00 0.  1.
<mgrwt>
<rscale>  0 0.11631316E+04</rscale>
<asrwt>0</asrwt>
<pdfrwt beam="1">  1        1 0.41719416E-01 0.11631316E+04</pdfrwt>
<pdfrwt beam="2">  1       -1 0.19188136E+00 0.11631316E+04</pdfrwt>
<totfact> 0.17018603E+01</totfact>
</mgrwt>
</event>
<event>
 6    1  0.1719556E-004  0.1817730E+04  0.7818608E-02  0.8696927E-01
         -2   -1    0    0    0  501 -0.00000000000E+00  0.00000000000E+00  0.65071060371E+03  0.65071060371E+03  0.00000000000E+00 0. -1.
          2   -1    0    0  501    0  0.00000000000E+00 -0.00000000000E+00 -0.12694365993E+04  0.12694365993E+04  0.00000000000E+00 0.  1.
         23    2    1    2    0    0  0.18854885832E+03  0.51289583480E+03  0.45399910043E+03  0.71625686708E+03  0.91081870490E+02 0.  0.
         13    1    3    3    0    0  0.63480046238E+02  0.22333882803E+03  0.13964769356E+03  0.27094543121E+03  0.00000000000E+00 0. -1.
        -13    1    3    3    0    0  0.12506881208E+03  0.28955700677E+03  0.31435140686E+03  0.44531143587E+03  0.00000000000E+00 0.  1.
         22    1    1    2    0    0 -0.18854885832E+03 -0.51289583480E+03 -0.10727250960E+04  0.12038903359E+04  0.00000000000E+00 0.  1.
<mgrwt>
<rscale>  0 0.18177303E+04</rscale>
<asrwt>0</asrwt>
<pdfrwt beam="1">  1        2 0.19529794E+00 0.18177303E+04</pdfrwt>
<pdfrwt beam="2">  1       -2 0.10010932E+00 0.18177303E+04</pdfrwt>
<totfact> 0.13382559E+01</totfact>
</mgrwt>
</event>
<event>
 6    1  0.1719556E-004  0.2530684E+04  0.7818608E-02  0.8392135E-01
          2   -1    0    0  501    0  0.00000000000E+00  0.00000000000E+00  0.16283554608E+04  0.16283554608E+04  0.00000000000E+00 0.  1.
         -2   -1    0    0    0  501 -0.00000000000E+00 -0.00000000000E+00 -0.98325607394E+03  0.98325607394E+03  0.00000000000E+00 0. -1.
         23    2    1    2    0    0 -0.45836165817E+03 -0.10846824804E+03 -0.88710835601E+03  0.10086388781E+04  0.92360060044E+02 0.  0.
         13    1    3    3    0    0 -0.22661474276E+03 -0.10102317947E+03 -0.46206836975E+03  0.52446840015E+03  0.00000000000E+00 0. -1.
        -13    1    3    3    0    0 -0.23174691541E+03 -0.74450685672E+01 -0.42503998625E+03  0.48417047799E+03  0.00000000000E+00 0.  1.
         22    1    1    2    0    0  0.45836165817E+03  0.10846824804E+03  0.15322077429E+04  0.16029726566E+04  0.00000000000E+00 0.  1.
<mgrwt>
<rscale>  0 0.25306840E+04</rscale>
<asrwt>0</asrwt>
<pdfrwt beam="1">  1        2 0.25051622E+00 0.25306840E+04</pdfrwt>
<pdfrwt beam="2">  1       -2 0.15127017E+00 0.25306840E+04</pdfrwt>
<totfact> 0.28028935E+00</totfact>
</mgrwt>
</event>
<event>
 6    1  0.1719556E-004  0.1761558E+04  0.7818608E-02  0.8727014E-01
         -2   -1    0    0    0  501 -0.00000000000E+00  0.00000000000E+00  0.80703385745E+03  0.80703385745E+03  0.00000000000E+00 0. -1.
          2   -1    0    0  501    0  0.00000000000E+00 -0.00000000000E+00 -0.96126244338E+03  0.96126244338E+03  0.00000000000E+00 0.  1.
         23    2    1    2    0    0 -0.22580370163E+03 -0.75482569635E+03  0.31267107114E+03  0.85246638578E+03  0.90479813273E+02 0.  0.
         13    1    3    3    0    0 -0.19740724876E+03 -0.57402845511E+03  0.20821458911E+03  0.64174107260E+03  0.00000000000E+00 0. -1.
        -13    1    3    3    0    0 -0.28396452862E+02 -0.18079724124E+03  0.10445648204E+03  0.21072531318E+03  0.00000000000E+00 0.  1.
         22    1    1    2    0    0  0.22580370163E+03  0.75482569635E+03 -0.46689965707E+03  0.91582991506E+03  0.00000000000E+00 0.  1.
<mgrwt>
<rscale>  0 0.17615576E+04</rscale>
<asrwt>0</asrwt>
<pdfrwt beam="1">  1        2 0.14788653E+00 0.17615576E+04</pdfrwt>
<pdfrwt beam="2">  1       -2 0.12415905E+00 0.17615576E+04</pdfrwt>
<totfact> 0.12326158E+01</totfact>
</mgrwt>
</event>
<event>
 6    1  0.1719556E-004  0.2508587E+04  0.7818608E-02  0.8399933E-01
          2   -1    0    0  501    0  0.00000000000E+00  0.00000000000E+00  0.12657736454E+04  0.12657736454E+04  0.00000000000E+00 0. -1.
         -2   -1    0    0    0  501 -0.00000000000E+00 -0.00000000000E+00 -0.12429177375E+04  0.12429177375E+04  0.00000000000E+00 0.  1.
         23    2    1    2    0    0 -0.64479933101E+03 -0.10576414409E+04 -0.16643813780E+03  0.12556136396E+04  0.12038423271E+03 0.  0.
         13    1    3    3    0    0 -0.30798639587E+03 -0.39673392611E+03 -0.49703738499E+02  0.50470178302E+03  0.00000000000E+00 0. -1.
        -13    1    3    3    0    0 -0.33681293515E+03 -0.66090751480E+03 -0.11673439930E+03  0.75091185660E+03  0.00000000000E+00 0.  1.
         22    1    1    2    0    0  0.64479933101E+03  0.10576414409E+04  0.18929404573E+03  0.12530777432E+04  0.00000000000E+00 0. -1.
<mgrwt>
<rscale>  0 0.25085873E+04</rscale>
<asrwt>0</asrwt>
<pdfrwt beam="1">  1        2 0.19473441E+00 0.25085873E+04</pdfrwt>
<pdfrwt beam="2">  1       -2 0.19121811E+00 0.25085873E+04</pdfrwt>
<totfact> 0.23471915E+00</totfact>
</mgrwt>
</event>
<event>
 6    1  0.1719556E-004  0.1870312E+04  0.7818608E-02  0.8669777E-01
         -2   -1    0    0    0  501 -0.00000000000E+00  0.00000000000E+00  0.32729394585E+03  0.32729394585E+03  0.00000000000E+00 0. -1.
          2   -1    0    0  501    0  0.00000000000E+00 -0.00000000000E+00 -0.26719615161E+04  0.26719615161E+04  0.00000000000E+00 0.  1.
         23    2    1    2    0    0  0.18676715388E+03 -0.90940473892E+03 -0.10284614830E+04  0.13885731801E+04  0.92214454151E+02 0.  0.
         11    1    3    3    0    0  0.41604818500E+02 -0.27391500954E+03 -0.24944492905E+03  0.37280446081E+03  0.00000000000E+00 0. -1.
        -11    1    3    3    0    0  0.14516233538E+03 -0.63548972938E+03 -0.77901655399E+03  0.10157687193E+04  0.00000000000E+00 0.  1.
         22    1    1    2    0    0 -0.18676715388E+03  0.90940473892E+03 -0.13162060872E+04  0.16106822818E+04  0.00000000000E+00 0.  1.
<mgrwt>
<rscale>  0 0.18703121E+04</rscale>
<asrwt>0</asrwt>
<pdfrwt beam="1">  1        2 0.41107099E+00 0.18703121E+04</pdfrwt>
<pdfrwt beam="2">  1       -2 0.50352916E-01 0.18703121E+04</pdfrwt>
<totfact> 0.96785759E+00</totfact>
</mgrwt>
</event>
<event>
 6    1  0.1719556E-004  0.1679382E+04  0.7818608E-02  0.8773212E-01
         -2   -1    0    0    0  501 -0.00000000000E+00  0.00000000000E+00  0.15176231199E+03  0.15176231199E+03  0.00000000000E+00 0. -1.
          2   -1    0    0  501    0  0.00000000000E+00 -0.00000000000E+00 -0.46459570685E+04  0.46459570685E+04  0.00000000000E+00 0.  1.
         23    2    1    2    0    0  0.43759057252E+02  0.81943323474E+03 -0.27274555229E+04  0.28497067520E+04  0.91811009736E+02 0.  0.
         11    1    3    3    0    0  0.38896541147E+01  0.15870823269E+03 -0.66239070440E+03  0.68114967357E+03  0.00000000000E+00 0.  1.
        -11    1    3    3    0    0  0.39869403137E+02  0.66072500204E+03 -0.20650648185E+04  0.21685570784E+04  0.00000000000E+00 0. -1.
         22    1    1    2    0    0 -0.43759057252E+02 -0.81943323474E+03 -0.17667392336E+04  0.19480126285E+04  0.00000000000E+00 0.  1.
<mgrwt>
<rscale>  0 0.16793823E+04</rscale>
<asrwt>0</asrwt>
<pdfrwt beam="1">  1        2 0.71476264E+00 0.16793823E+04</pdfrwt>
<pdfrwt beam="2">  1       -2 0.23348048E-01 0.16793823E+04</pdfrwt>
<totfact> 0.13969469E+00</totfact>
</mgrwt>
</event>
<event>
 6    1  0.1719556E-004  0.1186252E+04  0.7818608E-02  0.9124976E-01
         -2   -1    0    0    0  501 -0.00000000000E+00  0.00000000000E+00  0.92710653381E+03  0.92710653381E+03  0.00000000000E+00 0. -1.
          2   -1    0    0  501    0  0.00000000000E+00 -0.00000000000E+00 -0.37945880595E+03  0.37945880595E+03  0.00000000000E+00 0.  1.
         23    2    1    2    0    0  0.31176478071E+03 -0.29279757460E+03  0.72210588462E+03  0.84465263519E+03  0.95254749797E+02 0.  0.
         11    1    3    3    0    0  0.27672718131E+03 -0.21521349271E+03  0.61427551406E+03  0.70726882264E+03  0.00000000000E+00 0. -1.
        -11    1    3    3    0    0  0.35037599403E+02 -0.77584081893E+02  0.10783037056E+03  0.13738381255E+03  0.00000000000E+00 0.  1.
         22    1    1    2    0    0 -0.31176478071E+03  0.29279757460E+03 -0.17445815675E+03  0.46191270457E+03  0.00000000000E+00 0.  1.
<mgrwt>
<rscale>  0 0.11862525E+04</rscale>
<asrwt>0</asrwt>
<pdfrwt beam="1">  1        2 0.58378278E-01 0.11862525E+04</pdfrwt>
<pdfrwt beam="2">  1       -2 0.14263177E+00 0.11862525E+04</pdfrwt>
<totfact> 0.28487742E+01</totfact>
</mgrwt>
</event>
<event>
 6    1  0.1719556E-004  0.1498151E+04  0.7818608E-02  0.8885683E-01
         -2   -1    0    0    0  501 -0.00000000000E+00  0.00000000000E+00  0.13229055422E+04  0.13229055422E+04  0.00000000000E+00 0.  1.
          2   -1    0    0  501    0  0.00000000000E+00 -0.00000000000E+00 -0.42415294039E+03  0.42415294039E+03  0.00000000000E+00 0. -1.
         23    2    1    2    0    0  0.60069566074E+03 -0.33670468675E+03  0.78673895654E+03  0.10493820679E+04  0.89661674225E+02 0.  0.
         13    1    3    3    0    0  0.52988112716E+03 -0.26506882067E+03  0.69344339346E+03  0.91208509940E+03  0.00000000000E+00 0.  1.
        -13    1    3    3    0    0  0.70814533577E+02 -0.71635866078E+02  0.93295563087E+02  0.13729696853E+03  0.00000000000E+00 0. -1.
         22    1    1    2    0    0 -0.60069566074E+03  0.33670468675E+03  0.11201364532E+03  0.69767641471E+03  0.00000000000E+00 0. -1.
<mgrwt>
<rscale>  0 0.14981512E+04</rscale>
<asrwt>0</asrwt>
<pdfrwt beam="1">  1        2 0.65254299E-01 0.14981512E+04</pdfrwt>
<pdfrwt beam="2">  1       -2 0.20352393E+00 0.14981512E+04</pdfrwt>
<totfact> 0.90593520E+00</totfact>
</mgrwt>
</event>
<event>
 6    1  0.1719556E-004  0.1784956E+04  0.7818608E-02  0.8714341E-01
          1   -1    0    0  501    0  0.00000000000E+00  0.00000000000E+00  0.90432096792E+03  0.90432096792E+03  0.00000000000E+00 0.  1.
         -1   -1    0    0    0  501 -0.00000000000E+00 -0.00000000000E+00 -0.88079055539E+03  0.88079055539E+03  0.00000000000E+00 0. -1.
         23    2    1    2    0    0 -0.50770274333E+03 -0.66740818628E+03  0.31052210823E+03  0.89879329823E+03  0.90607121979E+02 0.  0.
         13    1    3    3    0    0 -0.28575222758E+03 -0.30822426308E+03  0.17585597848E+03  0.45561151992E+03  0.00000000000E+00 0. -1.
        -13    1    3    3    0    0 -0.22195051575E+03 -0.35918392320E+03  0.13466612975E+03  0.44318177831E+03  0.00000000000E+00 0.  1.
         22    1    1    2    0    0  0.50770274333E+03  0.66740818628E+03 -0.28699169570E+03  0.88631822507E+03  0.00000000000E+00 0. -1.
<mgrwt>
<rscale>  0 0.17849564E+04</rscale>
<asrwt>0</asrwt>
<pdfrwt beam="1">  1        1 0.13912630E+00 0.17849564E+04</pdfrwt>
<pdfrwt beam="2">  1       -1 0.13550624E+00 0.17849564E+04</pdfrwt>
<totfact> 0.77811348E+00</totfact>
</mgrwt>
</event>
<event>
 6    1  0.1719556E-004  0.1557481E+04  0.7818608E-02  0.8847103E-01
          2   -1    0    0  501    0  0.00000000000E+00  0.00000000000E+00  0.37518392784E+04  0.37518392784E+04  0.00000000000E+00 0.  1.
         -2   -1    0    0    0  501 -0.00000000000E+00 -0.00000000000E+00 -0.16163721885E+03  0.16163721885E+03  0.00000000000E+00 0. -1.
         23    2    1    2    0    0  0.13104127798E+03 -0.65241085811E+03  0.28047428289E+04  0.28840310411E+04  0.90779761520E+02 0.  0.
         13    1    3    3    0    0  0.30709436449E+02 -0.19553299306E+03  0.66909231496E+03  0.69775407330E+03  0.00000000000E+00 0.  1.
        -13    1    3    3    0    0  0.10033184153E+03 -0.45687786505E+03  0.21356505140E+04  0.21862769678E+04  0.00000000000E+00 0. -1.
         22    1    1    2    0    0 -0.13104127798E+03  0.65241085811E+03  0.78545923066E+03  0.10294454562E+04  0.00000000000E+00 0. -1.
<mgrwt>
<rscale>  0 0.15574811E+04</rscale>
<asrwt>0</asrwt>
<pdfrwt beam="1">  1        2 0.57720597E+00 0.15574811E+04</pdfrwt>
<pdfrwt beam="2">  1       -2 0.24867267E-01 0.15574811E+04</pdfrwt>
<totfact> 0.75691146E+00</totfact>
</mgrwt>
</event>
<event>
 6    1  0.1719556E-004  0.3006848E+04  0.7818608E-02  0.8241778E-01
         -2   -1    0    0    0  501 -0.00000000000E+00  0.00000000000E+00  0.74621307682E+03  0.74621307682E+03  0.00000000000E+00 0. -1.
          2   -1    0    0  501    0  0.00000000000E+00 -0.00000000000E+00 -0.30290066181E+04  0.30290066181E+04  0.00000000000E+00 0.  1.
         23    2    1    2    0    0  0.10922184407E+04  0.10047445338E+04 -0.84502873128E+03  0.17089137279E+04  0.62127869627E+02 0.  0.
         11    1    3    3    0    0  0.59489640112E+03  0.58562570809E+03 -0.48916819790E+03  0.96754572186E+03  0.00000000000E+00 0. -1.
        -11    1    3    3    0    0  0.49732203959E+03  0.41911882573E+03 -0.35586053338E+03  0.74136800603E+03  0.00000000000E+00 0.  1.
         22    1    1    2    0    0 -0.10922184407E+04 -0.10047445338E+04 -0.14377648100E+04  0.20663059670E+04  0.00000000000E+00 0. -1.
<mgrwt>
<rscale>  0 0.30068484E+04</rscale>
<asrwt>0</asrwt>
<pdfrwt beam="1">  1        2 0.46600102E+00 0.30068484E+04</pdfrwt>
<pdfrwt beam="2">  1       -2 0.11480201E+00 0.30068484E+04</pdfrwt>
<totfact> 0.84523604E-01</totfact>
</mgrwt>
</event>
<event>
 6    1  0.1719556E-004  0.3685071E+04  0.7818608E-02  0.8071278E-01
         -2   -1    0    0    0  501 -0.00000000000E+00  0.00000000000E+00  0.13945490680E+04  0.13945490680E+04  0.00000000000E+00 0. -1.
          2   -1    0    0  501    0  0.00000000000E+00 -0.00000000000E+00 -0.24344334022E+04  0.24344334022E+04  0.00000000000E+00 0.  1.
         23    2    1    2    0    0 -0.10967988170E+04 -0.56597312255E+02  0.10153919423E+04  0.14986753073E+04  0.93999891424E+02 0.  0.
         13    1    3    3    0    0 -0.37460499844E+03 -0.52035637427E+02  0.39089629869E+03  0.54390856653E+03  0.00000000000E+00 0.  1.
        -13    1    3    3    0    0 -0.72219381858E+03 -0.45616748282E+01  0.62449564359E+03  0.95476674080E+03  0.00000000000E+00 0. -1.
         22    1    1    2    0    0  0.10967988170E+04  0.56597312255E+02 -0.20552762764E+04  0.23303071628E+04  0.00000000000E+00 0.  1.
<mgrwt>
<rscale>  0 0.36850709E+04</rscale>
<asrwt>0</asrwt>
<pdfrwt beam="1">  1        2 0.37452822E+00 0.36850709E+04</pdfrwt>
<pdfrwt beam="2">  1       -2 0.21454601E+00 0.36850709E+04</pdfrwt>
<totfact> 0.32915149E-01</totfact>
</mgrwt>
</event>
<event>
 6    1  0.1719556E-004  0.1658977E+04  0.7818608E-02  0.8785113E-01
          1   -1    0    0  501    0  0.00000000000E+00  0.00000000000E+00  0.40212693009E+03  0.40212693009E+03  0.00000000000E+00 0.  1.
         -1   -1    0    0    0  501 -0.00000000000E+00 -0.00000000000E+00 -0.17110298875E+04  0.17110298875E+04  0.00000000000E+00 0. -1.
         23    2    1    2    0    0  0.14523025014E+03 -0.12527044132E+03 -0.16809436570E+04  0.16945892709E+04  0.96315680048E+02 0.  0.
         13    1    3    3    0    0  0.32533334973E+02 -0.93312628930E+01 -0.10377909243E+03  0.10915855614E+03  0.00000000000E+00 0.  1.
        -13    1    3    3    0    0  0.11269691517E+03 -0.11593917843E+03 -0.15771645645E+04  0.15854307148E+04  0.00000000000E+00 0. -1.
         22    1    1    2    0    0 -0.14523025014E+03  0.12527044132E+03  0.37204069954E+03  0.41856754669E+03  0.00000000000E+00 0.  1.
<mgrwt>
<rscale>  0 0.16589770E+04</rscale>
<asrwt>0</asrwt>
<pdfrwt beam="1">  1        1 0.61865681E-01 0.16589770E+04</pdfrwt>
<pdfrwt beam="2">  1       -1 0.26323537E+00 0.16589770E+04</pdfrwt>
<totfact> 0.32538107E+00</totfact>
</mgrwt>
</event>
<event>
 6    1  0.1719556E-004  0.3305404E+04  0.7818608E-02  0.8161522E-01
          2   -1    0    0  501    0  0.00000000000E+00  0.00000000000E+00  0.13343578470E+04  0.13343578470E+04  0.00000000000E+00 0.  1.
         -2   -1    0    0    0  501 -0.00000000000E+00 -0.00000000000E+00 -0.20469947603E+04  0.20469947603E+04  0.00000000000E+00 0. -1.
         23    2    1    2    0    0 -0.83401961576E+03 -0.34412859347E+03 -0.17715675750E+04  0.19901849846E+04  0.91495310409E+02 0.  0.
         11    1    3    3    0    0 -0.75522898134E+03 -0.30649168019E+03 -0.16520703965E+04  0.18421847245E+04  0.00000000000E+00 0. -1.
        -11    1    3    3    0    0 -0.78790634419E+02 -0.37636913275E+02 -0.11949717850E+03  0.14800026008E+03  0.00000000000E+00 0.  1.
         22    1    1    2    0    0  0.83401961576E+03  0.34412859347E+03  0.10589306616E+04  0.13911676227E+04  0.00000000000E+00 0.  1.
<mgrwt>
<rscale>  0 0.33054038E+04</rscale>
<asrwt>0</asrwt>
<pdfrwt beam="1">  1        2 0.20528582E+00 0.33054038E+04</pdfrwt>
<pdfrwt beam="2">  1       -2 0.31492227E+00 0.33054038E+04</pdfrwt>
<totfact> 0.33913574E-01</totfact>
</mgrwt>
</event>
<event>
 6    1  0.1719556E-004  0.3510447E+04  0.7818608E-02  0.8111319E-01
          2   -1    0    0  501    0  0.00000000000E+00  0.00000000000E+00  0.24486383298E+04  0.24486383298E+04  0.00000000000E+00 0.  1.
         -2   -1    0    0    0  501 -0.00000000000E+00 -0.00000000000E+00 -0.12581726280E+04  0.12581726280E+04  0.00000000000E+00 0. -1.
         23    2    1    2    0    0 -0.14132703431E+04 -0.95179831337E+03  0.10352008851E+04  0.19958579323E+04  0.92492819556E+02 0.  0.
         11    1    3    3    0    0 -0.94358555586E+03 -0.61451332414E+03  0.73057500621E+03  0.13422817016E+04  0.00000000000E+00 0.  1.
        -11    1    3    3    0    0 -0.46968478720E+03 -0.33728498924E+03  0.30462587886E+03  0.65357623072E+03  0.00000000000E+00 0. -1.
         22    1    1    2    0    0  0.14132703431E+04  0.95179831337E+03  0.15526481670E+03  0.17109530254E+04  0.00000000000E+00 0. -1.
<mgrwt>
<rscale>  0 0.35104471E+04</rscale>
<asrwt>0</asrwt>
<pdfrwt beam="1">  1        2 0.37671359E+00 0.35104471E+04</pdfrwt>
<pdfrwt beam="2">  1       -2 0.19356502E+00 0.35104471E+04</pdfrwt>
<totfact> 0.44895890E-01</totfact>
</mgrwt>
</event>
<event>
 6    1  0.1719556E-004  0.1640956E+04  0.7818608E-02  0.8795775E-01
         -1   -1    0    0    0  501 -0.00000000000E+00  0.00000000000E+00  0.43083890243E+03  0.43083890243E+03  0.00000000000E+00 0.  1.
          1   -1    0    0  501    0  0.00000000000E+00 -0.00000000000E+00 -0.15624959308E+04  0.15624959308E+04  0.00000000000E+00 0. -1.
         23    2    1    2    0    0  0.62248419194E+03  0.36267988312E+03 -0.97086781656E+02  0.73263706524E+03  0.91148007979E+02 0.  0.
         11    1    3    3    0    0  0.40358194201E+03  0.27304974373E+03 -0.37543973967E+02  0.48871678552E+03  0.00000000000E+00 0. -1.
        -11    1    3    3    0    0  0.21890224993E+03  0.89630139383E+02 -0.59542807689E+02  0.24392027972E+03  0.00000000000E+00 0.  1.
         22    1    1    2    0    0 -0.62248419194E+03 -0.36267988312E+03 -0.10345702467E+04  0.12606977680E+04  0.00000000000E+00 0. -1.
<mgrwt>
<rscale>  0 0.16409559E+04</rscale>
<asrwt>0</asrwt>
<pdfrwt beam="1">  1        1 0.24038399E+00 0.16409559E+04</pdfrwt>
<pdfrwt beam="2">  1       -1 0.66282907E-01 0.16409559E+04</pdfrwt>
<totfact> 0.13061866E+01</totfact>
</mgrwt>
</event>
<event>
 6    1  0.1719556E-004  0.9831792E+03  0.7818608E-02  0.9327188E-01
          1   -1    0    0  501    0  0.00000000000E+00  0.00000000000E+00  0.59383080760E+03  0.59383080760E+03  0.00000000000E+00 0. -1.
         -1   -1    0    0    0  501 -0.00000000000E+00 -0.00000000000E+00 -0.40695146916E+03  0.40695146916E+03  0.00000000000E+00 0.  1.
         23    2    1    2    0    0 -0.74025986232E+02  0.52798058170E+02  0.58168867749E+03  0.59563798668E+03  0.90307320102E+02 0.  0.
         13    1    3    3    0    0 -0.13997783154E+02 -0.20232506243E+02  0.23524038131E+03  0.23652342218E+03  0.00000000000E+00 0. -1.
        -13    1    3    3    0    0 -0.60028203079E+02  0.73030564413E+02  0.34644829618E+03  0.35911456449E+03  0.00000000000E+00 0.  1.
         22    1    1    2    0    0  0.74025986232E+02 -0.52798058170E+02 -0.39480933905E+03  0.40514429008E+03  0.00000000000E+00 0.  1.
<mgrwt>
<rscale>  0 0.98317917E+03</rscale>
<asrwt>0</asrwt>
<pdfrwt beam="1">  1        1 0.91358586E-01 0.98317917E+03</pdfrwt>
<pdfrwt beam="2">  1       -1 0.62607918E-01 0.98317917E+03</pdfrwt>
<totfact> 0.90301444E+01</totfact>
</mgrwt>
</event>
<event>
 6    1  0.1719556E-004  0.3055403E+04  0.7818608E-02  0.8228085E-01
          2   -1    0    0  501    0  0.00000000000E+00  0.00000000000E+00  0.25049002397E+04  0.25049002397E+04  0.00000000000E+00 0.  1.
         -2   -1    0    0    0  501 -0.00000000000E+00 -0.00000000000E+00 -0.93172255895E+03  0.93172255895E+03  0.00000000000E+00 0. -1.
         23    2    1    2    0    0  0.45525544949E+02  0.55502445382E+03 -0.81112396105E+03  0.98815000145E+03  0.91616732088E+02 0.  0.
         11    1    3    3    0    0  0.28887632167E+02  0.53548408936E+03 -0.75130825003E+03  0.92306109864E+03  0.00000000000E+00 0. -1.
        -11    1    3    3    0    0  0.16637912782E+02  0.19540364457E+02 -0.59815711018E+02  0.65088902813E+02  0.00000000000E+00 0.  1.
         22    1    1    2    0    0 -0.45525544949E+02 -0.55502445382E+03  0.23843016418E+04  0.24484727972E+04  0.00000000000E+00 0.  1.
<mgrwt>
<rscale>  0 0.30554031E+04</rscale>
<asrwt>0</asrwt>
<pdfrwt beam="1">  1        2 0.38536926E+00 0.30554031E+04</pdfrwt>
<pdfrwt beam="2">  1       -2 0.14334193E+00 0.30554031E+04</pdfrwt>
<totfact> 0.99503643E-01</totfact>
</mgrwt>
</event>
<event>
 6    1  0.1719556E-004  0.2119417E+04  0.7818608E-02  0.8552738E-01
          1   -1    0    0  501    0  0.00000000000E+00  0.00000000000E+00  0.12518943217E+04  0.12518943217E+04  0.00000000000E+00 0. -1.
         -1   -1    0    0    0  501 -0.00000000000E+00 -0.00000000000E+00 -0.89702643931E+03  0.89702643931E+03  0.00000000000E+00 0.  1.
         23    2    1    2    0    0 -0.10031862158E+04 -0.22277966193E+03  0.43163698608E+03  0.11184321116E+04  0.92555600226E+02 0.  0.
         11    1    3    3    0    0 -0.59391341160E+03 -0.16160367555E+03  0.22007093774E+03  0.65366666281E+03  0.00000000000E+00 0. -1.
        -11    1    3    3    0    0 -0.40927280420E+03 -0.61175986378E+02  0.21156604833E+03  0.46476544878E+03  0.00000000000E+00 0.  1.
         22    1    1    2    0    0  0.10031862158E+04  0.22277966193E+03 -0.76769103657E+02  0.10304886494E+04  0.00000000000E+00 0.  1.
<mgrwt>
<rscale>  0 0.21194172E+04</rscale>
<asrwt>0</asrwt>
<pdfrwt beam="1">  1        1 0.19259913E+00 0.21194172E+04</pdfrwt>
<pdfrwt beam="2">  1       -1 0.13800407E+00 0.21194172E+04</pdfrwt>
<totfact> 0.39142361E+00</totfact>
</mgrwt>
</event>
<event>
 6    1  0.1719556E-004  0.3000834E+04  0.7818608E-02  0.8243493E-01
          2   -1    0    0  501    0  0.00000000000E+00  0.00000000000E+00  0.42923075683E+04  0.42923075683E+04  0.00000000000E+00 0.  1.
         -2   -1    0    0    0  501 -0.00000000000E+00 -0.00000000000E+00 -0.52448507570E+03  0.52448507570E+03  0.00000000000E+00 0. -1.
         23    2    1    2    0    0  0.82772474047E+03 -0.12066010482E+04  0.13627492016E+04  0.20015853922E+04  0.90798459963E+02 0.  0.
         13    1    3    3    0    0  0.26376232810E+03 -0.46164737763E+03  0.49363188667E+03  0.72550761990E+03  0.00000000000E+00 0. -1.
        -13    1    3    3    0    0  0.56396241237E+03 -0.74495367058E+03  0.86911731496E+03  0.12760777723E+04  0.00000000000E+00 0.  1.
         22    1    1    2    0    0 -0.82772474047E+03  0.12066010482E+04  0.24050732910E+04  0.28152072518E+04  0.00000000000E+00 0.  1.
<mgrwt>
<rscale>  0 0.30008341E+04</rscale>
<asrwt>0</asrwt>
<pdfrwt beam="1">  1        2 0.66035499E+00 0.30008341E+04</pdfrwt>
<pdfrwt beam="2">  1       -2 0.80690014E-01 0.30008341E+04</pdfrwt>
<totfact> 0.22351643E-01</totfact>
</mgrwt>
</event>
<event>
 6    1  0.1719556E-004  0.5774240E+03  0.7818608E-02  0.9953384E-01
         -1   -1    0    0    0  501 -0.00000000000E+00  0.00000000000E+00  0.11211708068E+03  0.11211708068E+03  0.00000000000E+00 0. -1.
          1   -1    0    0  501    0  0.00000000000E+00 -0.00000000000E+00 -0.74346043774E+03  0.74346043774E+03  0.00000000000E+00 0.  1.
         23    2    1    2    0    0 -0.23445556088E+03  0.31329512148E+02 -0.54924875852E+03  0.60519686528E+03  0.92941372143E+02 0.  0.
         11    1    3    3    0    0 -0.90912145975E+02 -0.30725182569E+02 -0.17490359057E+03  0.19950017826E+03  0.00000000000E+00 0.  1.
        -11    1    3    3    0    0 -0.14354341490E+03  0.62054694717E+02 -0.37434516795E+03  0.40569668703E+03  0.00000000000E+00 0. -1.
         22    1    1    2    0    0  0.23445556088E+03 -0.31329512148E+02 -0.82094598547E+02  0.25038065314E+03  0.00000000000E+00 0. -1.
<mgrwt>
<rscale>  0 0.57742398E+03</rscale>
<asrwt>0</asrwt>
<pdfrwt beam="1">  1        1 0.11437853E+00 0.57742398E+03</pdfrwt>
<pdfrwt beam="2">  1       -1 0.17248781E-01 0.57742398E+03</pdfrwt>
<totfact> 0.65611404E+02</totfact>
</mgrwt>
</event>
<event>
 6    1  0.1719556E-004  0.1978598E+04  0.7818608E-02  0.8616692E-01
          2   -1    0    0  501    0  0.00000000000E+00  0.00000000000E+00  0.23933046218E+04  0.23933046218E+04  0.00000000000E+00 0.  1.
         -2   -1    0    0    0  501 -0.00000000000E+00 -0.00000000000E+00 -0.40893788316E+03  0.40893788316E+03  0.00000000000E+00 0. -1.
         23    2    1    2    0    0  0.20824217354E+03  0.91341490871E+03  0.14351991735E+04  0.17162974728E+04  0.90491707066E+02 0.  0.
         13    1    3    3    0    0  0.15233449976E+03  0.49395426081E+03  0.83083952343E+03  0.97851465256E+03  0.00000000000E+00 0.  1.
        -13    1    3    3    0    0  0.55907673775E+02  0.41946064790E+03  0.60435965011E+03  0.73778282022E+03  0.00000000000E+00 0. -1.
         22    1    1    2    0    0 -0.20824217354E+03 -0.91341490871E+03  0.54916756506E+03  0.10859450321E+04  0.00000000000E+00 0. -1.
<mgrwt>
<rscale>  0 0.19785984E+04</rscale>
<asrwt>0</asrwt>
<pdfrwt beam="1">  1        2 0.36820070E+00 0.19785984E+04</pdfrwt>
<pdfrwt beam="2">  1       -2 0.62913522E-01 0.19785984E+04</pdfrwt>
<totfact> 0.87429708E+00</totfact>
</mgrwt>
</event>
<event>
 6    1  0.1719556E-004  0.1538703E+04  0.7818608E-02  0.8859116E-01
          2   -1    0    0  501    0  0.00000000000E+00  0.00000000000E+00  0.21199375285E+04  0.21199375285E+04  0.00000000000E+00 0.  1.
         -2   -1    0    0    0  501 -0.00000000000E+00 -0.00000000000E+00 -0.27920731198E+03  0.27920731198E+03  0.00000000000E+00 0. -1.
         23    2    1    2    0    0  0.31400490906E+03  0.49639343851E+03  0.16918099406E+04  0.17931887552E+04  0.91101635598E+02 0.  0.
         13    1    3    3    0    0  0.66393368982E+02  0.14471237248E+03  0.56772479516E+03  0.58962801260E+03  0.00000000000E+00 0. -1.
        -13    1    3    3    0    0  0.24761154008E+03  0.35168106603E+03  0.11240851454E+04  0.12035607426E+04  0.00000000000E+00 0.  1.
         22    1    1    2    0    0 -0.31400490906E+03 -0.49639343851E+03  0.14892027595E+03  0.60595608529E+03  0.00000000000E+00 0. -1.
<mgrwt>
<rscale>  0 0.15387034E+04</rscale>
<asrwt>0</asrwt>
<pdfrwt beam="1">  1        2 0.32614422E+00 0.15387034E+04</pdfrwt>
<pdfrwt beam="2">  1       -2 0.42954972E-01 0.15387034E+04</pdfrwt>
<totfact> 0.28367894E+01</totfact>
</mgrwt>
</event>
<event>
 6    1  0.1719556E-004  0.3090257E+04  0.7818608E-02  0.8218417E-01
         -2   -1    0    0    0  501 -0.00000000000E+00  0.00000000000E+00  0.10972459395E+04  0.10972459395E+04  0.00000000000E+00 0. -1.
          2   -1    0    0  501    0  0.00000000000E+00 -0.00000000000E+00 -0.21758315562E+04  0.21758315562E+04  0.00000000000E+00 0.  1.
         23    2    1    2    0    0  0.74738959316E+03 -0.13373180995E+04 -0.74122886237E+03  0.17043772429E+04  0.92036170711E+02 0.  0.
         13    1    3    3    0    0  0.52956010922E+03 -0.10274137884E+04 -0.56648015188E+03  0.12872112354E+04  0.00000000000E+00 0. -1.
        -13    1    3    3    0    0  0.21782948394E+03 -0.30990431103E+03 -0.17474871048E+03  0.41716600758E+03  0.00000000000E+00 0.  1.
         22    1    1    2    0    0 -0.74738959316E+03  0.13373180995E+04 -0.33735675434E+03  0.15687002527E+04  0.00000000000E+00 0.  1.
<mgrwt>
<rscale>  0 0.30902572E+04</rscale>
<asrwt>0</asrwt>
<pdfrwt beam="1">  1        2 0.33474331E+00 0.30902572E+04</pdfrwt>
<pdfrwt beam="2">  1       -2 0.16880707E+00 0.30902572E+04</pdfrwt>
<totfact> 0.98400068E-01</totfact>
</mgrwt>
</event>
<event>
 6    1  0.1719556E-004  0.2116913E+04  0.7818608E-02  0.8553829E-01
         -2   -1    0    0    0  501 -0.00000000000E+00  0.00000000000E+00  0.14415041201E+04  0.14415041201E+04  0.00000000000E+00 0. -1.
          2   -1    0    0  501    0  0.00000000000E+00 -0.00000000000E+00 -0.77719536281E+03  0.77719536281E+03  0.00000000000E+00 0.  1.
         23    2    1    2    0    0  0.79146142737E+03 -0.69924714586E+03  0.30282637962E+03  0.11024435663E+04  0.91215342030E+02 0.  0.
         13    1    3    3    0    0  0.15162920074E+03 -0.13843495531E+03  0.97011555544E+02  0.22708345003E+03  0.00000000000E+00 0. -1.
        -13    1    3    3    0    0  0.63983222663E+03 -0.56081219055E+03  0.20581482408E+03  0.87536011625E+03  0.00000000000E+00 0.  1.
         22    1    1    2    0    0 -0.79146142737E+03  0.69924714586E+03  0.36148237765E+03  0.11162559166E+04  0.00000000000E+00 0. -1.
<mgrwt>
<rscale>  0 0.21169131E+04</rscale>
<asrwt>0</asrwt>
<pdfrwt beam="1">  1        2 0.11956852E+00 0.21169131E+04</pdfrwt>
<pdfrwt beam="2">  1       -2 0.22176986E+00 0.21169131E+04</pdfrwt>
<totfact> 0.31712391E+00</totfact>
</mgrwt>
</event>
<event>
 6    1  0.1719556E-004  0.3361139E+04  0.7818608E-02  0.8147510E-01
         -2   -1    0    0    0  501 -0.00000000000E+00  0.00000000000E+00  0.10325902480E+04  0.10325902480E+04  0.00000000000E+00 0. -1.
          2   -1    0    0  501    0  0.00000000000E+00 -0.00000000000E+00 -0.27351738756E+04  0.27351738756E+04  0.00000000000E+00 0.  1.
         23    2    1    2    0    0 -0.65474598947E+03  0.14769941831E+04 -0.33840597957E+03  0.16532464995E+04  0.92202241242E+02 0.  0.
         11    1    3    3    0    0 -0.21016771568E+03  0.40687779575E+03 -0.63945174017E+02  0.46239484715E+03  0.00000000000E+00 0.  1.
        -11    1    3    3    0    0 -0.44457827378E+03  0.10701163874E+04 -0.27446080555E+03  0.11908516523E+04  0.00000000000E+00 0. -1.
         22    1    1    2    0    0  0.65474598947E+03 -0.14769941831E+04 -0.13641776480E+04  0.21145176242E+04  0.00000000000E+00 0.  1.
<mgrwt>
<rscale>  0 0.33611390E+04</rscale>
<asrwt>0</asrwt>
<pdfrwt beam="1">  1        2 0.42079597E+00 0.33611390E+04</pdfrwt>
<pdfrwt beam="2">  1       -2 0.15886004E+00 0.33611390E+04</pdfrwt>
<totfact> 0.53982912E-01</totfact>
</mgrwt>
</event>
<event>
 6    1  0.1719556E-004  0.3288812E+04  0.7818608E-02  0.8165748E-01
          2   -1    0    0  501    0  0.00000000000E+00  0.00000000000E+00  0.16425224510E+04  0.16425224510E+04  0.00000000000E+00 0.  1.
         -2   -1    0    0    0  501 -0.00000000000E+00 -0.00000000000E+00 -0.16462918781E+04  0.16462918781E+04  0.00000000000E+00 0. -1.
         23    2    1    2    0    0 -0.11772918667E+04 -0.10038246655E+04 -0.55535579514E+03  0.16462773828E+04  0.90161318773E+02 0.  0.
         13    1    3    3    0    0 -0.10078727303E+04 -0.89833997109E+03 -0.47808456874E+03  0.14322663855E+04  0.00000000000E+00 0. -1.
        -13    1    3    3    0    0 -0.16941913643E+03 -0.10548469444E+03 -0.77271226403E+02  0.21401099733E+03  0.00000000000E+00 0.  1.
         22    1    1    2    0    0  0.11772918667E+04  0.10038246655E+04  0.55158636799E+03  0.16425369463E+04  0.00000000000E+00 0.  1.
<mgrwt>
<rscale>  0 0.32888122E+04</rscale>
<asrwt>0</asrwt>
<pdfrwt beam="1">  1        2 0.25269576E+00 0.32888122E+04</pdfrwt>
<pdfrwt beam="2">  1       -2 0.25327567E+00 0.32888122E+04</pdfrwt>
<totfact> 0.54148639E-01</totfact>
</mgrwt>
</event>
<event>
 6    1  0.1719556E-004  0.3961150E+04  0.7818608E-02  0.8012430E-01
          2   -1    0    0  501    0  0.00000000000E+00  0.00000000000E+00  0.21611007288E+04  0.21611007288E+04  0.00000000000E+00 0.  1.
         -2   -1    0    0    0  501 -0.00000000000E+00 -0.00000000000E+00 -0.18151290977E+04  0.18151290977E+04  0.00000000000E+00 0. -1.
         23    2    1    2    0    0  0.28946531382E+03  0.11581384279E+04  0.17581839519E+04  0.21270628721E+04  0.90060353933E+02 0.  0.
         11    1    3    3    0    0  0.29226696910E+03  0.11297104664E+04  0.16963388066E+04  0.20589393060E+04  0.00000000000E+00 0.  1.
        -11    1    3    3    0    0 -0.28016552852E+01  0.28427961518E+02  0.61845145255E+02  0.68123566113E+02  0.00000000000E+00 0. -1.
         22    1    1    2    0    0 -0.28946531382E+03 -0.11581384279E+04 -0.14122123208E+04  0.18491669544E+04  0.00000000000E+00 0. -1.
<mgrwt>
<rscale>  0 0.39611497E+04</rscale>
<asrwt>0</asrwt>
<pdfrwt beam="1">  1        2 0.33247703E+00 0.39611497E+04</pdfrwt>
<pdfrwt beam="2">  1       -2 0.27925063E+00 0.39611497E+04</pdfrwt>
<totfact> 0.18290366E-01</totfact>
</mgrwt>
</event>
<event>
 6    1  0.1719556E-004  0.4489899E+04  0.7818608E-02  0.7912407E-01
          1   -1    0    0  501    0  0.00000000000E+00  0.00000000000E+00  0.38668860750E+04  0.38668860750E+04  0.00000000000E+00 0.  1.
         -1   -1    0    0    0  501 -0.00000000000E+00 -0.00000000000E+00 -0.13033224177E+04  0.13033224177E+04  0.00000000000E+00 0. -1.
         23    2    1    2    0    0  0.17016145503E+04 -0.96789185577E+03  0.18642057504E+02  0.19594558283E+04  0.82540261600E+02 0.  0.
         11    1    3    3    0    0  0.24458158384E+03 -0.11091830136E+03  0.16851410346E+02  0.26908547111E+03  0.00000000000E+00 0.  1.
        -11    1    3    3    0    0  0.14570329664E+04 -0.85697355441E+03  0.17906471579E+01  0.16903703572E+04  0.00000000000E+00 0. -1.
         22    1    1    2    0    0 -0.17016145503E+04  0.96789185577E+03  0.25449215999E+04  0.32107526644E+04  0.00000000000E+00 0.  1.
<mgrwt>
<rscale>  0 0.44898995E+04</rscale>
<asrwt>0</asrwt>
<pdfrwt beam="1">  1        1 0.59490555E+00 0.44898995E+04</pdfrwt>
<pdfrwt beam="2">  1       -1 0.20051114E+00 0.44898995E+04</pdfrwt>
<totfact> 0.14008729E-02</totfact>
</mgrwt>
</event>
<event>
 6    1  0.1719556E-004  0.1977462E+04  0.7818608E-02  0.8617231E-01
          1   -1    0    0  501    0  0.00000000000E+00  0.00000000000E+00  0.15836028326E+04  0.15836028326E+04  0.00000000000E+00 0. -1.
         -1   -1    0    0    0  501 -0.00000000000E+00 -0.00000000000E+00 -0.61731931003E+03  0.61731931003E+03  0.00000000000E+00 0.  1.
         23    2    1    2    0    0  0.48751704761E+03  0.47974549275E+02  0.14374133601E+04  0.15212621152E+04  0.90037915178E+02 0.  0.
         13    1    3    3    0    0  0.23001390822E+03 -0.11410025333E+02  0.76008746334E+03  0.79421000912E+03  0.00000000000E+00 0. -1.
        -13    1    3    3    0    0  0.25750313939E+03  0.59384574608E+02  0.67732589678E+03  0.72705210607E+03  0.00000000000E+00 0.  1.
         22    1    1    2    0    0 -0.48751704761E+03 -0.47974549275E+02 -0.47112983755E+03  0.67966002745E+03  0.00000000000E+00 0.  1.
<mgrwt>
<rscale>  0 0.19774616E+04</rscale>
<asrwt>0</asrwt>
<pdfrwt beam="1">  1        1 0.24363120E+00 0.19774616E+04</pdfrwt>
<pdfrwt beam="2">  1       -1 0.94972202E-01 0.19774616E+04</pdfrwt>
<totfact> 0.57028701E+00</totfact>
</mgrwt>
</event>
<event>
 6    1  0.1719556E-004  0.1808386E+04  0.7818608E-02  0.8701853E-01
          2   -1    0    0  501    0  0.00000000000E+00  0.00000000000E+00  0.59987578189E+03  0.59987578189E+03  0.00000000000E+00 0. -1.
         -2   -1    0    0    0  501 -0.00000000000E+00 -0.00000000000E+00 -0.13628904978E+04  0.13628904978E+04  0.00000000000E+00 0.  1.
         23    2    1    2    0    0  0.41877379801E+03 -0.78569514100E+03 -0.22570316541E+03  0.92286626007E+03  0.89732193833E+02 0.  0.
         11    1    3    3    0    0  0.13429155705E+03 -0.33241257561E+03 -0.67501215857E+02  0.36481331782E+03  0.00000000000E+00 0.  1.
        -11    1    3    3    0    0  0.28448224097E+03 -0.45328256539E+03 -0.15820194955E+03  0.55805294225E+03  0.00000000000E+00 0. -1.
         22    1    1    2    0    0 -0.41877379801E+03  0.78569514100E+03 -0.53731155048E+03  0.10399000196E+04  0.00000000000E+00 0. -1.
<mgrwt>
<rscale>  0 0.18083860E+04</rscale>
<asrwt>0</asrwt>
<pdfrwt beam="1">  1        2 0.92288583E-01 0.18083860E+04</pdfrwt>
<pdfrwt beam="2">  1       -2 0.20967546E+00 0.18083860E+04</pdfrwt>
<totfact> 0.53810510E+00</totfact>
</mgrwt>
</event>
<event>
 6    1  0.1719556E-004  0.1974239E+04  0.7818608E-02  0.8618760E-01
          2   -1    0    0  501    0  0.00000000000E+00  0.00000000000E+00  0.11306879665E+04  0.11306879665E+04  0.00000000000E+00 0.  1.
         -2   -1    0    0    0  501 -0.00000000000E+00 -0.00000000000E+00 -0.86178032178E+03  0.86178032178E+03  0.00000000000E+00 0. -1.
         23    2    1    2    0    0 -0.59610172108E+03 -0.50232040991E+03  0.74230319078E+03  0.10804560082E+04  0.93317214167E+02 0.  0.
         13    1    3    3    0    0 -0.12968413082E+03 -0.15577524263E+03  0.16499299164E+03  0.26135528939E+03  0.00000000000E+00 0. -1.
        -13    1    3    3    0    0 -0.46641759027E+03 -0.34654516727E+03  0.57731019913E+03  0.81910071877E+03  0.00000000000E+00 0.  1.
         22    1    1    2    0    0  0.59610172108E+03  0.50232040991E+03 -0.47339554604E+03  0.91201228012E+03  0.00000000000E+00 0. -1.
<mgrwt>
<rscale>  0 0.19742387E+04</rscale>
<asrwt>0</asrwt>
<pdfrwt beam="1">  1        2 0.17395199E+00 0.19742387E+04</pdfrwt>
<pdfrwt beam="2">  1       -2 0.13258159E+00 0.19742387E+04</pdfrwt>
<totfact> 0.80242037E+00</totfact>
</mgrwt>
</event>
<event>
 6    1  0.1719556E-004  0.8651990E+03  0.7818608E-02  0.9470161E-01
          2   -1    0    0  501    0  0.00000000000E+00  0.00000000000E+00  0.24891734270E+04  0.24891734270E+04  0.00000000000E+00 0.  1.
         -2   -1    0    0    0  501 -0.00000000000E+00 -0.00000000000E+00 -0.75182526821E+02  0.75182526821E+02  0.00000000000E+00 0. -1.
         23    2    1    2    0    0 -0.81990881283E+02  0.34253756349E+03  0.50017866813E+03  0.61840329598E+03  0.90495576770E+02 0.  0.
         11    1    3    3    0    0 -0.54833524929E+02  0.29278669550E+03  0.36038228717E+03  0.46755337388E+03  0.00000000000E+00 0. -1.
        -11    1    3    3    0    0 -0.27157356354E+02  0.49750867991E+02  0.13979638096E+03  0.15084992211E+03  0.00000000000E+00 0.  1.
         22    1    1    2    0    0  0.81990881283E+02 -0.34253756349E+03  0.19138122320E+04  0.19459526578E+04  0.00000000000E+00 0.  1.
<mgrwt>
<rscale>  0 0.86519905E+03</rscale>
<asrwt>0</asrwt>
<pdfrwt beam="1">  1        2 0.38294970E+00 0.86519905E+03</pdfrwt>
<pdfrwt beam="2">  1       -2 0.11566544E-01 0.86519905E+03</pdfrwt>
<totfact> 0.19601082E+02</totfact>
</mgrwt>
</event>
<event>
 6    1  0.1719556E-004  0.4689416E+04  0.7818608E-02  0.7878289E-01
          2   -1    0    0  501    0  0.00000000000E+00  0.00000000000E+00  0.21703220670E+04  0.21703220670E+04  0.00000000000E+00 0.  1.
         -2   -1    0    0    0  501 -0.00000000000E+00 -0.00000000000E+00 -0.25331063300E+04  0.25331063300E+04  0.00000000000E+00 0. -1.
         23    2    1    2    0    0  0.21596441470E+04  0.80863012953E+03 -0.60165447536E+03  0.23850228012E+04  0.91652204164E+02 0.  0.
         11    1    3    3    0    0  0.17951273163E+04  0.66347890513E+03 -0.46439139308E+03  0.19693515951E+04  0.00000000000E+00 0. -1.
        -11    1    3    3    0    0  0.36451683073E+03  0.14515122440E+03 -0.13726308229E+03  0.41567120611E+03  0.00000000000E+00 0.  1.
         22    1    1    2    0    0 -0.21596441470E+04 -0.80863012953E+03  0.23887021234E+03  0.23184055958E+04  0.00000000000E+00 0.  1.
<mgrwt>
<rscale>  0 0.46894164E+04</rscale>
<asrwt>0</asrwt>
<pdfrwt beam="1">  1        2 0.33389570E+00 0.46894164E+04</pdfrwt>
<pdfrwt beam="2">  1       -2 0.38970866E+00 0.46894164E+04</pdfrwt>
<totfact> 0.34695853E-02</totfact>
</mgrwt>
</event>
<event>
 6    1  0.1719556E-004  0.3443302E+04  0.7818608E-02  0.8127360E-01
          1   -1    0    0  501    0  0.00000000000E+00  0.00000000000E+00  0.29317822979E+04  0.29317822979E+04  0.00000000000E+00 0. -1.
         -1   -1    0    0    0  501 -0.00000000000E+00 -0.00000000000E+00 -0.10110173958E+04  0.10110173958E+04  0.00000000000E+00 0.  1.
         23    2    1    2    0    0 -0.11881521636E+04  0.74267151497E+02  0.23833142012E+04  0.26656258497E+04  0.90296264005E+02 0.  0.
         13    1    3    3    0    0 -0.61923820856E+03  0.79050817544E+02  0.12014978520E+04  0.13539948593E+04  0.00000000000E+00 0.  1.
        -13    1    3    3    0    0 -0.56891395507E+03 -0.47836660470E+01  0.11818163492E+04  0.13116309904E+04  0.00000000000E+00 0. -1.
         22    1    1    2    0    0  0.11881521636E+04 -0.74267151497E+02 -0.46254929903E+03  0.12771738440E+04  0.00000000000E+00 0.  1.
<mgrwt>
<rscale>  0 0.34433024E+04</rscale>
<asrwt>0</asrwt>
<pdfrwt beam="1">  1        1 0.45104342E+00 0.34433024E+04</pdfrwt>
<pdfrwt beam="2">  1       -1 0.15554114E+00 0.34433024E+04</pdfrwt>
<totfact> 0.17349743E-01</totfact>
</mgrwt>
</event>
<event>
 6    1  0.1719556E-004  0.3436631E+04  0.7818608E-02  0.8128974E-01
          2   -1    0    0  501    0  0.00000000000E+00  0.00000000000E+00  0.20065690346E+04  0.20065690346E+04  0.00000000000E+00 0. -1.
         -2   -1    0    0    0  501 -0.00000000000E+00 -0.00000000000E+00 -0.14714712568E+04  0.14714712568E+04  0.00000000000E+00 0.  1.
         23    2    1    2    0    0  0.37819230806E+02  0.11615418600E+04 -0.10115594833E+04  0.15434192768E+04  0.90998292488E+02 0.  0.
         13    1    3    3    0    0  0.25134916441E+02  0.81787735984E+03 -0.65597734741E+03  0.10487427807E+04  0.00000000000E+00 0.  1.
        -13    1    3    3    0    0  0.12684314365E+02  0.34366450011E+03 -0.35558213589E+03  0.49467649614E+03  0.00000000000E+00 0. -1.
         22    1    1    2    0    0 -0.37819230806E+02 -0.11615418600E+04  0.15466572611E+04  0.19346210145E+04  0.00000000000E+00 0. -1.
<mgrwt>
<rscale>  0 0.34366313E+04</rscale>
<asrwt>0</asrwt>
<pdfrwt beam="1">  1        2 0.30870293E+00 0.34366313E+04</pdfrwt>
<pdfrwt beam="2">  1       -2 0.22638019E+00 0.34366313E+04</pdfrwt>
<totfact> 0.49300244E-01</totfact>
</mgrwt>
</event>
<event>
 6    1  0.1719556E-004  0.2161229E+04  0.7818608E-02  0.8534741E-01
          1   -1    0    0  501    0  0.00000000000E+00  0.00000000000E+00  0.97349235559E+03  0.97349235559E+03  0.00000000000E+00 0.  1.
         -1   -1    0    0    0  501 -0.00000000000E+00 -0.00000000000E+00 -0.11995244936E+04  0.11995244936E+04  0.00000000000E+00 0. -1.
         23    2    1    2    0    0  0.65953675059E+03 -0.53142452322E+03  0.55835940941E+03  0.10186032106E+04  0.91577952528E+02 0.  0.
         11    1    3    3    0    0  0.34223641101E+03 -0.22241232942E+03  0.29072675235E+03  0.50111380926E+03  0.00000000000E+00 0. -1.
        -11    1    3    3    0    0  0.31730033958E+03 -0.30901219380E+03  0.26763265706E+03  0.51748940138E+03  0.00000000000E+00 0.  1.
         22    1    1    2    0    0 -0.65953675059E+03  0.53142452322E+03 -0.78439154747E+03  0.11544136386E+04  0.00000000000E+00 0. -1.
<mgrwt>
<rscale>  0 0.21612292E+04</rscale>
<asrwt>0</asrwt>
<pdfrwt beam="1">  1        1 0.14976806E+00 0.21612292E+04</pdfrwt>
<pdfrwt beam="2">  1       -1 0.18454223E+00 0.21612292E+04</pdfrwt>
<totfact> 0.28046403E+00</totfact>
</mgrwt>
</event>
<event>
 6    1  0.1719556E-004  0.4314889E+04  0.7818608E-02  0.7943871E-01
          2   -1    0    0  501    0  0.00000000000E+00  0.00000000000E+00  0.17072740233E+04  0.17072740233E+04  0.00000000000E+00 0.  1.
         -2   -1    0    0    0  501 -0.00000000000E+00 -0.00000000000E+00 -0.27263147880E+04  0.27263147880E+04  0.00000000000E+00 0. -1.
         23    2    1    2    0    0 -0.15489026194E+04 -0.55925523124E+03  0.92084514921E+03  0.18889821429E+04  0.91825973113E+02 0.  0.
         13    1    3    3    0    0 -0.14934674396E+04 -0.53603088306E+03  0.86636250253E+03  0.18078600849E+04  0.00000000000E+00 0. -1.
        -13    1    3    3    0    0 -0.55435179800E+02 -0.23224348183E+02  0.54482646679E+02  0.81122058018E+02  0.00000000000E+00 0.  1.
         22    1    1    2    0    0  0.15489026194E+04  0.55925523124E+03 -0.19398859140E+04  0.25446066685E+04  0.00000000000E+00 0. -1.
<mgrwt>
<rscale>  0 0.43148888E+04</rscale>
<asrwt>0</asrwt>
<pdfrwt beam="1">  1        2 0.26265754E+00 0.43148888E+04</pdfrwt>
<pdfrwt beam="2">  1       -2 0.41943304E+00 0.43148888E+04</pdfrwt>
<totfact> 0.41330598E-02</totfact>
</mgrwt>
</event>
<event>
 6    1  0.1719556E-004  0.2245464E+04  0.7818608E-02  0.8499740E-01
         -2   -1    0    0    0  501 -0.00000000000E+00  0.00000000000E+00  0.55484294656E+03  0.55484294656E+03  0.00000000000E+00 0. -1.
          2   -1    0    0  501    0  0.00000000000E+00 -0.00000000000E+00 -0.22718620196E+04  0.22718620196E+04  0.00000000000E+00 0.  1.
         23    2    1    2    0    0  0.36817299148E+03  0.34191978343E+03 -0.21218987467E+04  0.21814236011E+04  0.60779488024E+02 0.  0.
         13    1    3    3    0    0  0.32444489036E+03  0.29856495413E+03 -0.19367075212E+04  0.19862632105E+04  0.00000000000E+00 0. -1.
        -13    1    3    3    0    0  0.43728101114E+02  0.43354829293E+02 -0.18519122553E+03  0.19516039061E+03  0.00000000000E+00 0.  1.
         22    1    1    2    0    0 -0.36817299148E+03 -0.34191978343E+03  0.40487967367E+03  0.64528136506E+03  0.00000000000E+00 0. -1.
<mgrwt>
<rscale>  0 0.22454635E+04</rscale>
<asrwt>0</asrwt>
<pdfrwt beam="1">  1        2 0.34951723E+00 0.22454635E+04</pdfrwt>
<pdfrwt beam="2">  1       -2 0.85360453E-01 0.22454635E+04</pdfrwt>
<totfact> 0.51104863E+00</totfact>
</mgrwt>
</event>
<event>
 6    1  0.1719556E-004  0.2668372E+04  0.7818608E-02  0.8345341E-01
         -2   -1    0    0    0  501 -0.00000000000E+00  0.00000000000E+00  0.87203572457E+03  0.87203572457E+03  0.00000000000E+00 0. -1.
          2   -1    0    0  501    0  0.00000000000E+00 -0.00000000000E+00 -0.20412606205E+04  0.20412606205E+04  0.00000000000E+00 0.  1.
         23    2    1    2    0    0  0.89309289128E+02 -0.68415754513E+03 -0.18301072707E+04  0.19578837594E+04  0.89266441088E+02 0.  0.
         13    1    3    3    0    0  0.96791880660E+02 -0.46940096162E+03 -0.13224220225E+04  0.14065937354E+04  0.00000000000E+00 0. -1.
        -13    1    3    3    0    0 -0.74825915325E+01 -0.21475658351E+03 -0.50768524818E+03  0.55129002400E+03  0.00000000000E+00 0.  1.
         22    1    1    2    0    0 -0.89309289128E+02  0.68415754513E+03  0.66088237471E+03  0.95541258569E+03  0.00000000000E+00 0. -1.
<mgrwt>
<rscale>  0 0.26683719E+04</rscale>
<asrwt>0</asrwt>
<pdfrwt beam="1">  1        2 0.31404010E+00 0.26683719E+04</pdfrwt>
<pdfrwt beam="2">  1       -2 0.13415934E+00 0.26683719E+04</pdfrwt>
<totfact> 0.22343486E+00</totfact>
</mgrwt>
</event>
<event>
 6    1  0.1719556E-004  0.3706858E+04  0.7818608E-02  0.8066444E-01
          2   -1    0    0  501    0  0.00000000000E+00  0.00000000000E+00  0.34714542313E+04  0.34714542313E+04  0.00000000000E+00 0. -1.
         -2   -1    0    0    0  501 -0.00000000000E+00 -0.00000000000E+00 -0.98955612794E+03  0.98955612794E+03  0.00000000000E+00 0.  1.
         23    2    1    2    0    0 -0.62942886697E+03  0.17364716914E+03 -0.84437599507E+03  0.10712561770E+04  0.91021634031E+02 0.  0.
         13    1    3    3    0    0 -0.32702402019E+03  0.83719512034E+02 -0.36298714612E+03  0.49569479998E+03  0.00000000000E+00 0. -1.
        -13    1    3    3    0    0 -0.30240484678E+03  0.89927657102E+02 -0.48138884894E+03  0.57556137705E+03  0.00000000000E+00 0.  1.
         22    1    1    2    0    0  0.62942886697E+03 -0.17364716914E+03  0.33262740984E+04  0.33897541822E+04  0.00000000000E+00 0. -1.
<mgrwt>
<rscale>  0 0.37068579E+04</rscale>
<asrwt>0</asrwt>
<pdfrwt beam="1">  1        2 0.53406988E+00 0.37068579E+04</pdfrwt>
<pdfrwt beam="2">  1       -2 0.15223941E+00 0.37068579E+04</pdfrwt>
<totfact> 0.19774996E-01</totfact>
</mgrwt>
</event>
<event>
 6    1  0.1719556E-004  0.9403323E+03  0.7818608E-02  0.9376523E-01
          1   -1    0    0  501    0  0.00000000000E+00  0.00000000000E+00  0.68035502884E+03  0.68035502884E+03  0.00000000000E+00 0. -1.
         -1   -1    0    0    0  501 -0.00000000000E+00 -0.00000000000E+00 -0.32491304572E+03  0.32491304572E+03  0.00000000000E+00 0.  1.
         23    2    1    2    0    0 -0.25980752527E+03 -0.49395354206E+02 -0.23006403957E+03  0.36280628286E+03  0.93589985430E+02 0.  0.
         11    1    3    3    0    0 -0.17889726956E+03 -0.58845183939E+02 -0.11119575051E+03  0.21870410069E+03  0.00000000000E+00 0. -1.
        -11    1    3    3    0    0 -0.80910255717E+02  0.94498297328E+01 -0.11886828905E+03  0.14410218216E+03  0.00000000000E+00 0.  1.
         22    1    1    2    0    0  0.25980752527E+03  0.49395354206E+02  0.58550602269E+03  0.64246179171E+03  0.00000000000E+00 0. -1.
<mgrwt>
<rscale>  0 0.94033233E+03</rscale>
<asrwt>0</asrwt>
<pdfrwt beam="1">  1        1 0.10467000E+00 0.94033233E+03</pdfrwt>
<pdfrwt beam="2">  1       -1 0.49986623E-01 0.94033233E+03</pdfrwt>
<totfact> 0.11486745E+02</totfact>
</mgrwt>
</event>
<event>
 6    1  0.1719556E-004  0.2603169E+04  0.7818608E-02  0.8367125E-01
         -1   -1    0    0    0  501 -0.00000000000E+00  0.00000000000E+00  0.70429091102E+03  0.70429091102E+03  0.00000000000E+00 0. -1.
          1   -1    0    0  501    0  0.00000000000E+00 -0.00000000000E+00 -0.24054302391E+04  0.24054302391E+04  0.00000000000E+00 0.  1.
         23    2    1    2    0    0 -0.64659382746E+03 -0.11227056019E+04 -0.72394833814E+03  0.14869292112E+04  0.91136361387E+02 0.  0.
         11    1    3    3    0    0 -0.30110919808E+03 -0.43635377684E+03 -0.30931610199E+03  0.61379786468E+03  0.00000000000E+00 0. -1.
        -11    1    3    3    0    0 -0.34548462938E+03 -0.68635182511E+03 -0.41463223615E+03  0.87313134649E+03  0.00000000000E+00 0.  1.
         22    1    1    2    0    0  0.64659382746E+03  0.11227056019E+04 -0.97719098998E+03  0.16227919390E+04  0.00000000000E+00 0.  1.
<mgrwt>
<rscale>  0 0.26031693E+04</rscale>
<asrwt>0</asrwt>
<pdfrwt beam="1">  1        1 0.37006620E+00 0.26031693E+04</pdfrwt>
<pdfrwt beam="2">  1       -1 0.10835245E+00 0.26031693E+04</pdfrwt>
<totfact> 0.10964106E+00</totfact>
</mgrwt>
</event>
<event>
 6    1  0.1719556E-004  0.4788775E+03  0.7818608E-02  0.1019444E+00
          1   -1    0    0  501    0  0.00000000000E+00  0.00000000000E+00  0.54202411191E+03  0.54202411191E+03  0.00000000000E+00 0. -1.
         -1   -1    0    0    0  501 -0.00000000000E+00 -0.00000000000E+00 -0.10577190169E+03  0.10577190169E+03  0.00000000000E+00 0.  1.
         23    2    1    2    0    0 -0.11064532285E+03 -0.12608026758E+03  0.12026762711E+02  0.19160981077E+03  0.91820777707E+02 0.  0.
         13    1    3    3    0    0 -0.54669571970E+02 -0.99638132514E+02 -0.29062265019E+02  0.11730786333E+03  0.00000000000E+00 0.  1.
        -13    1    3    3    0    0 -0.55975750881E+02 -0.26442135068E+02  0.41089027730E+02  0.74301947440E+02  0.00000000000E+00 0. -1.
         22    1    1    2    0    0  0.11064532285E+03  0.12608026758E+03  0.42422544751E+03  0.45618620283E+03  0.00000000000E+00 0. -1.
<mgrwt>
<rscale>  0 0.47887753E+03</rscale>
<asrwt>0</asrwt>
<pdfrwt beam="1">  1        1 0.83388323E-01 0.47887753E+03</pdfrwt>
<pdfrwt beam="2">  1       -1 0.16272601E-01 0.47887753E+03</pdfrwt>
<totfact> 0.11435306E+03</totfact>
</mgrwt>
</event>
<event>
 6    1  0.1719556E-004  0.1343428E+04  0.7818608E-02  0.8995818E-01
         -1   -1    0    0    0  501 -0.00000000000E+00  0.00000000000E+00  0.45379541318E+03  0.45379541318E+03  0.00000000000E+00 0. -1.
          1   -1    0    0  501    0  0.00000000000E+00 -0.00000000000E+00 -0.99427989923E+03  0.99427989923E+03  0.00000000000E+00 0.  1.
         23    2    1    2    0    0 -0.34386680020E+03  0.56244512003E+03 -0.39150224472E+03  0.77221689709E+03  0.91956724626E+02 0.  0.
         11    1    3    3    0    0 -0.18244954690E+03  0.26968332838E+03 -0.24363356817E+03  0.40666232959E+03  0.00000000000E+00 0. -1.
        -11    1    3    3    0    0 -0.16141725330E+03  0.29276179165E+03 -0.14786867655E+03  0.36555456750E+03  0.00000000000E+00 0.  1.
         22    1    1    2    0    0  0.34386680020E+03 -0.56244512003E+03 -0.14898224132E+03  0.67585841532E+03  0.00000000000E+00 0. -1.
<mgrwt>
<rscale>  0 0.13434279E+04</rscale>
<asrwt>0</asrwt>
<pdfrwt beam="1">  1        1 0.15296614E+00 0.13434279E+04</pdfrwt>
<pdfrwt beam="2">  1       -1 0.69814679E-01 0.13434279E+04</pdfrwt>
<totfact> 0.31064544E+01</totfact>
</mgrwt>
</event>
<event>
 6    1  0.1719556E-004  0.2313969E+04  0.7818608E-02  0.8472434E-01
         -2   -1    0    0    0  501 -0.00000000000E+00  0.00000000000E+00  0.12392498810E+04  0.12392498810E+04  0.00000000000E+00 0. -1.
          2   -1    0    0  501    0  0.00000000000E+00 -0.00000000000E+00 -0.10801803886E+04  0.10801803886E+04  0.00000000000E+00 0.  1.
         23    2    1    2    0    0 -0.10309801554E+04  0.19994958446E+03 -0.40317770093E+03  0.11282032452E+04  0.85967358219E+02 0.  0.
         11    1    3    3    0    0 -0.94700811280E+03  0.20721934995E+03 -0.37160974481E+03  0.10381994159E+04  0.00000000000E+00 0.  1.
        -11    1    3    3    0    0 -0.83972042615E+02 -0.72697654865E+01 -0.31567956117E+02  0.90003829277E+02  0.00000000000E+00 0. -1.
         22    1    1    2    0    0  0.10309801554E+04 -0.19994958446E+03  0.56224719334E+03  0.11912270244E+04  0.00000000000E+00 0. -1.
<mgrwt>
<rscale>  0 0.23139692E+04</rscale>
<asrwt>0</asrwt>
<pdfrwt beam="1">  1        2 0.16618160E+00 0.23139692E+04</pdfrwt>
<pdfrwt beam="2">  1       -2 0.19065383E+00 0.23139692E+04</pdfrwt>
<totfact> 0.31137953E+00</totfact>
</mgrwt>
</event>
<event>
 6    1  0.1719556E-004  0.4301533E+04  0.7818608E-02  0.7946335E-01
         -2   -1    0    0    0  501 -0.00000000000E+00  0.00000000000E+00  0.15475335362E+04  0.15475335362E+04  0.00000000000E+00 0. -1.
          2   -1    0    0  501    0  0.00000000000E+00 -0.00000000000E+00 -0.29891417825E+04  0.29891417825E+04  0.00000000000E+00 0.  1.
         23    2    1    2    0    0 -0.13167856925E+04  0.46728346601E+03  0.10021098348E+04  0.17217088077E+04  0.88196937718E+02 0.  0.
         11    1    3    3    0    0 -0.21755108607E+03  0.43149470172E+02  0.16110043093E+03  0.27412351353E+03  0.00000000000E+00 0.  1.
        -11    1    3    3    0    0 -0.10992346065E+04  0.42413399584E+03  0.84100940391E+03  0.14475852942E+04  0.00000000000E+00 0. -1.
         22    1    1    2    0    0  0.13167856925E+04 -0.46728346601E+03 -0.24437180812E+04  0.28149665110E+04  0.00000000000E+00 0.  1.
<mgrwt>
<rscale>  0 0.43015333E+04</rscale>
<asrwt>0</asrwt>
<pdfrwt beam="1">  1        2 0.45986797E+00 0.43015333E+04</pdfrwt>
<pdfrwt beam="2">  1       -2 0.23808208E+00 0.43015333E+04</pdfrwt>
<totfact> 0.10361735E-01</totfact>
</mgrwt>
</event>
<event>
 6    1  0.1719556E-004  0.2181080E+04  0.7818608E-02  0.8526344E-01
          2   -1    0    0  501    0  0.00000000000E+00  0.00000000000E+00  0.56085271186E+03  0.56085271186E+03  0.00000000000E+00 0.  1.
         -2   -1    0    0    0  501 -0.00000000000E+00 -0.00000000000E+00 -0.21204816275E+04  0.21204816275E+04  0.00000000000E+00 0. -1.
         23    2    1    2    0    0  0.65795206306E+03  0.30222618723E+03 -0.17805769170E+04  0.19243273349E+04  0.91323321737E+02 0.  0.
         11    1    3    3    0    0  0.93532632028E+02  0.74320282493E+02 -0.34234677185E+03  0.36259229148E+03  0.00000000000E+00 0. -1.
        -11    1    3    3    0    0  0.56441943103E+03  0.22790590474E+03 -0.14382301451E+04  0.15617350434E+04  0.00000000000E+00 0.  1.
         22    1    1    2    0    0 -0.65795206306E+03 -0.30222618723E+03  0.22094800132E+03  0.75700700447E+03  0.00000000000E+00 0.  1.
<mgrwt>
<rscale>  0 0.21810803E+04</rscale>
<asrwt>0</asrwt>
<pdfrwt beam="1">  1        2 0.86285033E-01 0.21810803E+04</pdfrwt>
<pdfrwt beam="2">  1       -2 0.32622794E+00 0.21810803E+04</pdfrwt>
<totfact> 0.10799930E+00</totfact>
</mgrwt>
</event>
<event>
 6    1  0.1719556E-004  0.2152441E+04  0.7818608E-02  0.8538488E-01
          1   -1    0    0  501    0  0.00000000000E+00  0.00000000000E+00  0.76799363907E+03  0.76799363907E+03  0.00000000000E+00 0.  1.
         -1   -1    0    0    0  501 -0.00000000000E+00 -0.00000000000E+00 -0.15081506851E+04  0.15081506851E+04  0.00000000000E+00 0. -1.
         23    2    1    2    0    0 -0.54024274515E+03 -0.56637428114E+03  0.40762251233E+03  0.88688554172E+03  0.88135132115E+02 0.  0.
         13    1    3    3    0    0 -0.94988580628E+02 -0.15131114102E+03  0.10273294793E+03  0.20608723987E+03  0.00000000000E+00 0. -1.
        -13    1    3    3    0    0 -0.44525416453E+03 -0.41506314013E+03  0.30488956440E+03  0.68079830185E+03  0.00000000000E+00 0.  1.
         22    1    1    2    0    0  0.54024274515E+03  0.56637428114E+03 -0.11477795584E+04  0.13892587825E+04  0.00000000000E+00 0. -1.
<mgrwt>
<rscale>  0 0.21524406E+04</rscale>
<asrwt>0</asrwt>
<pdfrwt beam="1">  1        1 0.11815287E+00 0.21524406E+04</pdfrwt>
<pdfrwt beam="2">  1       -1 0.23202318E+00 0.21524406E+04</pdfrwt>
<totfact> 0.19769474E+00</totfact>
</mgrwt>
</event>
<event>
 6    1  0.1719556E-004  0.1567282E+04  0.7818608E-02  0.8840904E-01
         -1   -1    0    0    0  501 -0.00000000000E+00  0.00000000000E+00  0.83485384069E+03  0.83485384069E+03  0.00000000000E+00 0. -1.
          1   -1    0    0  501    0  0.00000000000E+00 -0.00000000000E+00 -0.73556958188E+03  0.73556958188E+03  0.00000000000E+00 0.  1.
         23    2    1    2    0    0 -0.15807487256E+02  0.77838368442E+03  0.11266162956E+03  0.79176432458E+03  0.89816847407E+02 0.  0.
         13    1    3    3    0    0 -0.20704464039E+02  0.12461842867E+03 -0.94307862905E+01  0.12667820383E+03  0.00000000000E+00 0. -1.
        -13    1    3    3    0    0  0.48969767825E+01  0.65376525575E+03  0.12209241585E+03  0.66508612075E+03  0.00000000000E+00 0.  1.
         22    1    1    2    0    0  0.15807487256E+02 -0.77838368442E+03 -0.13377370747E+02  0.77865909798E+03  0.00000000000E+00 0.  1.
<mgrwt>
<rscale>  0 0.15672818E+04</rscale>
<asrwt>0</asrwt>
<pdfrwt beam="1">  1        1 0.11316455E+00 0.15672818E+04</pdfrwt>
<pdfrwt beam="2">  1       -1 0.12843905E+00 0.15672818E+04</pdfrwt>
<totfact> 0.12702027E+01</totfact>
</mgrwt>
</event>
<event>
 6    1  0.1719556E-004  0.1965220E+04  0.7818608E-02  0.8623056E-01
         -2   -1    0    0    0  501 -0.00000000000E+00  0.00000000000E+00  0.66654251417E+03  0.66654251417E+03  0.00000000000E+00 0. -1.
          2   -1    0    0  501    0  0.00000000000E+00 -0.00000000000E+00 -0.14485531098E+04  0.14485531098E+04  0.00000000000E+00 0.  1.
         23    2    1    2    0    0 -0.31457557848E+03  0.72658282052E+03 -0.10141830378E+04  0.12899990039E+04  0.93004333764E+02 0.  0.
         11    1    3    3    0    0 -0.13037355367E+03  0.36267277663E+03 -0.55683230027E+03  0.67719348567E+03  0.00000000000E+00 0.  1.
        -11    1    3    3    0    0 -0.18420202481E+03  0.36391004389E+03 -0.45735073757E+03  0.61280551820E+03  0.00000000000E+00 0. -1.
         22    1    1    2    0    0  0.31457557848E+03 -0.72658282052E+03  0.23217244217E+03  0.82509662013E+03  0.00000000000E+00 0. -1.
<mgrwt>
<rscale>  0 0.19652198E+04</rscale>
<asrwt>0</asrwt>
<pdfrwt beam="1">  1        2 0.22285432E+00 0.19652198E+04</pdfrwt>
<pdfrwt beam="2">  1       -2 0.10254500E+00 0.19652198E+04</pdfrwt>
<totfact> 0.98412673E+00</totfact>
</mgrwt>
</event>
<event>
 6    1  0.1719556E-004  0.1148158E+04  0.7818608E-02  0.9159484E-01
          2   -1    0    0  501    0  0.00000000000E+00  0.00000000000E+00  0.20896685738E+04  0.20896685738E+04  0.00000000000E+00 0.  1.
         -2   -1    0    0    0  501 -0.00000000000E+00 -0.00000000000E+00 -0.15771247456E+03  0.15771247456E+03  0.00000000000E+00 0. -1.
         23    2    1    2    0    0 -0.50213344093E+03  0.24895419119E+03  0.11796304958E+04  0.13092392705E+04  0.91995537577E+02 0.  0.
         13    1    3    3    0    0 -0.18912859299E+03  0.10809788816E+03  0.36208601238E+03  0.42256485712E+03  0.00000000000E+00 0.  1.
        -13    1    3    3    0    0 -0.31300484794E+03  0.14085630303E+03  0.81754448342E+03  0.88667441336E+03  0.00000000000E+00 0. -1.
         22    1    1    2    0    0  0.50213344093E+03 -0.24895419119E+03  0.75232560345E+03  0.93814177789E+03  0.00000000000E+00 0.  1.
<mgrwt>
<rscale>  0 0.11481582E+04</rscale>
<asrwt>0</asrwt>
<pdfrwt beam="1">  1        2 0.32148745E+00 0.11481582E+04</pdfrwt>
<pdfrwt beam="2">  1       -2 0.24263459E-01 0.11481582E+04</pdfrwt>
<totfact> 0.89502153E+01</totfact>
</mgrwt>
</event>
<event>
 6    1  0.1719556E-004  0.2954480E+04  0.7818608E-02  0.8256850E-01
          1   -1    0    0  501    0  0.00000000000E+00  0.00000000000E+00  0.20293494110E+04  0.20293494110E+04  0.00000000000E+00 0.  1.
         -1   -1    0    0    0  501 -0.00000000000E+00 -0.00000000000E+00 -0.10753387159E+04  0.10753387159E+04  0.00000000000E+00 0. -1.
         23    2    1    2    0    0  0.11174576446E+04 -0.32843227459E+03 -0.47501467764E+03  0.12611337170E+04  0.90774235157E+02 0.  0.
         13    1    3    3    0    0  0.96747393107E+03 -0.30601629495E+03 -0.43683537100E+03  0.11047519728E+04  0.00000000000E+00 0. -1.
        -13    1    3    3    0    0  0.14998371350E+03 -0.22415979640E+02 -0.38179306641E+02  0.15638174418E+03  0.00000000000E+00 0.  1.
         22    1    1    2    0    0 -0.11174576446E+04  0.32843227459E+03  0.14290253727E+04  0.18435544099E+04  0.00000000000E+00 0.  1.
<mgrwt>
<rscale>  0 0.29544800E+04</rscale>
<asrwt>0</asrwt>
<pdfrwt beam="1">  1        1 0.31220760E+00 0.29544800E+04</pdfrwt>
<pdfrwt beam="2">  1       -1 0.16543673E+00 0.29544800E+04</pdfrwt>
<totfact> 0.64679264E-01</totfact>
</mgrwt>
</event>
<event>
 6    1  0.1719556E-004  0.2282362E+04  0.7818608E-02  0.8484908E-01
          2   -1    0    0  501    0  0.00000000000E+00  0.00000000000E+00  0.14752803958E+04  0.14752803958E+04  0.00000000000E+00 0.  1.
         -2   -1    0    0    0  501 -0.00000000000E+00 -0.00000000000E+00 -0.88274342752E+03  0.88274342752E+03  0.00000000000E+00 0. -1.
         23    2    1    2    0    0 -0.22381707799E+03 -0.11118496840E+04  0.18532504892E+03  0.11529821845E+04  0.93374192321E+02 0.  0.
         13    1    3    3    0    0 -0.18872725139E+03 -0.71272610665E+03  0.12454312392E+03  0.74773489168E+03  0.00000000000E+00 0. -1.
        -13    1    3    3    0    0 -0.35089826597E+02 -0.39912357732E+03  0.60781924997E+02  0.40524729279E+03  0.00000000000E+00 0.  1.
         22    1    1    2    0    0  0.22381707799E+03  0.11118496840E+04  0.40721191941E+03  0.12050416389E+04  0.00000000000E+00 0.  1.
<mgrwt>
<rscale>  0 0.22823620E+04</rscale>
<asrwt>0</asrwt>
<pdfrwt beam="1">  1        2 0.22696621E+00 0.22823620E+04</pdfrwt>
<pdfrwt beam="2">  1       -2 0.13580668E+00 0.22823620E+04</pdfrwt>
<totfact> 0.46254076E+00</totfact>
</mgrwt>
</event>
<event>
 6    1  0.1719556E-004  0.2098586E+04  0.7818608E-02  0.8561867E-01
         -1   -1    0    0    0  501 -0.00000000000E+00  0.00000000000E+00  0.55168128195E+03  0.55168128195E+03  0.00000000000E+00 0. -1.
          1   -1    0    0  501    0  0.00000000000E+00 -0.00000000000E+00 -0.19957459767E+04  0.19957459767E+04  0.00000000000E+00 0.  1.
         23    2    1    2    0    0  0.20228442647E+03 -0.71754951999E+03  0.16954821915E+03  0.76991693837E+03  0.90714886028E+02 0.  0.
         11    1    3    3    0    0  0.62202459800E+02 -0.10160567082E+03  0.20276870898E+02  0.12084705144E+03  0.00000000000E+00 0.  1.
        -11    1    3    3    0    0  0.14008196667E+03 -0.61594384917E+03  0.14927134825E+03  0.64906988693E+03  0.00000000000E+00 0. -1.
         22    1    1    2    0    0 -0.20228442647E+03  0.71754951999E+03 -0.16136129139E+04  0.17775103203E+04  0.00000000000E+00 0.  1.
<mgrwt>
<rscale>  0 0.20985859E+04</rscale>
<asrwt>0</asrwt>
<pdfrwt beam="1">  1        1 0.30703784E+00 0.20985859E+04</pdfrwt>
<pdfrwt beam="2">  1       -1 0.84874044E-01 0.20985859E+04</pdfrwt>
<totfact> 0.37893774E+00</totfact>
</mgrwt>
</event>
<event>
 6    1  0.1719556E-004  0.4386585E+04  0.7818608E-02  0.7930799E-01
          1   -1    0    0  501    0  0.00000000000E+00  0.00000000000E+00  0.15109623904E+04  0.15109623904E+04  0.00000000000E+00 0.  1.
         -1   -1    0    0    0  501 -0.00000000000E+00 -0.00000000000E+00 -0.31837537583E+04  0.31837537583E+04  0.00000000000E+00 0. -1.
         23    2    1    2    0    0  0.15010570691E+04 -0.97149952814E+03 -0.21944733921E+04  0.28321545277E+04  0.91663198936E+02 0.  0.
         11    1    3    3    0    0  0.72323730453E+03 -0.41521916989E+03 -0.10396716529E+04  0.13328151798E+04  0.00000000000E+00 0. -1.
        -11    1    3    3    0    0  0.77781976454E+03 -0.55628035825E+03 -0.11548017393E+04  0.14993393479E+04  0.00000000000E+00 0.  1.
         22    1    1    2    0    0 -0.15010570691E+04  0.97149952814E+03  0.52168202422E+03  0.18625616210E+04  0.00000000000E+00 0.  1.
<mgrwt>
<rscale>  0 0.43865851E+04</rscale>
<asrwt>0</asrwt>
<pdfrwt beam="1">  1        1 0.23245575E+00 0.43865851E+04</pdfrwt>
<pdfrwt beam="2">  1       -1 0.48980827E+00 0.43865851E+04</pdfrwt>
<totfact> 0.84895324E-03</totfact>
</mgrwt>
</event>
<event>
 6    1  0.1719556E-004  0.1281726E+04  0.7818608E-02  0.9044183E-01
          2   -1    0    0  501    0  0.00000000000E+00  0.00000000000E+00  0.14419945667E+04  0.14419945667E+04  0.00000000000E+00 0.  1.
         -2   -1    0    0    0  501 -0.00000000000E+00 -0.00000000000E+00 -0.28481775683E+03  0.28481775683E+03  0.00000000000E+00 0. -1.
         23    2    1    2    0    0 -0.43775052139E+03 -0.67205383984E+02 -0.36616744933E+02  0.45351536912E+03  0.90516967528E+02 0.  0.
         11    1    3    3    0    0 -0.20457957661E+03  0.10501890882E+02  0.11492962282E+01  0.20485217538E+03  0.00000000000E+00 0. -1.
        -11    1    3    3    0    0 -0.23317094478E+03 -0.77707274866E+02 -0.37766041161E+02  0.24866319374E+03  0.00000000000E+00 0.  1.
         22    1    1    2    0    0  0.43775052139E+03  0.67205383984E+02  0.11937935548E+04  0.12732969544E+04  0.00000000000E+00 0.  1.
<mgrwt>
<rscale>  0 0.12817264E+04</rscale>
<asrwt>0</asrwt>
<pdfrwt beam="1">  1        2 0.22184531E+00 0.12817264E+04</pdfrwt>
<pdfrwt beam="2">  1       -2 0.43818117E-01 0.12817264E+04</pdfrwt>
<totfact> 0.66343801E+01</totfact>
</mgrwt>
</event>
<event>
 6    1  0.1719556E-004  0.1827167E+04  0.7818608E-02  0.8691984E-01
         -2   -1    0    0    0  501 -0.00000000000E+00  0.00000000000E+00  0.33806720091E+03  0.33806720091E+03  0.00000000000E+00 0.  1.
          2   -1    0    0  501    0  0.00000000000E+00 -0.00000000000E+00 -0.24688428945E+04  0.24688428945E+04  0.00000000000E+00 0. -1.
         23    2    1    2    0    0  0.14200364779E+02  0.48069155258E+03 -0.22571739292E+04  0.23096752082E+04  0.92192201304E+02 0.  0.
         13    1    3    3    0    0  0.37441596630E+02  0.40117410117E+03 -0.19704727715E+04  0.20112447578E+04  0.00000000000E+00 0. -1.
        -13    1    3    3    0    0 -0.23241231851E+02  0.79517451407E+02 -0.28670115768E+03  0.29843045044E+03  0.00000000000E+00 0.  1.
         22    1    1    2    0    0 -0.14200364779E+02 -0.48069155258E+03  0.12639823555E+03  0.49723488718E+03  0.00000000000E+00 0.  1.
<mgrwt>
<rscale>  0 0.18271670E+04</rscale>
<asrwt>0</asrwt>
<pdfrwt beam="1">  1        2 0.37982198E+00 0.18271670E+04</pdfrwt>
<pdfrwt beam="2">  1       -2 0.52010340E-01 0.18271670E+04</pdfrwt>
<totfact> 0.11942755E+01</totfact>
</mgrwt>
</event>
<event>
 6    1  0.1719556E-004  0.2352684E+04  0.7818608E-02  0.8457433E-01
          2   -1    0    0  501    0  0.00000000000E+00  0.00000000000E+00  0.28247560392E+04  0.28247560392E+04  0.00000000000E+00 0.  1.
         -2   -1    0    0    0  501 -0.00000000000E+00 -0.00000000000E+00 -0.48987611942E+03  0.48987611942E+03  0.00000000000E+00 0. -1.
         23    2    1    2    0    0 -0.19704778049E+03  0.78419301928E+03 -0.31142656277E+02  0.81426231604E+03  0.90921587169E+02 0.  0.
         11    1    3    3    0    0 -0.13071366721E+03  0.52324042304E+03 -0.63615908867E+02  0.54305946909E+03  0.00000000000E+00 0.  1.
        -11    1    3    3    0    0 -0.66334113278E+02  0.26095259623E+03  0.32473252590E+02  0.27120284696E+03  0.00000000000E+00 0. -1.
         22    1    1    2    0    0  0.19704778049E+03 -0.78419301928E+03  0.23660225760E+04  0.25003698426E+04  0.00000000000E+00 0.  1.
<mgrwt>
<rscale>  0 0.23526840E+04</rscale>
<asrwt>0</asrwt>
<pdfrwt beam="1">  1        2 0.43457784E+00 0.23526840E+04</pdfrwt>
<pdfrwt beam="2">  1       -2 0.75365559E-01 0.23526840E+04</pdfrwt>
<totfact> 0.31862550E+00</totfact>
</mgrwt>
</event>
<event>
 6    1  0.1719556E-004  0.1553782E+04  0.7818608E-02  0.8849456E-01
         -1   -1    0    0    0  501 -0.00000000000E+00  0.00000000000E+00  0.35665663676E+03  0.35665663676E+03  0.00000000000E+00 0. -1.
          1   -1    0    0  501    0  0.00000000000E+00 -0.00000000000E+00 -0.16922701677E+04  0.16922701677E+04  0.00000000000E+00 0.  1.
         23    2    1    2    0    0 -0.49693177392E+03 -0.25927471207E+03 -0.13742142966E+04  0.14870953499E+04  0.93931264820E+02 0.  0.
         11    1    3    3    0    0 -0.44648538095E+03 -0.25729138357E+03 -0.12063466297E+04  0.13118003821E+04  0.00000000000E+00 0. -1.
        -11    1    3    3    0    0 -0.50446392964E+02 -0.19833285015E+01 -0.16786766683E+03  0.17529496776E+03  0.00000000000E+00 0.  1.
         22    1    1    2    0    0  0.49693177392E+03  0.25927471207E+03  0.38600765615E+02  0.56183145458E+03  0.00000000000E+00 0. -1.
<mgrwt>
<rscale>  0 0.15537817E+04</rscale>
<asrwt>0</asrwt>
<pdfrwt beam="1">  1        1 0.26034926E+00 0.15537817E+04</pdfrwt>
<pdfrwt beam="2">  1       -1 0.54870251E-01 0.15537817E+04</pdfrwt>
<totfact> 0.15596262E+01</totfact>
</mgrwt>
</event>
<event>
 6    1  0.1719556E-004  0.3253605E+04  0.7818608E-02  0.8174802E-01
          2   -1    0    0  501    0  0.00000000000E+00  0.00000000000E+00  0.28100723276E+04  0.28100723276E+04  0.00000000000E+00 0.  1.
         -2   -1    0    0    0  501 -0.00000000000E+00 -0.00000000000E+00 -0.94178600957E+03  0.94178600957E+03  0.00000000000E+00 0. -1.
         23    2    1    2    0    0 -0.13585490204E+02 -0.14901757632E+04  0.18618690758E+03  0.15045784709E+04  0.91007909118E+02 0.  0.
         13    1    3    3    0    0 -0.46437857508E+02 -0.49871778235E+03  0.72088150101E+02  0.50603616711E+03  0.00000000000E+00 0.  1.
        -13    1    3    3    0    0  0.32852367305E+02 -0.99145798090E+03  0.11409875748E+03  0.99854230375E+03  0.00000000000E+00 0. -1.
         22    1    1    2    0    0  0.13585490204E+02  0.14901757632E+04  0.16820994105E+04  0.22472798663E+04  0.00000000000E+00 0. -1.
<mgrwt>
<rscale>  0 0.32536053E+04</rscale>
<asrwt>0</asrwt>
<pdfrwt beam="1">  1        2 0.43231882E+00 0.32536053E+04</pdfrwt>
<pdfrwt beam="2">  1       -2 0.14489016E+00 0.32536053E+04</pdfrwt>
<totfact> 0.62731937E-01</totfact>
</mgrwt>
</event>
<event>
 6    1  0.1719556E-004  0.4158024E+04  0.7818608E-02  0.7973405E-01
         -2   -1    0    0    0  501 -0.00000000000E+00  0.00000000000E+00  0.38902153500E+04  0.38902153500E+04  0.00000000000E+00 0. -1.
          2   -1    0    0  501    0  0.00000000000E+00 -0.00000000000E+00 -0.11110673031E+04  0.11110673031E+04  0.00000000000E+00 0.  1.
         23    2    1    2    0    0 -0.26507919673E+03 -0.10797997575E+04 -0.72171526601E+03  0.13280989615E+04  0.82094029368E+02 0.  0.
         13    1    3    3    0    0 -0.68125769970E+02 -0.26780695370E+03 -0.13813787558E+03  0.30893973143E+03  0.00000000000E+00 0. -1.
        -13    1    3    3    0    0 -0.19695342676E+03 -0.81199280376E+03 -0.58357739043E+03  0.10191592301E+04  0.00000000000E+00 0.  1.
         22    1    1    2    0    0  0.26507919673E+03  0.10797997575E+04  0.35008633129E+04  0.36731836916E+04  0.00000000000E+00 0. -1.
<mgrwt>
<rscale>  0 0.41580241E+04</rscale>
<asrwt>0</asrwt>
<pdfrwt beam="1">  1        2 0.17093343E+00 0.41580241E+04</pdfrwt>
<pdfrwt beam="2">  1       -2 0.59849466E+00 0.41580241E+04</pdfrwt>
<totfact> 0.86030041E-03</totfact>
</mgrwt>
</event>
<event>
 6    1  0.1719556E-004  0.4574847E+04  0.7818608E-02  0.7897663E-01
          2   -1    0    0  501    0  0.00000000000E+00  0.00000000000E+00  0.38239511821E+04  0.38239511821E+04  0.00000000000E+00 0.  1.
         -2   -1    0    0    0  501 -0.00000000000E+00 -0.00000000000E+00 -0.13682983213E+04  0.13682983213E+04  0.00000000000E+00 0. -1.
         23    2    1    2    0    0  0.19117058932E+04  0.32361733807E+03 -0.14748992442E+03  0.19463752046E+04  0.85296868060E+02 0.  0.
         11    1    3    3    0    0  0.14667657197E+04  0.21813305008E+03 -0.92010836679E+02  0.14857488677E+04  0.00000000000E+00 0.  1.
        -11    1    3    3    0    0  0.44494017353E+03  0.10548428799E+03 -0.55479087740E+02  0.46062633686E+03  0.00000000000E+00 0. -1.
         22    1    1    2    0    0 -0.19117058932E+04 -0.32361733807E+03  0.26031427853E+04  0.32458742989E+04  0.00000000000E+00 0.  1.
<mgrwt>
<rscale>  0 0.45748469E+04</rscale>
<asrwt>0</asrwt>
<pdfrwt beam="1">  1        2 0.58830018E+00 0.45748469E+04</pdfrwt>
<pdfrwt beam="2">  1       -2 0.21050744E+00 0.45748469E+04</pdfrwt>
<totfact> 0.40170386E-02</totfact>
</mgrwt>
</event>
<event>
 6    1  0.1719556E-004  0.2543021E+04  0.7818608E-02  0.8387817E-01
         -2   -1    0    0    0  501 -0.00000000000E+00  0.00000000000E+00  0.75426166914E+03  0.75426166914E+03  0.00000000000E+00 0. -1.
          2   -1    0    0  501    0  0.00000000000E+00 -0.00000000000E+00 -0.21434721889E+04  0.21434721889E+04  0.00000000000E+00 0.  1.
         23    2    1    2    0    0 -0.22682638154E+03  0.86595768600E+03  0.33063639916E+03  0.95886657382E+03  0.93657656595E+02 0.  0.
         13    1    3    3    0    0 -0.76053243913E+02  0.30081584421E+03  0.16257421070E+03  0.35029222375E+03  0.00000000000E+00 0.  1.
        -13    1    3    3    0    0 -0.15077313762E+03  0.56514184179E+03  0.16806218846E+03  0.60857435007E+03  0.00000000000E+00 0. -1.
         22    1    1    2    0    0  0.22682638154E+03 -0.86595768600E+03 -0.17198469189E+04  0.19388672842E+04  0.00000000000E+00 0.  1.
<mgrwt>
<rscale>  0 0.25430210E+04</rscale>
<asrwt>0</asrwt>
<pdfrwt beam="1">  1        2 0.32976495E+00 0.25430210E+04</pdfrwt>
<pdfrwt beam="2">  1       -2 0.11604026E+00 0.25430210E+04</pdfrwt>
<totfact> 0.28476880E+00</totfact>
</mgrwt>
</event>
<event>
 6    1  0.1719556E-004  0.4059091E+04  0.7818608E-02  0.7992731E-01
          2   -1    0    0  501    0  0.00000000000E+00  0.00000000000E+00  0.27411649532E+04  0.27411649532E+04  0.00000000000E+00 0.  1.
         -2   -1    0    0    0  501 -0.00000000000E+00 -0.00000000000E+00 -0.15026655412E+04  0.15026655412E+04  0.00000000000E+00 0. -1.
         23    2    1    2    0    0  0.18415331570E+04 -0.23673003732E+03 -0.23458539555E+03  0.18737536329E+04  0.92934870317E+02 0.  0.
         11    1    3    3    0    0  0.15966216035E+04 -0.17463438098E+03 -0.21225162387E+03  0.16201075469E+04  0.00000000000E+00 0.  1.
        -11    1    3    3    0    0  0.24491155356E+03 -0.62095656338E+02 -0.22333771681E+02  0.25364608604E+03  0.00000000000E+00 0. -1.
         22    1    1    2    0    0 -0.18415331570E+04  0.23673003732E+03  0.14730848076E+04  0.23700768615E+04  0.00000000000E+00 0.  1.
<mgrwt>
<rscale>  0 0.40590906E+04</rscale>
<asrwt>0</asrwt>
<pdfrwt beam="1">  1        2 0.42171768E+00 0.40590906E+04</pdfrwt>
<pdfrwt beam="2">  1       -2 0.23117931E+00 0.40590906E+04</pdfrwt>
<totfact> 0.16556369E-01</totfact>
</mgrwt>
</event>
<event>
 6    1  0.1719556E-004  0.2545818E+04  0.7818608E-02  0.8386842E-01
         -1   -1    0    0    0  501 -0.00000000000E+00  0.00000000000E+00  0.16078594523E+04  0.16078594523E+04  0.00000000000E+00 0. -1.
          1   -1    0    0  501    0  0.00000000000E+00 -0.00000000000E+00 -0.10077360521E+04  0.10077360521E+04  0.00000000000E+00 0.  1.
         23    2    1    2    0    0 -0.86818057317E+03  0.60646965066E+03  0.10231638281E+04  0.14751981401E+04  0.88331130515E+02 0.  0.
         11    1    3    3    0    0 -0.69856323451E+03  0.50748796792E+03  0.78960692885E+03  0.11700486025E+04  0.00000000000E+00 0.  1.
        -11    1    3    3    0    0 -0.16961733866E+03  0.98981682744E+02  0.23355689925E+03  0.30514953757E+03  0.00000000000E+00 0. -1.
         22    1    1    2    0    0  0.86818057317E+03 -0.60646965066E+03 -0.42304042797E+03  0.11403973643E+04  0.00000000000E+00 0.  1.
<mgrwt>
<rscale>  0 0.25458185E+04</rscale>
<asrwt>0</asrwt>
<pdfrwt beam="1">  1        1 0.15503632E+00 0.25458185E+04</pdfrwt>
<pdfrwt beam="2">  1       -1 0.24736299E+00 0.25458185E+04</pdfrwt>
<totfact> 0.95783814E-01</totfact>
</mgrwt>
</event>
<event>
 6    1  0.1719556E-004  0.5971618E+03  0.7818608E-02  0.9911312E-01
         -1   -1    0    0    0  501 -0.00000000000E+00  0.00000000000E+00  0.10976481660E+03  0.10976481660E+03  0.00000000000E+00 0. -1.
          1   -1    0    0  501    0  0.00000000000E+00 -0.00000000000E+00 -0.81219615158E+03  0.81219615158E+03  0.00000000000E+00 0.  1.
         23    2    1    2    0    0  0.88662114756E+02 -0.90381527357E+02 -0.76406791053E+03  0.78114598841E+03  0.10178159079E+03 0.  0.
         11    1    3    3    0    0  0.80403589757E+02 -0.40241170952E+02 -0.65105356394E+03  0.65723270780E+03  0.00000000000E+00 0.  1.
        -11    1    3    3    0    0  0.82585249992E+01 -0.50140356405E+02 -0.11301434659E+03  0.12391328061E+03  0.00000000000E+00 0. -1.
         22    1    1    2    0    0 -0.88662114756E+02  0.90381527357E+02  0.61636575555E+02  0.14081497977E+03  0.00000000000E+00 0. -1.
<mgrwt>
<rscale>  0 0.59716183E+03</rscale>
<asrwt>0</asrwt>
<pdfrwt beam="1">  1        1 0.12495325E+00 0.59716183E+03</pdfrwt>
<pdfrwt beam="2">  1       -1 0.16886895E-01 0.59716183E+03</pdfrwt>
<totfact> 0.59110676E+02</totfact>
</mgrwt>
</event>
<event>
 6    1  0.1719556E-004  0.2106778E+04  0.7818608E-02  0.8558263E-01
          1   -1    0    0  501    0  0.00000000000E+00  0.00000000000E+00  0.15526325731E+04  0.15526325731E+04  0.00000000000E+00 0.  1.
         -1   -1    0    0    0  501 -0.00000000000E+00 -0.00000000000E+00 -0.71467569878E+03  0.71467569878E+03  0.00000000000E+00 0. -1.
         23    2    1    2    0    0  0.36968075305E+03 -0.93406110324E+03  0.75383218999E+03  0.12592353746E+04  0.90976667902E+02 0.  0.
         11    1    3    3    0    0  0.25236521625E+03 -0.62429604814E+03  0.45118325596E+03  0.81055541979E+03  0.00000000000E+00 0.  1.
        -11    1    3    3    0    0  0.11731553680E+03 -0.30976505510E+03  0.30264893403E+03  0.44867995476E+03  0.00000000000E+00 0. -1.
         22    1    1    2    0    0 -0.36968075305E+03  0.93406110324E+03  0.84124684309E+02  0.10080728973E+04  0.00000000000E+00 0.  1.
<mgrwt>
<rscale>  0 0.21067784E+04</rscale>
<asrwt>0</asrwt>
<pdfrwt beam="1">  1        1 0.23886655E+00 0.21067784E+04</pdfrwt>
<pdfrwt beam="2">  1       -1 0.10995011E+00 0.21067784E+04</pdfrwt>
<totfact> 0.42239816E+00</totfact>
</mgrwt>
</event>
<event>
 6    1  0.1719556E-004  0.3071223E+04  0.7818608E-02  0.8223680E-01
         -1   -1    0    0    0  501 -0.00000000000E+00  0.00000000000E+00  0.31582464275E+04  0.31582464275E+04  0.00000000000E+00 0. -1.
          1   -1    0    0  501    0  0.00000000000E+00 -0.00000000000E+00 -0.74664913928E+03  0.74664913928E+03  0.00000000000E+00 0.  1.
         23    2    1    2    0    0  0.45026366721E+03  0.11957119486E+04  0.22867772472E+04  0.26211337210E+04  0.92343766735E+02 0.  0.
         11    1    3    3    0    0  0.35252487997E+03  0.84539371699E+03  0.16903566014E+04  0.19225685339E+04  0.00000000000E+00 0. -1.
        -11    1    3    3    0    0  0.97738787242E+02  0.35031823158E+03  0.59642064581E+03  0.69856518712E+03  0.00000000000E+00 0.  1.
         22    1    1    2    0    0 -0.45026366721E+03 -0.11957119486E+04  0.12482004102E+03  0.12837618457E+04  0.00000000000E+00 0.  1.
<mgrwt>
<rscale>  0 0.30712225E+04</rscale>
<asrwt>0</asrwt>
<pdfrwt beam="1">  1        1 0.11486910E+00 0.30712225E+04</pdfrwt>
<pdfrwt beam="2">  1       -1 0.48588406E+00 0.30712225E+04</pdfrwt>
<totfact> 0.38411766E-02</totfact>
</mgrwt>
</event>
<event>
 6    1  0.1719556E-004  0.3045622E+04  0.7818608E-02  0.8230822E-01
          2   -1    0    0  501    0  0.00000000000E+00  0.00000000000E+00  0.21210897985E+04  0.21210897985E+04  0.00000000000E+00 0.  1.
         -2   -1    0    0    0  501 -0.00000000000E+00 -0.00000000000E+00 -0.10932840386E+04  0.10932840386E+04  0.00000000000E+00 0. -1.
         23    2    1    2    0    0  0.74224494797E+02 -0.12864681273E+04  0.13681699790E+04  0.18815732820E+04  0.88991043656E+02 0.  0.
         11    1    3    3    0    0  0.86045766227E+02 -0.73808463632E+03  0.79764311256E+03  0.10901409722E+04  0.00000000000E+00 0. -1.
        -11    1    3    3    0    0 -0.11821271430E+02 -0.54838349099E+03  0.57052686644E+03  0.79143230979E+03  0.00000000000E+00 0.  1.
         22    1    1    2    0    0 -0.74224494797E+02  0.12864681273E+04 -0.34036421907E+03  0.13328005552E+04  0.00000000000E+00 0. -1.
<mgrwt>
<rscale>  0 0.30456222E+04</rscale>
<asrwt>0</asrwt>
<pdfrwt beam="1">  1        2 0.32632151E+00 0.30456222E+04</pdfrwt>
<pdfrwt beam="2">  1       -2 0.16819754E+00 0.30456222E+04</pdfrwt>
<totfact> 0.10707015E+00</totfact>
</mgrwt>
</event>
<event>
 6    1  0.1719556E-004  0.1228556E+04  0.7818608E-02  0.9088222E-01
         -2   -1    0    0    0  501 -0.00000000000E+00  0.00000000000E+00  0.74203474989E+03  0.74203474989E+03  0.00000000000E+00 0. -1.
          2   -1    0    0  501    0  0.00000000000E+00 -0.00000000000E+00 -0.50851751494E+03  0.50851751494E+03  0.00000000000E+00 0.  1.
         23    2    1    2    0    0  0.14988554942E+03  0.47656261303E+03 -0.24073090277E+03  0.56172071925E+03  0.89449409280E+02 0.  0.
         11    1    3    3    0    0  0.64617649397E+01  0.11129924059E+03 -0.26316986574E+02  0.11455068374E+03  0.00000000000E+00 0. -1.
        -11    1    3    3    0    0  0.14342378448E+03  0.36526337244E+03 -0.21441391620E+03  0.44717003551E+03  0.00000000000E+00 0.  1.
         22    1    1    2    0    0 -0.14988554942E+03 -0.47656261303E+03  0.47424813771E+03  0.68883154558E+03  0.00000000000E+00 0. -1.
<mgrwt>
<rscale>  0 0.12285563E+04</rscale>
<asrwt>0</asrwt>
<pdfrwt beam="1">  1        2 0.78233464E-01 0.12285563E+04</pdfrwt>
<pdfrwt beam="2">  1       -2 0.11415919E+00 0.12285563E+04</pdfrwt>
<totfact> 0.35693722E+01</totfact>
</mgrwt>
</event>
<event>
 6    1  0.1719556E-004  0.1283198E+04  0.7818608E-02  0.9042996E-01
          2   -1    0    0  501    0  0.00000000000E+00  0.00000000000E+00  0.47547819852E+03  0.47547819852E+03  0.00000000000E+00 0.  1.
         -2   -1    0    0    0  501 -0.00000000000E+00 -0.00000000000E+00 -0.86575839463E+03  0.86575839463E+03  0.00000000000E+00 0. -1.
         23    2    1    2    0    0 -0.56921928641E+03 -0.19880427373E+02  0.10450631397E+03  0.58677021353E+03  0.94720042307E+02 0.  0.
         13    1    3    3    0    0 -0.53732766169E+03 -0.93481636316E+01  0.11861156498E+03  0.55034271824E+03  0.00000000000E+00 0. -1.
        -13    1    3    3    0    0 -0.31891624726E+02 -0.10532263742E+02 -0.14105251007E+02  0.36427495291E+02  0.00000000000E+00 0.  1.
         22    1    1    2    0    0  0.56921928641E+03  0.19880427373E+02 -0.49478651008E+03  0.75446637962E+03  0.00000000000E+00 0. -1.
<mgrwt>
<rscale>  0 0.12831979E+04</rscale>
<asrwt>0</asrwt>
<pdfrwt beam="1">  1        2 0.73150492E-01 0.12831979E+04</pdfrwt>
<pdfrwt beam="2">  1       -2 0.13319360E+00 0.12831979E+04</pdfrwt>
<totfact> 0.26139636E+01</totfact>
</mgrwt>
</event>
<event>
 6    1  0.1719556E-004  0.1463977E+04  0.7818608E-02  0.8908768E-01
         -2   -1    0    0    0  501 -0.00000000000E+00  0.00000000000E+00  0.33102812629E+03  0.33102812629E+03  0.00000000000E+00 0. -1.
          2   -1    0    0  501    0  0.00000000000E+00 -0.00000000000E+00 -0.16186141946E+04  0.16186141946E+04  0.00000000000E+00 0.  1.
         23    2    1    2    0    0 -0.96210541144E+02  0.46188321916E+03 -0.13868394842E+04  0.14675180455E+04  0.87709078888E+02 0.  0.
         13    1    3    3    0    0 -0.98928146731E+02  0.39856194304E+03 -0.11103196762E+04  0.11838277679E+04  0.00000000000E+00 0.  1.
        -13    1    3    3    0    0  0.27176055871E+01  0.63321276121E+02 -0.27651980799E+03  0.28369027759E+03  0.00000000000E+00 0. -1.
         22    1    1    2    0    0  0.96210541144E+02 -0.46188321916E+03  0.99253415889E+02  0.48212427541E+03  0.00000000000E+00 0. -1.
<mgrwt>
<rscale>  0 0.14639765E+04</rscale>
<asrwt>0</asrwt>
<pdfrwt beam="1">  1        2 0.24901757E+00 0.14639765E+04</pdfrwt>
<pdfrwt beam="2">  1       -2 0.50927404E-01 0.14639765E+04</pdfrwt>
<totfact> 0.38435085E+01</totfact>
</mgrwt>
</event>
<event>
 6    1  0.1719556E-004  0.1372856E+04  0.7818608E-02  0.8973704E-01
          2   -1    0    0  501    0  0.00000000000E+00  0.00000000000E+00  0.17053666184E+04  0.17053666184E+04  0.00000000000E+00 0.  1.
         -2   -1    0    0    0  501 -0.00000000000E+00 -0.00000000000E+00 -0.27629459031E+03  0.27629459031E+03  0.00000000000E+00 0. -1.
         23    2    1    2    0    0  0.39936916902E+03 -0.47165359433E+03  0.29635440890E+03  0.69131162389E+03  0.90183033041E+02 0.  0.
         13    1    3    3    0    0  0.10110881647E+03 -0.11615393662E+03  0.11865005154E+03  0.19440309795E+03  0.00000000000E+00 0. -1.
        -13    1    3    3    0    0  0.29826035255E+03 -0.35549965771E+03  0.17770435736E+03  0.49690852595E+03  0.00000000000E+00 0.  1.
         22    1    1    2    0    0 -0.39936916902E+03  0.47165359433E+03  0.11327176192E+04  0.12903495848E+04  0.00000000000E+00 0.  1.
<mgrwt>
<rscale>  0 0.13728563E+04</rscale>
<asrwt>0</asrwt>
<pdfrwt beam="1">  1        2 0.26236409E+00 0.13728563E+04</pdfrwt>
<pdfrwt beam="2">  1       -2 0.42506861E-01 0.13728563E+04</pdfrwt>
<totfact> 0.49824690E+01</totfact>
</mgrwt>
</event>
<event>
 6    1  0.1719556E-004  0.8416497E+03  0.7818608E-02  0.9501614E-01
          3   -1    0    0  501    0  0.00000000000E+00  0.00000000000E+00  0.87094262232E+03  0.87094262232E+03  0.00000000000E+00 0.  1.
         -3   -1    0    0    0  501 -0.00000000000E+00 -0.00000000000E+00 -0.20333548412E+03  0.20333548412E+03  0.00000000000E+00 0. -1.
         23    2    1    2    0    0  0.32621941283E+03 -0.12995067284E+03  0.53488318165E+02  0.36685446548E+03  0.91732851178E+02 0.  0.
         13    1    3    3    0    0  0.10155496985E+03 -0.48338179961E+01  0.40288776271E+02  0.10936161663E+03  0.00000000000E+00 0.  1.
        -13    1    3    3    0    0  0.22466444297E+03 -0.12511685484E+03  0.13199541894E+02  0.25749284885E+03  0.00000000000E+00 0. -1.
         22    1    1    2    0    0 -0.32621941283E+03  0.12995067284E+03  0.61411882004E+03  0.70742364097E+03  0.00000000000E+00 0.  1.
<mgrwt>
<rscale>  0 0.84164967E+03</rscale>
<asrwt>0</asrwt>
<pdfrwt beam="1">  1        3 0.13399117E+00 0.84164967E+03</pdfrwt>
<pdfrwt beam="2">  1       -3 0.31282383E-01 0.84164967E+03</pdfrwt>
<totfact> 0.11383033E+01</totfact>
</mgrwt>
</event>
<event>
 6    1  0.1719556E-004  0.9059699E+03  0.7818608E-02  0.9418149E-01
         -2   -1    0    0    0  501 -0.00000000000E+00  0.00000000000E+00  0.10662512698E+03  0.10662512698E+03  0.00000000000E+00 0. -1.
          2   -1    0    0  501    0  0.00000000000E+00 -0.00000000000E+00 -0.19244561860E+04  0.19244561860E+04  0.00000000000E+00 0.  1.
         23    2    1    2    0    0  0.82033335719E+02  0.40957273629E+03 -0.12838823083E+04  0.13531575983E+04  0.90567156956E+02 0.  0.
         13    1    3    3    0    0  0.26154601125E+02  0.18750507571E+03 -0.72191605888E+03  0.74632768450E+03  0.00000000000E+00 0.  1.
        -13    1    3    3    0    0  0.55878734594E+02  0.22206766059E+03 -0.56196624938E+03  0.60682991381E+03  0.00000000000E+00 0. -1.
         22    1    1    2    0    0 -0.82033335719E+02 -0.40957273629E+03 -0.53394875079E+03  0.67792371470E+03  0.00000000000E+00 0. -1.
<mgrwt>
<rscale>  0 0.90596994E+03</rscale>
<asrwt>0</asrwt>
<pdfrwt beam="1">  1        2 0.29607021E+00 0.90596994E+03</pdfrwt>
<pdfrwt beam="2">  1       -2 0.16403864E-01 0.90596994E+03</pdfrwt>
<totfact> 0.22361142E+02</totfact>
</mgrwt>
</event>
<event>
 6    1  0.1719556E-004  0.3028310E+04  0.7818608E-02  0.8235693E-01
          3   -1    0    0  501    0  0.00000000000E+00  0.00000000000E+00  0.99744501100E+03  0.99744501100E+03  0.00000000000E+00 0. -1.
         -3   -1    0    0    0  501 -0.00000000000E+00 -0.00000000000E+00 -0.22985378859E+04  0.22985378859E+04  0.00000000000E+00 0.  1.
         23    2    1    2    0    0  0.15032176863E+04  0.40045973601E+02 -0.83037072759E+03  0.17202778381E+04  0.92591589272E+02 0.  0.
         11    1    3    3    0    0  0.75144089532E+03  0.63975636164E+02 -0.43237936775E+03  0.86931479847E+03  0.00000000000E+00 0.  1.
        -11    1    3    3    0    0  0.75177679101E+03 -0.23929662563E+02 -0.39799135984E+03  0.85096303959E+03  0.00000000000E+00 0. -1.
         22    1    1    2    0    0 -0.15032176863E+04 -0.40045973601E+02 -0.47072214731E+03  0.15757050588E+04  0.00000000000E+00 0.  1.
<mgrwt>
<rscale>  0 0.30283099E+04</rscale>
<asrwt>0</asrwt>
<pdfrwt beam="1">  1        3 0.15345308E+00 0.30283099E+04</pdfrwt>
<pdfrwt beam="2">  1       -3 0.35362121E+00 0.30283099E+04</pdfrwt>
<totfact> 0.12905112E-02</totfact>
</mgrwt>
</event>
<event>
 6    1  0.1719556E-004  0.2331058E+04  0.7818608E-02  0.8465775E-01
          1   -1    0    0  501    0  0.00000000000E+00  0.00000000000E+00  0.65798582219E+03  0.65798582219E+03  0.00000000000E+00 0. -1.
         -1   -1    0    0    0  501 -0.00000000000E+00 -0.00000000000E+00 -0.20645701513E+04  0.20645701513E+04  0.00000000000E+00 0.  1.
         23    2    1    2    0    0 -0.72994258405E+03  0.37960979952E+03  0.25688098373E+03  0.86674439283E+03  0.91313891621E+02 0.  0.
         11    1    3    3    0    0 -0.29572221272E+03  0.18217091165E+03  0.14757200083E+03  0.37737960143E+03  0.00000000000E+00 0.  1.
        -11    1    3    3    0    0 -0.43422037133E+03  0.19743888787E+03  0.10930898291E+03  0.48936479140E+03  0.00000000000E+00 0. -1.
         22    1    1    2    0    0  0.72994258405E+03 -0.37960979952E+03 -0.16634653129E+04  0.18558115807E+04  0.00000000000E+00 0.  1.
<mgrwt>
<rscale>  0 0.23310580E+04</rscale>
<asrwt>0</asrwt>
<pdfrwt beam="1">  1        1 0.10122859E+00 0.23310580E+04</pdfrwt>
<pdfrwt beam="2">  1       -1 0.31762618E+00 0.23310580E+04</pdfrwt>
<totfact> 0.68409428E-01</totfact>
</mgrwt>
</event>
<event>
 6    1  0.1719556E-004  0.2573394E+04  0.7818608E-02  0.8377295E-01
          2   -1    0    0  501    0  0.00000000000E+00  0.00000000000E+00  0.17278559571E+04  0.17278559571E+04  0.00000000000E+00 0.  1.
         -2   -1    0    0    0  501 -0.00000000000E+00 -0.00000000000E+00 -0.95817560404E+03  0.95817560404E+03  0.00000000000E+00 0. -1.
         23    2    1    2    0    0 -0.95022926405E+03 -0.71924178963E+03 -0.11697579429E+03  0.12006348027E+04  0.87156106409E+02 0.  0.
         13    1    3    3    0    0 -0.15803576777E+03 -0.13905089024E+03 -0.50385611104E+02  0.21644667652E+03  0.00000000000E+00 0.  1.
        -13    1    3    3    0    0 -0.79219349628E+03 -0.58019089939E+03 -0.66590183186E+02  0.98418812622E+03  0.00000000000E+00 0. -1.
         22    1    1    2    0    0  0.95022926405E+03  0.71924178963E+03  0.88665614731E+03  0.14853967584E+04  0.00000000000E+00 0. -1.
<mgrwt>
<rscale>  0 0.25733942E+04</rscale>
<asrwt>0</asrwt>
<pdfrwt beam="1">  1        2 0.26582399E+00 0.25733942E+04</pdfrwt>
<pdfrwt beam="2">  1       -2 0.14741163E+00 0.25733942E+04</pdfrwt>
<totfact> 0.26324332E+00</totfact>
</mgrwt>
</event>
<event>
 6    1  0.1719556E-004  0.4572949E+04  0.7818608E-02  0.7897989E-01
         -1   -1    0    0    0  501 -0.00000000000E+00  0.00000000000E+00  0.16470689925E+04  0.16470689925E+04  0.00000000000E+00 0.  1.
          1   -1    0    0  501    0  0.00000000000E+00 -0.00000000000E+00 -0.31741023697E+04  0.31741023697E+04  0.00000000000E+00 0. -1.
         23    2    1    2    0    0  0.92309206740E+03 -0.20800361721E+04 -0.98764530042E+03  0.24824561295E+04  0.92172409783E+02 0.  0.
         13    1    3    3    0    0  0.17885078039E+03 -0.49897561515E+03 -0.23082920488E+03  0.57814045697E+03  0.00000000000E+00 0.  1.
        -13    1    3    3    0    0  0.74424128701E+03 -0.15810605570E+04 -0.75681609554E+03  0.19043156725E+04  0.00000000000E+00 0. -1.
         22    1    1    2    0    0 -0.92309206740E+03  0.20800361721E+04 -0.53938807677E+03  0.23387152327E+04  0.00000000000E+00 0.  1.
<mgrwt>
<rscale>  0 0.45729490E+04</rscale>
<asrwt>0</asrwt>
<pdfrwt beam="1">  1        1 0.48832344E+00 0.45729490E+04</pdfrwt>
<pdfrwt beam="2">  1       -1 0.25339523E+00 0.45729490E+04</pdfrwt>
<totfact> 0.21986035E-02</totfact>
</mgrwt>
</event>
<event>
 6    1  0.1984789E-004  0.4381413E+04  0.7818608E-02  0.7931733E-01
         -2   -1    0    0    0  501 -0.00000000000E+00  0.00000000000E+00  0.27683069476E+04  0.27683069476E+04  0.00000000000E+00 0. -1.
          2   -1    0    0  501    0  0.00000000000E+00 -0.00000000000E+00 -0.17336206277E+04  0.17336206277E+04  0.00000000000E+00 0.  1.
         23    2    1    2    0    0  0.49770846609E+03  0.50415157905E+03  0.26465604370E+04  0.27412400103E+04  0.90731006261E+02 0.  0.
         13    1    3    3    0    0  0.21070127188E+03  0.24031754347E+03  0.13513777674E+04  0.13886574156E+04  0.00000000000E+00 0.  1.
        -13    1    3    3    0    0  0.28700719421E+03  0.26383403558E+03  0.12951826696E+04  0.13525825947E+04  0.00000000000E+00 0. -1.
         22    1    1    2    0    0 -0.49770846609E+03 -0.50415157905E+03 -0.16118741172E+04  0.17606875650E+04  0.00000000000E+00 0.  1.
<mgrwt>
<rscale>  0 0.43814126E+04</rscale>
<asrwt>0</asrwt>
<pdfrwt beam="1">  1        2 0.26671087E+00 0.43814126E+04</pdfrwt>
<pdfrwt beam="2">  1       -2 0.42589338E+00 0.43814126E+04</pdfrwt>
<totfact> 0.36031636E-02</totfact>
</mgrwt>
</event>
<event>
 6    1  0.1719556E-004  0.1655746E+04  0.7818608E-02  0.8787014E-01
         -2   -1    0    0    0  501 -0.00000000000E+00  0.00000000000E+00  0.17273306239E+04  0.17273306239E+04  0.00000000000E+00 0. -1.
          2   -1    0    0  501    0  0.00000000000E+00 -0.00000000000E+00 -0.39678210740E+03  0.39678210740E+03  0.00000000000E+00 0.  1.
         23    2    1    2    0    0 -0.70321246414E+03  0.15611905393E+03  0.11842299145E+04  0.13890684727E+04  0.90718260788E+02 0.  0.
         13    1    3    3    0    0 -0.14389503241E+03  0.69843075884E+02  0.27246426469E+03  0.31594399999E+03  0.00000000000E+00 0. -1.
        -13    1    3    3    0    0 -0.55931743173E+03  0.86275978042E+02  0.91176564982E+03  0.10731244728E+04  0.00000000000E+00 0.  1.
         22    1    1    2    0    0  0.70321246414E+03 -0.15611905393E+03  0.14631860197E+03  0.73504425853E+03  0.00000000000E+00 0.  1.
<mgrwt>
<rscale>  0 0.16557462E+04</rscale>
<asrwt>0</asrwt>
<pdfrwt beam="1">  1        2 0.61043402E-01 0.16557462E+04</pdfrwt>
<pdfrwt beam="2">  1       -2 0.26574317E+00 0.16557462E+04</pdfrwt>
<totfact> 0.39461436E+00</totfact>
</mgrwt>
</event>
<event>
 6    1  0.1719556E-004  0.2507505E+04  0.7818608E-02  0.8400317E-01
          2   -1    0    0  501    0  0.00000000000E+00  0.00000000000E+00  0.16125914728E+04  0.16125914728E+04  0.00000000000E+00 0.  1.
         -2   -1    0    0    0  501 -0.00000000000E+00 -0.00000000000E+00 -0.97476339624E+03  0.97476339624E+03  0.00000000000E+00 0. -1.
         23    2    1    2    0    0 -0.83241527258E+03 -0.92394387870E+03  0.46900989723E+03  0.13323301463E+04  0.92443810039E+02 0.  0.
         13    1    3    3    0    0 -0.48232071078E+03 -0.54222494076E+03  0.32190915841E+03  0.79389335600E+03  0.00000000000E+00 0. -1.
        -13    1    3    3    0    0 -0.35009456180E+03 -0.38171893793E+03  0.14710073882E+03  0.53843679029E+03  0.00000000000E+00 0.  1.
         22    1    1    2    0    0  0.83241527258E+03  0.92394387870E+03  0.16881817930E+03  0.12550247227E+04  0.00000000000E+00 0. -1.
<mgrwt>
<rscale>  0 0.25075048E+04</rscale>
<asrwt>0</asrwt>
<pdfrwt beam="1">  1        2 0.24809100E+00 0.25075048E+04</pdfrwt>
<pdfrwt beam="2">  1       -2 0.14996360E+00 0.25075048E+04</pdfrwt>
<totfact> 0.29326492E+00</totfact>
</mgrwt>
</event>
<event>
 6    1  0.1719556E-004  0.1279096E+04  0.7818608E-02  0.9046308E-01
         -1   -1    0    0    0  501 -0.00000000000E+00  0.00000000000E+00  0.51329725851E+03  0.51329725851E+03  0.00000000000E+00 0. -1.
          1   -1    0    0  501    0  0.00000000000E+00 -0.00000000000E+00 -0.79685139182E+03  0.79685139182E+03  0.00000000000E+00 0.  1.
         23    2    1    2    0    0 -0.49351259105E+02 -0.44936834912E+03 -0.60143033616E+03  0.75750704829E+03  0.87926213352E+02 0.  0.
         11    1    3    3    0    0 -0.18548259000E+02 -0.36590072601E+03 -0.52510987126E+03  0.64028724500E+03  0.00000000000E+00 0.  1.
        -11    1    3    3    0    0 -0.30803000105E+02 -0.83467623107E+02 -0.76320464897E+02  0.11721980330E+03  0.00000000000E+00 0. -1.
         22    1    1    2    0    0  0.49351259105E+02  0.44936834912E+03  0.31787620285E+03  0.55264160204E+03  0.00000000000E+00 0. -1.
<mgrwt>
<rscale>  0 0.12790960E+04</rscale>
<asrwt>0</asrwt>
<pdfrwt beam="1">  1        1 0.12259252E+00 0.12790960E+04</pdfrwt>
<pdfrwt beam="2">  1       -1 0.78968810E-01 0.12790960E+04</pdfrwt>
<totfact> 0.35125011E+01</totfact>
</mgrwt>
</event>
<event>
 6    1  0.1719556E-004  0.2958226E+04  0.7818608E-02  0.8255761E-01
         -2   -1    0    0    0  501 -0.00000000000E+00  0.00000000000E+00  0.12510858103E+04  0.12510858103E+04  0.00000000000E+00 0. -1.
          2   -1    0    0  501    0  0.00000000000E+00 -0.00000000000E+00 -0.17487014510E+04  0.17487014510E+04  0.00000000000E+00 0.  1.
         23    2    1    2    0    0  0.10072489222E+04  0.84684595153E+03  0.43226673386E+03  0.13884587141E+04  0.96252868312E+02 0.  0.
         13    1    3    3    0    0  0.42919909521E+03  0.39992245524E+03  0.15328910883E+03  0.60633933108E+03  0.00000000000E+00 0. -1.
        -13    1    3    3    0    0  0.57804982696E+03  0.44692349629E+03  0.27897762503E+03  0.78211938299E+03  0.00000000000E+00 0.  1.
         22    1    1    2    0    0 -0.10072489222E+04 -0.84684595153E+03 -0.92988237451E+03  0.16113285473E+04  0.00000000000E+00 0.  1.
<mgrwt>
<rscale>  0 0.29582262E+04</rscale>
<asrwt>0</asrwt>
<pdfrwt beam="1">  1        2 0.26903099E+00 0.29582262E+04</pdfrwt>
<pdfrwt beam="2">  1       -2 0.19247474E+00 0.29582262E+04</pdfrwt>
<totfact> 0.11809270E+00</totfact>
</mgrwt>
</event>
<event>
 6    1  0.1719556E-004  0.3204096E+04  0.7818608E-02  0.8187736E-01
          2   -1    0    0  501    0  0.00000000000E+00  0.00000000000E+00  0.30001959854E+04  0.30001959854E+04  0.00000000000E+00 0.  1.
         -2   -1    0    0    0  501 -0.00000000000E+00 -0.00000000000E+00 -0.85546348858E+03  0.85546348858E+03  0.00000000000E+00 0. -1.
         23    2    1    2    0    0  0.37632743624E+03 -0.10164641546E+04 -0.34404009430E+03  0.11411041279E+04  0.94516279952E+02 0.  0.
         13    1    3    3    0    0  0.31942181489E+03 -0.80586725384E+03 -0.24035849352E+03  0.89956908131E+03  0.00000000000E+00 0. -1.
        -13    1    3    3    0    0  0.56905621353E+02 -0.21059690080E+03 -0.10368160078E+03  0.24153504654E+03  0.00000000000E+00 0.  1.
         22    1    1    2    0    0 -0.37632743624E+03  0.10164641546E+04  0.24887725911E+04  0.27145553461E+04  0.00000000000E+00 0.  1.
<mgrwt>
<rscale>  0 0.32040962E+04</rscale>
<asrwt>0</asrwt>
<pdfrwt beam="1">  1        2 0.46156861E+00 0.32040962E+04</pdfrwt>
<pdfrwt beam="2">  1       -2 0.13160977E+00 0.32040962E+04</pdfrwt>
<totfact> 0.61634671E-01</totfact>
</mgrwt>
</event>
<event>
 6    1  0.1719556E-004  0.2105323E+04  0.7818608E-02  0.8558902E-01
          1   -1    0    0  501    0  0.00000000000E+00  0.00000000000E+00  0.22545973035E+04  0.22545973035E+04  0.00000000000E+00 0.  1.
         -1   -1    0    0    0  501 -0.00000000000E+00 -0.00000000000E+00 -0.49148310883E+03  0.49148310883E+03  0.00000000000E+00 0. -1.
         23    2    1    2    0    0 -0.93757718650E+02 -0.37036979051E+03  0.21597971651E+04  0.21953339456E+04  0.93824553096E+02 0.  0.
         13    1    3    3    0    0 -0.33652393279E+02 -0.24950498437E+03  0.12030426388E+04  0.12291040687E+04  0.00000000000E+00 0. -1.
        -13    1    3    3    0    0 -0.60105325370E+02 -0.12086480614E+03  0.95675452631E+03  0.96622987695E+03  0.00000000000E+00 0.  1.
         22    1    1    2    0    0  0.93757718650E+02  0.37036979051E+03 -0.39668297046E+03  0.55074646670E+03  0.00000000000E+00 0. -1.
<mgrwt>
<rscale>  0 0.21053232E+04</rscale>
<asrwt>0</asrwt>
<pdfrwt beam="1">  1        1 0.34686112E+00 0.21053232E+04</pdfrwt>
<pdfrwt beam="2">  1       -1 0.75612787E-01 0.21053232E+04</pdfrwt>
<totfact> 0.32301776E+00</totfact>
</mgrwt>
</event>
<event>
 6    1  0.1719556E-004  0.8364374E+03  0.7818608E-02  0.9508723E-01
          2   -1    0    0  501    0  0.00000000000E+00  0.00000000000E+00  0.66663589254E+03  0.66663589254E+03  0.00000000000E+00 0.  1.
         -2   -1    0    0    0  501 -0.00000000000E+00 -0.00000000000E+00 -0.26237241352E+03  0.26237241352E+03  0.00000000000E+00 0. -1.
         23    2    1    2    0    0 -0.63166368283E+02 -0.39468581212E+03  0.32226461454E+03  0.52097559395E+03  0.88284808047E+02 0.  0.
         11    1    3    3    0    0 -0.50782937125E+01 -0.11605095269E+03  0.47922411314E+02  0.12565894394E+03  0.00000000000E+00 0.  1.
        -11    1    3    3    0    0 -0.58088074570E+02 -0.27863485943E+03  0.27434220323E+03  0.39531665000E+03  0.00000000000E+00 0. -1.
         22    1    1    2    0    0  0.63166368283E+02  0.39468581212E+03  0.81998864476E+02  0.40803271211E+03  0.00000000000E+00 0. -1.
<mgrwt>
<rscale>  0 0.83643737E+03</rscale>
<asrwt>0</asrwt>
<pdfrwt beam="1">  1        2 0.10255937E+00 0.83643737E+03</pdfrwt>
<pdfrwt beam="2">  1       -2 0.40364987E-01 0.83643737E+03</pdfrwt>
<totfact> 0.25435221E+02</totfact>
</mgrwt>
</event>
<event>
 6    1  0.1719556E-004  0.2880278E+04  0.7818608E-02  0.8278770E-01
          2   -1    0    0  501    0  0.00000000000E+00  0.00000000000E+00  0.28654249843E+04  0.28654249843E+04  0.00000000000E+00 0.  1.
         -2   -1    0    0    0  501 -0.00000000000E+00 -0.00000000000E+00 -0.72380210391E+03  0.72380210391E+03  0.00000000000E+00 0. -1.
         23    2    1    2    0    0  0.84227288371E+03  0.11430974769E+04  0.78287513440E+03  0.16239558882E+04  0.90795366916E+02 0.  0.
         11    1    3    3    0    0  0.25785033090E+03  0.36221567944E+03  0.29306197590E+03  0.53251508269E+03  0.00000000000E+00 0.  1.
        -11    1    3    3    0    0  0.58442255281E+03  0.78088179742E+03  0.48981315850E+03  0.10914408055E+04  0.00000000000E+00 0. -1.
         22    1    1    2    0    0 -0.84227288371E+03 -0.11430974769E+04  0.13587477460E+04  0.19652712000E+04  0.00000000000E+00 0.  1.
<mgrwt>
<rscale>  0 0.28802782E+04</rscale>
<asrwt>0</asrwt>
<pdfrwt beam="1">  1        2 0.44083461E+00 0.28802782E+04</pdfrwt>
<pdfrwt beam="2">  1       -2 0.11135417E+00 0.28802782E+04</pdfrwt>
<totfact> 0.11626785E+00</totfact>
</mgrwt>
</event>
<event>
 6    1  0.1719556E-004  0.3572679E+04  0.7818608E-02  0.8096779E-01
         -1   -1    0    0    0  501 -0.00000000000E+00  0.00000000000E+00  0.29066592689E+04  0.29066592689E+04  0.00000000000E+00 0. -1.
          1   -1    0    0  501    0  0.00000000000E+00 -0.00000000000E+00 -0.10978267361E+04  0.10978267361E+04  0.00000000000E+00 0.  1.
         23    2    1    2    0    0 -0.10957915276E+02  0.12150553154E+04  0.23709083351E+04  0.26656773171E+04  0.90275856222E+02 0.  0.
         11    1    3    3    0    0 -0.40313637867E+02  0.40539003437E+03  0.84127291178E+03  0.93472262274E+03  0.00000000000E+00 0.  1.
        -11    1    3    3    0    0  0.29355722590E+02  0.80966528101E+03  0.15296354233E+04  0.17309546943E+04  0.00000000000E+00 0. -1.
         22    1    1    2    0    0  0.10957915276E+02 -0.12150553154E+04 -0.56207580222E+03  0.13388086879E+04  0.00000000000E+00 0.  1.
<mgrwt>
<rscale>  0 0.35726787E+04</rscale>
<asrwt>0</asrwt>
<pdfrwt beam="1">  1        1 0.16889642E+00 0.35726787E+04</pdfrwt>
<pdfrwt beam="2">  1       -1 0.44717834E+00 0.35726787E+04</pdfrwt>
<totfact> 0.34897881E-02</totfact>
</mgrwt>
</event>
<event>
 6    1  0.1719556E-004  0.3872447E+04  0.7818608E-02  0.8030784E-01
         -2   -1    0    0    0  501 -0.00000000000E+00  0.00000000000E+00  0.22635440069E+04  0.22635440069E+04  0.00000000000E+00 0. -1.
          2   -1    0    0  501    0  0.00000000000E+00 -0.00000000000E+00 -0.16562349504E+04  0.16562349504E+04  0.00000000000E+00 0.  1.
         23    2    1    2    0    0 -0.13791886675E+04  0.13452199486E+04  0.48759832900E+03  0.19894658353E+04  0.91891723321E+02 0.  0.
         13    1    3    3    0    0 -0.62701332609E+03  0.55106900194E+03  0.19657912869E+03  0.85759320766E+03  0.00000000000E+00 0. -1.
        -13    1    3    3    0    0 -0.75217534140E+03  0.79415094662E+03  0.29101920031E+03  0.11318726276E+04  0.00000000000E+00 0.  1.
         22    1    1    2    0    0  0.13791886675E+04 -0.13452199486E+04  0.11971072752E+03  0.19303131220E+04  0.00000000000E+00 0. -1.
<mgrwt>
<rscale>  0 0.38724466E+04</rscale>
<asrwt>0</asrwt>
<pdfrwt beam="1">  1        2 0.25480537E+00 0.38724466E+04</pdfrwt>
<pdfrwt beam="2">  1       -2 0.34823754E+00 0.38724466E+04</pdfrwt>
<totfact> 0.13193371E-01</totfact>
</mgrwt>
</event>
<event>
 6    1  0.1719556E-004  0.1713767E+04  0.7818608E-02  0.8753551E-01
         -2   -1    0    0    0  501 -0.00000000000E+00  0.00000000000E+00  0.34143103319E+03  0.34143103319E+03  0.00000000000E+00 0. -1.
          2   -1    0    0  501    0  0.00000000000E+00 -0.00000000000E+00 -0.21505053307E+04  0.21505053307E+04  0.00000000000E+00 0.  1.
         23    2    1    2    0    0 -0.80891267127E+03 -0.11359917256E+03 -0.54286341015E+03  0.98510707927E+03  0.92145503409E+02 0.  0.
         13    1    3    3    0    0 -0.45202061063E+03 -0.17227313330E+02 -0.29662448556E+03  0.54093021564E+03  0.00000000000E+00 0.  1.
        -13    1    3    3    0    0 -0.35689206063E+03 -0.96371859233E+02 -0.24623892459E+03  0.44417686363E+03  0.00000000000E+00 0. -1.
         22    1    1    2    0    0  0.80891267127E+03  0.11359917256E+03 -0.12662108874E+04  0.15068292846E+04  0.00000000000E+00 0.  1.
<mgrwt>
<rscale>  0 0.17137669E+04</rscale>
<asrwt>0</asrwt>
<pdfrwt beam="1">  1        2 0.33084697E+00 0.17137669E+04</pdfrwt>
<pdfrwt beam="2">  1       -2 0.52527853E-01 0.17137669E+04</pdfrwt>
<totfact> 0.17902447E+01</totfact>
</mgrwt>
</event>
<event>
 6    1  0.1719556E-004  0.2382016E+04  0.7818608E-02  0.8446267E-01
          1   -1    0    0  501    0  0.00000000000E+00  0.00000000000E+00  0.15434530809E+04  0.15434530809E+04  0.00000000000E+00 0.  1.
         -1   -1    0    0    0  501 -0.00000000000E+00 -0.00000000000E+00 -0.91904298502E+03  0.91904298502E+03  0.00000000000E+00 0. -1.
         23    2    1    2    0    0  0.49175613602E+03 -0.35176843849E+03  0.13708003247E+04  0.15019423166E+04  0.10569796938E+03 0.  0.
         11    1    3    3    0    0  0.10009876279E+03 -0.46392313091E+02  0.17203742074E+03  0.20437437012E+03  0.00000000000E+00 0.  1.
        -11    1    3    3    0    0  0.39165737323E+03 -0.30537612540E+03  0.11987629040E+04  0.12975679465E+04  0.00000000000E+00 0. -1.
         22    1    1    2    0    0 -0.49175613602E+03  0.35176843849E+03 -0.74639022880E+03  0.96055374929E+03  0.00000000000E+00 0. -1.
<mgrwt>
<rscale>  0 0.23820157E+04</rscale>
<asrwt>0</asrwt>
<pdfrwt beam="1">  1        1 0.23745432E+00 0.23820157E+04</pdfrwt>
<pdfrwt beam="2">  1       -1 0.14139123E+00 0.23820157E+04</pdfrwt>
<totfact> 0.22374875E+00</totfact>
</mgrwt>
</event>
<event>
 6    1  0.1719556E-004  0.6645884E+03  0.7818608E-02  0.9779784E-01
         -2   -1    0    0    0  501 -0.00000000000E+00  0.00000000000E+00  0.56879845951E+02  0.56879845951E+02  0.00000000000E+00 0. -1.
          2   -1    0    0  501    0  0.00000000000E+00 -0.00000000000E+00 -0.19412752821E+04  0.19412752821E+04  0.00000000000E+00 0.  1.
         23    2    1    2    0    0  0.27059477452E+03  0.14912694873E+03 -0.64638859776E+03  0.72217655820E+03  0.90886649505E+02 0.  0.
         13    1    3    3    0    0  0.19263940486E+03  0.13969923614E+03 -0.42232092750E+03  0.48474816419E+03  0.00000000000E+00 0.  1.
        -13    1    3    3    0    0  0.77955369662E+02  0.94277125894E+01 -0.22406767026E+03  0.23742839401E+03  0.00000000000E+00 0. -1.
         22    1    1    2    0    0 -0.27059477452E+03 -0.14912694873E+03 -0.12380068384E+04  0.12759785698E+04  0.00000000000E+00 0. -1.
<mgrwt>
<rscale>  0 0.66458841E+03</rscale>
<asrwt>0</asrwt>
<pdfrwt beam="1">  1        2 0.29865769E+00 0.66458841E+03</pdfrwt>
<pdfrwt beam="2">  1       -2 0.87507468E-02 0.66458841E+03</pdfrwt>
<totfact> 0.63076845E+02</totfact>
</mgrwt>
</event>
<event>
 6    1  0.1855425E-004  0.1900725E+04  0.7818608E-02  0.8654495E-01
         -2   -1    0    0    0  501 -0.00000000000E+00  0.00000000000E+00  0.37033472914E+03  0.37033472914E+03  0.00000000000E+00 0. -1.
          2   -1    0    0  501    0  0.00000000000E+00 -0.00000000000E+00 -0.24388459228E+04  0.24388459228E+04  0.00000000000E+00 0.  1.
         23    2    1    2    0    0  0.11562517798E+03  0.48285417747E+03 -0.22308330195E+04  0.22868151538E+04  0.79939028957E+02 0.  0.
         13    1    3    3    0    0  0.78605582669E+02  0.23642558548E+03 -0.96177453219E+03  0.99352209128E+03  0.00000000000E+00 0.  1.
        -13    1    3    3    0    0  0.37019595316E+02  0.24642859199E+03 -0.12690584873E+04  0.12932930625E+04  0.00000000000E+00 0. -1.
         22    1    1    2    0    0 -0.11562517798E+03 -0.48285417747E+03  0.16232182583E+03  0.52236549812E+03  0.00000000000E+00 0. -1.
<mgrwt>
<rscale>  0 0.19007255E+04</rscale>
<asrwt>0</asrwt>
<pdfrwt beam="1">  1        2 0.37520707E+00 0.19007255E+04</pdfrwt>
<pdfrwt beam="2">  1       -2 0.56974573E-01 0.19007255E+04</pdfrwt>
<totfact> 0.10220615E+01</totfact>
</mgrwt>
</event>
<event>
 6    1  0.1719556E-004  0.2511663E+04  0.7818608E-02  0.8398842E-01
          2   -1    0    0  501    0  0.00000000000E+00  0.00000000000E+00  0.12102408216E+04  0.12102408216E+04  0.00000000000E+00 0.  1.
         -2   -1    0    0    0  501 -0.00000000000E+00 -0.00000000000E+00 -0.13031391236E+04  0.13031391236E+04  0.00000000000E+00 0. -1.
         23    2    1    2    0    0 -0.41789998122E+03  0.30474177198E+01 -0.12297901361E+04  0.13021108902E+04  0.91974510053E+02 0.  0.
         11    1    3    3    0    0 -0.41514573465E+02  0.28593122680E+02 -0.13107825395E+03  0.14043694362E+03  0.00000000000E+00 0. -1.
        -11    1    3    3    0    0 -0.37638540776E+03 -0.25545704960E+02 -0.10987118821E+04  0.11616739466E+04  0.00000000000E+00 0.  1.
         22    1    1    2    0    0  0.41789998122E+03 -0.30474177198E+01  0.11368918341E+04  0.12112690550E+04  0.00000000000E+00 0.  1.
<mgrwt>
<rscale>  0 0.25116625E+04</rscale>
<asrwt>0</asrwt>
<pdfrwt beam="1">  1        2 0.18619090E+00 0.25116625E+04</pdfrwt>
<pdfrwt beam="2">  1       -2 0.20048294E+00 0.25116625E+04</pdfrwt>
<totfact> 0.21970348E+00</totfact>
</mgrwt>
</event>
<event>
 6    1  0.1719556E-004  0.2747791E+04  0.7818608E-02  0.8319663E-01
          1   -1    0    0  501    0  0.00000000000E+00  0.00000000000E+00  0.17129296871E+04  0.17129296871E+04  0.00000000000E+00 0.  1.
         -1   -1    0    0    0  501 -0.00000000000E+00 -0.00000000000E+00 -0.11019648592E+04  0.11019648592E+04  0.00000000000E+00 0. -1.
         23    2    1    2    0    0  0.10850244099E+04  0.93636587362E+02 -0.54963748223E+03  0.12233407450E+04  0.91735684739E+02 0.  0.
         13    1    3    3    0    0  0.62535633437E+03  0.54198040284E+02 -0.26575626866E+03  0.68164093689E+03  0.00000000000E+00 0.  1.
        -13    1    3    3    0    0  0.45966807551E+03  0.39438547078E+02 -0.28388121357E+03  0.54169980806E+03  0.00000000000E+00 0. -1.
         22    1    1    2    0    0 -0.10850244099E+04 -0.93636587362E+02  0.11606023101E+04  0.15915538014E+04  0.00000000000E+00 0.  1.
<mgrwt>
<rscale>  0 0.27477906E+04</rscale>
<asrwt>0</asrwt>
<pdfrwt beam="1">  1        1 0.26352764E+00 0.27477906E+04</pdfrwt>
<pdfrwt beam="2">  1       -1 0.16953306E+00 0.27477906E+04</pdfrwt>
<totfact> 0.10072613E+00</totfact>
</mgrwt>
</event>
<event>
 6    1  0.1719556E-004  0.2420909E+04  0.7818608E-02  0.8431717E-01
          2   -1    0    0  501    0  0.00000000000E+00  0.00000000000E+00  0.25855868502E+04  0.25855868502E+04  0.00000000000E+00 0.  1.
         -2   -1    0    0    0  501 -0.00000000000E+00 -0.00000000000E+00 -0.56667993990E+03  0.56667993990E+03  0.00000000000E+00 0. -1.
         23    2    1    2    0    0 -0.15893581338E+03  0.42874565453E+03  0.24678076750E+04  0.25114896638E+04  0.91772444636E+02 0.  0.
         11    1    3    3    0    0 -0.69689285647E+02  0.30954979197E+03  0.17111419540E+04  0.17403115977E+04  0.00000000000E+00 0.  1.
        -11    1    3    3    0    0 -0.89246527735E+02  0.11919586256E+03  0.75666572102E+03  0.77117806616E+03  0.00000000000E+00 0. -1.
         22    1    1    2    0    0  0.15893581338E+03 -0.42874565453E+03 -0.44890076468E+03  0.64077712630E+03  0.00000000000E+00 0. -1.
<mgrwt>
<rscale>  0 0.24209091E+04</rscale>
<asrwt>0</asrwt>
<pdfrwt beam="1">  1        2 0.39778259E+00 0.24209091E+04</pdfrwt>
<pdfrwt beam="2">  1       -2 0.87181531E-01 0.24209091E+04</pdfrwt>
<totfact> 0.31672359E+00</totfact>
</mgrwt>
</event>
<event>
 6    1  0.1719556E-004  0.3173871E+04  0.7818608E-02  0.8195752E-01
          1   -1    0    0  501    0  0.00000000000E+00  0.00000000000E+00  0.40362866784E+04  0.40362866784E+04  0.00000000000E+00 0.  1.
         -1   -1    0    0    0  501 -0.00000000000E+00 -0.00000000000E+00 -0.62393116982E+03  0.62393116982E+03  0.00000000000E+00 0. -1.
         23    2    1    2    0    0 -0.54836824986E+03  0.14328196612E+04  0.22955522536E+04  0.27626063417E+04  0.93561377856E+02 0.  0.
         13    1    3    3    0    0 -0.71941170304E+02  0.11421967930E+03  0.20319956483E+03  0.24395026188E+03  0.00000000000E+00 0. -1.
        -13    1    3    3    0    0 -0.47642707956E+03  0.13185999819E+04  0.20923526888E+04  0.25186560799E+04  0.00000000000E+00 0.  1.
         22    1    1    2    0    0  0.54836824986E+03 -0.14328196612E+04  0.11168032549E+04  0.18976115064E+04  0.00000000000E+00 0.  1.
<mgrwt>
<rscale>  0 0.31738715E+04</rscale>
<asrwt>0</asrwt>
<pdfrwt beam="1">  1        1 0.62096716E+00 0.31738715E+04</pdfrwt>
<pdfrwt beam="2">  1       -1 0.95989413E-01 0.31738715E+04</pdfrwt>
<totfact> 0.78042709E-02</totfact>
</mgrwt>
</event>
<event>
 6    1  0.1719556E-004  0.2595198E+04  0.7818608E-02  0.8369834E-01
         -2   -1    0    0    0  501 -0.00000000000E+00  0.00000000000E+00  0.80232248843E+03  0.80232248843E+03  0.00000000000E+00 0. -1.
          2   -1    0    0  501    0  0.00000000000E+00 -0.00000000000E+00 -0.20986120289E+04  0.20986120289E+04  0.00000000000E+00 0.  1.
         23    2    1    2    0    0  0.16562889643E+03 -0.47293645304E+03 -0.19850544231E+04  0.20491722949E+04  0.86972477023E+02 0.  0.
         13    1    3    3    0    0  0.40830115244E+02 -0.19927121913E+03 -0.67211962346E+03  0.70222567977E+03  0.00000000000E+00 0.  1.
        -13    1    3    3    0    0  0.12479878118E+03 -0.27366523391E+03 -0.13129347996E+04  0.13469466151E+04  0.00000000000E+00 0. -1.
         22    1    1    2    0    0 -0.16562889643E+03  0.47293645304E+03  0.68876488263E+03  0.85176222239E+03  0.00000000000E+00 0. -1.
<mgrwt>
<rscale>  0 0.25951984E+04</rscale>
<asrwt>0</asrwt>
<pdfrwt beam="1">  1        2 0.32286339E+00 0.25951984E+04</pdfrwt>
<pdfrwt beam="2">  1       -2 0.12343423E+00 0.25951984E+04</pdfrwt>
<totfact> 0.25777273E+00</totfact>
</mgrwt>
</event>
<event>
 6    1  0.1719556E-004  0.1730795E+04  0.7818608E-02  0.8743993E-01
         -2   -1    0    0    0  501 -0.00000000000E+00  0.00000000000E+00  0.53704766712E+03  0.53704766712E+03  0.00000000000E+00 0. -1.
          2   -1    0    0  501    0  0.00000000000E+00 -0.00000000000E+00 -0.13944995296E+04  0.13944995296E+04  0.00000000000E+00 0.  1.
         23    2    1    2    0    0  0.12394940206E+03 -0.72261271293E+03 -0.93839357281E+03  0.11939265980E+04  0.85706689989E+02 0.  0.
         11    1    3    3    0    0  0.83324855633E+02 -0.30914335895E+03 -0.45773426604E+03  0.55859941484E+03  0.00000000000E+00 0. -1.
        -11    1    3    3    0    0  0.40624546430E+02 -0.41346935398E+03 -0.48065930676E+03  0.63532718313E+03  0.00000000000E+00 0.  1.
         22    1    1    2    0    0 -0.12394940206E+03  0.72261271293E+03  0.80941710372E+02  0.73762059870E+03  0.00000000000E+00 0. -1.
<mgrwt>
<rscale>  0 0.17307949E+04</rscale>
<asrwt>0</asrwt>
<pdfrwt beam="1">  1        2 0.21453839E+00 0.17307949E+04</pdfrwt>
<pdfrwt beam="2">  1       -2 0.82622718E-01 0.17307949E+04</pdfrwt>
<totfact> 0.17782656E+01</totfact>
</mgrwt>
</event>
<event>
 6    1  0.1719556E-004  0.2676513E+04  0.7818608E-02  0.8342666E-01
          2   -1    0    0  501    0  0.00000000000E+00  0.00000000000E+00  0.16587477647E+04  0.16587477647E+04  0.00000000000E+00 0.  1.
         -2   -1    0    0    0  501 -0.00000000000E+00 -0.00000000000E+00 -0.10796880765E+04  0.10796880765E+04  0.00000000000E+00 0. -1.
         23    2    1    2    0    0  0.13280530587E+04 -0.62897060126E+02  0.43096541909E+03  0.14006717068E+04  0.92027554791E+02 0.  0.
         11    1    3    3    0    0  0.65167909989E+03  0.40245605174E+01  0.24252465565E+03  0.69535606341E+03  0.00000000000E+00 0. -1.
        -11    1    3    3    0    0  0.67637395880E+03 -0.66921620644E+02  0.18844076344E+03  0.70531564337E+03  0.00000000000E+00 0.  1.
         22    1    1    2    0    0 -0.13280530587E+04  0.62897060126E+02  0.14809426918E+03  0.13377641345E+04  0.00000000000E+00 0. -1.
<mgrwt>
<rscale>  0 0.26765128E+04</rscale>
<asrwt>0</asrwt>
<pdfrwt beam="1">  1        2 0.25519196E+00 0.26765128E+04</pdfrwt>
<pdfrwt beam="2">  1       -2 0.16610586E+00 0.26765128E+04</pdfrwt>
<totfact> 0.20661111E+00</totfact>
</mgrwt>
</event>
<event>
 6    1  0.1719556E-004  0.3308533E+04  0.7818608E-02  0.8160728E-01
          2   -1    0    0  501    0  0.00000000000E+00  0.00000000000E+00  0.31936564430E+04  0.31936564430E+04  0.00000000000E+00 0.  1.
         -2   -1    0    0    0  501 -0.00000000000E+00 -0.00000000000E+00 -0.85688521088E+03  0.85688521088E+03  0.00000000000E+00 0. -1.
         23    2    1    2    0    0 -0.83341558785E+03 -0.90996864902E+02 -0.57474169311E+03  0.10207282132E+04  0.93252881659E+02 0.  0.
         11    1    3    3    0    0 -0.74990275064E+03 -0.57140104545E+02 -0.53039729404E+03  0.92029365775E+03  0.00000000000E+00 0.  1.
        -11    1    3    3    0    0 -0.83512837208E+02 -0.33856760357E+02 -0.44344399065E+02  0.10043455545E+03  0.00000000000E+00 0. -1.
         22    1    1    2    0    0  0.83341558785E+03  0.90996864902E+02  0.29115129252E+04  0.30298134406E+04  0.00000000000E+00 0.  1.
<mgrwt>
<rscale>  0 0.33085326E+04</rscale>
<asrwt>0</asrwt>
<pdfrwt beam="1">  1        2 0.49133175E+00 0.33085326E+04</pdfrwt>
<pdfrwt beam="2">  1       -2 0.13182850E+00 0.33085326E+04</pdfrwt>
<totfact> 0.45756640E-01</totfact>
</mgrwt>
</event>
<event>
 6    1  0.1719556E-004  0.2660942E+04  0.7818608E-02  0.8347790E-01
         -2   -1    0    0    0  501 -0.00000000000E+00  0.00000000000E+00  0.51802278476E+03  0.51802278476E+03  0.00000000000E+00 0. -1.
          2   -1    0    0  501    0  0.00000000000E+00 -0.00000000000E+00 -0.34171327833E+04  0.34171327833E+04  0.00000000000E+00 0.  1.
         23    2    1    2    0    0  0.37988799681E+03  0.11744222942E+04 -0.21788608364E+04  0.25060504387E+04  0.96289364234E+02 0.  0.
         11    1    3    3    0    0  0.57715036178E+02  0.28217161560E+03 -0.45775723670E+03  0.54082671328E+03  0.00000000000E+00 0. -1.
        -11    1    3    3    0    0  0.32217296063E+03  0.89225067860E+03 -0.17211035997E+04  0.19652237254E+04  0.00000000000E+00 0.  1.
         22    1    1    2    0    0 -0.37988799681E+03 -0.11744222942E+04 -0.72024916212E+03  0.14291051294E+04  0.00000000000E+00 0. -1.
<mgrwt>
<rscale>  0 0.26609417E+04</rscale>
<asrwt>0</asrwt>
<pdfrwt beam="1">  1        2 0.52571274E+00 0.26609417E+04</pdfrwt>
<pdfrwt beam="2">  1       -2 0.79695813E-01 0.26609417E+04</pdfrwt>
<totfact> 0.11389672E+00</totfact>
</mgrwt>
</event>
<event>
 6    1  0.1719556E-004  0.2196339E+04  0.7818608E-02  0.8519953E-01
          2   -1    0    0  501    0  0.00000000000E+00  0.00000000000E+00  0.69159065461E+03  0.69159065461E+03  0.00000000000E+00 0.  1.
         -2   -1    0    0    0  501 -0.00000000000E+00 -0.00000000000E+00 -0.17437721783E+04  0.17437721783E+04  0.00000000000E+00 0. -1.
         23    2    1    2    0    0  0.96222072932E+03 -0.51790966186E+03 -0.62444147364E+03  0.12618805364E+04  0.91193116033E+02 0.  0.
         13    1    3    3    0    0  0.47193908193E+03 -0.22132086781E+03 -0.25690405904E+03  0.58112745515E+03  0.00000000000E+00 0. -1.
        -13    1    3    3    0    0  0.49028164739E+03 -0.29658879405E+03 -0.36753741460E+03  0.68075308127E+03  0.00000000000E+00 0.  1.
         22    1    1    2    0    0 -0.96222072932E+03  0.51790966186E+03 -0.42774005006E+03  0.11734822965E+04  0.00000000000E+00 0.  1.
<mgrwt>
<rscale>  0 0.21963393E+04</rscale>
<asrwt>0</asrwt>
<pdfrwt beam="1">  1        2 0.10639856E+00 0.21963393E+04</pdfrwt>
<pdfrwt beam="2">  1       -2 0.26827264E+00 0.21963393E+04</pdfrwt>
<totfact> 0.18890728E+00</totfact>
</mgrwt>
</event>
<event>
 6    1  0.1719556E-004  0.1033778E+04  0.7818608E-02  0.9272254E-01
          2   -1    0    0  501    0  0.00000000000E+00  0.00000000000E+00  0.49728934421E+03  0.49728934421E+03  0.00000000000E+00 0.  1.
         -2   -1    0    0    0  501 -0.00000000000E+00 -0.00000000000E+00 -0.53726157313E+03  0.53726157313E+03  0.00000000000E+00 0. -1.
         23    2    1    2    0    0 -0.72325845033E+02 -0.10388316390E+03 -0.51764675140E+03  0.54038931520E+03  0.89664447467E+02 0.  0.
         11    1    3    3    0    0 -0.20817404130E+02 -0.39606863840E+01 -0.23874794265E+03  0.23968652752E+03  0.00000000000E+00 0. -1.
        -11    1    3    3    0    0 -0.51508440902E+02 -0.99922477518E+02 -0.27889880875E+03  0.30070278768E+03  0.00000000000E+00 0.  1.
         22    1    1    2    0    0  0.72325845033E+02  0.10388316390E+03  0.47767452249E+03  0.49416160214E+03  0.00000000000E+00 0.  1.
<mgrwt>
<rscale>  0 0.10337784E+04</rscale>
<asrwt>0</asrwt>
<pdfrwt beam="1">  1        2 0.76506053E-01 0.10337784E+04</pdfrwt>
<pdfrwt beam="2">  1       -2 0.82655626E-01 0.10337784E+04</pdfrwt>
<totfact> 0.79352119E+01</totfact>
</mgrwt>
</event>
<event>
 6    1  0.1719556E-004  0.2747074E+04  0.7818608E-02  0.8319891E-01
          1   -1    0    0  501    0  0.00000000000E+00  0.00000000000E+00  0.20845870109E+04  0.20845870109E+04  0.00000000000E+00 0.  1.
         -1   -1    0    0    0  501 -0.00000000000E+00 -0.00000000000E+00 -0.90502556795E+03  0.90502556795E+03  0.00000000000E+00 0. -1.
         23    2    1    2    0    0 -0.49917389021E+03 -0.65772985327E+03  0.17829570765E+04  0.19669350035E+04  0.90079069349E+02 0.  0.
         13    1    3    3    0    0 -0.44664545977E+03 -0.59903754246E+03  0.15434915240E+04  0.17148481649E+04  0.00000000000E+00 0. -1.
        -13    1    3    3    0    0 -0.52528430446E+02 -0.58692310813E+02  0.23946555246E+03  0.25208683854E+03  0.00000000000E+00 0.  1.
         22    1    1    2    0    0  0.49917389021E+03  0.65772985327E+03 -0.60339563356E+03  0.10226775754E+04  0.00000000000E+00 0. -1.
<mgrwt>
<rscale>  0 0.27470745E+04</rscale>
<asrwt>0</asrwt>
<pdfrwt beam="1">  1        1 0.32070569E+00 0.27470745E+04</pdfrwt>
<pdfrwt beam="2">  1       -1 0.13923470E+00 0.27470745E+04</pdfrwt>
<totfact> 0.96524267E-01</totfact>
</mgrwt>
</event>
<event>
 6    1  0.1719556E-004  0.1282788E+04  0.7818608E-02  0.9043327E-01
          1   -1    0    0  501    0  0.00000000000E+00  0.00000000000E+00  0.70781825406E+03  0.70781825406E+03  0.00000000000E+00 0.  1.
         -1   -1    0    0    0  501 -0.00000000000E+00 -0.00000000000E+00 -0.58120283552E+03  0.58120283552E+03  0.00000000000E+00 0. -1.
         23    2    1    2    0    0 -0.22330230306E+03  0.47776062359E+03 -0.29754091724E+03  0.61224363045E+03  0.90512615663E+02 0.  0.
         11    1    3    3    0    0 -0.61286357357E+02  0.77634010971E+02 -0.26040069134E+02  0.10227972652E+03  0.00000000000E+00 0. -1.
        -11    1    3    3    0    0 -0.16201594570E+03  0.40012661262E+03 -0.27150084810E+03  0.50996390393E+03  0.00000000000E+00 0.  1.
         22    1    1    2    0    0  0.22330230306E+03 -0.47776062359E+03  0.42415633577E+03  0.67677745913E+03  0.00000000000E+00 0. -1.
<mgrwt>
<rscale>  0 0.12827876E+04</rscale>
<asrwt>0</asrwt>
<pdfrwt beam="1">  1        1 0.10889512E+00 0.12827876E+04</pdfrwt>
<pdfrwt beam="2">  1       -1 0.89415821E-01 0.12827876E+04</pdfrwt>
<totfact> 0.32308598E+01</totfact>
</mgrwt>
</event>
<event>
 6    1  0.1719556E-004  0.2752195E+04  0.7818608E-02  0.8318266E-01
          2   -1    0    0  501    0  0.00000000000E+00  0.00000000000E+00  0.24082028733E+04  0.24082028733E+04  0.00000000000E+00 0.  1.
         -2   -1    0    0    0  501 -0.00000000000E+00 -0.00000000000E+00 -0.78633077558E+03  0.78633077558E+03  0.00000000000E+00 0. -1.
         23    2    1    2    0    0 -0.25206903310E+03 -0.13291997750E+04  0.52939389686E+03  0.14556203507E+04  0.90894817381E+02 0.  0.
         11    1    3    3    0    0 -0.14612995750E+03 -0.94512344449E+03  0.34600248010E+03  0.10170201601E+04  0.00000000000E+00 0. -1.
        -11    1    3    3    0    0 -0.10593907560E+03 -0.38407633054E+03  0.18339141676E+03  0.43860019056E+03  0.00000000000E+00 0.  1.
         22    1    1    2    0    0  0.25206903310E+03  0.13291997750E+04  0.10924782009E+04  0.17389132982E+04  0.00000000000E+00 0.  1.
<mgrwt>
<rscale>  0 0.27521948E+04</rscale>
<asrwt>0</asrwt>
<pdfrwt beam="1">  1        2 0.37049275E+00 0.27521948E+04</pdfrwt>
<pdfrwt beam="2">  1       -2 0.12097397E+00 0.27521948E+04</pdfrwt>
<totfact> 0.17875305E+00</totfact>
</mgrwt>
</event>
<event>
 6    1  0.1719556E-004  0.1369197E+04  0.7818608E-02  0.8976422E-01
         -2   -1    0    0    0  501 -0.00000000000E+00  0.00000000000E+00  0.85920171578E+03  0.85920171578E+03  0.00000000000E+00 0. -1.
          2   -1    0    0  501    0  0.00000000000E+00 -0.00000000000E+00 -0.54547711467E+03  0.54547711467E+03  0.00000000000E+00 0.  1.
         23    2    1    2    0    0  0.26524142953E+02  0.50914405186E+03  0.62157374993E+03  0.80910994767E+03  0.91508388175E+02 0.  0.
         11    1    3    3    0    0  0.12731278328E+02  0.41718741685E+03  0.44868108499E+03  0.61279861477E+03  0.00000000000E+00 0. -1.
        -11    1    3    3    0    0  0.13792864626E+02  0.91956635010E+02  0.17289266493E+03  0.19631133290E+03  0.00000000000E+00 0.  1.
         22    1    1    2    0    0 -0.26524142953E+02 -0.50914405186E+03 -0.30784914882E+03  0.59556888278E+03  0.00000000000E+00 0.  1.
<mgrwt>
<rscale>  0 0.13691967E+04</rscale>
<asrwt>0</asrwt>
<pdfrwt beam="1">  1        2 0.83919556E-01 0.13691967E+04</pdfrwt>
<pdfrwt beam="2">  1       -2 0.13218488E+00 0.13691967E+04</pdfrwt>
<totfact> 0.22563847E+01</totfact>
</mgrwt>
</event>
<event>
 6    1  0.1719556E-004  0.2408288E+04  0.7818608E-02  0.8436407E-01
          2   -1    0    0  501    0  0.00000000000E+00  0.00000000000E+00  0.39575630627E+04  0.39575630627E+04  0.00000000000E+00 0.  1.
         -2   -1    0    0    0  501 -0.00000000000E+00 -0.00000000000E+00 -0.36637763555E+03  0.36637763555E+03  0.00000000000E+00 0. -1.
         23    2    1    2    0    0 -0.11483281835E+04  0.18054489284E+03  0.12458527299E+04  0.17063388309E+04  0.90493678760E+02 0.  0.
         11    1    3    3    0    0 -0.37018832926E+03  0.37833328152E+02  0.45390908476E+03  0.58694481603E+03  0.00000000000E+00 0. -1.
        -11    1    3    3    0    0 -0.77813985422E+03  0.14271156469E+03  0.79194364516E+03  0.11193940149E+04  0.00000000000E+00 0.  1.
         22    1    1    2    0    0  0.11483281835E+04 -0.18054489284E+03  0.23453326972E+04  0.26176018674E+04  0.00000000000E+00 0. -1.
<mgrwt>
<rscale>  0 0.24082879E+04</rscale>
<asrwt>0</asrwt>
<pdfrwt beam="1">  1        2 0.60885583E+00 0.24082879E+04</pdfrwt>
<pdfrwt beam="2">  1       -2 0.56365793E-01 0.24082879E+04</pdfrwt>
<totfact> 0.98658540E-01</totfact>
</mgrwt>
</event>
<event>
 6    1  0.1719556E-004  0.4934673E+04  0.7818608E-02  0.7838664E-01
         -2   -1    0    0    0  501 -0.00000000000E+00  0.00000000000E+00  0.26904960324E+04  0.26904960324E+04  0.00000000000E+00 0. -1.
          2   -1    0    0  501    0  0.00000000000E+00 -0.00000000000E+00 -0.22626869503E+04  0.22626869503E+04  0.00000000000E+00 0.  1.
         23    2    1    2    0    0  0.12236461209E+04  0.37989746122E+03 -0.19015471618E+04  0.22946998774E+04  0.90188737241E+02 0.  0.
         13    1    3    3    0    0  0.69436369856E+03  0.25217485080E+03 -0.11438503060E+04  0.13616631830E+04  0.00000000000E+00 0. -1.
        -13    1    3    3    0    0  0.52928242238E+03  0.12772261042E+03 -0.75769685576E+03  0.93303669439E+03  0.00000000000E+00 0.  1.
         22    1    1    2    0    0 -0.12236461209E+04 -0.37989746122E+03  0.23293562439E+04  0.26584831053E+04  0.00000000000E+00 0. -1.
<mgrwt>
<rscale>  0 0.49346733E+04</rscale>
<asrwt>0</asrwt>
<pdfrwt beam="1">  1        2 0.34810569E+00 0.49346733E+04</pdfrwt>
<pdfrwt beam="2">  1       -2 0.41392246E+00 0.49346733E+04</pdfrwt>
<totfact> 0.20967289E-02</totfact>
</mgrwt>
</event>
<event>
 6    1  0.1719556E-004  0.3836917E+04  0.7818608E-02  0.8038279E-01
          1   -1    0    0  501    0  0.00000000000E+00  0.00000000000E+00  0.24762138879E+04  0.24762138879E+04  0.00000000000E+00 0.  1.
         -1   -1    0    0    0  501 -0.00000000000E+00 -0.00000000000E+00 -0.14863349905E+04  0.14863349905E+04  0.00000000000E+00 0. -1.
         23    2    1    2    0    0  0.79514707921E+03 -0.17228729171E+04  0.20920007650E+03  0.19107181380E+04  0.80803248092E+02 0.  0.
         13    1    3    3    0    0  0.16860087309E+03 -0.30251999356E+03  0.55051189069E+02  0.35067824901E+03  0.00000000000E+00 0. -1.
        -13    1    3    3    0    0  0.62654620612E+03 -0.14203529235E+04  0.15414888743E+03  0.15600398890E+04  0.00000000000E+00 0.  1.
         22    1    1    2    0    0 -0.79514707921E+03  0.17228729171E+04  0.78067882093E+03  0.20518307404E+04  0.00000000000E+00 0.  1.
<mgrwt>
<rscale>  0 0.38369172E+04</rscale>
<asrwt>0</asrwt>
<pdfrwt beam="1">  1        1 0.38095598E+00 0.38369172E+04</pdfrwt>
<pdfrwt beam="2">  1       -1 0.22866692E+00 0.38369172E+04</pdfrwt>
<totfact> 0.10753291E-01</totfact>
</mgrwt>
</event>
<event>
 6    1  0.1719556E-004  0.3083650E+04  0.7818608E-02  0.8220239E-01
         -1   -1    0    0    0  501 -0.00000000000E+00  0.00000000000E+00  0.11879433933E+04  0.11879433933E+04  0.00000000000E+00 0. -1.
          1   -1    0    0  501    0  0.00000000000E+00 -0.00000000000E+00 -0.20011259874E+04  0.20011259874E+04  0.00000000000E+00 0.  1.
         23    2    1    2    0    0 -0.17638342169E+02  0.28596086078E+03 -0.19723478397E+04  0.19950221490E+04  0.88727950236E+02 0.  0.
         11    1    3    3    0    0 -0.51034548763E+02  0.11622301307E+03 -0.83886047108E+03  0.84840980893E+03  0.00000000000E+00 0. -1.
        -11    1    3    3    0    0  0.33396206595E+02  0.16973784771E+03 -0.11334873686E+04  0.11466123400E+04  0.00000000000E+00 0.  1.
         22    1    1    2    0    0  0.17638342169E+02 -0.28596086078E+03  0.11591652456E+04  0.11940472317E+04  0.00000000000E+00 0. -1.
<mgrwt>
<rscale>  0 0.30836500E+04</rscale>
<asrwt>0</asrwt>
<pdfrwt beam="1">  1        1 0.30786554E+00 0.30836500E+04</pdfrwt>
<pdfrwt beam="2">  1       -1 0.18276052E+00 0.30836500E+04</pdfrwt>
<totfact> 0.49983006E-01</totfact>
</mgrwt>
</event>
<event>
 6    1  0.1719556E-004  0.1895166E+04  0.7818608E-02  0.8657267E-01
         -2   -1    0    0    0  501 -0.00000000000E+00  0.00000000000E+00  0.90525521858E+03  0.90525521858E+03  0.00000000000E+00 0. -1.
          2   -1    0    0  501    0  0.00000000000E+00 -0.00000000000E+00 -0.99188942532E+03  0.99188942532E+03  0.00000000000E+00 0.  1.
         23    2    1    2    0    0 -0.22752778387E+03  0.48993969392E+03  0.73313268377E+03  0.91539745095E+03  0.93054634907E+02 0.  0.
         11    1    3    3    0    0 -0.86930776502E+02  0.11491019709E+03  0.24212203856E+03  0.28175236442E+03  0.00000000000E+00 0.  1.
        -11    1    3    3    0    0 -0.14059700737E+03  0.37502949683E+03  0.49101064521E+03  0.63364508653E+03  0.00000000000E+00 0. -1.
         22    1    1    2    0    0  0.22752778387E+03 -0.48993969392E+03 -0.81976689051E+03  0.98174719296E+03  0.00000000000E+00 0.  1.
<mgrwt>
<rscale>  0 0.18951655E+04</rscale>
<asrwt>0</asrwt>
<pdfrwt beam="1">  1        2 0.15259837E+00 0.18951655E+04</pdfrwt>
<pdfrwt beam="2">  1       -2 0.13927003E+00 0.18951655E+04</pdfrwt>
<totfact> 0.86956269E+00</totfact>
</mgrwt>
</event>
<event>
 6    1  0.1719556E-004  0.2685671E+04  0.7818608E-02  0.8339669E-01
         -4   -1    0    0    0  501 -0.00000000000E+00  0.00000000000E+00  0.12145437140E+04  0.12145437140E+04  0.00000000000E+00 0. -1.
          4   -1    0    0  501    0  0.00000000000E+00 -0.00000000000E+00 -0.14846783939E+04  0.14846783939E+04  0.00000000000E+00 0.  1.
         23    2    1    2    0    0 -0.54948471851E+03 -0.40261950348E+03 -0.12965913514E+04  0.14672930438E+04  0.88112560939E+02 0.  0.
         11    1    3    3    0    0 -0.20305731646E+03 -0.20052786129E+03 -0.56472254116E+03  0.63273631587E+03  0.00000000000E+00 0.  1.
        -11    1    3    3    0    0 -0.34642740205E+03 -0.20209164219E+03 -0.73186881021E+03  0.83455672790E+03  0.00000000000E+00 0. -1.
         22    1    1    2    0    0  0.54948471851E+03  0.40261950348E+03  0.10264566715E+04  0.12319290641E+04  0.00000000000E+00 0. -1.
<mgrwt>
<rscale>  0 0.26856707E+04</rscale>
<asrwt>0</asrwt>
<pdfrwt beam="1">  1        4 0.22841206E+00 0.26856707E+04</pdfrwt>
<pdfrwt beam="2">  1       -4 0.18685288E+00 0.26856707E+04</pdfrwt>
<totfact> 0.24324280E-02</totfact>
</mgrwt>
</event>
<event>
 6    1  0.1719556E-004  0.8526383E+03  0.7818608E-02  0.9486803E-01
         -2   -1    0    0    0  501 -0.00000000000E+00  0.00000000000E+00  0.22813234980E+03  0.22813234980E+03  0.00000000000E+00 0. -1.
          2   -1    0    0  501    0  0.00000000000E+00 -0.00000000000E+00 -0.79667789262E+03  0.79667789262E+03  0.00000000000E+00 0.  1.
         23    2    1    2    0    0 -0.14905713115E+03  0.94763546860E+02  0.17284663749E+03  0.26266818009E+03  0.88996935774E+02 0.  0.
         13    1    3    3    0    0 -0.65972830035E+02 -0.70767152826E+01  0.57655859703E+02  0.87901606130E+02  0.00000000000E+00 0. -1.
        -13    1    3    3    0    0 -0.83084301119E+02  0.10184026214E+03  0.11519077779E+03  0.17476657396E+03  0.00000000000E+00 0.  1.
         22    1    1    2    0    0  0.14905713115E+03 -0.94763546860E+02 -0.74139218031E+03  0.76214206234E+03  0.00000000000E+00 0.  1.
<mgrwt>
<rscale>  0 0.85263826E+03</rscale>
<asrwt>0</asrwt>
<pdfrwt beam="1">  1        2 0.12256583E+00 0.85263826E+03</pdfrwt>
<pdfrwt beam="2">  1       -2 0.35097284E-01 0.85263826E+03</pdfrwt>
<totfact> 0.26485839E+02</totfact>
</mgrwt>
</event>
<event>
 6    1  0.1719556E-004  0.1677201E+04  0.7818608E-02  0.8774475E-01
          2   -1    0    0  501    0  0.00000000000E+00  0.00000000000E+00  0.20277492199E+04  0.20277492199E+04  0.00000000000E+00 0. -1.
         -2   -1    0    0    0  501 -0.00000000000E+00 -0.00000000000E+00 -0.34681344294E+03  0.34681344294E+03  0.00000000000E+00 0.  1.
         23    2    1    2    0    0  0.51139154526E+03 -0.54912358117E+03  0.31976771630E+03  0.82026651689E+03  0.86762586302E+02 0.  0.
         13    1    3    3    0    0  0.12951252644E+03 -0.18962188667E+03  0.75718548709E+02  0.24179175550E+03  0.00000000000E+00 0.  1.
        -13    1    3    3    0    0  0.38187901882E+03 -0.35950169450E+03  0.24404916759E+03  0.57847476139E+03  0.00000000000E+00 0. -1.
         22    1    1    2    0    0 -0.51139154526E+03  0.54912358117E+03  0.13611680606E+04  0.15542961459E+04  0.00000000000E+00 0. -1.
<mgrwt>
<rscale>  0 0.16772009E+04</rscale>
<asrwt>0</asrwt>
<pdfrwt beam="1">  1        2 0.31196141E+00 0.16772009E+04</pdfrwt>
<pdfrwt beam="2">  1       -2 0.53355916E-01 0.16772009E+04</pdfrwt>
<totfact> 0.20354187E+01</totfact>
</mgrwt>
</event>
<event>
 6    1  0.1719556E-004  0.1968823E+04  0.7818608E-02  0.8621337E-01
         -1   -1    0    0    0  501 -0.00000000000E+00  0.00000000000E+00  0.77730490092E+03  0.77730490092E+03  0.00000000000E+00 0. -1.
          1   -1    0    0  501    0  0.00000000000E+00 -0.00000000000E+00 -0.12466997968E+04  0.12466997968E+04  0.00000000000E+00 0.  1.
         23    2    1    2    0    0 -0.76035223472E+03  0.28852848148E+03  0.33175657231E+03  0.88241463099E+03  0.84905548941E+02 0.  0.
         11    1    3    3    0    0 -0.39135799055E+03  0.14089966958E+03  0.12446095469E+03  0.43417084528E+03  0.00000000000E+00 0.  1.
        -11    1    3    3    0    0 -0.36899424417E+03  0.14762881190E+03  0.20729561763E+03  0.44824378570E+03  0.00000000000E+00 0. -1.
         22    1    1    2    0    0  0.76035223472E+03 -0.28852848148E+03 -0.80115146816E+03  0.11415900667E+04  0.00000000000E+00 0.  1.
<mgrwt>
<rscale>  0 0.19688229E+04</rscale>
<asrwt>0</asrwt>
<pdfrwt beam="1">  1        1 0.19179997E+00 0.19688229E+04</pdfrwt>
<pdfrwt beam="2">  1       -1 0.11958537E+00 0.19688229E+04</pdfrwt>
<totfact> 0.57387584E+00</totfact>
</mgrwt>
</event>
<event>
 6    1  0.1719556E-004  0.1189739E+04  0.7818608E-02  0.9121886E-01
          2   -1    0    0  501    0  0.00000000000E+00  0.00000000000E+00  0.92669860456E+03  0.92669860456E+03  0.00000000000E+00 0.  1.
         -2   -1    0    0    0  501 -0.00000000000E+00 -0.00000000000E+00 -0.38186035339E+03  0.38186035339E+03  0.00000000000E+00 0. -1.
         23    2    1    2    0    0  0.53359673557E+02 -0.31392601466E+03 -0.27425278943E+03  0.42974900680E+03  0.89848866955E+02 0.  0.
         13    1    3    3    0    0 -0.34675004339E+00 -0.23406744383E+03 -0.20547539163E+03  0.31146079218E+03  0.00000000000E+00 0. -1.
        -13    1    3    3    0    0  0.53706423600E+02 -0.79858570828E+02 -0.68777397794E+02  0.11828821462E+03  0.00000000000E+00 0.  1.
         22    1    1    2    0    0 -0.53359673557E+02  0.31392601466E+03  0.81909104060E+03  0.87880995115E+03  0.00000000000E+00 0.  1.
<mgrwt>
<rscale>  0 0.11897386E+04</rscale>
<asrwt>0</asrwt>
<pdfrwt beam="1">  1        2 0.14256902E+00 0.11897386E+04</pdfrwt>
<pdfrwt beam="2">  1       -2 0.58747747E-01 0.11897386E+04</pdfrwt>
<totfact> 0.75236994E+01</totfact>
</mgrwt>
</event>
<event>
 6    1  0.1719556E-004  0.3830097E+04  0.7818608E-02  0.8039727E-01
          2   -1    0    0  501    0  0.00000000000E+00  0.00000000000E+00  0.24337501719E+04  0.24337501719E+04  0.00000000000E+00 0.  1.
         -2   -1    0    0    0  501 -0.00000000000E+00 -0.00000000000E+00 -0.15068971564E+04  0.15068971564E+04  0.00000000000E+00 0. -1.
         23    2    1    2    0    0 -0.16668565840E+04  0.44529773238E+03  0.13163784922E+04  0.21719101972E+04  0.87410685201E+02 0.  0.
         13    1    3    3    0    0 -0.60829283209E+03  0.15486024082E+03  0.53139884967E+03  0.82242726195E+03  0.00000000000E+00 0. -1.
        -13    1    3    3    0    0 -0.10585637519E+04  0.29043749156E+03  0.78497964256E+03  0.13494829353E+04  0.00000000000E+00 0.  1.
         22    1    1    2    0    0  0.16668565840E+04 -0.44529773238E+03 -0.38952547670E+03  0.17687371311E+04  0.00000000000E+00 0. -1.
<mgrwt>
<rscale>  0 0.38300972E+04</rscale>
<asrwt>0</asrwt>
<pdfrwt beam="1">  1        2 0.37442310E+00 0.38300972E+04</pdfrwt>
<pdfrwt beam="2">  1       -2 0.23183033E+00 0.38300972E+04</pdfrwt>
<totfact> 0.25323009E-01</totfact>
</mgrwt>
</event>
<event>
 6    1  0.1719556E-004  0.5035250E+04  0.7818608E-02  0.7823092E-01
         -2   -1    0    0    0  501 -0.00000000000E+00  0.00000000000E+00  0.37275090779E+04  0.37275090779E+04  0.00000000000E+00 0. -1.
          2   -1    0    0  501    0  0.00000000000E+00 -0.00000000000E+00 -0.17004483659E+04  0.17004483659E+04  0.00000000000E+00 0.  1.
         23    2    1    2    0    0 -0.93196477108E+03  0.10791891272E+04 -0.12210763015E+04  0.18806201938E+04  0.11179209445E+03 0.  0.
         13    1    3    3    0    0 -0.43593049501E+03  0.43388169842E+03 -0.56550800715E+03  0.83551662513E+03  0.00000000000E+00 0. -1.
        -13    1    3    3    0    0 -0.49603427606E+03  0.64530742876E+03 -0.65556829433E+03  0.10451035686E+04  0.00000000000E+00 0.  1.
         22    1    1    2    0    0  0.93196477108E+03 -0.10791891272E+04  0.32481370135E+04  0.35473372500E+04  0.00000000000E+00 0. -1.
<mgrwt>
<rscale>  0 0.50352504E+04</rscale>
<asrwt>0</asrwt>
<pdfrwt beam="1">  1        2 0.26160744E+00 0.50352504E+04</pdfrwt>
<pdfrwt beam="2">  1       -2 0.57346293E+00 0.50352504E+04</pdfrwt>
<totfact> 0.47279177E-03</totfact>
</mgrwt>
</event>
<event>
 6    1  0.1719556E-004  0.1576183E+04  0.7818608E-02  0.8835315E-01
         -2   -1    0    0    0  501 -0.00000000000E+00  0.00000000000E+00  0.31886195695E+03  0.31886195695E+03  0.00000000000E+00 0. -1.
          2   -1    0    0  501    0  0.00000000000E+00 -0.00000000000E+00 -0.19478272398E+04  0.19478272398E+04  0.00000000000E+00 0.  1.
         23    2    1    2    0    0  0.46920067041E+03  0.63703335940E+02  0.86064852163E+02  0.48749394380E+03  0.77690426283E+02 0.  0.
         13    1    3    3    0    0  0.26658148225E+03  0.18910405571E+02  0.13255123993E+02  0.26757987299E+03  0.00000000000E+00 0.  1.
        -13    1    3    3    0    0  0.20261918816E+03  0.44792930370E+02  0.72809728170E+02  0.21991407080E+03  0.00000000000E+00 0. -1.
         22    1    1    2    0    0 -0.46920067041E+03 -0.63703335940E+02 -0.17150301351E+04  0.17791952530E+04  0.00000000000E+00 0.  1.
<mgrwt>
<rscale>  0 0.15761827E+04</rscale>
<asrwt>0</asrwt>
<pdfrwt beam="1">  1        2 0.29966572E+00 0.15761827E+04</pdfrwt>
<pdfrwt beam="2">  1       -2 0.49055687E-01 0.15761827E+04</pdfrwt>
<totfact> 0.27001044E+01</totfact>
</mgrwt>
</event>
<event>
 6    1  0.1719556E-004  0.1775101E+04  0.7818608E-02  0.8719654E-01
          2   -1    0    0  501    0  0.00000000000E+00  0.00000000000E+00  0.89499730606E+03  0.89499730606E+03  0.00000000000E+00 0.  1.
         -2   -1    0    0    0  501 -0.00000000000E+00 -0.00000000000E+00 -0.88016534007E+03  0.88016534007E+03  0.00000000000E+00 0. -1.
         23    2    1    2    0    0  0.67669956657E+03 -0.12648911825E+03 -0.54910220434E+03  0.88525054435E+03  0.90738608261E+02 0.  0.
         11    1    3    3    0    0  0.65315241048E+02 -0.38246764866E+02 -0.45953642752E+02  0.88547349018E+02  0.00000000000E+00 0.  1.
        -11    1    3    3    0    0  0.61138432552E+03 -0.88242353386E+02 -0.50314856159E+03  0.79670319533E+03  0.00000000000E+00 0. -1.
         22    1    1    2    0    0 -0.67669956657E+03  0.12648911825E+03  0.56393417034E+03  0.88991210178E+03  0.00000000000E+00 0.  1.
<mgrwt>
<rscale>  0 0.17751007E+04</rscale>
<asrwt>0</asrwt>
<pdfrwt beam="1">  1        2 0.13769189E+00 0.17751007E+04</pdfrwt>
<pdfrwt beam="2">  1       -2 0.13541005E+00 0.17751007E+04</pdfrwt>
<totfact> 0.10941503E+01</totfact>
</mgrwt>
</event>
<event>
 6    1  0.1719556E-004  0.6061589E+04  0.7818608E-02  0.7682812E-01
         -1   -1    0    0    0  501 -0.00000000000E+00  0.00000000000E+00  0.21146609503E+04  0.21146609503E+04  0.00000000000E+00 0.  1.
          1   -1    0    0  501    0  0.00000000000E+00 -0.00000000000E+00 -0.43438240776E+04  0.43438240776E+04  0.00000000000E+00 0. -1.
         23    2    1    2    0    0  0.15259405257E+04 -0.25827987802E+04 -0.66051488921E+03  0.30732226567E+04  0.95255195536E+02 0.  0.
         11    1    3    3    0    0  0.45328734378E+03 -0.70352560055E+03 -0.15578068035E+03  0.85128450416E+03  0.00000000000E+00 0.  1.
        -11    1    3    3    0    0  0.10726531819E+04 -0.18792731796E+04 -0.50473420886E+03  0.22219381526E+04  0.00000000000E+00 0. -1.
         22    1    1    2    0    0 -0.15259405257E+04  0.25827987802E+04 -0.15686482380E+04  0.33852623711E+04  0.00000000000E+00 0. -1.
<mgrwt>
<rscale>  0 0.60615890E+04</rscale>
<asrwt>0</asrwt>
<pdfrwt beam="1">  1        1 0.66828063E+00 0.60615890E+04</pdfrwt>
<pdfrwt beam="2">  1       -1 0.32533245E+00 0.60615890E+04</pdfrwt>
<totfact> 0.68834652E-04</totfact>
</mgrwt>
</event>
<event>
 6    1  0.1719556E-004  0.1957936E+04  0.7818608E-02  0.8626543E-01
         -2   -1    0    0    0  501 -0.00000000000E+00  0.00000000000E+00  0.68146305705E+03  0.68146305705E+03  0.00000000000E+00 0. -1.
          2   -1    0    0  501    0  0.00000000000E+00 -0.00000000000E+00 -0.14063542162E+04  0.14063542162E+04  0.00000000000E+00 0.  1.
         23    2    1    2    0    0  0.52037335378E+03 -0.58152159809E+03  0.26335012827E+03  0.82862045047E+03  0.91119506802E+02 0.  0.
         11    1    3    3    0    0  0.20562793985E+03 -0.21657412295E+03  0.55365667992E+02  0.30373106126E+03  0.00000000000E+00 0.  1.
        -11    1    3    3    0    0  0.31474541392E+03 -0.36494747513E+03  0.20798446028E+03  0.52488938921E+03  0.00000000000E+00 0. -1.
         22    1    1    2    0    0 -0.52037335378E+03  0.58152159809E+03 -0.98824128747E+03  0.12591968228E+04  0.00000000000E+00 0.  1.
<mgrwt>
<rscale>  0 0.19579361E+04</rscale>
<asrwt>0</asrwt>
<pdfrwt beam="1">  1        2 0.21636219E+00 0.19579361E+04</pdfrwt>
<pdfrwt beam="2">  1       -2 0.10484047E+00 0.19579361E+04</pdfrwt>
<totfact> 0.98708435E+00</totfact>
</mgrwt>
</event>
<event>
 6    1  0.1719556E-004  0.1267647E+04  0.7818608E-02  0.9055622E-01
         -2   -1    0    0    0  501 -0.00000000000E+00  0.00000000000E+00  0.46816259470E+03  0.46816259470E+03  0.00000000000E+00 0. -1.
          2   -1    0    0  501    0  0.00000000000E+00 -0.00000000000E+00 -0.85810428381E+03  0.85810428381E+03  0.00000000000E+00 0.  1.
         23    2    1    2    0    0  0.14490741819E+03 -0.39160132658E+03  0.29865601561E+03  0.52096162101E+03  0.88633154487E+02 0.  0.
         11    1    3    3    0    0  0.98974180467E+02 -0.23702023489E+03  0.23319221151E+03  0.34691942531E+03  0.00000000000E+00 0. -1.
        -11    1    3    3    0    0  0.45933237718E+02 -0.15458109169E+03  0.65463804099E+02  0.17404219570E+03  0.00000000000E+00 0.  1.
         22    1    1    2    0    0 -0.14490741819E+03  0.39160132658E+03 -0.68859770472E+03  0.80530525751E+03  0.00000000000E+00 0.  1.
<mgrwt>
<rscale>  0 0.12676472E+04</rscale>
<asrwt>0</asrwt>
<pdfrwt beam="1">  1        2 0.13201604E+00 0.12676472E+04</pdfrwt>
<pdfrwt beam="2">  1       -2 0.72025016E-01 0.12676472E+04</pdfrwt>
<totfact> 0.53760310E+01</totfact>
</mgrwt>
</event>
<event>
 6    1  0.1719556E-004  0.4392156E+04  0.7818608E-02  0.7929794E-01
         -2   -1    0    0    0  501 -0.00000000000E+00  0.00000000000E+00  0.44654876083E+04  0.44654876083E+04  0.00000000000E+00 0. -1.
          2   -1    0    0  501    0  0.00000000000E+00 -0.00000000000E+00 -0.10800069576E+04  0.10800069576E+04  0.00000000000E+00 0.  1.
         23    2    1    2    0    0  0.11157946929E+04  0.65383014159E+03  0.39329384500E+04  0.41411435795E+04  0.92593970991E+02 0.  0.
         11    1    3    3    0    0  0.22559614937E+03  0.10298336592E+03  0.67241594124E+03  0.71668849181E+03  0.00000000000E+00 0. -1.
        -11    1    3    3    0    0  0.89019854353E+03  0.55084677566E+03  0.32605225088E+04  0.34244550877E+04  0.00000000000E+00 0.  1.
         22    1    1    2    0    0 -0.11157946929E+04 -0.65383014159E+03 -0.54745779937E+03  0.14043509863E+04  0.00000000000E+00 0.  1.
<mgrwt>
<rscale>  0 0.43921556E+04</rscale>
<asrwt>0</asrwt>
<pdfrwt beam="1">  1        2 0.16615492E+00 0.43921556E+04</pdfrwt>
<pdfrwt beam="2">  1       -2 0.68699809E+00 0.43921556E+04</pdfrwt>
<totfact> 0.43413638E-03</totfact>
</mgrwt>
</event>
<event>
 6    1  0.1719556E-004  0.2201503E+04  0.7818608E-02  0.8517803E-01
          1   -1    0    0  501    0  0.00000000000E+00  0.00000000000E+00  0.59364906600E+03  0.59364906600E+03  0.00000000000E+00 0.  1.
         -1   -1    0    0    0  501 -0.00000000000E+00 -0.00000000000E+00 -0.20410280635E+04  0.20410280635E+04  0.00000000000E+00 0. -1.
         23    2    1    2    0    0 -0.28056933144E+03 -0.43331677526E+03 -0.18860237589E+04  0.19572615967E+04  0.85467896592E+02 0.  0.
         11    1    3    3    0    0 -0.23583314416E+03 -0.37995050983E+03 -0.15092969827E+04  0.15741528019E+04  0.00000000000E+00 0.  1.
        -11    1    3    3    0    0 -0.44736187284E+02 -0.53366265428E+02 -0.37672677620E+03  0.38310879479E+03  0.00000000000E+00 0. -1.
         22    1    1    2    0    0  0.28056933144E+03  0.43331677526E+03  0.43864476136E+03  0.67741553284E+03  0.00000000000E+00 0.  1.
<mgrwt>
<rscale>  0 0.22015035E+04</rscale>
<asrwt>0</asrwt>
<pdfrwt beam="1">  1        1 0.91330625E-01 0.22015035E+04</pdfrwt>
<pdfrwt beam="2">  1       -1 0.31400432E+00 0.22015035E+04</pdfrwt>
<totfact> 0.84951828E-01</totfact>
</mgrwt>
</event>
<event>
 6    1  0.1719556E-004  0.9753454E+03  0.7818608E-02  0.9336007E-01
         -1   -1    0    0    0  501 -0.00000000000E+00  0.00000000000E+00  0.18608709692E+03  0.18608709692E+03  0.00000000000E+00 0. -1.
          1   -1    0    0  501    0  0.00000000000E+00 -0.00000000000E+00 -0.12780288809E+04  0.12780288809E+04  0.00000000000E+00 0.  1.
         23    2    1    2    0    0 -0.28971099865E+03 -0.33827532113E+03 -0.83241763365E+03  0.94864004216E+03  0.92930926824E+02 0.  0.
         13    1    3    3    0    0 -0.26589631318E+03 -0.30442136757E+03 -0.79909121556E+03  0.89549985437E+03  0.00000000000E+00 0.  1.
        -13    1    3    3    0    0 -0.23814685472E+02 -0.33853953559E+02 -0.33326418087E+02  0.53140187789E+02  0.00000000000E+00 0. -1.
         22    1    1    2    0    0  0.28971099865E+03  0.33827532113E+03 -0.25952415029E+03  0.51547593562E+03  0.00000000000E+00 0. -1.
<mgrwt>
<rscale>  0 0.97534544E+03</rscale>
<asrwt>0</asrwt>
<pdfrwt beam="1">  1        1 0.19661982E+00 0.97534544E+03</pdfrwt>
<pdfrwt beam="2">  1       -1 0.28628785E-01 0.97534544E+03</pdfrwt>
<totfact> 0.10420680E+02</totfact>
</mgrwt>
</event>
<event>
 6    1  0.1719556E-004  0.1693459E+04  0.7818608E-02  0.8765104E-01
         -1   -1    0    0    0  501 -0.00000000000E+00  0.00000000000E+00  0.64197564490E+03  0.64197564490E+03  0.00000000000E+00 0. -1.
          1   -1    0    0  501    0  0.00000000000E+00 -0.00000000000E+00 -0.11167884365E+04  0.11167884365E+04  0.00000000000E+00 0.  1.
         23    2    1    2    0    0 -0.12506665905E+03 -0.57536428672E+03  0.39036117544E+03  0.71224044341E+03  0.90657985283E+02 0.  0.
         13    1    3    3    0    0 -0.67934926633E+02 -0.38338420661E+03  0.30461887880E+03  0.49435944965E+03  0.00000000000E+00 0.  1.
        -13    1    3    3    0    0 -0.57131732421E+02 -0.19198008012E+03  0.85742296638E+02  0.21788099376E+03  0.00000000000E+00 0. -1.
         22    1    1    2    0    0  0.12506665905E+03  0.57536428672E+03 -0.86517396705E+03  0.10465236380E+04  0.00000000000E+00 0.  1.
<mgrwt>
<rscale>  0 0.16934592E+04</rscale>
<asrwt>0</asrwt>
<pdfrwt beam="1">  1        1 0.17181361E+00 0.16934592E+04</pdfrwt>
<pdfrwt beam="2">  1       -1 0.98765484E-01 0.16934592E+04</pdfrwt>
<totfact> 0.11499749E+01</totfact>
</mgrwt>
</event>
<event>
 6    1  0.2796665E-004  0.4068397E+04  0.7818608E-02  0.7990889E-01
         -2   -1    0    0    0  501 -0.00000000000E+00  0.00000000000E+00  0.21117189271E+04  0.21117189271E+04  0.00000000000E+00 0. -1.
          2   -1    0    0  501    0  0.00000000000E+00 -0.00000000000E+00 -0.19595240029E+04  0.19595240029E+04  0.00000000000E+00 0.  1.
         23    2    1    2    0    0 -0.19878713791E+04  0.41518032024E+03 -0.35477476107E+02  0.20318243246E+04  0.55173512532E+02 0.  0.
         11    1    3    3    0    0 -0.11985666271E+04  0.27738409190E+03 -0.26551912377E+02  0.12305319573E+04  0.00000000000E+00 0. -1.
        -11    1    3    3    0    0 -0.78930475202E+03  0.13779622834E+03 -0.89255637304E+01  0.80129236723E+03  0.00000000000E+00 0.  1.
         22    1    1    2    0    0  0.19878713791E+04 -0.41518032024E+03  0.18767240034E+03  0.20394186054E+04  0.00000000000E+00 0. -1.
<mgrwt>
<rscale>  0 0.40683972E+04</rscale>
<asrwt>0</asrwt>
<pdfrwt beam="1">  1        2 0.30146523E+00 0.40683972E+04</pdfrwt>
<pdfrwt beam="2">  1       -2 0.32487984E+00 0.40683972E+04</pdfrwt>
<totfact> 0.12329546E-01</totfact>
</mgrwt>
</event>
<event>
 6    1  0.1719556E-004  0.2938339E+04  0.7818608E-02  0.8261561E-01
         -1   -1    0    0    0  501 -0.00000000000E+00  0.00000000000E+00  0.77690784823E+03  0.77690784823E+03  0.00000000000E+00 0. -1.
          1   -1    0    0  501    0  0.00000000000E+00 -0.00000000000E+00 -0.27782691667E+04  0.27782691667E+04  0.00000000000E+00 0.  1.
         23    2    1    2    0    0  0.24998640951E+03 -0.82668807046E+03 -0.24375104575E+04  0.25876376399E+04  0.92222309852E+02 0.  0.
         11    1    3    3    0    0  0.19918521485E+03 -0.52547476953E+03 -0.16415487244E+04  0.17350736866E+04  0.00000000000E+00 0. -1.
        -11    1    3    3    0    0  0.50801194665E+02 -0.30121330094E+03 -0.79596173302E+03  0.85256395331E+03  0.00000000000E+00 0.  1.
         22    1    1    2    0    0 -0.24998640951E+03  0.82668807046E+03  0.43614913898E+03  0.96753937503E+03  0.00000000000E+00 0. -1.
<mgrwt>
<rscale>  0 0.29383391E+04</rscale>
<asrwt>0</asrwt>
<pdfrwt beam="1">  1        1 0.42742602E+00 0.29383391E+04</pdfrwt>
<pdfrwt beam="2">  1       -1 0.11952429E+00 0.29383391E+04</pdfrwt>
<totfact> 0.46163984E-01</totfact>
</mgrwt>
</event>
<event>
 6    1  0.1719556E-004  0.1050940E+04  0.7818608E-02  0.9254374E-01
         -2   -1    0    0    0  501 -0.00000000000E+00  0.00000000000E+00  0.20585900000E+03  0.20585900000E+03  0.00000000000E+00 0. -1.
          2   -1    0    0  501    0  0.00000000000E+00 -0.00000000000E+00 -0.13412995542E+04  0.13412995542E+04  0.00000000000E+00 0.  1.
         23    2    1    2    0    0  0.48172787034E+03  0.61075696208E+02 -0.29173884276E+03  0.57369845764E+03  0.90699427772E+02 0.  0.
         11    1    3    3    0    0  0.27569169961E+03  0.79251133996E+02 -0.15979789483E+03  0.32836263896E+03  0.00000000000E+00 0. -1.
        -11    1    3    3    0    0  0.20603617073E+03 -0.18175437788E+02 -0.13194094793E+03  0.24533581868E+03  0.00000000000E+00 0.  1.
         22    1    1    2    0    0 -0.48172787034E+03 -0.61075696208E+02 -0.84370171146E+03  0.97346009659E+03  0.00000000000E+00 0.  1.
<mgrwt>
<rscale>  0 0.10509397E+04</rscale>
<asrwt>0</asrwt>
<pdfrwt beam="1">  1        2 0.20635378E+00 0.10509397E+04</pdfrwt>
<pdfrwt beam="2">  1       -2 0.31670615E-01 0.10509397E+04</pdfrwt>
<totfact> 0.14409877E+02</totfact>
</mgrwt>
</event>
<event>
 6    1  0.1719556E-004  0.7625066E+03  0.7818608E-02  0.9615931E-01
         -1   -1    0    0    0  501 -0.00000000000E+00  0.00000000000E+00  0.71988118427E+03  0.71988118427E+03  0.00000000000E+00 0. -1.
          1   -1    0    0  501    0  0.00000000000E+00 -0.00000000000E+00 -0.20191401155E+03  0.20191401155E+03  0.00000000000E+00 0.  1.
         23    2    1    2    0    0 -0.21548344797E+03 -0.10669530170E+03  0.61176908372E+03  0.66369482337E+03  0.91719152978E+02 0.  0.
         11    1    3    3    0    0 -0.89855779733E+02 -0.76775677753E+02  0.38499025700E+03  0.40272330928E+03  0.00000000000E+00 0.  1.
        -11    1    3    3    0    0 -0.12562766824E+03 -0.29919623945E+02  0.22677882672E+03  0.26097151410E+03  0.00000000000E+00 0. -1.
         22    1    1    2    0    0  0.21548344797E+03  0.10669530170E+03 -0.93801910999E+02  0.25810037245E+03  0.00000000000E+00 0.  1.
<mgrwt>
<rscale>  0 0.76250665E+03</rscale>
<asrwt>0</asrwt>
<pdfrwt beam="1">  1        1 0.31063694E-01 0.76250665E+03</pdfrwt>
<pdfrwt beam="2">  1       -1 0.11075095E+00 0.76250665E+03</pdfrwt>
<totfact> 0.11192149E+02</totfact>
</mgrwt>
</event>
<event>
 6    1  0.1719556E-004  0.1487738E+04  0.7818608E-02  0.8892648E-01
          2   -1    0    0  501    0  0.00000000000E+00  0.00000000000E+00  0.21181096326E+04  0.21181096326E+04  0.00000000000E+00 0.  1.
         -2   -1    0    0    0  501 -0.00000000000E+00 -0.00000000000E+00 -0.26124299512E+03  0.26124299512E+03  0.00000000000E+00 0. -1.
         23    2    1    2    0    0  0.15986761605E+03 -0.38600554438E+03 -0.46917774545E+02  0.43026232134E+03  0.91468314934E+02 0.  0.
         11    1    3    3    0    0  0.20013155181E+02 -0.74785339517E+02 -0.44006264882E+02  0.89050124851E+02  0.00000000000E+00 0.  1.
        -11    1    3    3    0    0  0.13985446087E+03 -0.31122020486E+03 -0.29115096625E+01  0.34121219648E+03  0.00000000000E+00 0. -1.
         22    1    1    2    0    0 -0.15986761605E+03  0.38600554438E+03  0.19037844121E+04  0.19490903064E+04  0.00000000000E+00 0.  1.
<mgrwt>
<rscale>  0 0.14877383E+04</rscale>
<asrwt>0</asrwt>
<pdfrwt beam="1">  1        2 0.32586301E+00 0.14877383E+04</pdfrwt>
<pdfrwt beam="2">  1       -2 0.40191232E-01 0.14877383E+04</pdfrwt>
<totfact> 0.32552553E+01</totfact>
</mgrwt>
</event>
<event>
 6    1  0.1719556E-004  0.1847301E+04  0.7818608E-02  0.8681542E-01
         -2   -1    0    0    0  501 -0.00000000000E+00  0.00000000000E+00  0.14032719119E+04  0.14032719119E+04  0.00000000000E+00 0.  1.
          2   -1    0    0  501    0  0.00000000000E+00 -0.00000000000E+00 -0.60795775003E+03  0.60795775003E+03  0.00000000000E+00 0. -1.
         23    2    1    2    0    0 -0.85330194559E+03 -0.22877980013E+03  0.11358915366E+03  0.89533836161E+03  0.90905877926E+02 0.  0.
         11    1    3    3    0    0 -0.13830212262E+03 -0.64100190615E+02 -0.27122223932E+01  0.15245874101E+03  0.00000000000E+00 0.  1.
        -11    1    3    3    0    0 -0.71499982297E+03 -0.16467960952E+03  0.11630137605E+03  0.74287962061E+03  0.00000000000E+00 0. -1.
         22    1    1    2    0    0  0.85330194559E+03  0.22877980013E+03  0.68172500820E+03  0.11158913003E+04  0.00000000000E+00 0.  1.
<mgrwt>
<rscale>  0 0.18473008E+04</rscale>
<asrwt>0</asrwt>
<pdfrwt beam="1">  1        2 0.93531962E-01 0.18473008E+04</pdfrwt>
<pdfrwt beam="2">  1       -2 0.21588799E+00 0.18473008E+04</pdfrwt>
<totfact> 0.48153820E+00</totfact>
</mgrwt>
</event>
<event>
 6    1  0.1719556E-004  0.1022335E+04  0.7818608E-02  0.9284382E-01
          2   -1    0    0  501    0  0.00000000000E+00  0.00000000000E+00  0.15873219380E+04  0.15873219380E+04  0.00000000000E+00 0.  1.
         -2   -1    0    0    0  501 -0.00000000000E+00 -0.00000000000E+00 -0.16461184604E+03  0.16461184604E+03  0.00000000000E+00 0. -1.
         23    2    1    2    0    0  0.17125404045E+03 -0.14053346521E+03  0.14987778348E+04  0.15177033361E+04  0.89503166895E+02 0.  0.
         11    1    3    3    0    0  0.12214647234E+03 -0.96077822687E+02  0.74589651780E+03  0.76191359352E+03  0.00000000000E+00 0. -1.
        -11    1    3    3    0    0  0.49107568112E+02 -0.44455642528E+02  0.75288131704E+03  0.75578974256E+03  0.00000000000E+00 0.  1.
         22    1    1    2    0    0 -0.17125404045E+03  0.14053346521E+03 -0.76067742931E+02  0.23423044791E+03  0.00000000000E+00 0. -1.
<mgrwt>
<rscale>  0 0.10223346E+04</rscale>
<asrwt>0</asrwt>
<pdfrwt beam="1">  1        2 0.24420337E+00 0.10223346E+04</pdfrwt>
<pdfrwt beam="2">  1       -2 0.25324900E-01 0.10223346E+04</pdfrwt>
<totfact> 0.15833990E+02</totfact>
</mgrwt>
</event>
<event>
 6    1  0.1719556E-004  0.3393508E+04  0.7818608E-02  0.8139501E-01
          2   -1    0    0  501    0  0.00000000000E+00  0.00000000000E+00  0.29058218570E+04  0.29058218570E+04  0.00000000000E+00 0.  1.
         -2   -1    0    0    0  501 -0.00000000000E+00 -0.00000000000E+00 -0.99076096562E+03  0.99076096562E+03  0.00000000000E+00 0. -1.
         23    2    1    2    0    0  0.10636084752E+04 -0.11861929749E+04  0.16243299052E+04  0.22770639840E+04  0.90862446898E+02 0.  0.
         13    1    3    3    0    0  0.56152144323E+02 -0.73729001168E+02  0.67930396018E+02  0.11490677799E+03  0.00000000000E+00 0.  1.
        -13    1    3    3    0    0  0.10074563309E+04 -0.11124639737E+04  0.15563995091E+04  0.21621572060E+04  0.00000000000E+00 0. -1.
         22    1    1    2    0    0 -0.10636084752E+04  0.11861929749E+04  0.29073098619E+03  0.16195188386E+04  0.00000000000E+00 0. -1.
<mgrwt>
<rscale>  0 0.33935084E+04</rscale>
<asrwt>0</asrwt>
<pdfrwt beam="1">  1        2 0.44704951E+00 0.33935084E+04</pdfrwt>
<pdfrwt beam="2">  1       -2 0.15242477E+00 0.33935084E+04</pdfrwt>
<totfact> 0.47389027E-01</totfact>
</mgrwt>
</event>
<event>
 6    1  0.1719556E-004  0.4522604E+04  0.7818608E-02  0.7906691E-01
         -2   -1    0    0    0  501 -0.00000000000E+00  0.00000000000E+00  0.12298599535E+04  0.12298599535E+04  0.00000000000E+00 0. -1.
          2   -1    0    0  501    0  0.00000000000E+00 -0.00000000000E+00 -0.41577796804E+04  0.41577796804E+04  0.00000000000E+00 0.  1.
         23    2    1    2    0    0  0.35065801064E+03  0.15508562125E+04  0.44936883927E+03  0.16547862895E+04  0.90935570560E+02 0.  0.
         11    1    3    3    0    0  0.46478527305E+02  0.10554901550E+03  0.24225600651E+02  0.11784620444E+03  0.00000000000E+00 0.  1.
        -11    1    3    3    0    0  0.30417948333E+03  0.14453071970E+04  0.42514323862E+03  0.15369400851E+04  0.00000000000E+00 0. -1.
         22    1    1    2    0    0 -0.35065801064E+03 -0.15508562125E+04 -0.33772885661E+04  0.37328533444E+04  0.00000000000E+00 0.  1.
<mgrwt>
<rscale>  0 0.45226040E+04</rscale>
<asrwt>0</asrwt>
<pdfrwt beam="1">  1        2 0.63965842E+00 0.45226040E+04</pdfrwt>
<pdfrwt beam="2">  1       -2 0.18920922E+00 0.45226040E+04</pdfrwt>
<totfact> 0.29846695E-02</totfact>
</mgrwt>
</event>
<event>
 6    1  0.1719556E-004  0.4223064E+04  0.7818608E-02  0.7960999E-01
          2   -1    0    0  501    0  0.00000000000E+00  0.00000000000E+00  0.18436904648E+04  0.18436904648E+04  0.00000000000E+00 0.  1.
         -2   -1    0    0    0  501 -0.00000000000E+00 -0.00000000000E+00 -0.24182838572E+04  0.24182838572E+04  0.00000000000E+00 0. -1.
         23    2    1    2    0    0 -0.14209802475E+04 -0.15251083414E+04 -0.62131882399E+03  0.21769506812E+04  0.89089113936E+02 0.  0.
         11    1    3    3    0    0 -0.86778468489E+03 -0.96926624055E+03 -0.42363114608E+03  0.13682070941E+04  0.00000000000E+00 0.  1.
        -11    1    3    3    0    0 -0.55319556264E+03 -0.55584210086E+03 -0.19768767791E+03  0.80874358707E+03  0.00000000000E+00 0. -1.
         22    1    1    2    0    0  0.14209802475E+04  0.15251083414E+04  0.46725431556E+02  0.20850236408E+04  0.00000000000E+00 0. -1.
<mgrwt>
<rscale>  0 0.42230638E+04</rscale>
<asrwt>0</asrwt>
<pdfrwt beam="1">  1        2 0.28364469E+00 0.42230638E+04</pdfrwt>
<pdfrwt beam="2">  1       -2 0.37204367E+00 0.42230638E+04</pdfrwt>
<totfact> 0.71208267E-02</totfact>
</mgrwt>
</event>
<event>
 6    1  0.1719556E-004  0.2345697E+04  0.7818608E-02  0.8460118E-01
          2   -1    0    0  501    0  0.00000000000E+00  0.00000000000E+00  0.23930558744E+04  0.23930558744E+04  0.00000000000E+00 0. -1.
         -2   -1    0    0    0  501 -0.00000000000E+00 -0.00000000000E+00 -0.57481884464E+03  0.57481884464E+03  0.00000000000E+00 0.  1.
         23    2    1    2    0    0 -0.10117914131E+04  0.56012516802E+03  0.67702374407E+03  0.13431194049E+04  0.90258064819E+02 0.  0.
         11    1    3    3    0    0 -0.89130183500E+03  0.51569673573E+03  0.57728137415E+03  0.11805150864E+04  0.00000000000E+00 0.  1.
        -11    1    3    3    0    0 -0.12048957809E+03  0.44428432297E+02  0.99742369927E+02  0.16260431846E+03  0.00000000000E+00 0. -1.
         22    1    1    2    0    0  0.10117914131E+04 -0.56012516802E+03  0.11412132857E+04  0.16247553141E+04  0.00000000000E+00 0.  1.
<mgrwt>
<rscale>  0 0.23456970E+04</rscale>
<asrwt>0</asrwt>
<pdfrwt beam="1">  1        2 0.36816244E+00 0.23456970E+04</pdfrwt>
<pdfrwt beam="2">  1       -2 0.88433670E-01 0.23456970E+04</pdfrwt>
<totfact> 0.39874329E+00</totfact>
</mgrwt>
</event>
<event>
 6    1  0.1719556E-004  0.2431046E+04  0.7818608E-02  0.8427971E-01
         -1   -1    0    0    0  501 -0.00000000000E+00  0.00000000000E+00  0.18886460990E+04  0.18886460990E+04  0.00000000000E+00 0. -1.
          1   -1    0    0  501    0  0.00000000000E+00 -0.00000000000E+00 -0.78230463703E+03  0.78230463703E+03  0.00000000000E+00 0.  1.
         23    2    1    2    0    0 -0.20956820792E+02 -0.12013217891E+04  0.36404300046E+03  0.12586404885E+04  0.89640078591E+02 0.  0.
         13    1    3    3    0    0  0.16863234598E+02 -0.68940527942E+03  0.17347599549E+03  0.71109628672E+03  0.00000000000E+00 0.  1.
        -13    1    3    3    0    0 -0.37820055390E+02 -0.51191650971E+03  0.19056700497E+03  0.54754420177E+03  0.00000000000E+00 0. -1.
         22    1    1    2    0    0  0.20956820792E+02  0.12013217891E+04  0.74229846154E+03  0.14123102476E+04  0.00000000000E+00 0.  1.
<mgrwt>
<rscale>  0 0.24310464E+04</rscale>
<asrwt>0</asrwt>
<pdfrwt beam="1">  1        1 0.12035456E+00 0.24310464E+04</pdfrwt>
<pdfrwt beam="2">  1       -1 0.29056094E+00 0.24310464E+04</pdfrwt>
<totfact> 0.77874713E-01</totfact>
</mgrwt>
</event>
<event>
 6    1  0.1719556E-004  0.4551075E+04  0.7818608E-02  0.7901756E-01
          2   -1    0    0  501    0  0.00000000000E+00  0.00000000000E+00  0.19822936813E+04  0.19822936813E+04  0.00000000000E+00 0.  1.
         -2   -1    0    0    0  501 -0.00000000000E+00 -0.00000000000E+00 -0.26121611303E+04  0.26121611303E+04  0.00000000000E+00 0. -1.
         23    2    1    2    0    0 -0.20679430961E+04 -0.54536703408E+03  0.46742804451E+03  0.21907345178E+04  0.83754998974E+02 0.  0.
         11    1    3    3    0    0 -0.57457899054E+03 -0.18850288028E+03  0.14435664350E+03  0.62170185199E+03  0.00000000000E+00 0.  1.
        -11    1    3    3    0    0 -0.14933641056E+04 -0.35686415380E+03  0.32307140101E+03  0.15690326658E+04  0.00000000000E+00 0. -1.
         22    1    1    2    0    0  0.20679430961E+04  0.54536703408E+03 -0.10972954935E+04  0.24037202938E+04  0.00000000000E+00 0.  1.
<mgrwt>
<rscale>  0 0.45510748E+04</rscale>
<asrwt>0</asrwt>
<pdfrwt beam="1">  1        2 0.30496826E+00 0.45510748E+04</pdfrwt>
<pdfrwt beam="2">  1       -2 0.40187095E+00 0.45510748E+04</pdfrwt>
<totfact> 0.37222705E-02</totfact>
</mgrwt>
</event>
<event>
 6    1  0.1719556E-004  0.5187552E+03  0.7818608E-02  0.1008996E+00
         -2   -1    0    0    0  501 -0.00000000000E+00  0.00000000000E+00  0.21423235438E+03  0.21423235438E+03  0.00000000000E+00 0. -1.
          2   -1    0    0  501    0  0.00000000000E+00 -0.00000000000E+00 -0.31403631419E+03  0.31403631419E+03  0.00000000000E+00 0.  1.
         23    2    1    2    0    0  0.15178971846E+03 -0.61352334753E+02 -0.24604936466E+03  0.30874202771E+03  0.89314736847E+02 0.  0.
         11    1    3    3    0    0  0.36197026439E+02  0.23422344551E+02 -0.54351899985E+02  0.69375499849E+02  0.00000000000E+00 0.  1.
        -11    1    3    3    0    0  0.11559269202E+03 -0.84774679304E+02 -0.19169746467E+03  0.23936652786E+03  0.00000000000E+00 0. -1.
         22    1    1    2    0    0 -0.15178971846E+03  0.61352334753E+02  0.14624540485E+03  0.21952664086E+03  0.00000000000E+00 0. -1.
<mgrwt>
<rscale>  0 0.51875520E+03</rscale>
<asrwt>0</asrwt>
<pdfrwt beam="1">  1        2 0.48313279E-01 0.51875520E+03</pdfrwt>
<pdfrwt beam="2">  1       -2 0.32958824E-01 0.51875520E+03</pdfrwt>
<totfact> 0.89877707E+02</totfact>
</mgrwt>
</event>
<event>
 6    1  0.1719556E-004  0.6086724E+04  0.7818608E-02  0.7679741E-01
         -2   -1    0    0    0  501 -0.00000000000E+00  0.00000000000E+00  0.22771897665E+04  0.22771897665E+04  0.00000000000E+00 0. -1.
          2   -1    0    0  501    0  0.00000000000E+00 -0.00000000000E+00 -0.40673169040E+04  0.40673169040E+04  0.00000000000E+00 0.  1.
         23    2    1    2    0    0  0.15141901412E+04 -0.18709889254E+04 -0.28353992264E+04  0.37203944240E+04  0.92057341438E+02 0.  0.
         13    1    3    3    0    0  0.79854948000E+03 -0.96878566423E+03 -0.15476737881E+04  0.19928675545E+04  0.00000000000E+00 0. -1.
        -13    1    3    3    0    0  0.71564066122E+03 -0.90220326115E+03 -0.12877254383E+04  0.17275268695E+04  0.00000000000E+00 0.  1.
         22    1    1    2    0    0 -0.15141901412E+04  0.18709889254E+04  0.10452720889E+04  0.26241122466E+04  0.00000000000E+00 0. -1.
<mgrwt>
<rscale>  0 0.60867241E+04</rscale>
<asrwt>0</asrwt>
<pdfrwt beam="1">  1        2 0.62574106E+00 0.60867241E+04</pdfrwt>
<pdfrwt beam="2">  1       -2 0.35033689E+00 0.60867241E+04</pdfrwt>
<totfact> 0.31005245E-03</totfact>
</mgrwt>
</event>
<event>
 6    1  0.1719556E-004  0.1863389E+04  0.7818608E-02  0.8673298E-01
         -1   -1    0    0    0  501 -0.00000000000E+00  0.00000000000E+00  0.55249677250E+03  0.55249677250E+03  0.00000000000E+00 0. -1.
          1   -1    0    0  501    0  0.00000000000E+00 -0.00000000000E+00 -0.15711489974E+04  0.15711489974E+04  0.00000000000E+00 0.  1.
         23    2    1    2    0    0 -0.54537923855E+03  0.99073084670E+02  0.33970668076E+03  0.65654219259E+03  0.91613491097E+02 0.  0.
         13    1    3    3    0    0 -0.30593917055E+03  0.63475918329E+02  0.24318025950E+03  0.39593510440E+03  0.00000000000E+00 0. -1.
        -13    1    3    3    0    0 -0.23944006800E+03  0.35597166341E+02  0.96526421264E+02  0.26060708819E+03  0.00000000000E+00 0.  1.
         22    1    1    2    0    0  0.54537923855E+03 -0.99073084670E+02 -0.13583589056E+04  0.14671035773E+04  0.00000000000E+00 0.  1.
<mgrwt>
<rscale>  0 0.18633891E+04</rscale>
<asrwt>0</asrwt>
<pdfrwt beam="1">  1        1 0.24171523E+00 0.18633891E+04</pdfrwt>
<pdfrwt beam="2">  1       -1 0.84999504E-01 0.18633891E+04</pdfrwt>
<totfact> 0.75050403E+00</totfact>
</mgrwt>
</event>
<event>
 6    1  0.1719556E-004  0.2486996E+04  0.7818608E-02  0.8407633E-01
         -2   -1    0    0    0  501 -0.00000000000E+00  0.00000000000E+00  0.17254492664E+04  0.17254492664E+04  0.00000000000E+00 0. -1.
          2   -1    0    0  501    0  0.00000000000E+00 -0.00000000000E+00 -0.89616491255E+03  0.89616491255E+03  0.00000000000E+00 0.  1.
         23    2    1    2    0    0  0.15275265204E+03 -0.43569072066E+03  0.16304302126E+04  0.16969550721E+04  0.90521057884E+02 0.  0.
         11    1    3    3    0    0  0.61615530320E+02 -0.30419101971E+03  0.10938461734E+04  0.11370259896E+04  0.00000000000E+00 0.  1.
        -11    1    3    3    0    0  0.91137121721E+02 -0.13149970095E+03  0.53658403920E+03  0.55992908250E+03  0.00000000000E+00 0. -1.
         22    1    1    2    0    0 -0.15275265204E+03  0.43569072066E+03 -0.80114585876E+03  0.92465910680E+03  0.00000000000E+00 0.  1.
<mgrwt>
<rscale>  0 0.24869959E+04</rscale>
<asrwt>0</asrwt>
<pdfrwt beam="1">  1        2 0.13787152E+00 0.24869959E+04</pdfrwt>
<pdfrwt beam="2">  1       -2 0.26545373E+00 0.24869959E+04</pdfrwt>
<totfact> 0.13607078E+00</totfact>
</mgrwt>
</event>
<event>
 6    1  0.1719556E-004  0.4834416E+04  0.7818608E-02  0.7854570E-01
         -2   -1    0    0    0  501 -0.00000000000E+00  0.00000000000E+00  0.40918961934E+04  0.40918961934E+04  0.00000000000E+00 0. -1.
          2   -1    0    0  501    0  0.00000000000E+00 -0.00000000000E+00 -0.14279183314E+04  0.14279183314E+04  0.00000000000E+00 0.  1.
         23    2    1    2    0    0 -0.21592296984E+04  0.59097599706E+03  0.23709150815E+04  0.32620697844E+04  0.91298605027E+02 0.  0.
         13    1    3    3    0    0 -0.99292892275E+03  0.25099605834E+03  0.11440901724E+04  0.15355289608E+04  0.00000000000E+00 0.  1.
        -13    1    3    3    0    0 -0.11663007756E+04  0.33997993873E+03  0.12268249091E+04  0.17265408236E+04  0.00000000000E+00 0. -1.
         22    1    1    2    0    0  0.21592296984E+04 -0.59097599706E+03  0.29306278058E+03  0.22577447404E+04  0.00000000000E+00 0.  1.
<mgrwt>
<rscale>  0 0.48344156E+04</rscale>
<asrwt>0</asrwt>
<pdfrwt beam="1">  1        2 0.21967975E+00 0.48344156E+04</pdfrwt>
<pdfrwt beam="2">  1       -2 0.62952248E+00 0.48344156E+04</pdfrwt>
<totfact> 0.40957963E-03</totfact>
</mgrwt>
</event>
<event>
 6    1  0.1719556E-004  0.2451174E+04  0.7818608E-02  0.8420590E-01
          2   -1    0    0  501    0  0.00000000000E+00  0.00000000000E+00  0.16550358339E+04  0.16550358339E+04  0.00000000000E+00 0.  1.
         -2   -1    0    0    0  501 -0.00000000000E+00 -0.00000000000E+00 -0.90757125706E+03  0.90757125706E+03  0.00000000000E+00 0. -1.
         23    2    1    2    0    0 -0.75764597630E+03 -0.70319878278E+03 -0.31100019504E+03  0.10831262270E+04  0.89024428131E+02 0.  0.
         11    1    3    3    0    0 -0.64933631193E+02 -0.92352464915E+02 -0.18916444402E+02  0.11446914914E+03  0.00000000000E+00 0. -1.
        -11    1    3    3    0    0 -0.69271234511E+03 -0.61084631786E+03 -0.29208375064E+03  0.96865707787E+03  0.00000000000E+00 0.  1.
         22    1    1    2    0    0  0.75764597630E+03  0.70319878278E+03  0.10584647719E+04  0.14794808640E+04  0.00000000000E+00 0.  1.
<mgrwt>
<rscale>  0 0.24511736E+04</rscale>
<asrwt>0</asrwt>
<pdfrwt beam="1">  1        2 0.25462090E+00 0.24511736E+04</pdfrwt>
<pdfrwt beam="2">  1       -2 0.13962635E+00 0.24511736E+04</pdfrwt>
<totfact> 0.33652293E+00</totfact>
</mgrwt>
</event>
<event>
 6    1  0.2450736E-004  0.3804851E+04  0.7818608E-02  0.8045115E-01
         -2   -1    0    0    0  501 -0.00000000000E+00  0.00000000000E+00  0.25132601236E+04  0.25132601236E+04  0.00000000000E+00 0. -1.
          2   -1    0    0  501    0  0.00000000000E+00 -0.00000000000E+00 -0.14400509594E+04  0.14400509594E+04  0.00000000000E+00 0.  1.
         23    2    1    2    0    0 -0.15879036415E+04  0.10305291973E+04  0.35232915798E+03  0.19277009566E+04  0.92014896863E+02 0.  0.
         11    1    3    3    0    0 -0.74885851794E+03  0.48560616555E+03  0.21286148107E+03  0.91755786631E+03  0.00000000000E+00 0. -1.
        -11    1    3    3    0    0 -0.83904512357E+03  0.54492303171E+03  0.13946767691E+03  0.10101430902E+04  0.00000000000E+00 0.  1.
         22    1    1    2    0    0  0.15879036415E+04 -0.10305291973E+04  0.72088000625E+03  0.20256101265E+04  0.00000000000E+00 0.  1.
<mgrwt>
<rscale>  0 0.38048509E+04</rscale>
<asrwt>0</asrwt>
<pdfrwt beam="1">  1        2 0.22154630E+00 0.38048509E+04</pdfrwt>
<pdfrwt beam="2">  1       -2 0.38665541E+00 0.38048509E+04</pdfrwt>
<totfact> 0.99704221E-02</totfact>
</mgrwt>
</event>
<event>
 6    1  0.1719556E-004  0.1744359E+04  0.7818608E-02  0.8736461E-01
         -2   -1    0    0    0  501 -0.00000000000E+00  0.00000000000E+00  0.61804304792E+03  0.61804304792E+03  0.00000000000E+00 0. -1.
          2   -1    0    0  501    0  0.00000000000E+00 -0.00000000000E+00 -0.12308159937E+04  0.12308159937E+04  0.00000000000E+00 0.  1.
         23    2    1    2    0    0 -0.49076268871E+03  0.14520894228E+03  0.43858783158E+03  0.67954593652E+03  0.86543285621E+02 0.  0.
         13    1    3    3    0    0 -0.18425973606E+03  0.57474141899E+02  0.22172346006E+03  0.29396635873E+03  0.00000000000E+00 0. -1.
        -13    1    3    3    0    0 -0.30650295265E+03  0.87734800385E+02  0.21686437152E+03  0.38557957780E+03  0.00000000000E+00 0.  1.
         22    1    1    2    0    0  0.49076268871E+03 -0.14520894228E+03 -0.10513607773E+04  0.11693131050E+04  0.00000000000E+00 0.  1.
<mgrwt>
<rscale>  0 0.17443592E+04</rscale>
<asrwt>0</asrwt>
<pdfrwt beam="1">  1        2 0.18935631E+00 0.17443592E+04</pdfrwt>
<pdfrwt beam="2">  1       -2 0.95083546E-01 0.17443592E+04</pdfrwt>
<totfact> 0.16015724E+01</totfact>
</mgrwt>
</event>
<event>
 6    1  0.1719556E-004  0.1320627E+04  0.7818608E-02  0.9013366E-01
          1   -1    0    0  501    0  0.00000000000E+00  0.00000000000E+00  0.64456524787E+03  0.64456524787E+03  0.00000000000E+00 0.  1.
         -1   -1    0    0    0  501 -0.00000000000E+00 -0.00000000000E+00 -0.67644664462E+03  0.67644664462E+03  0.00000000000E+00 0. -1.
         23    2    1    2    0    0 -0.39915943468E+03 -0.39063587991E+03  0.32985612106E+03  0.65559572439E+03  0.95268296263E+02 0.  0.
         11    1    3    3    0    0 -0.39623705521E+03 -0.36203632357E+03  0.32153702509E+03  0.62566777287E+03  0.00000000000E+00 0.  1.
        -11    1    3    3    0    0 -0.29223794740E+01 -0.28599556341E+02  0.83190959720E+01  0.29927951525E+02  0.00000000000E+00 0. -1.
         22    1    1    2    0    0  0.39915943468E+03  0.39063587991E+03 -0.36173751781E+03  0.66541616809E+03  0.00000000000E+00 0. -1.
<mgrwt>
<rscale>  0 0.13206271E+04</rscale>
<asrwt>0</asrwt>
<pdfrwt beam="1">  1        1 0.99163884E-01 0.13206271E+04</pdfrwt>
<pdfrwt beam="2">  1       -1 0.10406871E+00 0.13206271E+04</pdfrwt>
<totfact> 0.26308720E+01</totfact>
</mgrwt>
</event>
<event>
 6    1  0.1719556E-004  0.4979190E+04  0.7818608E-02  0.7831725E-01
         -2   -1    0    0    0  501 -0.00000000000E+00  0.00000000000E+00  0.22003182900E+04  0.22003182900E+04  0.00000000000E+00 0.  1.
          2   -1    0    0  501    0  0.00000000000E+00 -0.00000000000E+00 -0.28169032192E+04  0.28169032192E+04  0.00000000000E+00 0. -1.
         23    2    1    2    0    0 -0.16055560215E+04  0.51754203786E+03  0.15354403271E+04  0.22828344475E+04  0.89978982644E+02 0.  0.
         11    1    3    3    0    0 -0.85364181688E+03  0.28029789810E+03  0.75734639251E+03  0.11750935373E+04  0.00000000000E+00 0. -1.
        -11    1    3    3    0    0 -0.75191420464E+03  0.23724413976E+03  0.77809393460E+03  0.11077409102E+04  0.00000000000E+00 0.  1.
         22    1    1    2    0    0  0.16055560215E+04 -0.51754203786E+03 -0.21520252563E+04  0.27343870617E+04  0.00000000000E+00 0. -1.
<mgrwt>
<rscale>  0 0.49791902E+04</rscale>
<asrwt>0</asrwt>
<pdfrwt beam="1">  1        2 0.43336973E+00 0.49791902E+04</pdfrwt>
<pdfrwt beam="2">  1       -2 0.33851050E+00 0.49791902E+04</pdfrwt>
<totfact> 0.30250981E-02</totfact>
</mgrwt>
</event>
<event>
 6    1  0.1719556E-004  0.1810547E+04  0.7818608E-02  0.8700711E-01
         -2   -1    0    0    0  501 -0.00000000000E+00  0.00000000000E+00  0.38483033224E+03  0.38483033224E+03  0.00000000000E+00 0. -1.
          2   -1    0    0  501    0  0.00000000000E+00 -0.00000000000E+00 -0.21295627546E+04  0.21295627546E+04  0.00000000000E+00 0.  1.
         23    2    1    2    0    0 -0.11847333722E+03  0.89429392808E+03 -0.93208089569E+03  0.13002266793E+04  0.89538036514E+02 0.  0.
         11    1    3    3    0    0 -0.11432848125E+03  0.72864155470E+03 -0.71609094537E+03  0.10279959917E+04  0.00000000000E+00 0.  1.
        -11    1    3    3    0    0 -0.41448559800E+01  0.16565237338E+03 -0.21598995032E+03  0.27223068761E+03  0.00000000000E+00 0. -1.
         22    1    1    2    0    0  0.11847333722E+03 -0.89429392808E+03 -0.81265152668E+03  0.12141664076E+04  0.00000000000E+00 0.  1.
<mgrwt>
<rscale>  0 0.18105473E+04</rscale>
<asrwt>0</asrwt>
<pdfrwt beam="1">  1        2 0.32762504E+00 0.18105473E+04</pdfrwt>
<pdfrwt beam="2">  1       -2 0.59204666E-01 0.18105473E+04</pdfrwt>
<totfact> 0.14215782E+01</totfact>
</mgrwt>
</event>
<event>
 6    1  0.1719556E-004  0.2960048E+04  0.7818608E-02  0.8255232E-01
          4   -1    0    0  501    0  0.00000000000E+00  0.00000000000E+00  0.18121619814E+04  0.18121619814E+04  0.00000000000E+00 0.  1.
         -4   -1    0    0    0  501 -0.00000000000E+00 -0.00000000000E+00 -0.12087610335E+04  0.12087610335E+04  0.00000000000E+00 0. -1.
         23    2    1    2    0    0 -0.55155433616E+03 -0.11939685689E+04 -0.38774202771E+03  0.13740661519E+04  0.89111057110E+02 0.  0.
         13    1    3    3    0    0 -0.37606814045E+03 -0.89899744591E+03 -0.30349054350E+03  0.10206518329E+04  0.00000000000E+00 0. -1.
        -13    1    3    3    0    0 -0.17548619571E+03 -0.29497112297E+03 -0.84251484201E+02  0.35341431898E+03  0.00000000000E+00 0.  1.
         22    1    1    2    0    0  0.55155433616E+03  0.11939685689E+04  0.99114297565E+03  0.16468568631E+04  0.00000000000E+00 0.  1.
<mgrwt>
<rscale>  0 0.29600478E+04</rscale>
<asrwt>0</asrwt>
<pdfrwt beam="1">  1        4 0.27879415E+00 0.29600478E+04</pdfrwt>
<pdfrwt beam="2">  1       -4 0.18596324E+00 0.29600478E+04</pdfrwt>
<totfact> 0.11669868E-02</totfact>
</mgrwt>
</event>
<event>
 6    1  0.1719556E-004  0.1877376E+04  0.7818608E-02  0.8666200E-01
          1   -1    0    0  501    0  0.00000000000E+00  0.00000000000E+00  0.12306151491E+04  0.12306151491E+04  0.00000000000E+00 0.  1.
         -1   -1    0    0    0  501 -0.00000000000E+00 -0.00000000000E+00 -0.71601213143E+03  0.71601213143E+03  0.00000000000E+00 0. -1.
         23    2    1    2    0    0  0.53209271743E+03 -0.73769914135E+03  0.48881859652E+03  0.10366890851E+04  0.91967145463E+02 0.  0.
         11    1    3    3    0    0  0.20873790183E+03 -0.29579853404E+03  0.14417466886E+03  0.38968528269E+03  0.00000000000E+00 0. -1.
        -11    1    3    3    0    0  0.32335481560E+03 -0.44190060731E+03  0.34464392766E+03  0.64700380245E+03  0.00000000000E+00 0.  1.
         22    1    1    2    0    0 -0.53209271743E+03  0.73769914135E+03  0.25784421158E+02  0.90993819541E+03  0.00000000000E+00 0.  1.
<mgrwt>
<rscale>  0 0.18773762E+04</rscale>
<asrwt>0</asrwt>
<pdfrwt beam="1">  1        1 0.18932541E+00 0.18773762E+04</pdfrwt>
<pdfrwt beam="2">  1       -1 0.11015571E+00 0.18773762E+04</pdfrwt>
<totfact> 0.72378934E+00</totfact>
</mgrwt>
</event>
<event>
 6    1  0.2806717E-004  0.2964921E+04  0.7818608E-02  0.8253819E-01
         -1   -1    0    0    0  501 -0.00000000000E+00  0.00000000000E+00  0.19943812010E+04  0.19943812010E+04  0.00000000000E+00 0. -1.
          1   -1    0    0  501    0  0.00000000000E+00 -0.00000000000E+00 -0.11019401486E+04  0.11019401486E+04  0.00000000000E+00 0.  1.
         23    2    1    2    0    0 -0.33097545824E+03  0.46235235999E+03  0.18747871149E+04  0.19612802732E+04  0.92082166860E+02 0.  0.
         13    1    3    3    0    0 -0.14447874791E+03  0.22163354490E+03  0.10245544428E+04  0.10581622480E+04  0.00000000000E+00 0.  1.
        -13    1    3    3    0    0 -0.18649671034E+03  0.24071881509E+03  0.85023267207E+03  0.90311802526E+03  0.00000000000E+00 0. -1.
         22    1    1    2    0    0  0.33097545824E+03 -0.46235235999E+03 -0.98234606243E+03  0.11350410764E+04  0.00000000000E+00 0.  1.
<mgrwt>
<rscale>  0 0.29649207E+04</rscale>
<asrwt>0</asrwt>
<pdfrwt beam="1">  1        1 0.16952925E+00 0.29649207E+04</pdfrwt>
<pdfrwt beam="2">  1       -1 0.30682788E+00 0.29649207E+04</pdfrwt>
<totfact> 0.32160691E-01</totfact>
</mgrwt>
</event>
<event>
 6    1  0.1790441E-004  0.5594344E+04  0.7818608E-02  0.7742839E-01
         -2   -1    0    0    0  501 -0.00000000000E+00  0.00000000000E+00  0.32465954640E+04  0.32465954640E+04  0.00000000000E+00 0. -1.
          2   -1    0    0  501    0  0.00000000000E+00 -0.00000000000E+00 -0.24099617854E+04  0.24099617854E+04  0.00000000000E+00 0.  1.
         23    2    1    2    0    0 -0.24289189465E+04  0.48344320510E+03  0.17316136297E+04  0.30232411472E+04  0.90203605757E+02 0.  0.
         13    1    3    3    0    0 -0.12082052963E+04  0.28436463763E+03  0.85090472409E+03  0.15048794419E+04  0.00000000000E+00 0.  1.
        -13    1    3    3    0    0 -0.12207136502E+04  0.19907856747E+03  0.88070890566E+03  0.15183617054E+04  0.00000000000E+00 0. -1.
         22    1    1    2    0    0  0.24289189465E+04 -0.48344320510E+03 -0.89497995123E+03  0.26333161022E+04  0.00000000000E+00 0. -1.
<mgrwt>
<rscale>  0 0.55943439E+04</rscale>
<asrwt>0</asrwt>
<pdfrwt beam="1">  1        2 0.37076335E+00 0.55943439E+04</pdfrwt>
<pdfrwt beam="2">  1       -2 0.49947622E+00 0.55943439E+04</pdfrwt>
<totfact> 0.45736527E-03</totfact>
</mgrwt>
</event>
<event>
 6    1  0.1719556E-004  0.3557833E+04  0.7818608E-02  0.8100219E-01
         -2   -1    0    0    0  501 -0.00000000000E+00  0.00000000000E+00  0.67743083060E+03  0.67743083060E+03  0.00000000000E+00 0. -1.
          2   -1    0    0  501    0  0.00000000000E+00 -0.00000000000E+00 -0.46713910047E+04  0.46713910047E+04  0.00000000000E+00 0.  1.
         23    2    1    2    0    0  0.83573084703E+03 -0.12917706967E+03  0.35244657835E+03  0.92091212282E+03  0.93422606271E+02 0.  0.
         11    1    3    3    0    0  0.25626661370E+03  0.20894593109E+01  0.11887828648E+03  0.28250484975E+03  0.00000000000E+00 0. -1.
        -11    1    3    3    0    0  0.57946423333E+03 -0.13126652898E+03  0.23356829187E+03  0.63840727307E+03  0.00000000000E+00 0.  1.
         22    1    1    2    0    0 -0.83573084703E+03  0.12917706967E+03 -0.43464067525E+04  0.44279097125E+04  0.00000000000E+00 0.  1.
<mgrwt>
<rscale>  0 0.35578332E+04</rscale>
<asrwt>0</asrwt>
<pdfrwt beam="1">  1        2 0.71867551E+00 0.35578332E+04</pdfrwt>
<pdfrwt beam="2">  1       -2 0.10422013E+00 0.35578332E+04</pdfrwt>
<totfact> 0.50086506E-02</totfact>
</mgrwt>
</event>
<event>
 6    1  0.1719556E-004  0.3509631E+04  0.7818608E-02  0.8111511E-01
         -1   -1    0    0    0  501 -0.00000000000E+00  0.00000000000E+00  0.10209148237E+04  0.10209148237E+04  0.00000000000E+00 0. -1.
          1   -1    0    0  501    0  0.00000000000E+00 -0.00000000000E+00 -0.30162920662E+04  0.30162920662E+04  0.00000000000E+00 0.  1.
         23    2    1    2    0    0 -0.56829000581E+02  0.66282108686E+03  0.86806504276E+03  0.10975023045E+04  0.91722741974E+02 0.  0.
         13    1    3    3    0    0  0.17968520427E+02  0.50071527068E+02  0.53368236980E+02  0.75353793983E+02  0.00000000000E+00 0.  1.
        -13    1    3    3    0    0 -0.74797521008E+02  0.61274955979E+03  0.81469680578E+03  0.10221485105E+04  0.00000000000E+00 0. -1.
         22    1    1    2    0    0  0.56829000581E+02 -0.66282108686E+03 -0.28634422853E+04  0.29397045855E+04  0.00000000000E+00 0.  1.
<mgrwt>
<rscale>  0 0.35096309E+04</rscale>
<asrwt>0</asrwt>
<pdfrwt beam="1">  1        1 0.46404493E+00 0.35096309E+04</pdfrwt>
<pdfrwt beam="2">  1       -1 0.15706382E+00 0.35096309E+04</pdfrwt>
<totfact> 0.14575863E-01</totfact>
</mgrwt>
</event>
<event>
 6    1  0.1719556E-004  0.1857976E+04  0.7818608E-02  0.8676062E-01
         -1   -1    0    0    0  501 -0.00000000000E+00  0.00000000000E+00  0.41906181293E+03  0.41906181293E+03  0.00000000000E+00 0. -1.
          1   -1    0    0  501    0  0.00000000000E+00 -0.00000000000E+00 -0.20594060134E+04  0.20594060134E+04  0.00000000000E+00 0.  1.
         23    2    1    2    0    0 -0.87093307708E+03  0.28130165479E+03 -0.62753512842E+03  0.11133900768E+04  0.90454850992E+02 0.  0.
         11    1    3    3    0    0 -0.51736568315E+03  0.18547289070E+03 -0.32673833343E+03  0.63939454316E+03  0.00000000000E+00 0. -1.
        -11    1    3    3    0    0 -0.35356739393E+03  0.95828764093E+02 -0.30079679499E+03  0.47399553368E+03  0.00000000000E+00 0.  1.
         22    1    1    2    0    0  0.87093307708E+03 -0.28130165479E+03 -0.10128090721E+04  0.13650777495E+04  0.00000000000E+00 0.  1.
<mgrwt>
<rscale>  0 0.18579757E+04</rscale>
<asrwt>0</asrwt>
<pdfrwt beam="1">  1        1 0.31683169E+00 0.18579757E+04</pdfrwt>
<pdfrwt beam="2">  1       -1 0.64471049E-01 0.18579757E+04</pdfrwt>
<totfact> 0.62212164E+00</totfact>
</mgrwt>
</event>
<event>
 6    1  0.1719556E-004  0.4880729E+04  0.7818608E-02  0.7847174E-01
          2   -1    0    0  501    0  0.00000000000E+00  0.00000000000E+00  0.46575637271E+04  0.46575637271E+04  0.00000000000E+00 0.  1.
         -2   -1    0    0    0  501 -0.00000000000E+00 -0.00000000000E+00 -0.12786468455E+04  0.12786468455E+04  0.00000000000E+00 0. -1.
         23    2    1    2    0    0  0.18175175115E+04  0.11008497666E+04  0.23252435211E+03  0.21394980390E+04  0.90245061378E+02 0.  0.
         11    1    3    3    0    0  0.66661357730E+03  0.44462327734E+03  0.61209911366E+02  0.80362315387E+03  0.00000000000E+00 0. -1.
        -11    1    3    3    0    0  0.11509039342E+04  0.65622648930E+03  0.17131444075E+03  0.13358748851E+04  0.00000000000E+00 0.  1.
         22    1    1    2    0    0 -0.18175175115E+04 -0.11008497666E+04  0.31463925294E+04  0.37967125336E+04  0.00000000000E+00 0.  1.
<mgrwt>
<rscale>  0 0.48807291E+04</rscale>
<asrwt>0</asrwt>
<pdfrwt beam="1">  1        2 0.71654826E+00 0.48807291E+04</pdfrwt>
<pdfrwt beam="2">  1       -2 0.19671490E+00 0.48807291E+04</pdfrwt>
<totfact> 0.86485690E-03</totfact>
</mgrwt>
</event>
<event>
 6    1  0.1719556E-004  0.3664056E+04  0.7818608E-02  0.8075974E-01
          2   -1    0    0  501    0  0.00000000000E+00  0.00000000000E+00  0.17398265639E+04  0.17398265639E+04  0.00000000000E+00 0.  1.
         -2   -1    0    0    0  501 -0.00000000000E+00 -0.00000000000E+00 -0.19291160737E+04  0.19291160737E+04  0.00000000000E+00 0. -1.
         23    2    1    2    0    0 -0.16697540505E+04  0.55722462622E+03  0.40953685842E+03  0.18095957381E+04  0.91314968099E+02 0.  0.
         13    1    3    3    0    0 -0.41623485733E+03  0.16345937216E+03  0.71098650640E+02  0.45279735084E+03  0.00000000000E+00 0. -1.
        -13    1    3    3    0    0 -0.12535191932E+04  0.39376525406E+03  0.33843820778E+03  0.13567983872E+04  0.00000000000E+00 0.  1.
         22    1    1    2    0    0  0.16697540505E+04 -0.55722462622E+03 -0.59882636823E+03  0.18593468995E+04  0.00000000000E+00 0.  1.
<mgrwt>
<rscale>  0 0.36640564E+04</rscale>
<asrwt>0</asrwt>
<pdfrwt beam="1">  1        2 0.26766563E+00 0.36640564E+04</pdfrwt>
<pdfrwt beam="2">  1       -2 0.29678709E+00 0.36640564E+04</pdfrwt>
<totfact> 0.25126207E-01</totfact>
</mgrwt>
</event>
<event>
 6    1  0.1719556E-004  0.1300806E+04  0.7818608E-02  0.9028926E-01
         -2   -1    0    0    0  501 -0.00000000000E+00  0.00000000000E+00  0.11841146092E+04  0.11841146092E+04  0.00000000000E+00 0. -1.
          2   -1    0    0  501    0  0.00000000000E+00 -0.00000000000E+00 -0.35724950449E+03  0.35724950449E+03  0.00000000000E+00 0.  1.
         23    2    1    2    0    0  0.57297356577E+03 -0.33167000440E+02  0.61185900488E+02  0.58446108791E+03  0.91936346847E+02 0.  0.
         13    1    3    3    0    0  0.53683130719E+03 -0.47368663577E+02  0.40434428106E+02  0.54043185106E+03  0.00000000000E+00 0.  1.
        -13    1    3    3    0    0  0.36142258583E+02  0.14201663138E+02  0.20751472382E+02  0.44029236848E+02  0.00000000000E+00 0. -1.
         22    1    1    2    0    0 -0.57297356577E+03  0.33167000440E+02  0.76567920425E+03  0.95690302581E+03  0.00000000000E+00 0. -1.
<mgrwt>
<rscale>  0 0.13008065E+04</rscale>
<asrwt>0</asrwt>
<pdfrwt beam="1">  1        2 0.54961463E-01 0.13008065E+04</pdfrwt>
<pdfrwt beam="2">  1       -2 0.18217148E+00 0.13008065E+04</pdfrwt>
<totfact> 0.15488266E+01</totfact>
</mgrwt>
</event>
<event>
 6    1  0.1719556E-004  0.1798118E+04  0.7818608E-02  0.8707301E-01
          2   -1    0    0  501    0  0.00000000000E+00  0.00000000000E+00  0.46776779963E+03  0.46776779963E+03  0.00000000000E+00 0.  1.
         -2   -1    0    0    0  501 -0.00000000000E+00 -0.00000000000E+00 -0.17280101670E+04  0.17280101670E+04  0.00000000000E+00 0. -1.
         23    2    1    2    0    0  0.37889194377E+03 -0.81060554790E+03 -0.70344322146E+03  0.11418966886E+04  0.91952282631E+02 0.  0.
         13    1    3    3    0    0  0.28598405971E+03 -0.51764027897E+03 -0.44033573232E+03  0.73731533144E+03  0.00000000000E+00 0. -1.
        -13    1    3    3    0    0  0.92907884055E+02 -0.29296526893E+03 -0.26310748914E+03  0.40458135716E+03  0.00000000000E+00 0.  1.
         22    1    1    2    0    0 -0.37889194377E+03  0.81060554790E+03 -0.55679914596E+03  0.10538812781E+04  0.00000000000E+00 0. -1.
<mgrwt>
<rscale>  0 0.17981185E+04</rscale>
<asrwt>0</asrwt>
<pdfrwt beam="1">  1        2 0.71964278E-01 0.17981185E+04</pdfrwt>
<pdfrwt beam="2">  1       -2 0.26584771E+00 0.17981185E+04</pdfrwt>
<totfact> 0.32287591E+00</totfact>
</mgrwt>
</event>
<event>
 6    1  0.1719556E-004  0.4114441E+04  0.7818608E-02  0.7981850E-01
         -1   -1    0    0    0  501 -0.00000000000E+00  0.00000000000E+00  0.30047507145E+04  0.30047507145E+04  0.00000000000E+00 0. -1.
          1   -1    0    0  501    0  0.00000000000E+00 -0.00000000000E+00 -0.14084880102E+04  0.14084880102E+04  0.00000000000E+00 0.  1.
         23    2    1    2    0    0 -0.19880120074E+04  0.44684623623E+03  0.50231180087E+03  0.21005364352E+04  0.89849150996E+02 0.  0.
         13    1    3    3    0    0 -0.11876554578E+04  0.27482400827E+03  0.34508659707E+03  0.12669405990E+04  0.00000000000E+00 0.  1.
        -13    1    3    3    0    0 -0.80035654957E+03  0.17202222796E+03  0.15722520380E+03  0.83359583616E+03  0.00000000000E+00 0. -1.
         22    1    1    2    0    0  0.19880120074E+04 -0.44684623623E+03  0.10939509034E+04  0.23127022894E+04  0.00000000000E+00 0. -1.
<mgrwt>
<rscale>  0 0.41144406E+04</rscale>
<asrwt>0</asrwt>
<pdfrwt beam="1">  1        1 0.21669046E+00 0.41144406E+04</pdfrwt>
<pdfrwt beam="2">  1       -1 0.46226934E+00 0.41144406E+04</pdfrwt>
<totfact> 0.15663809E-02</totfact>
</mgrwt>
</event>
<event>
 6    1  0.1719556E-004  0.1936721E+04  0.7818608E-02  0.8636791E-01
          2   -1    0    0  501    0  0.00000000000E+00  0.00000000000E+00  0.77637674144E+03  0.77637674144E+03  0.00000000000E+00 0.  1.
         -2   -1    0    0    0  501 -0.00000000000E+00 -0.00000000000E+00 -0.12078178604E+04  0.12078178604E+04  0.00000000000E+00 0. -1.
         23    2    1    2    0    0  0.46158576713E+03 -0.79725580109E+03 -0.51468934908E+03  0.10592035204E+04  0.91261924674E+02 0.  0.
         13    1    3    3    0    0  0.24150176924E+03 -0.32697248632E+03 -0.22973255243E+03  0.46691664888E+03  0.00000000000E+00 0. -1.
        -13    1    3    3    0    0  0.22008399788E+03 -0.47028331477E+03 -0.28495679665E+03  0.59228687157E+03  0.00000000000E+00 0.  1.
         22    1    1    2    0    0 -0.46158576713E+03  0.79725580109E+03  0.83248230150E+02  0.92499108136E+03  0.00000000000E+00 0.  1.
<mgrwt>
<rscale>  0 0.19367206E+04</rscale>
<asrwt>0</asrwt>
<pdfrwt beam="1">  1        2 0.11944258E+00 0.19367206E+04</pdfrwt>
<pdfrwt beam="2">  1       -2 0.18581813E+00 0.19367206E+04</pdfrwt>
<totfact> 0.55333338E+00</totfact>
</mgrwt>
</event>
<event>
 6    1  0.1719556E-004  0.7125979E+03  0.7818608E-02  0.9695927E-01
          2   -1    0    0  501    0  0.00000000000E+00  0.00000000000E+00  0.16872783428E+04  0.16872783428E+04  0.00000000000E+00 0. -1.
         -2   -1    0    0    0  501 -0.00000000000E+00 -0.00000000000E+00 -0.75238876185E+02  0.75238876185E+02  0.00000000000E+00 0.  1.
         23    2    1    2    0    0 -0.73510055210E+02  0.29255655643E+03  0.37889258279E+03  0.49301168374E+03  0.92238083701E+02 0.  0.
         13    1    3    3    0    0  0.15986089300E+02  0.11990008500E+03  0.14418158357E+03  0.18820179190E+03  0.00000000000E+00 0. -1.
        -13    1    3    3    0    0 -0.89496144510E+02  0.17265647143E+03  0.23471099922E+03  0.30480989184E+03  0.00000000000E+00 0.  1.
         22    1    1    2    0    0  0.73510055210E+02 -0.29255655643E+03  0.12331468839E+04  0.12695055353E+04  0.00000000000E+00 0. -1.
<mgrwt>
<rscale>  0 0.71259786E+03</rscale>
<asrwt>0</asrwt>
<pdfrwt beam="1">  1        2 0.25958125E+00 0.71259786E+03</pdfrwt>
<pdfrwt beam="2">  1       -2 0.11575213E-01 0.71259786E+03</pdfrwt>
<totfact> 0.54833175E+02</totfact>
</mgrwt>
</event>
<event>
 6    1  0.2146934E-004  0.2890760E+04  0.7818608E-02  0.8275632E-01
          2   -1    0    0  501    0  0.00000000000E+00  0.00000000000E+00  0.24348985017E+04  0.24348985017E+04  0.00000000000E+00 0.  1.
         -2   -1    0    0    0  501 -0.00000000000E+00 -0.00000000000E+00 -0.85799168846E+03  0.85799168846E+03  0.00000000000E+00 0. -1.
         23    2    1    2    0    0 -0.25578722684E+03  0.56670778056E+03 -0.69487872850E+03  0.93755701592E+03  0.97836071143E+02 0.  0.
         11    1    3    3    0    0 -0.20155286003E+03  0.33442653374E+03 -0.44774999678E+03  0.59409150934E+03  0.00000000000E+00 0.  1.
        -11    1    3    3    0    0 -0.54234366810E+02  0.23228124681E+03 -0.24712873173E+03  0.34346550658E+03  0.00000000000E+00 0. -1.
         22    1    1    2    0    0  0.25578722684E+03 -0.56670778056E+03  0.22717855418E+04  0.23553331743E+04  0.00000000000E+00 0.  1.
<mgrwt>
<rscale>  0 0.28907595E+04</rscale>
<asrwt>0</asrwt>
<pdfrwt beam="1">  1        2 0.37459977E+00 0.28907595E+04</pdfrwt>
<pdfrwt beam="2">  1       -2 0.13199872E+00 0.28907595E+04</pdfrwt>
<totfact> 0.13696137E+00</totfact>
</mgrwt>
</event>
<event>
 6    1  0.1719556E-004  0.3434853E+04  0.7818608E-02  0.8129405E-01
          2   -1    0    0  501    0  0.00000000000E+00  0.00000000000E+00  0.26402945974E+04  0.26402945974E+04  0.00000000000E+00 0.  1.
         -2   -1    0    0    0  501 -0.00000000000E+00 -0.00000000000E+00 -0.11171307229E+04  0.11171307229E+04  0.00000000000E+00 0. -1.
         23    2    1    2    0    0  0.40875512055E+03 -0.16586259763E+04  0.58107878672E+03  0.18066190279E+04  0.89993765506E+02 0.  0.
         11    1    3    3    0    0  0.16900874875E+03 -0.55227207490E+03  0.22612173710E+03  0.62024143836E+03  0.00000000000E+00 0. -1.
        -11    1    3    3    0    0  0.23974637179E+03 -0.11063539014E+04  0.35495704962E+03  0.11863775896E+04  0.00000000000E+00 0.  1.
         22    1    1    2    0    0 -0.40875512055E+03  0.16586259763E+04  0.94208508778E+03  0.19508062924E+04  0.00000000000E+00 0.  1.
<mgrwt>
<rscale>  0 0.34348533E+04</rscale>
<asrwt>0</asrwt>
<pdfrwt beam="1">  1        2 0.40619917E+00 0.34348533E+04</pdfrwt>
<pdfrwt beam="2">  1       -2 0.17186627E+00 0.34348533E+04</pdfrwt>
<totfact> 0.49193469E-01</totfact>
</mgrwt>
</event>
<event>
 6    1  0.1719556E-004  0.3533220E+03  0.7818608E-02  0.1061260E+00
         -2   -1    0    0    0  501 -0.00000000000E+00  0.00000000000E+00  0.42753311193E+03  0.42753311193E+03  0.00000000000E+00 0. -1.
          2   -1    0    0  501    0  0.00000000000E+00 -0.00000000000E+00 -0.72998101466E+02  0.72998101466E+02  0.00000000000E+00 0.  1.
         23    2    1    2    0    0 -0.12412241858E+03  0.93526212342E+02  0.11077158664E+03  0.21143930071E+03  0.91009374731E+02 0.  0.
         13    1    3    3    0    0 -0.92003651495E+02  0.13223462843E+02  0.66427344930E+02  0.11424589276E+03  0.00000000000E+00 0. -1.
        -13    1    3    3    0    0 -0.32118767081E+02  0.80302749498E+02  0.44344241714E+02  0.97193407950E+02  0.00000000000E+00 0.  1.
         22    1    1    2    0    0  0.12412241858E+03 -0.93526212342E+02  0.24376342382E+03  0.28909191268E+03  0.00000000000E+00 0. -1.
<mgrwt>
<rscale>  0 0.35332198E+03</rscale>
<asrwt>0</asrwt>
<pdfrwt beam="1">  1        2 0.11230477E-01 0.35332198E+03</pdfrwt>
<pdfrwt beam="2">  1       -2 0.65774323E-01 0.35332198E+03</pdfrwt>
<totfact> 0.12151304E+03</totfact>
</mgrwt>
</event>
<event>
 6    1  0.1719556E-004  0.2530627E+04  0.7818608E-02  0.8392155E-01
          2   -1    0    0  501    0  0.00000000000E+00  0.00000000000E+00  0.20391206290E+04  0.20391206290E+04  0.00000000000E+00 0.  1.
         -2   -1    0    0    0  501 -0.00000000000E+00 -0.00000000000E+00 -0.78515144856E+03  0.78515144856E+03  0.00000000000E+00 0. -1.
         23    2    1    2    0    0 -0.62400728685E+03  0.98207395473E+03  0.11779294472E+04  0.16582376066E+04  0.91541414380E+02 0.  0.
         13    1    3    3    0    0 -0.29411888958E+03  0.40512641492E+03  0.45936957463E+03  0.67945105737E+03  0.00000000000E+00 0.  1.
        -13    1    3    3    0    0 -0.32988839727E+03  0.57694753981E+03  0.71855987260E+03  0.97878654918E+03  0.00000000000E+00 0. -1.
         22    1    1    2    0    0  0.62400728685E+03 -0.98207395473E+03  0.76039733256E+02  0.11660344710E+04  0.00000000000E+00 0. -1.
<mgrwt>
<rscale>  0 0.25306272E+04</rscale>
<asrwt>0</asrwt>
<pdfrwt beam="1">  1        2 0.31371087E+00 0.25306272E+04</pdfrwt>
<pdfrwt beam="2">  1       -2 0.12079253E+00 0.25306272E+04</pdfrwt>
<totfact> 0.29528901E+00</totfact>
</mgrwt>
</event>
<event>
 6    1  0.1719556E-004  0.2006700E+04  0.7818608E-02  0.8603495E-01
         -2   -1    0    0    0  501 -0.00000000000E+00  0.00000000000E+00  0.78775411642E+03  0.78775411642E+03  0.00000000000E+00 0. -1.
          2   -1    0    0  501    0  0.00000000000E+00 -0.00000000000E+00 -0.12779508490E+04  0.12779508490E+04  0.00000000000E+00 0.  1.
         23    2    1    2    0    0  0.91052053080E+03 -0.30965699212E+03 -0.53382821333E+03  0.11029802925E+04  0.81595799992E+02 0.  0.
         11    1    3    3    0    0  0.71450273164E+03 -0.23533834122E+03 -0.37880696721E+03  0.84225471609E+03  0.00000000000E+00 0.  1.
        -11    1    3    3    0    0  0.19601779916E+03 -0.74318650896E+02 -0.15502124612E+03  0.26072557643E+03  0.00000000000E+00 0. -1.
         22    1    1    2    0    0 -0.91052053080E+03  0.30965699212E+03  0.43631480707E+02  0.96272467294E+03  0.00000000000E+00 0. -1.
<mgrwt>
<rscale>  0 0.20066998E+04</rscale>
<asrwt>0</asrwt>
<pdfrwt beam="1">  1        2 0.19660782E+00 0.20066998E+04</pdfrwt>
<pdfrwt beam="2">  1       -2 0.12119294E+00 0.20066998E+04</pdfrwt>
<totfact> 0.81939960E+00</totfact>
</mgrwt>
</event>
<event>
 6    1  0.1719556E-004  0.1311666E+04  0.7818608E-02  0.9020365E-01
         -2   -1    0    0    0  501 -0.00000000000E+00  0.00000000000E+00  0.48686935878E+03  0.48686935878E+03  0.00000000000E+00 0. -1.
          2   -1    0    0  501    0  0.00000000000E+00 -0.00000000000E+00 -0.88343334049E+03  0.88343334049E+03  0.00000000000E+00 0.  1.
         23    2    1    2    0    0 -0.21841847857E+03  0.31221324670E+03 -0.75279819440E+03  0.84868353025E+03  0.91514314880E+02 0.  0.
         11    1    3    3    0    0 -0.73435954279E+02  0.13134958624E+03 -0.39142914525E+03  0.41935942691E+03  0.00000000000E+00 0. -1.
        -11    1    3    3    0    0 -0.14498252429E+03  0.18086366046E+03 -0.36136904915E+03  0.42932410334E+03  0.00000000000E+00 0.  1.
         22    1    1    2    0    0  0.21841847857E+03 -0.31221324670E+03  0.35623421269E+03  0.52161916902E+03  0.00000000000E+00 0. -1.
<mgrwt>
<rscale>  0 0.13116655E+04</rscale>
<asrwt>0</asrwt>
<pdfrwt beam="1">  1        2 0.13591282E+00 0.13116655E+04</pdfrwt>
<pdfrwt beam="2">  1       -2 0.74902978E-01 0.13116655E+04</pdfrwt>
<totfact> 0.47215127E+01</totfact>
</mgrwt>
</event>
<event>
 6    1  0.1719556E-004  0.2020211E+04  0.7818608E-02  0.8597229E-01
          1   -1    0    0  501    0  0.00000000000E+00  0.00000000000E+00  0.14120781044E+04  0.14120781044E+04  0.00000000000E+00 0.  1.
         -1   -1    0    0    0  501 -0.00000000000E+00 -0.00000000000E+00 -0.72256159848E+03  0.72256159848E+03  0.00000000000E+00 0. -1.
         23    2    1    2    0    0  0.74524031091E+03 -0.55920066444E+02  0.10583406086E+04  0.13012482021E+04  0.12104488724E+03 0.  0.
         13    1    3    3    0    0  0.25385110482E+03  0.93006181284E+01  0.27615145673E+03  0.37521528749E+03  0.00000000000E+00 0. -1.
        -13    1    3    3    0    0  0.49138920609E+03 -0.65220684572E+02  0.78218915192E+03  0.92603291461E+03  0.00000000000E+00 0.  1.
         22    1    1    2    0    0 -0.74524031091E+03  0.55920066444E+02 -0.36882410271E+03  0.83339150079E+03  0.00000000000E+00 0. -1.
<mgrwt>
<rscale>  0 0.20202113E+04</rscale>
<asrwt>0</asrwt>
<pdfrwt beam="1">  1        1 0.21724278E+00 0.20202113E+04</pdfrwt>
<pdfrwt beam="2">  1       -1 0.11116332E+00 0.20202113E+04</pdfrwt>
<totfact> 0.51934983E+00</totfact>
</mgrwt>
</event>
<event>
 6    1  0.1719556E-004  0.2807388E+04  0.7818608E-02  0.8300978E-01
         -2   -1    0    0    0  501 -0.00000000000E+00  0.00000000000E+00  0.13932622045E+04  0.13932622045E+04  0.00000000000E+00 0. -1.
          2   -1    0    0  501    0  0.00000000000E+00 -0.00000000000E+00 -0.14142041476E+04  0.14142041476E+04  0.00000000000E+00 0.  1.
         23    2    1    2    0    0 -0.11347315960E+04  0.70275424777E+03 -0.44028219661E+03  0.14084218295E+04  0.91237653662E+02 0.  0.
         11    1    3    3    0    0 -0.42609437170E+03  0.30892172832E+03 -0.19739093635E+03  0.56209628141E+03  0.00000000000E+00 0.  1.
        -11    1    3    3    0    0 -0.70863722431E+03  0.39383251945E+03 -0.24289126026E+03  0.84632554810E+03  0.00000000000E+00 0. -1.
         22    1    1    2    0    0  0.11347315960E+04 -0.70275424777E+03  0.41934025350E+03  0.13990445225E+04  0.00000000000E+00 0. -1.
<mgrwt>
<rscale>  0 0.28073882E+04</rscale>
<asrwt>0</asrwt>
<pdfrwt beam="1">  1        2 0.21756987E+00 0.28073882E+04</pdfrwt>
<pdfrwt beam="2">  1       -2 0.21434803E+00 0.28073882E+04</pdfrwt>
<totfact> 0.13262663E+00</totfact>
</mgrwt>
</event>
<event>
 6    1  0.1719556E-004  0.2665846E+04  0.7818608E-02  0.8346173E-01
         -1   -1    0    0    0  501 -0.00000000000E+00  0.00000000000E+00  0.13551411640E+04  0.13551411640E+04  0.00000000000E+00 0.  1.
          1   -1    0    0  501    0  0.00000000000E+00 -0.00000000000E+00 -0.13110691453E+04  0.13110691453E+04  0.00000000000E+00 0. -1.
         23    2    1    2    0    0  0.78422776171E+03 -0.10458568600E+03 -0.10488951049E+04  0.13169406990E+04  0.90556698403E+02 0.  0.
         11    1    3    3    0    0  0.60190780897E+03 -0.52615063238E+02 -0.75166958983E+03  0.96440060538E+03  0.00000000000E+00 0.  1.
        -11    1    3    3    0    0  0.18231995274E+03 -0.51970622766E+02 -0.29722551504E+03  0.35254009359E+03  0.00000000000E+00 0. -1.
         22    1    1    2    0    0 -0.78422776171E+03  0.10458568600E+03  0.10929671236E+04  0.13492696103E+04  0.00000000000E+00 0.  1.
<mgrwt>
<rscale>  0 0.26658460E+04</rscale>
<asrwt>0</asrwt>
<pdfrwt beam="1">  1        1 0.20170294E+00 0.26658460E+04</pdfrwt>
<pdfrwt beam="2">  1       -1 0.20848326E+00 0.26658460E+04</pdfrwt>
<totfact> 0.10240466E+00</totfact>
</mgrwt>
</event>
<event>
 6    1  0.1719556E-004  0.1206829E+04  0.7818608E-02  0.9106900E-01
         -2   -1    0    0    0  501 -0.00000000000E+00  0.00000000000E+00  0.10256605271E+03  0.10256605271E+03  0.00000000000E+00 0. -1.
          2   -1    0    0  501    0  0.00000000000E+00 -0.00000000000E+00 -0.35499938602E+04  0.35499938602E+04  0.00000000000E+00 0.  1.
         23    2    1    2    0    0 -0.57348751551E+03  0.89174925345E+02 -0.21933047091E+04  0.22706536774E+04  0.91882958606E+02 0.  0.
         11    1    3    3    0    0 -0.44852133294E+03  0.32426809890E+02 -0.17249379965E+04  0.17825919264E+04  0.00000000000E+00 0. -1.
        -11    1    3    3    0    0 -0.12496618258E+03  0.56748115455E+02 -0.46836671256E+03  0.48806175104E+03  0.00000000000E+00 0.  1.
         22    1    1    2    0    0  0.57348751551E+03 -0.89174925345E+02 -0.12541230984E+04  0.13819062355E+04  0.00000000000E+00 0. -1.
<mgrwt>
<rscale>  0 0.12068287E+04</rscale>
<asrwt>0</asrwt>
<pdfrwt beam="1">  1        2 0.54615296E+00 0.12068287E+04</pdfrwt>
<pdfrwt beam="2">  1       -2 0.15779391E-01 0.12068287E+04</pdfrwt>
<totfact> 0.24463309E+01</totfact>
</mgrwt>
</event>
<event>
 6    1  0.1719556E-004  0.2936789E+04  0.7818608E-02  0.8262015E-01
         -2   -1    0    0    0  501 -0.00000000000E+00  0.00000000000E+00  0.73350912454E+03  0.73350912454E+03  0.00000000000E+00 0.  1.
          2   -1    0    0  501    0  0.00000000000E+00 -0.00000000000E+00 -0.29395432256E+04  0.29395432256E+04  0.00000000000E+00 0. -1.
         23    2    1    2    0    0  0.61345295271E+03  0.30536621420E+03  0.51814479092E+03  0.86400915262E+03  0.92004029767E+02 0.  0.
         13    1    3    3    0    0  0.29423511274E+03  0.15580378875E+03  0.19529400117E+03  0.38599076290E+03  0.00000000000E+00 0.  1.
        -13    1    3    3    0    0  0.31921783998E+03  0.14956242545E+03  0.32285078975E+03  0.47801838972E+03  0.00000000000E+00 0. -1.
         22    1    1    2    0    0 -0.61345295271E+03 -0.30536621420E+03 -0.27241788920E+04  0.28090431975E+04  0.00000000000E+00 0. -1.
<mgrwt>
<rscale>  0 0.29367886E+04</rscale>
<asrwt>0</asrwt>
<pdfrwt beam="1">  1        2 0.45223742E+00 0.29367886E+04</pdfrwt>
<pdfrwt beam="2">  1       -2 0.11284756E+00 0.29367886E+04</pdfrwt>
<totfact> 0.10084822E+00</totfact>
</mgrwt>
</event>
<event>
 6    1  0.1719556E-004  0.3693869E+04  0.7818608E-02  0.8069322E-01
          2   -1    0    0  501    0  0.00000000000E+00  0.00000000000E+00  0.15584762037E+04  0.15584762037E+04  0.00000000000E+00 0.  1.
         -2   -1    0    0    0  501 -0.00000000000E+00 -0.00000000000E+00 -0.21887832490E+04  0.21887832490E+04  0.00000000000E+00 0. -1.
         23    2    1    2    0    0 -0.14082117931E+04  0.75247274244E+03 -0.12548282993E+04  0.20328200460E+04  0.92128152802E+02 0.  0.
         13    1    3    3    0    0 -0.41037825500E+03  0.19537824519E+03 -0.31217724794E+03  0.55139605095E+03  0.00000000000E+00 0.  1.
        -13    1    3    3    0    0 -0.99783353814E+03  0.55709449726E+03 -0.94265105131E+03  0.14814239951E+04  0.00000000000E+00 0. -1.
         22    1    1    2    0    0  0.14082117931E+04 -0.75247274244E+03  0.62452125389E+03  0.17144394066E+04  0.00000000000E+00 0. -1.
<mgrwt>
<rscale>  0 0.36938688E+04</rscale>
<asrwt>0</asrwt>
<pdfrwt beam="1">  1        2 0.23976557E+00 0.36938688E+04</pdfrwt>
<pdfrwt beam="2">  1       -2 0.33673588E+00 0.36938688E+04</pdfrwt>
<totfact> 0.17930148E-01</totfact>
</mgrwt>
</event>
<event>
 6    1  0.1719556E-004  0.8713222E+03  0.7818608E-02  0.9462158E-01
         -1   -1    0    0    0  501 -0.00000000000E+00  0.00000000000E+00  0.16427744612E+03  0.16427744612E+03  0.00000000000E+00 0. -1.
          1   -1    0    0  501    0  0.00000000000E+00 -0.00000000000E+00 -0.11553660711E+04  0.11553660711E+04  0.00000000000E+00 0.  1.
         23    2    1    2    0    0 -0.29810178593E+03  0.85873538474E+02 -0.48426599815E+02  0.32724710799E+03  0.92231202591E+02 0.  0.
         11    1    3    3    0    0 -0.29597893235E+03  0.96773766092E+02 -0.51720438911E+02  0.31566389403E+03  0.00000000000E+00 0. -1.
        -11    1    3    3    0    0 -0.21228535832E+01 -0.10900227617E+02  0.32938390968E+01  0.11583213951E+02  0.00000000000E+00 0.  1.
         22    1    1    2    0    0  0.29810178593E+03 -0.85873538474E+02 -0.94266202512E+03  0.99239640919E+03  0.00000000000E+00 0.  1.
<mgrwt>
<rscale>  0 0.87132218E+03</rscale>
<asrwt>0</asrwt>
<pdfrwt beam="1">  1        1 0.17774863E+00 0.87132218E+03</pdfrwt>
<pdfrwt beam="2">  1       -1 0.25273453E-01 0.87132218E+03</pdfrwt>
<totfact> 0.15968124E+02</totfact>
</mgrwt>
</event>
<event>
 6    1  0.1719556E-004  0.2729882E+04  0.7818608E-02  0.8325374E-01
          2   -1    0    0  501    0  0.00000000000E+00  0.00000000000E+00  0.10228199830E+04  0.10228199830E+04  0.00000000000E+00 0.  1.
         -2   -1    0    0    0  501 -0.00000000000E+00 -0.00000000000E+00 -0.18214968205E+04  0.18214968205E+04  0.00000000000E+00 0. -1.
         23    2    1    2    0    0 -0.19359191231E+03  0.13456917104E+04 -0.50696623993E+03  0.14538280115E+04  0.90758529504E+02 0.  0.
         11    1    3    3    0    0 -0.16419440176E+03  0.87762654460E+03 -0.35490717918E+03  0.96080552621E+03  0.00000000000E+00 0. -1.
        -11    1    3    3    0    0 -0.29397510555E+02  0.46806516576E+03 -0.15205906075E+03  0.49302248527E+03  0.00000000000E+00 0.  1.
         22    1    1    2    0    0  0.19359191231E+03 -0.13456917104E+04 -0.29171059759E+03  0.13904887920E+04  0.00000000000E+00 0. -1.
<mgrwt>
<rscale>  0 0.27298816E+04</rscale>
<asrwt>0</asrwt>
<pdfrwt beam="1">  1        2 0.15735692E+00 0.27298816E+04</pdfrwt>
<pdfrwt beam="2">  1       -2 0.28023028E+00 0.27298816E+04</pdfrwt>
<totfact> 0.89468696E-01</totfact>
</mgrwt>
</event>
<event>
 6    1  0.1719556E-004  0.2921176E+04  0.7818608E-02  0.8266605E-01
         -1   -1    0    0    0  501 -0.00000000000E+00  0.00000000000E+00  0.22740229936E+04  0.22740229936E+04  0.00000000000E+00 0. -1.
          1   -1    0    0  501    0  0.00000000000E+00 -0.00000000000E+00 -0.93812486434E+03  0.93812486434E+03  0.00000000000E+00 0.  1.
         23    2    1    2    0    0  0.91112782458E+03 -0.83938708291E+03  0.15164632935E+04  0.19602180012E+04  0.89828191998E+02 0.  0.
         11    1    3    3    0    0  0.26199639842E+03 -0.18969987199E+03  0.41153546740E+03  0.52344015431E+03  0.00000000000E+00 0.  1.
        -11    1    3    3    0    0  0.64913142616E+03 -0.64968721093E+03  0.11049278261E+04  0.14367778469E+04  0.00000000000E+00 0. -1.
         22    1    1    2    0    0 -0.91112782458E+03  0.83938708291E+03 -0.18056516421E+03  0.12519298567E+04  0.00000000000E+00 0.  1.
<mgrwt>
<rscale>  0 0.29211761E+04</rscale>
<asrwt>0</asrwt>
<pdfrwt beam="1">  1        1 0.14432690E+00 0.29211761E+04</pdfrwt>
<pdfrwt beam="2">  1       -1 0.34984969E+00 0.29211761E+04</pdfrwt>
<totfact> 0.22602261E-01</totfact>
</mgrwt>
</event>
<event>
 6    1  0.1719556E-004  0.2955016E+04  0.7818608E-02  0.8256694E-01
         -2   -1    0    0    0  501 -0.00000000000E+00  0.00000000000E+00  0.16177390424E+04  0.16177390424E+04  0.00000000000E+00 0. -1.
          2   -1    0    0  501    0  0.00000000000E+00 -0.00000000000E+00 -0.13494327460E+04  0.13494327460E+04  0.00000000000E+00 0.  1.
         23    2    1    2    0    0  0.20167538208E+03 -0.61291128084E+03  0.14673687436E+04  0.16055242751E+04  0.90575771577E+02 0.  0.
         11    1    3    3    0    0  0.13770256030E+03 -0.50332341381E+03  0.12361047624E+04  0.13417344885E+04  0.00000000000E+00 0.  1.
        -11    1    3    3    0    0  0.63972821784E+02 -0.10958786703E+03  0.23126398123E+03  0.26378978665E+03  0.00000000000E+00 0. -1.
         22    1    1    2    0    0 -0.20167538208E+03  0.61291128084E+03 -0.11990624472E+04  0.13616475132E+04  0.00000000000E+00 0.  1.
<mgrwt>
<rscale>  0 0.29550161E+04</rscale>
<asrwt>0</asrwt>
<pdfrwt beam="1">  1        2 0.20760504E+00 0.29550161E+04</pdfrwt>
<pdfrwt beam="2">  1       -2 0.24888293E+00 0.29550161E+04</pdfrwt>
<totfact> 0.86798453E-01</totfact>
</mgrwt>
</event>
<event>
 6    1  0.1719556E-004  0.5482963E+04  0.7818608E-02  0.7758038E-01
          2   -1    0    0  501    0  0.00000000000E+00  0.00000000000E+00  0.39974600437E+04  0.39974600437E+04  0.00000000000E+00 0.  1.
         -2   -1    0    0    0  501 -0.00000000000E+00 -0.00000000000E+00 -0.18801238479E+04  0.18801238479E+04  0.00000000000E+00 0. -1.
         23    2    1    2    0    0  0.15139147606E+04 -0.45084018336E+03 -0.13420286329E+04  0.20746376929E+04  0.88802770298E+02 0.  0.
         11    1    3    3    0    0  0.39355241530E+03 -0.13644761440E+03 -0.39979573974E+03  0.57735438734E+03  0.00000000000E+00 0. -1.
        -11    1    3    3    0    0  0.11203623453E+04 -0.31439256897E+03 -0.94223289312E+03  0.14972833055E+04  0.00000000000E+00 0.  1.
         22    1    1    2    0    0 -0.15139147606E+04  0.45084018336E+03  0.34593648287E+04  0.38029461988E+04  0.00000000000E+00 0.  1.
<mgrwt>
<rscale>  0 0.54829627E+04</rscale>
<asrwt>0</asrwt>
<pdfrwt beam="1">  1        2 0.61499385E+00 0.54829627E+04</pdfrwt>
<pdfrwt beam="2">  1       -2 0.28924982E+00 0.54829627E+04</pdfrwt>
<totfact> 0.88622787E-03</totfact>
</mgrwt>
</event>
<event>
 6    1  0.1719556E-004  0.1270889E+04  0.7818608E-02  0.9052974E-01
         -2   -1    0    0    0  501 -0.00000000000E+00  0.00000000000E+00  0.41240160773E+03  0.41240160773E+03  0.00000000000E+00 0. -1.
          2   -1    0    0  501    0  0.00000000000E+00 -0.00000000000E+00 -0.97911828403E+03  0.97911828403E+03  0.00000000000E+00 0.  1.
         23    2    1    2    0    0 -0.70160004340E+02  0.41161695180E+03 -0.80455311398E+03  0.91098153501E+03  0.90723220356E+02 0.  0.
         11    1    3    3    0    0 -0.70386913618E+02  0.19567388171E+03 -0.45217985652E+03  0.49770393633E+03  0.00000000000E+00 0. -1.
        -11    1    3    3    0    0  0.22690927715E+00  0.21594307009E+03 -0.35237325745E+03  0.41327759869E+03  0.00000000000E+00 0.  1.
         22    1    1    2    0    0  0.70160004340E+02 -0.41161695180E+03  0.23783643768E+03  0.48053835674E+03  0.00000000000E+00 0. -1.
<mgrwt>
<rscale>  0 0.12708894E+04</rscale>
<asrwt>0</asrwt>
<pdfrwt beam="1">  1        2 0.15063358E+00 0.12708894E+04</pdfrwt>
<pdfrwt beam="2">  1       -2 0.63446402E-01 0.12708894E+04</pdfrwt>
<totfact> 0.58694499E+01</totfact>
</mgrwt>
</event>
<event>
 6    1  0.1719556E-004  0.3409464E+04  0.7818608E-02  0.8135587E-01
          2   -1    0    0  501    0  0.00000000000E+00  0.00000000000E+00  0.29151700808E+04  0.29151700808E+04  0.00000000000E+00 0.  1.
         -2   -1    0    0    0  501 -0.00000000000E+00 -0.00000000000E+00 -0.99689265770E+03  0.99689265770E+03  0.00000000000E+00 0. -1.
         23    2    1    2    0    0  0.91853008201E+03 -0.29297559537E+03  0.25713321891E+04  0.27475831387E+04  0.89059904874E+02 0.  0.
         11    1    3    3    0    0  0.40059834339E+03 -0.83135585240E+02  0.10550426798E+04  0.11315942800E+04  0.00000000000E+00 0. -1.
        -11    1    3    3    0    0  0.51793173862E+03 -0.20984001013E+03  0.15162895093E+04  0.16159888588E+04  0.00000000000E+00 0.  1.
         22    1    1    2    0    0 -0.91853008201E+03  0.29297559537E+03 -0.65305476594E+03  0.11644795998E+04  0.00000000000E+00 0. -1.
<mgrwt>
<rscale>  0 0.34094643E+04</rscale>
<asrwt>0</asrwt>
<pdfrwt beam="1">  1        2 0.44848770E+00 0.34094643E+04</pdfrwt>
<pdfrwt beam="2">  1       -2 0.15336810E+00 0.34094643E+04</pdfrwt>
<totfact> 0.45939527E-01</totfact>
</mgrwt>
</event>
<event>
 6    1  0.1719556E-004  0.1994385E+04  0.7818608E-02  0.8609251E-01
         -1   -1    0    0    0  501 -0.00000000000E+00  0.00000000000E+00  0.77180538207E+03  0.77180538207E+03  0.00000000000E+00 0. -1.
          1   -1    0    0  501    0  0.00000000000E+00 -0.00000000000E+00 -0.12883979430E+04  0.12883979430E+04  0.00000000000E+00 0.  1.
         23    2    1    2    0    0 -0.78695625208E+03  0.50506696988E+03  0.92491424959E+02  0.94423912822E+03  0.92952035077E+02 0.  0.
         11    1    3    3    0    0 -0.26717139611E+03  0.12252726427E+03  0.16303316302E+02  0.29437948894E+03  0.00000000000E+00 0.  1.
        -11    1    3    3    0    0 -0.51978485598E+03  0.38253970561E+03  0.76188108657E+02  0.64985963928E+03  0.00000000000E+00 0. -1.
         22    1    1    2    0    0  0.78695625208E+03 -0.50506696988E+03 -0.60908398589E+03  0.11159641968E+04  0.00000000000E+00 0.  1.
<mgrwt>
<rscale>  0 0.19943846E+04</rscale>
<asrwt>0</asrwt>
<pdfrwt beam="1">  1        1 0.19821507E+00 0.19943846E+04</pdfrwt>
<pdfrwt beam="2">  1       -1 0.11873929E+00 0.19943846E+04</pdfrwt>
<totfact> 0.54369750E+00</totfact>
</mgrwt>
</event>
<event>
 6    1  0.1719556E-004  0.2599752E+03  0.7818608E-02  0.1107158E+00
          1   -1    0    0  501    0  0.00000000000E+00  0.00000000000E+00  0.15404700085E+04  0.15404700085E+04  0.00000000000E+00 0.  1.
         -1   -1    0    0    0  501 -0.00000000000E+00 -0.00000000000E+00 -0.10968585020E+02  0.10968585020E+02  0.00000000000E+00 0. -1.
         23    2    1    2    0    0  0.11050201800E+03  0.18327179815E+02  0.94101720995E+03  0.95238913723E+03  0.94789755772E+02 0.  0.
         11    1    3    3    0    0  0.36759379009E+02  0.15318891001E+02  0.93018483025E+02  0.10118477430E+03  0.00000000000E+00 0. -1.
        -11    1    3    3    0    0  0.73742638988E+02  0.30082888141E+01  0.84799872692E+03  0.85120436293E+03  0.00000000000E+00 0.  1.
         22    1    1    2    0    0 -0.11050201800E+03 -0.18327179815E+02  0.58848421354E+03  0.59904945630E+03  0.00000000000E+00 0. -1.
<mgrwt>
<rscale>  0 0.25997520E+03</rscale>
<asrwt>0</asrwt>
<pdfrwt beam="1">  1        1 0.23699521E+00 0.25997520E+03</pdfrwt>
<pdfrwt beam="2">  1       -1 0.16874758E-02 0.25997520E+03</pdfrwt>
<totfact> 0.59092395E+03</totfact>
</mgrwt>
</event>
<event>
 6    1  0.1719556E-004  0.1198488E+04  0.7818608E-02  0.9114181E-01
         -2   -1    0    0    0  501 -0.00000000000E+00  0.00000000000E+00  0.39702228094E+03  0.39702228094E+03  0.00000000000E+00 0. -1.
          2   -1    0    0  501    0  0.00000000000E+00 -0.00000000000E+00 -0.90446660546E+03  0.90446660546E+03  0.00000000000E+00 0.  1.
         23    2    1    2    0    0  0.29020506793E+03 -0.17436338571E+03 -0.78763585895E+03  0.86202459013E+03  0.89969861297E+02 0.  0.
         13    1    3    3    0    0  0.28028602035E+02 -0.51892724893E+02 -0.17054937735E+03  0.18045926838E+03  0.00000000000E+00 0. -1.
        -13    1    3    3    0    0  0.26217646590E+03 -0.12247066082E+03 -0.61708648160E+03  0.68156532175E+03  0.00000000000E+00 0.  1.
         22    1    1    2    0    0 -0.29020506793E+03  0.17436338571E+03  0.28019153444E+03  0.43946429627E+03  0.00000000000E+00 0. -1.
<mgrwt>
<rscale>  0 0.11984880E+04</rscale>
<asrwt>0</asrwt>
<pdfrwt beam="1">  1        2 0.13914871E+00 0.11984880E+04</pdfrwt>
<pdfrwt beam="2">  1       -2 0.61080351E-01 0.11984880E+04</pdfrwt>
<totfact> 0.71674090E+01</totfact>
</mgrwt>
</event>
<event>
 6    1  0.1719556E-004  0.1437682E+04  0.7818608E-02  0.8926985E-01
         -1   -1    0    0    0  501 -0.00000000000E+00  0.00000000000E+00  0.16672165971E+04  0.16672165971E+04  0.00000000000E+00 0.  1.
          1   -1    0    0  501    0  0.00000000000E+00 -0.00000000000E+00 -0.30993699905E+03  0.30993699905E+03  0.00000000000E+00 0. -1.
         23    2    1    2    0    0  0.31558532130E+03 -0.47457003228E+03  0.12773745015E+04  0.14016576057E+04  0.90264146204E+02 0.  0.
         11    1    3    3    0    0  0.19185337921E+03 -0.36224298534E+03  0.90712038876E+03  0.99543713978E+03  0.00000000000E+00 0. -1.
        -11    1    3    3    0    0  0.12373194209E+03 -0.11232704694E+03  0.37025411272E+03  0.40622046595E+03  0.00000000000E+00 0.  1.
         22    1    1    2    0    0 -0.31558532130E+03  0.47457003228E+03  0.79905096590E+02  0.57549599045E+03  0.00000000000E+00 0. -1.
<mgrwt>
<rscale>  0 0.14376816E+04</rscale>
<asrwt>0</asrwt>
<pdfrwt beam="1">  1        1 0.47682616E-01 0.14376816E+04</pdfrwt>
<pdfrwt beam="2">  1       -1 0.25649486E+00 0.14376816E+04</pdfrwt>
<totfact> 0.51707733E+00</totfact>
</mgrwt>
</event>
<event>
 6    1  0.1719556E-004  0.5022818E+04  0.7818608E-02  0.7824997E-01
          2   -1    0    0  501    0  0.00000000000E+00  0.00000000000E+00  0.28772125447E+04  0.28772125447E+04  0.00000000000E+00 0.  1.
         -2   -1    0    0    0  501 -0.00000000000E+00 -0.00000000000E+00 -0.21921129624E+04  0.21921129624E+04  0.00000000000E+00 0. -1.
         23    2    1    2    0    0 -0.17779897581E+04  0.16387063776E+04 -0.33917894384E+03  0.24433489896E+04  0.91135925460E+02 0.  0.
         11    1    3    3    0    0 -0.52865884182E+03  0.43557373954E+03 -0.11174190849E+03  0.69403955775E+03  0.00000000000E+00 0.  1.
        -11    1    3    3    0    0 -0.12493309163E+04  0.12031326381E+04 -0.22743703535E+03  0.17493094318E+04  0.00000000000E+00 0. -1.
         22    1    1    2    0    0  0.17779897581E+04 -0.16387063776E+04  0.10242785261E+04  0.26259765176E+04  0.00000000000E+00 0.  1.
<mgrwt>
<rscale>  0 0.50228179E+04</rscale>
<asrwt>0</asrwt>
<pdfrwt beam="1">  1        2 0.44264809E+00 0.50228179E+04</pdfrwt>
<pdfrwt beam="2">  1       -2 0.33724815E+00 0.50228179E+04</pdfrwt>
<totfact> 0.28202103E-02</totfact>
</mgrwt>
</event>
<event>
 6    1  0.1719556E-004  0.2288515E+04  0.7818608E-02  0.8482463E-01
          2   -1    0    0  501    0  0.00000000000E+00  0.00000000000E+00  0.13849320176E+04  0.13849320176E+04  0.00000000000E+00 0.  1.
         -2   -1    0    0    0  501 -0.00000000000E+00 -0.00000000000E+00 -0.94540730535E+03  0.94540730535E+03  0.00000000000E+00 0. -1.
         23    2    1    2    0    0  0.11237816574E+04 -0.14052033216E+02  0.42898191512E+03  0.12064203652E+04  0.91334226764E+02 0.  0.
         11    1    3    3    0    0  0.79401031092E+03 -0.49000212467E+02  0.28741770769E+03  0.84585006553E+03  0.00000000000E+00 0. -1.
        -11    1    3    3    0    0  0.32977134643E+03  0.34948179251E+02  0.14156420744E+03  0.36057029965E+03  0.00000000000E+00 0.  1.
         22    1    1    2    0    0 -0.11237816574E+04  0.14052033216E+02  0.10542797116E+02  0.11239189578E+04  0.00000000000E+00 0. -1.
<mgrwt>
<rscale>  0 0.22885147E+04</rscale>
<asrwt>0</asrwt>
<pdfrwt beam="1">  1        2 0.21306646E+00 0.22885147E+04</pdfrwt>
<pdfrwt beam="2">  1       -2 0.14544728E+00 0.22885147E+04</pdfrwt>
<totfact> 0.43547525E+00</totfact>
</mgrwt>
</event>
<event>
 6    1  0.1719556E-004  0.1189459E+04  0.7818608E-02  0.9122134E-01
         -2   -1    0    0    0  501 -0.00000000000E+00  0.00000000000E+00  0.44309459773E+03  0.44309459773E+03  0.00000000000E+00 0. -1.
          2   -1    0    0  501    0  0.00000000000E+00 -0.00000000000E+00 -0.79825595780E+03  0.79825595780E+03  0.00000000000E+00 0.  1.
         23    2    1    2    0    0 -0.73512702228E+02 -0.32557471582E+03  0.33074492197E+03  0.47854622891E+03  0.90616095869E+02 0.  0.
         13    1    3    3    0    0 -0.11084169734E+01 -0.11059378957E+03  0.16052588011E+03  0.19493786975E+03  0.00000000000E+00 0. -1.
        -13    1    3    3    0    0 -0.72404285254E+02 -0.21498092625E+03  0.17021904187E+03  0.28360835916E+03  0.00000000000E+00 0.  1.
         22    1    1    2    0    0  0.73512702228E+02  0.32557471582E+03 -0.68590628204E+03  0.76280432662E+03  0.00000000000E+00 0.  1.
<mgrwt>
<rscale>  0 0.11894585E+04</rscale>
<asrwt>0</asrwt>
<pdfrwt beam="1">  1        2 0.12280861E+00 0.11894585E+04</pdfrwt>
<pdfrwt beam="2">  1       -2 0.68168400E-01 0.11894585E+04</pdfrwt>
<totfact> 0.67213947E+01</totfact>
</mgrwt>
</event>
<event>
 6    1  0.1719556E-004  0.1319737E+04  0.7818608E-02  0.9014058E-01
         -1   -1    0    0    0  501 -0.00000000000E+00  0.00000000000E+00  0.22564231798E+03  0.22564231798E+03  0.00000000000E+00 0. -1.
          1   -1    0    0  501    0  0.00000000000E+00 -0.00000000000E+00 -0.19297209509E+04  0.19297209509E+04  0.00000000000E+00 0.  1.
         23    2    1    2    0    0  0.43935314912E+03 -0.18786267125E+03 -0.15918875892E+04  0.16645370235E+04  0.90850608098E+02 0.  0.
         11    1    3    3    0    0  0.26333253597E+03 -0.70315787282E+02 -0.97310021474E+03  0.10105505244E+04  0.00000000000E+00 0.  1.
        -11    1    3    3    0    0  0.17602061314E+03 -0.11754688396E+03 -0.61878737445E+03  0.65398649906E+03  0.00000000000E+00 0. -1.
         22    1    1    2    0    0 -0.43935314912E+03  0.18786267125E+03 -0.11219104372E+03  0.49082624541E+03  0.00000000000E+00 0. -1.
<mgrwt>
<rscale>  0 0.13197374E+04</rscale>
<asrwt>0</asrwt>
<pdfrwt beam="1">  1        1 0.29688015E+00 0.13197374E+04</pdfrwt>
<pdfrwt beam="2">  1       -1 0.34714202E-01 0.13197374E+04</pdfrwt>
<totfact> 0.25718998E+01</totfact>
</mgrwt>
</event>
<event>
 6    1  0.1719556E-004  0.9547695E+03  0.7818608E-02  0.9359593E-01
          1   -1    0    0  501    0  0.00000000000E+00  0.00000000000E+00  0.13243392523E+04  0.13243392523E+04  0.00000000000E+00 0.  1.
         -1   -1    0    0    0  501 -0.00000000000E+00 -0.00000000000E+00 -0.17208295763E+03  0.17208295763E+03  0.00000000000E+00 0. -1.
         23    2    1    2    0    0  0.11050814627E+03 -0.29204408992E+03  0.11382967271E+04  0.11838575440E+04  0.91090310898E+02 0.  0.
         11    1    3    3    0    0  0.30159702540E+02 -0.30245547605E+02  0.27123076349E+03  0.27457335608E+03  0.00000000000E+00 0.  1.
        -11    1    3    3    0    0  0.80348443731E+02 -0.26179854231E+03  0.86706596360E+03  0.90928418792E+03  0.00000000000E+00 0. -1.
         22    1    1    2    0    0 -0.11050814627E+03  0.29204408992E+03  0.13959567550E+02  0.31256466591E+03  0.00000000000E+00 0. -1.
<mgrwt>
<rscale>  0 0.95476953E+03</rscale>
<asrwt>0</asrwt>
<pdfrwt beam="1">  1        1 0.20374449E+00 0.95476953E+03</pdfrwt>
<pdfrwt beam="2">  1       -1 0.26474302E-01 0.95476953E+03</pdfrwt>
<totfact> 0.11076326E+02</totfact>
</mgrwt>
</event>
<event>
 6    1  0.1719556E-004  0.2689057E+04  0.7818608E-02  0.8338564E-01
         -2   -1    0    0    0  501 -0.00000000000E+00  0.00000000000E+00  0.13194818494E+04  0.13194818494E+04  0.00000000000E+00 0. -1.
          2   -1    0    0  501    0  0.00000000000E+00 -0.00000000000E+00 -0.13700504309E+04  0.13700504309E+04  0.00000000000E+00 0.  1.
         23    2    1    2    0    0 -0.84701499481E+03  0.10218431841E+04  0.17953996251E+03  0.13424807458E+04  0.91771784535E+02 0.  0.
         11    1    3    3    0    0 -0.28904957502E+03  0.31315976321E+03  0.94396640312E+02  0.43649675808E+03  0.00000000000E+00 0. -1.
        -11    1    3    3    0    0 -0.55796541979E+03  0.70868342089E+03  0.85143322198E+02  0.90598398774E+03  0.00000000000E+00 0.  1.
         22    1    1    2    0    0  0.84701499481E+03 -0.10218431841E+04 -0.23010854403E+03  0.13470515344E+04  0.00000000000E+00 0.  1.
<mgrwt>
<rscale>  0 0.26890568E+04</rscale>
<asrwt>0</asrwt>
<pdfrwt beam="1">  1        2 0.21077699E+00 0.26890568E+04</pdfrwt>
<pdfrwt beam="2">  1       -2 0.20299721E+00 0.26890568E+04</pdfrwt>
<totfact> 0.16806547E+00</totfact>
</mgrwt>
</event>
<event>
 6    1  0.1719556E-004  0.5429895E+03  0.7818608E-02  0.1003130E+00
         -1   -1    0    0    0  501 -0.00000000000E+00  0.00000000000E+00  0.80902668029E+02  0.80902668029E+02  0.00000000000E+00 0.  1.
          1   -1    0    0  501    0  0.00000000000E+00 -0.00000000000E+00 -0.91108752988E+03  0.91108752988E+03  0.00000000000E+00 0. -1.
         23    2    1    2    0    0  0.13631748766E+03  0.23096929898E+02 -0.16285288424E+02  0.16643072625E+03  0.91203346489E+02 0.  0.
         13    1    3    3    0    0  0.10853567877E+03  0.40396529487E+02 -0.43657443911E+02  0.12376528418E+03  0.00000000000E+00 0.  1.
        -13    1    3    3    0    0  0.27781808888E+02 -0.17299599589E+02  0.27372155487E+02  0.42665442071E+02  0.00000000000E+00 0. -1.
         22    1    1    2    0    0 -0.13631748766E+03 -0.23096929898E+02 -0.81389957343E+03  0.82555947166E+03  0.00000000000E+00 0. -1.
<mgrwt>
<rscale>  0 0.54298955E+03</rscale>
<asrwt>0</asrwt>
<pdfrwt beam="1">  1        1 0.14016732E+00 0.54298955E+03</pdfrwt>
<pdfrwt beam="2">  1       -1 0.12446564E-01 0.54298955E+03</pdfrwt>
<totfact> 0.80302810E+02</totfact>
</mgrwt>
</event>
<event>
 6    1  0.1719556E-004  0.7549928E+03  0.7818608E-02  0.9627550E-01
         -1   -1    0    0    0  501 -0.00000000000E+00  0.00000000000E+00  0.70489481557E+03  0.70489481557E+03  0.00000000000E+00 0. -1.
          1   -1    0    0  501    0  0.00000000000E+00 -0.00000000000E+00 -0.20216282465E+03  0.20216282465E+03  0.00000000000E+00 0.  1.
         23    2    1    2    0    0  0.13951672399E+03  0.31086987371E+03  0.76177459091E+02  0.36111463654E+03  0.92172559876E+02 0.  0.
         13    1    3    3    0    0  0.12138205435E+03  0.26623972878E+03  0.97516635497E+02  0.30842615080E+03  0.00000000000E+00 0. -1.
        -13    1    3    3    0    0  0.18134669640E+02  0.44630144930E+02 -0.21339176407E+02  0.52688485736E+02  0.00000000000E+00 0.  1.
         22    1    1    2    0    0 -0.13951672399E+03 -0.31086987371E+03  0.42655453183E+03  0.54594300369E+03  0.00000000000E+00 0.  1.
<mgrwt>
<rscale>  0 0.75499279E+03</rscale>
<asrwt>0</asrwt>
<pdfrwt beam="1">  1        1 0.31101973E-01 0.75499279E+03</pdfrwt>
<pdfrwt beam="2">  1       -1 0.10844535E+00 0.75499279E+03</pdfrwt>
<totfact> 0.11746431E+02</totfact>
</mgrwt>
</event>
<event>
 6    1  0.1719556E-004  0.3488777E+04  0.7818608E-02  0.8116455E-01
          2   -1    0    0  501    0  0.00000000000E+00  0.00000000000E+00  0.25377611952E+04  0.25377611952E+04  0.00000000000E+00 0.  1.
         -2   -1    0    0    0  501 -0.00000000000E+00 -0.00000000000E+00 -0.11990456934E+04  0.11990456934E+04  0.00000000000E+00 0. -1.
         23    2    1    2    0    0  0.12860612189E+02 -0.11101776727E+04  0.21093087598E+04  0.23853359013E+04  0.89353554548E+02 0.  0.
         13    1    3    3    0    0  0.50072330907E+02 -0.63944825687E+03  0.11904536790E+04  0.13522504477E+04  0.00000000000E+00 0. -1.
        -13    1    3    3    0    0 -0.37211718718E+02 -0.47072941587E+03  0.91885508083E+03  0.10330854536E+04  0.00000000000E+00 0.  1.
         22    1    1    2    0    0 -0.12860612189E+02  0.11101776727E+04 -0.77059325798E+03  0.13514709873E+04  0.00000000000E+00 0. -1.
<mgrwt>
<rscale>  0 0.34887772E+04</rscale>
<asrwt>0</asrwt>
<pdfrwt beam="1">  1        2 0.39042480E+00 0.34887772E+04</pdfrwt>
<pdfrwt beam="2">  1       -2 0.18446857E+00 0.34887772E+04</pdfrwt>
<totfact> 0.45981725E-01</totfact>
</mgrwt>
</event>
<event>
 6    1  0.1719556E-004  0.2733066E+04  0.7818608E-02  0.8324355E-01
          2   -1    0    0  501    0  0.00000000000E+00  0.00000000000E+00  0.17404215705E+04  0.17404215705E+04  0.00000000000E+00 0.  1.
         -2   -1    0    0    0  501 -0.00000000000E+00 -0.00000000000E+00 -0.10729658310E+04  0.10729658310E+04  0.00000000000E+00 0. -1.
         23    2    1    2    0    0  0.76940715424E+03  0.48481239677E+03 -0.71378038084E+03  0.11596511320E+04  0.90982893415E+02 0.  0.
         13    1    3    3    0    0  0.35618838742E+03  0.26810515041E+03 -0.31513439337E+03  0.54594892151E+03  0.00000000000E+00 0.  1.
        -13    1    3    3    0    0  0.41321876682E+03  0.21670724635E+03 -0.39864598748E+03  0.61370221052E+03  0.00000000000E+00 0. -1.
         22    1    1    2    0    0 -0.76940715424E+03 -0.48481239677E+03  0.13812361203E+04  0.16537362695E+04  0.00000000000E+00 0.  1.
<mgrwt>
<rscale>  0 0.27330663E+04</rscale>
<asrwt>0</asrwt>
<pdfrwt beam="1">  1        2 0.26775716E+00 0.27330663E+04</pdfrwt>
<pdfrwt beam="2">  1       -2 0.16507167E+00 0.27330663E+04</pdfrwt>
<totfact> 0.18843110E+00</totfact>
</mgrwt>
</event>
<event>
 6    1  0.1719556E-004  0.1940845E+04  0.7818608E-02  0.8634788E-01
          1   -1    0    0  501    0  0.00000000000E+00  0.00000000000E+00  0.14444905210E+04  0.14444905210E+04  0.00000000000E+00 0. -1.
         -1   -1    0    0    0  501 -0.00000000000E+00 -0.00000000000E+00 -0.65193914976E+03  0.65193914976E+03  0.00000000000E+00 0.  1.
         23    2    1    2    0    0 -0.31533379457E+03  0.14866645676E+03 -0.57863290801E+03  0.68162104589E+03  0.90852025847E+02 0.  0.
         11    1    3    3    0    0 -0.11221288667E+03  0.71999410774E+01 -0.16819758750E+03  0.20232152512E+03  0.00000000000E+00 0. -1.
        -11    1    3    3    0    0 -0.20312090790E+03  0.14146651568E+03 -0.41043532051E+03  0.47929952077E+03  0.00000000000E+00 0.  1.
         22    1    1    2    0    0  0.31533379457E+03 -0.14866645676E+03  0.13711842792E+04  0.14148086248E+04  0.00000000000E+00 0. -1.
<mgrwt>
<rscale>  0 0.19408451E+04</rscale>
<asrwt>0</asrwt>
<pdfrwt beam="1">  1        1 0.22222931E+00 0.19408451E+04</pdfrwt>
<pdfrwt beam="2">  1       -1 0.10029833E+00 0.19408451E+04</pdfrwt>
<totfact> 0.63110115E+00</totfact>
</mgrwt>
</event>
<event>
 6    1  0.1719556E-004  0.4635126E+04  0.7818608E-02  0.7887398E-01
          2   -1    0    0  501    0  0.00000000000E+00  0.00000000000E+00  0.32766790185E+04  0.32766790185E+04  0.00000000000E+00 0.  1.
         -2   -1    0    0    0  501 -0.00000000000E+00 -0.00000000000E+00 -0.16391896668E+04  0.16391896668E+04  0.00000000000E+00 0. -1.
         23    2    1    2    0    0  0.13559773485E+04 -0.12304771434E+04 -0.68477232956E+03  0.19585645267E+04  0.11963817162E+03 0.  0.
         13    1    3    3    0    0  0.93502467351E+03 -0.89743410923E+03 -0.44052399156E+03  0.13688391095E+04  0.00000000000E+00 0.  1.
        -13    1    3    3    0    0  0.42095267495E+03 -0.33304303419E+03 -0.24424833800E+03  0.58972541728E+03  0.00000000000E+00 0. -1.
         22    1    1    2    0    0 -0.13559773485E+04  0.12304771434E+04  0.23222616812E+04  0.29573041585E+04  0.00000000000E+00 0.  1.
<mgrwt>
<rscale>  0 0.46351261E+04</rscale>
<asrwt>0</asrwt>
<pdfrwt beam="1">  1        2 0.50410446E+00 0.46351261E+04</pdfrwt>
<pdfrwt beam="2">  1       -2 0.25218303E+00 0.46351261E+04</pdfrwt>
<totfact> 0.53843324E-02</totfact>
</mgrwt>
</event>
<event>
 6    1  0.1719556E-004  0.3452442E+04  0.7818608E-02  0.8125154E-01
          2   -1    0    0  501    0  0.00000000000E+00  0.00000000000E+00  0.26774932124E+04  0.26774932124E+04  0.00000000000E+00 0.  1.
         -2   -1    0    0    0  501 -0.00000000000E+00 -0.00000000000E+00 -0.11129214398E+04  0.11129214398E+04  0.00000000000E+00 0. -1.
         23    2    1    2    0    0 -0.74748043954E+03  0.75055780502E+03 -0.71193470012E+03  0.12795292015E+04  0.90994143450E+02 0.  0.
         13    1    3    3    0    0 -0.61848831938E+03  0.57002283037E+03 -0.57311438973E+03  0.10177985715E+04  0.00000000000E+00 0. -1.
        -13    1    3    3    0    0 -0.12899212016E+03  0.18053497466E+03 -0.13882031039E+03  0.26173063007E+03  0.00000000000E+00 0.  1.
         22    1    1    2    0    0  0.74748043954E+03 -0.75055780502E+03  0.22765064727E+04  0.25108854507E+04  0.00000000000E+00 0. -1.
<mgrwt>
<rscale>  0 0.34524424E+04</rscale>
<asrwt>0</asrwt>
<pdfrwt beam="1">  1        2 0.41192203E+00 0.34524424E+04</pdfrwt>
<pdfrwt beam="2">  1       -2 0.17121868E+00 0.34524424E+04</pdfrwt>
<totfact> 0.47185854E-01</totfact>
</mgrwt>
</event>
<event>
 6    1  0.1719556E-004  0.2194619E+04  0.7818608E-02  0.8520671E-01
          2   -1    0    0  501    0  0.00000000000E+00  0.00000000000E+00  0.14589664536E+04  0.14589664536E+04  0.00000000000E+00 0. -1.
         -2   -1    0    0    0  501 -0.00000000000E+00 -0.00000000000E+00 -0.82530236412E+03  0.82530236412E+03  0.00000000000E+00 0.  1.
         23    2    1    2    0    0  0.16214543049E+03  0.84459703634E+03 -0.38780864055E+03  0.94896292295E+03  0.10246849774E+03 0.  0.
         13    1    3    3    0    0  0.73625506121E+02  0.24736152750E+03 -0.73811598999E+02  0.26843359065E+03  0.00000000000E+00 0. -1.
        -13    1    3    3    0    0  0.88519924365E+02  0.59723550883E+03 -0.31399704155E+03  0.68052933230E+03  0.00000000000E+00 0.  1.
         22    1    1    2    0    0 -0.16214543049E+03 -0.84459703634E+03  0.10214727300E+04  0.13353058948E+04  0.00000000000E+00 0. -1.
<mgrwt>
<rscale>  0 0.21946193E+04</rscale>
<asrwt>0</asrwt>
<pdfrwt beam="1">  1        2 0.22445638E+00 0.21946193E+04</pdfrwt>
<pdfrwt beam="2">  1       -2 0.12696959E+00 0.21946193E+04</pdfrwt>
<totfact> 0.56463217E+00</totfact>
</mgrwt>
</event>
<event>
 6    1  0.1719556E-004  0.1582347E+04  0.7818608E-02  0.8831467E-01
         -2   -1    0    0    0  501 -0.00000000000E+00  0.00000000000E+00  0.53124012783E+03  0.53124012783E+03  0.00000000000E+00 0. -1.
          2   -1    0    0  501    0  0.00000000000E+00 -0.00000000000E+00 -0.11782910085E+04  0.11782910085E+04  0.00000000000E+00 0.  1.
         23    2    1    2    0    0  0.43602260327E+03 -0.60914265762E+03 -0.58794804039E+02  0.75705242289E+03  0.92201161177E+02 0.  0.
         11    1    3    3    0    0  0.28807172862E+03 -0.33110129000E+03 -0.52785729124E+02  0.44204040343E+03  0.00000000000E+00 0. -1.
        -11    1    3    3    0    0  0.14795087465E+03 -0.27804136762E+03 -0.60090749149E+01  0.31501201945E+03  0.00000000000E+00 0.  1.
         22    1    1    2    0    0 -0.43602260327E+03  0.60914265762E+03 -0.58825607666E+03  0.95247871347E+03  0.00000000000E+00 0.  1.
<mgrwt>
<rscale>  0 0.15823469E+04</rscale>
<asrwt>0</asrwt>
<pdfrwt beam="1">  1        2 0.18127554E+00 0.15823469E+04</pdfrwt>
<pdfrwt beam="2">  1       -2 0.81729251E-01 0.15823469E+04</pdfrwt>
<totfact> 0.24689648E+01</totfact>
</mgrwt>
</event>
<event>
 6    1  0.1719556E-004  0.3525089E+04  0.7818608E-02  0.8107870E-01
          1   -1    0    0  501    0  0.00000000000E+00  0.00000000000E+00  0.20399219554E+04  0.20399219554E+04  0.00000000000E+00 0.  1.
         -1   -1    0    0    0  501 -0.00000000000E+00 -0.00000000000E+00 -0.15228830861E+04  0.15228830861E+04  0.00000000000E+00 0. -1.
         23    2    1    2    0    0 -0.12281419475E+04 -0.12016705967E+04 -0.13229314200E+03  0.17259662006E+04  0.95461950991E+02 0.  0.
         11    1    3    3    0    0 -0.36080637253E+03 -0.38059701377E+03 -0.79845772373E+02  0.53048154795E+03  0.00000000000E+00 0.  1.
        -11    1    3    3    0    0 -0.86733557501E+03 -0.82107358292E+03 -0.52447369628E+02  0.11954846527E+04  0.00000000000E+00 0. -1.
         22    1    1    2    0    0  0.12281419475E+04  0.12016705967E+04  0.64933201127E+03  0.18368388408E+04  0.00000000000E+00 0.  1.
<mgrwt>
<rscale>  0 0.35250887E+04</rscale>
<asrwt>0</asrwt>
<pdfrwt beam="1">  1        1 0.31383415E+00 0.35250887E+04</pdfrwt>
<pdfrwt beam="2">  1       -1 0.23428971E+00 0.35250887E+04</pdfrwt>
<totfact> 0.20153958E-01</totfact>
</mgrwt>
</event>
<event>
 6    1  0.1719556E-004  0.3365573E+04  0.7818608E-02  0.8146408E-01
         -2   -1    0    0    0  501 -0.00000000000E+00  0.00000000000E+00  0.10025984464E+04  0.10025984464E+04  0.00000000000E+00 0. -1.
          2   -1    0    0  501    0  0.00000000000E+00 -0.00000000000E+00 -0.28244305460E+04  0.28244305460E+04  0.00000000000E+00 0.  1.
         23    2    1    2    0    0 -0.54687624210E+03  0.13172954699E+04 -0.19247310691E+04  0.23970187907E+04  0.82270378853E+02 0.  0.
         13    1    3    3    0    0 -0.46075561114E+03  0.10902952705E+04 -0.15447651181E+04  0.19461086250E+04  0.00000000000E+00 0. -1.
        -13    1    3    3    0    0 -0.86120630959E+02  0.22700019932E+03 -0.37996595100E+03  0.45091016565E+03  0.00000000000E+00 0.  1.
         22    1    1    2    0    0  0.54687624210E+03 -0.13172954699E+04  0.10289896952E+03  0.14300102017E+04  0.00000000000E+00 0. -1.
<mgrwt>
<rscale>  0 0.33655726E+04</rscale>
<asrwt>0</asrwt>
<pdfrwt beam="1">  1        2 0.43452777E+00 0.33655726E+04</pdfrwt>
<pdfrwt beam="2">  1       -2 0.15424592E+00 0.33655726E+04</pdfrwt>
<totfact> 0.51613240E-01</totfact>
</mgrwt>
</event>
<event>
 6    1  0.1719556E-004  0.2200237E+04  0.7818608E-02  0.8518329E-01
         -1   -1    0    0    0  501 -0.00000000000E+00  0.00000000000E+00  0.45391723185E+03  0.45391723185E+03  0.00000000000E+00 0. -1.
          1   -1    0    0  501    0  0.00000000000E+00 -0.00000000000E+00 -0.26662591820E+04  0.26662591820E+04  0.00000000000E+00 0.  1.
         23    2    1    2    0    0 -0.49282645841E+03 -0.61953105283E+03 -0.21878185569E+04  0.23281549240E+04  0.84015883267E+02 0.  0.
         13    1    3    3    0    0 -0.38712888657E+03 -0.44730332001E+03 -0.17070117019E+04  0.18066095276E+04  0.00000000000E+00 0.  1.
        -13    1    3    3    0    0 -0.10569757184E+03 -0.17222773283E+03 -0.48080685507E+03  0.52154539642E+03  0.00000000000E+00 0. -1.
         22    1    1    2    0    0  0.49282645841E+03  0.61953105283E+03 -0.24523393215E+02  0.79202148982E+03  0.00000000000E+00 0. -1.
<mgrwt>
<rscale>  0 0.22002372E+04</rscale>
<asrwt>0</asrwt>
<pdfrwt beam="1">  1        1 0.41019373E+00 0.22002372E+04</pdfrwt>
<pdfrwt beam="2">  1       -1 0.69833419E-01 0.22002372E+04</pdfrwt>
<totfact> 0.19600474E+00</totfact>
</mgrwt>
</event>
<event>
 6    1  0.1719556E-004  0.1417960E+04  0.7818608E-02  0.8940920E-01
         -2   -1    0    0    0  501 -0.00000000000E+00  0.00000000000E+00  0.20997997301E+03  0.20997997301E+03  0.00000000000E+00 0. -1.
          2   -1    0    0  501    0  0.00000000000E+00 -0.00000000000E+00 -0.23938111630E+04  0.23938111630E+04  0.00000000000E+00 0.  1.
         23    2    1    2    0    0  0.46321727976E+03  0.41644295852E+03 -0.17069742973E+04  0.18193247683E+04  0.90478587918E+02 0.  0.
         13    1    3    3    0    0  0.17705073882E+03  0.12695456933E+03 -0.70245656586E+03  0.73546560335E+03  0.00000000000E+00 0.  1.
        -13    1    3    3    0    0  0.28616654095E+03  0.28948838919E+03 -0.10045177314E+04  0.10838591649E+04  0.00000000000E+00 0. -1.
         22    1    1    2    0    0 -0.46321727976E+03 -0.41644295852E+03 -0.47685689267E+03  0.78446636770E+03  0.00000000000E+00 0. -1.
<mgrwt>
<rscale>  0 0.14179597E+04</rscale>
<asrwt>0</asrwt>
<pdfrwt beam="1">  1        2 0.36827860E+00 0.14179597E+04</pdfrwt>
<pdfrwt beam="2">  1       -2 0.32304615E-01 0.14179597E+04</pdfrwt>
<totfact> 0.34857584E+01</totfact>
</mgrwt>
</event>
<event>
 6    1  0.1719556E-004  0.1305639E+04  0.7818608E-02  0.9025105E-01
         -2   -1    0    0    0  501 -0.00000000000E+00  0.00000000000E+00  0.43383688539E+03  0.43383688539E+03  0.00000000000E+00 0. -1.
          2   -1    0    0  501    0  0.00000000000E+00 -0.00000000000E+00 -0.98233607581E+03  0.98233607581E+03  0.00000000000E+00 0.  1.
         23    2    1    2    0    0  0.16621740085E+03 -0.23812192125E+03  0.35489511351E+03  0.46725170941E+03  0.89684695628E+02 0.  0.
         11    1    3    3    0    0  0.83761741227E+02 -0.14024928633E+03  0.26335597075E+03  0.30990685526E+03  0.00000000000E+00 0. -1.
        -11    1    3    3    0    0  0.82455659623E+02 -0.97872634919E+02  0.91539142761E+02  0.15734485415E+03  0.00000000000E+00 0.  1.
         22    1    1    2    0    0 -0.16621740085E+03  0.23812192125E+03 -0.90339430393E+03  0.94892125179E+03  0.00000000000E+00 0.  1.
<mgrwt>
<rscale>  0 0.13056395E+04</rscale>
<asrwt>0</asrwt>
<pdfrwt beam="1">  1        2 0.15112863E+00 0.13056395E+04</pdfrwt>
<pdfrwt beam="2">  1       -2 0.66744136E-01 0.13056395E+04</pdfrwt>
<totfact> 0.52253314E+01</totfact>
</mgrwt>
</event>
<event>
 6    1  0.1719556E-004  0.1934137E+04  0.7818608E-02  0.8638048E-01
         -1   -1    0    0    0  501 -0.00000000000E+00  0.00000000000E+00  0.25027337606E+03  0.25027337606E+03  0.00000000000E+00 0.  1.
          1   -1    0    0  501    0  0.00000000000E+00 -0.00000000000E+00 -0.37368014998E+04  0.37368014998E+04  0.00000000000E+00 0. -1.
         23    2    1    2    0    0  0.74310491132E+03 -0.11700139548E+03 -0.50144840984E+03  0.90866698637E+03  0.91274030414E+02 0.  0.
         11    1    3    3    0    0  0.13670341441E+03 -0.30496617770E+02 -0.54033099901E+02  0.15012475842E+03  0.00000000000E+00 0.  1.
        -11    1    3    3    0    0  0.60640149691E+03 -0.86504777711E+02 -0.44741530994E+03  0.75854222796E+03  0.00000000000E+00 0. -1.
         22    1    1    2    0    0 -0.74310491132E+03  0.11700139548E+03 -0.29850797139E+04  0.30784078895E+04  0.00000000000E+00 0. -1.
<mgrwt>
<rscale>  0 0.19341375E+04</rscale>
<asrwt>0</asrwt>
<pdfrwt beam="1">  1        1 0.57489250E+00 0.19341375E+04</pdfrwt>
<pdfrwt beam="2">  1       -1 0.38503599E-01 0.19341375E+04</pdfrwt>
<totfact> 0.98694779E-01</totfact>
</mgrwt>
</event>
<event>
 6    1  0.1719556E-004  0.4240885E+04  0.7818608E-02  0.7957640E-01
         -2   -1    0    0    0  501 -0.00000000000E+00  0.00000000000E+00  0.16983662364E+04  0.16983662364E+04  0.00000000000E+00 0. -1.
          2   -1    0    0  501    0  0.00000000000E+00 -0.00000000000E+00 -0.26474127103E+04  0.26474127103E+04  0.00000000000E+00 0.  1.
         23    2    1    2    0    0 -0.66544955982E+03  0.10184947251E+04 -0.22532495155E+04  0.25622150439E+04  0.87509600223E+02 0.  0.
         11    1    3    3    0    0 -0.64945915311E+03  0.95978093971E+03 -0.21363531764E+04  0.24304282623E+04  0.00000000000E+00 0.  1.
        -11    1    3    3    0    0 -0.15990406709E+02  0.58713785411E+02 -0.11689633915E+03  0.13178678162E+03  0.00000000000E+00 0. -1.
         22    1    1    2    0    0  0.66544955982E+03 -0.10184947251E+04  0.13042030416E+04  0.17835639028E+04  0.00000000000E+00 0. -1.
<mgrwt>
<rscale>  0 0.42408850E+04</rscale>
<asrwt>0</asrwt>
<pdfrwt beam="1">  1        2 0.40729426E+00 0.42408850E+04</pdfrwt>
<pdfrwt beam="2">  1       -2 0.26128711E+00 0.42408850E+04</pdfrwt>
<totfact> 0.12095515E-01</totfact>
</mgrwt>
</event>
<event>
 6    1  0.1719556E-004  0.3050476E+04  0.7818608E-02  0.8229462E-01
          2   -1    0    0  501    0  0.00000000000E+00  0.00000000000E+00  0.32114810921E+04  0.32114810921E+04  0.00000000000E+00 0.  1.
         -2   -1    0    0    0  501 -0.00000000000E+00 -0.00000000000E+00 -0.72438584747E+03  0.72438584747E+03  0.00000000000E+00 0. -1.
         23    2    1    2    0    0  0.10145455075E+04  0.61098053110E+02 -0.22048549434E+03  0.10438038322E+04  0.88752622866E+02 0.  0.
         11    1    3    3    0    0  0.89885914956E+03  0.25803688621E+02 -0.19832239018E+03  0.92083949282E+03  0.00000000000E+00 0.  1.
        -11    1    3    3    0    0  0.11568635794E+03  0.35294364489E+02 -0.22163104153E+02  0.12296433940E+03  0.00000000000E+00 0. -1.
         22    1    1    2    0    0 -0.10145455075E+04 -0.61098053110E+02  0.27075807390E+04  0.28920631073E+04  0.00000000000E+00 0.  1.
<mgrwt>
<rscale>  0 0.30504763E+04</rscale>
<asrwt>0</asrwt>
<pdfrwt beam="1">  1        2 0.49407401E+00 0.30504763E+04</pdfrwt>
<pdfrwt beam="2">  1       -2 0.11144398E+00 0.30504763E+04</pdfrwt>
<totfact> 0.69107141E-01</totfact>
</mgrwt>
</event>
<event>
 6    1  0.1719556E-004  0.1432927E+04  0.7818608E-02  0.8930323E-01
         -3   -1    0    0    0  501 -0.00000000000E+00  0.00000000000E+00  0.10954837812E+04  0.10954837812E+04  0.00000000000E+00 0. -1.
          3   -1    0    0  501    0  0.00000000000E+00 -0.00000000000E+00 -0.46857849115E+03  0.46857849115E+03  0.00000000000E+00 0.  1.
         23    2    1    2    0    0  0.35311191632E+03 -0.25210127822E+03 -0.30402630932E+03  0.53699035538E+03  0.87655947247E+02 0.  0.
         13    1    3    3    0    0  0.20264534659E+03 -0.10784877753E+03 -0.12047977643E+03  0.25925252523E+03  0.00000000000E+00 0.  1.
        -13    1    3    3    0    0  0.15046656973E+03 -0.14425250069E+03 -0.18354653289E+03  0.27773783015E+03  0.00000000000E+00 0. -1.
         22    1    1    2    0    0 -0.35311191632E+03  0.25210127822E+03  0.93093159934E+03  0.10270719169E+04  0.00000000000E+00 0. -1.
<mgrwt>
<rscale>  0 0.14329273E+04</rscale>
<asrwt>0</asrwt>
<pdfrwt beam="1">  1        3 0.72088999E-01 0.14329273E+04</pdfrwt>
<pdfrwt beam="2">  1       -3 0.16853597E+00 0.14329273E+04</pdfrwt>
<totfact> 0.11026909E+00</totfact>
</mgrwt>
</event>
<event>
 6    1  0.1719556E-004  0.9939474E+03  0.7818608E-02  0.9315208E-01
         -2   -1    0    0    0  501 -0.00000000000E+00  0.00000000000E+00  0.33435447336E+03  0.33435447336E+03  0.00000000000E+00 0. -1.
          2   -1    0    0  501    0  0.00000000000E+00 -0.00000000000E+00 -0.73868567853E+03  0.73868567853E+03  0.00000000000E+00 0.  1.
         23    2    1    2    0    0 -0.32555799016E+03  0.36632158901E+03 -0.14718705997E+03  0.51959401815E+03  0.90190917198E+02 0.  0.
         11    1    3    3    0    0 -0.27338586763E+03  0.27295750922E+03 -0.83929601722E+02  0.39533506359E+03  0.00000000000E+00 0. -1.
        -11    1    3    3    0    0 -0.52172122526E+02  0.93364079792E+02 -0.63257458248E+02  0.12425895456E+03  0.00000000000E+00 0.  1.
         22    1    1    2    0    0  0.32555799016E+03 -0.36632158901E+03 -0.25714414520E+03  0.55344613373E+03  0.00000000000E+00 0.  1.
<mgrwt>
<rscale>  0 0.99394741E+03</rscale>
<asrwt>0</asrwt>
<pdfrwt beam="1">  1        2 0.11364395E+00 0.99394741E+03</pdfrwt>
<pdfrwt beam="2">  1       -2 0.51439150E-01 0.99394741E+03</pdfrwt>
<totfact> 0.13639961E+02</totfact>
</mgrwt>
</event>
<event>
 6    1  0.1719556E-004  0.2007943E+04  0.7818608E-02  0.8602916E-01
         -2   -1    0    0    0  501 -0.00000000000E+00  0.00000000000E+00  0.84648539292E+03  0.84648539292E+03  0.00000000000E+00 0. -1.
          2   -1    0    0  501    0  0.00000000000E+00 -0.00000000000E+00 -0.11907579939E+04  0.11907579939E+04  0.00000000000E+00 0.  1.
         23    2    1    2    0    0  0.85282881842E+03 -0.41013994248E+03 -0.50644616692E+03  0.10771225447E+04  0.90407358440E+02 0.  0.
         11    1    3    3    0    0  0.37254876118E+03 -0.13392923886E+03 -0.19071734567E+03  0.43943455306E+03  0.00000000000E+00 0. -1.
        -11    1    3    3    0    0  0.48028005724E+03 -0.27621070362E+03 -0.31572882125E+03  0.63768799169E+03  0.00000000000E+00 0.  1.
         22    1    1    2    0    0 -0.85282881842E+03  0.41013994248E+03  0.16217356593E+03  0.96012084210E+03  0.00000000000E+00 0.  1.
<mgrwt>
<rscale>  0 0.20079435E+04</rscale>
<asrwt>0</asrwt>
<pdfrwt beam="1">  1        2 0.18319354E+00 0.20079435E+04</pdfrwt>
<pdfrwt beam="2">  1       -2 0.13022852E+00 0.20079435E+04</pdfrwt>
<totfact> 0.77022769E+00</totfact>
</mgrwt>
</event>
<event>
 6    1  0.1719556E-004  0.4607382E+04  0.7818608E-02  0.7892102E-01
          2   -1    0    0  501    0  0.00000000000E+00  0.00000000000E+00  0.39105815567E+04  0.39105815567E+04  0.00000000000E+00 0.  1.
         -2   -1    0    0    0  501 -0.00000000000E+00 -0.00000000000E+00 -0.13570850419E+04  0.13570850419E+04  0.00000000000E+00 0. -1.
         23    2    1    2    0    0 -0.16334191989E+03 -0.18467175571E+04 -0.28436527853E+03  0.18779017282E+04  0.92762980815E+02 0.  0.
         11    1    3    3    0    0  0.10144134680E+02 -0.42329423143E+02 -0.57562089444E+01  0.43906918287E+02  0.00000000000E+00 0. -1.
        -11    1    3    3    0    0 -0.17348605458E+03 -0.18043881339E+04 -0.27860906959E+03  0.18339948099E+04  0.00000000000E+00 0.  1.
         22    1    1    2    0    0  0.16334191989E+03  0.18467175571E+04  0.28378617933E+04  0.33897648704E+04  0.00000000000E+00 0.  1.
<mgrwt>
<rscale>  0 0.46073818E+04</rscale>
<asrwt>0</asrwt>
<pdfrwt beam="1">  1        2 0.60162793E+00 0.46073818E+04</pdfrwt>
<pdfrwt beam="2">  1       -2 0.20878232E+00 0.46073818E+04</pdfrwt>
<totfact> 0.35186221E-02</totfact>
</mgrwt>
</event>
<event>
 6    1  0.1719556E-004  0.3930275E+04  0.7818608E-02  0.8018762E-01
          1   -1    0    0  501    0  0.00000000000E+00  0.00000000000E+00  0.48226672009E+04  0.48226672009E+04  0.00000000000E+00 0.  1.
         -1   -1    0    0    0  501 -0.00000000000E+00 -0.00000000000E+00 -0.80075294400E+03  0.80075294400E+03  0.00000000000E+00 0. -1.
         23    2    1    2    0    0 -0.11915072802E+04 -0.94781953377E+03  0.37873122514E+04  0.40829365947E+04  0.92658939063E+02 0.  0.
         11    1    3    3    0    0 -0.64353774550E+02 -0.80774607204E+02  0.25587696181E+03  0.27593289954E+03  0.00000000000E+00 0. -1.
        -11    1    3    3    0    0 -0.11271535057E+04 -0.86704492657E+03  0.35314352896E+04  0.38070036951E+04  0.00000000000E+00 0.  1.
         22    1    1    2    0    0  0.11915072802E+04  0.94781953377E+03  0.23460200547E+03  0.15404835502E+04  0.00000000000E+00 0. -1.
<mgrwt>
<rscale>  0 0.39302748E+04</rscale>
<asrwt>0</asrwt>
<pdfrwt beam="1">  1        1 0.74194879E+00 0.39302748E+04</pdfrwt>
<pdfrwt beam="2">  1       -1 0.12319276E+00 0.39302748E+04</pdfrwt>
<totfact> 0.64616926E-03</totfact>
</mgrwt>
</event>
<event>
 6    1  0.1719556E-004  0.2075390E+04  0.7818608E-02  0.8572162E-01
          2   -1    0    0  501    0  0.00000000000E+00  0.00000000000E+00  0.54951671673E+03  0.54951671673E+03  0.00000000000E+00 0.  1.
         -2   -1    0    0    0  501 -0.00000000000E+00 -0.00000000000E+00 -0.19595601990E+04  0.19595601990E+04  0.00000000000E+00 0. -1.
         23    2    1    2    0    0 -0.69685239037E+03  0.75133155675E+03 -0.52238944561E+03  0.11533365088E+04  0.84805704849E+02 0.  0.
         13    1    3    3    0    0 -0.13002591531E+03  0.10042723944E+03 -0.66740398946E+02  0.17733203299E+03  0.00000000000E+00 0.  1.
        -13    1    3    3    0    0 -0.56682647506E+03  0.65090431732E+03 -0.45564904666E+03  0.97600447584E+03  0.00000000000E+00 0. -1.
         22    1    1    2    0    0  0.69685239037E+03 -0.75133155675E+03 -0.88765403671E+03  0.13557404069E+04  0.00000000000E+00 0. -1.
<mgrwt>
<rscale>  0 0.20753902E+04</rscale>
<asrwt>0</asrwt>
<pdfrwt beam="1">  1        2 0.84541033E-01 0.20753902E+04</pdfrwt>
<pdfrwt beam="2">  1       -2 0.30147080E+00 0.20753902E+04</pdfrwt>
<totfact> 0.15855841E+00</totfact>
</mgrwt>
</event>
<event>
 6    1  0.1719556E-004  0.1670726E+04  0.7818608E-02  0.8778239E-01
          2   -1    0    0  501    0  0.00000000000E+00  0.00000000000E+00  0.63849228595E+03  0.63849228595E+03  0.00000000000E+00 0.  1.
         -2   -1    0    0    0  501 -0.00000000000E+00 -0.00000000000E+00 -0.10929355748E+04  0.10929355748E+04  0.00000000000E+00 0. -1.
         23    2    1    2    0    0 -0.37719267150E+03 -0.38204743477E+03 -0.88772461154E+03  0.10415240570E+04  0.92102233764E+02 0.  0.
         13    1    3    3    0    0 -0.12050204911E+03 -0.65717779141E+02 -0.23179072032E+03  0.26938171497E+03  0.00000000000E+00 0. -1.
        -13    1    3    3    0    0 -0.25669062239E+03 -0.31632965563E+03 -0.65593389122E+03  0.77214234199E+03  0.00000000000E+00 0.  1.
         22    1    1    2    0    0  0.37719267150E+03  0.38204743477E+03  0.43328132271E+03  0.68990380377E+03  0.00000000000E+00 0.  1.
<mgrwt>
<rscale>  0 0.16707255E+04</rscale>
<asrwt>0</asrwt>
<pdfrwt beam="1">  1        2 0.98229582E-01 0.16707255E+04</pdfrwt>
<pdfrwt beam="2">  1       -2 0.16814394E+00 0.16707255E+04</pdfrwt>
<totfact> 0.96254877E+00</totfact>
</mgrwt>
</event>
<event>
 6    1  0.1719556E-004  0.2881400E+04  0.7818608E-02  0.8278433E-01
         -2   -1    0    0    0  501 -0.00000000000E+00  0.00000000000E+00  0.12431347875E+04  0.12431347875E+04  0.00000000000E+00 0. -1.
          2   -1    0    0  501    0  0.00000000000E+00 -0.00000000000E+00 -0.16696629531E+04  0.16696629531E+04  0.00000000000E+00 0.  1.
         23    2    1    2    0    0 -0.57697860516E+03  0.77919368559E+03  0.86183904720E+03  0.13003656690E+04  0.90206536624E+02 0.  0.
         13    1    3    3    0    0 -0.30466107510E+03  0.34151175817E+03  0.38238701215E+03  0.59637947543E+03  0.00000000000E+00 0. -1.
        -13    1    3    3    0    0 -0.27231753006E+03  0.43768192742E+03  0.47945203505E+03  0.70398619353E+03  0.00000000000E+00 0.  1.
         22    1    1    2    0    0  0.57697860516E+03 -0.77919368559E+03 -0.12883672128E+04  0.16124320716E+04  0.00000000000E+00 0.  1.
<mgrwt>
<rscale>  0 0.28813997E+04</rscale>
<asrwt>0</asrwt>
<pdfrwt beam="1">  1        2 0.25687122E+00 0.28813997E+04</pdfrwt>
<pdfrwt beam="2">  1       -2 0.19125151E+00 0.28813997E+04</pdfrwt>
<totfact> 0.13400977E+00</totfact>
</mgrwt>
</event>
<event>
 6    1  0.1719556E-004  0.2189517E+04  0.7818608E-02  0.8522804E-01
          2   -1    0    0  501    0  0.00000000000E+00  0.00000000000E+00  0.77958245504E+03  0.77958245504E+03  0.00000000000E+00 0.  1.
         -2   -1    0    0    0  501 -0.00000000000E+00 -0.00000000000E+00 -0.15373560354E+04  0.15373560354E+04  0.00000000000E+00 0. -1.
         23    2    1    2    0    0 -0.75740768721E+03 -0.78604361857E+03 -0.32001057542E+03  0.11408571058E+04  0.87276528677E+02 0.  0.
         13    1    3    3    0    0 -0.52119512874E+03 -0.56206065472E+03 -0.18556861232E+03  0.78866485384E+03  0.00000000000E+00 0.  1.
        -13    1    3    3    0    0 -0.23621255847E+03 -0.22398296385E+03 -0.13444196310E+03  0.35219225193E+03  0.00000000000E+00 0. -1.
         22    1    1    2    0    0  0.75740768721E+03  0.78604361857E+03 -0.43776300499E+03  0.11760813847E+04  0.00000000000E+00 0.  1.
<mgrwt>
<rscale>  0 0.21895167E+04</rscale>
<asrwt>0</asrwt>
<pdfrwt beam="1">  1        2 0.11993576E+00 0.21895167E+04</pdfrwt>
<pdfrwt beam="2">  1       -2 0.23651631E+00 0.21895167E+04</pdfrwt>
<totfact> 0.25382441E+00</totfact>
</mgrwt>
</event>
<event>
 6    1  0.1719556E-004  0.1284354E+04  0.7818608E-02  0.9042066E-01
         -2   -1    0    0    0  501 -0.00000000000E+00  0.00000000000E+00  0.24614420012E+03  0.24614420012E+03  0.00000000000E+00 0. -1.
          2   -1    0    0  501    0  0.00000000000E+00 -0.00000000000E+00 -0.16754042514E+04  0.16754042514E+04  0.00000000000E+00 0.  1.
         23    2    1    2    0    0  0.35921062452E+03 -0.17464194542E+03  0.27868564721E+02  0.41066927521E+03  0.91326419127E+02 0.  0.
         13    1    3    3    0    0  0.28784926651E+03 -0.96431118960E+02  0.14054104842E+02  0.30389748074E+03  0.00000000000E+00 0. -1.
        -13    1    3    3    0    0  0.71361358007E+02 -0.78210826461E+02  0.13814459879E+02  0.10677179447E+03  0.00000000000E+00 0.  1.
         22    1    1    2    0    0 -0.35921062452E+03  0.17464194542E+03 -0.14571286160E+04  0.15108791763E+04  0.00000000000E+00 0.  1.
<mgrwt>
<rscale>  0 0.12843536E+04</rscale>
<asrwt>0</asrwt>
<pdfrwt beam="1">  1        2 0.25775449E+00 0.12843536E+04</pdfrwt>
<pdfrwt beam="2">  1       -2 0.37868339E-01 0.12843536E+04</pdfrwt>
<totfact> 0.65344539E+01</totfact>
</mgrwt>
</event>
<event>
 6    1  0.1719556E-004  0.2123965E+04  0.7818608E-02  0.8550760E-01
          1   -1    0    0  501    0  0.00000000000E+00  0.00000000000E+00  0.17274971094E+04  0.17274971094E+04  0.00000000000E+00 0.  1.
         -1   -1    0    0    0  501 -0.00000000000E+00 -0.00000000000E+00 -0.65285577338E+03  0.65285577338E+03  0.00000000000E+00 0. -1.
         23    2    1    2    0    0  0.67354096378E+03  0.55125989382E+03 -0.13966103650E+03  0.88633977964E+03  0.92455932369E+02 0.  0.
         13    1    3    3    0    0  0.19210674593E+03  0.20013127255E+03 -0.72212780351E+02  0.28665696177E+03  0.00000000000E+00 0. -1.
        -13    1    3    3    0    0  0.48143421785E+03  0.35112862127E+03 -0.67448256147E+02  0.59968281787E+03  0.00000000000E+00 0.  1.
         22    1    1    2    0    0 -0.67354096378E+03 -0.55125989382E+03  0.12143023725E+04  0.14940131031E+04  0.00000000000E+00 0.  1.
<mgrwt>
<rscale>  0 0.21239647E+04</rscale>
<asrwt>0</asrwt>
<pdfrwt beam="1">  1        1 0.26576878E+00 0.21239647E+04</pdfrwt>
<pdfrwt beam="2">  1       -1 0.10043935E+00 0.21239647E+04</pdfrwt>
<totfact> 0.39523565E+00</totfact>
</mgrwt>
</event>
<event>
 6    1  0.1719556E-004  0.3972751E+04  0.7818608E-02  0.8010066E-01
          1   -1    0    0  501    0  0.00000000000E+00  0.00000000000E+00  0.31950927163E+04  0.31950927163E+04  0.00000000000E+00 0.  1.
         -1   -1    0    0    0  501 -0.00000000000E+00 -0.00000000000E+00 -0.12349210330E+04  0.12349210330E+04  0.00000000000E+00 0. -1.
         23    2    1    2    0    0 -0.25541657056E+03  0.13288109619E+04  0.26005330708E+04  0.29330037615E+04  0.93608843510E+02 0.  0.
         11    1    3    3    0    0 -0.85612388715E+02  0.58938428383E+03  0.12256473820E+04  0.13626866185E+04  0.00000000000E+00 0.  1.
        -11    1    3    3    0    0 -0.16980418184E+03  0.73942667807E+03  0.13748856888E+04  0.15703171430E+04  0.00000000000E+00 0. -1.
         22    1    1    2    0    0  0.25541657056E+03 -0.13288109619E+04 -0.64036138757E+03  0.14970099878E+04  0.00000000000E+00 0. -1.
<mgrwt>
<rscale>  0 0.39727508E+04</rscale>
<asrwt>0</asrwt>
<pdfrwt beam="1">  1        1 0.49155272E+00 0.39727508E+04</pdfrwt>
<pdfrwt beam="2">  1       -1 0.18998785E+00 0.39727508E+04</pdfrwt>
<totfact> 0.59376976E-02</totfact>
</mgrwt>
</event>
<event>
 6    1  0.1719556E-004  0.2098928E+04  0.7818608E-02  0.8561716E-01
          2   -1    0    0  501    0  0.00000000000E+00  0.00000000000E+00  0.23074263151E+04  0.23074263151E+04  0.00000000000E+00 0.  1.
         -2   -1    0    0    0  501 -0.00000000000E+00 -0.00000000000E+00 -0.47731747549E+03  0.47731747549E+03  0.00000000000E+00 0. -1.
         23    2    1    2    0    0  0.47713854440E+03 -0.56705667304E+03 -0.65307334257E+02  0.74959835767E+03  0.91750688985E+02 0.  0.
         13    1    3    3    0    0  0.27242265395E+03 -0.38964309043E+03 -0.53689917749E+02  0.47845422725E+03  0.00000000000E+00 0. -1.
        -13    1    3    3    0    0  0.20471589045E+03 -0.17741358260E+03 -0.11617416508E+02  0.27114413042E+03  0.00000000000E+00 0.  1.
         22    1    1    2    0    0 -0.47713854440E+03  0.56705667304E+03  0.18954161738E+04  0.20351454329E+04  0.00000000000E+00 0.  1.
<mgrwt>
<rscale>  0 0.20989282E+04</rscale>
<asrwt>0</asrwt>
<pdfrwt beam="1">  1        2 0.35498866E+00 0.20989282E+04</pdfrwt>
<pdfrwt beam="2">  1       -2 0.73433459E-01 0.20989282E+04</pdfrwt>
<totfact> 0.69238552E+00</totfact>
</mgrwt>
</event>
<event>
 6    1  0.1719556E-004  0.2748117E+04  0.7818608E-02  0.8319559E-01
         -2   -1    0    0    0  501 -0.00000000000E+00  0.00000000000E+00  0.63554306834E+03  0.63554306834E+03  0.00000000000E+00 0. -1.
          2   -1    0    0  501    0  0.00000000000E+00 -0.00000000000E+00 -0.29707460197E+04  0.29707460197E+04  0.00000000000E+00 0.  1.
         23    2    1    2    0    0  0.44081824323E+03 -0.69272131596E+03  0.27440655840E+03  0.87055420714E+03  0.91553935619E+02 0.  0.
         13    1    3    3    0    0  0.39234500050E+03 -0.56667303082E+03  0.25083428900E+03  0.73346490292E+03  0.00000000000E+00 0. -1.
        -13    1    3    3    0    0  0.48473242729E+02 -0.12604828514E+03  0.23572269406E+02  0.13708930422E+03  0.00000000000E+00 0.  1.
         22    1    1    2    0    0 -0.44081824323E+03  0.69272131596E+03 -0.26096095098E+04  0.27357348809E+04  0.00000000000E+00 0.  1.
<mgrwt>
<rscale>  0 0.27481172E+04</rscale>
<asrwt>0</asrwt>
<pdfrwt beam="1">  1        2 0.45703784E+00 0.27481172E+04</pdfrwt>
<pdfrwt beam="2">  1       -2 0.97775858E-01 0.27481172E+04</pdfrwt>
<totfact> 0.13819289E+00</totfact>
</mgrwt>
</event>
<event>
 6    1  0.1719556E-004  0.1630231E+04  0.7818608E-02  0.8802188E-01
         -2   -1    0    0    0  501 -0.00000000000E+00  0.00000000000E+00  0.49300832091E+03  0.49300832091E+03  0.00000000000E+00 0. -1.
          2   -1    0    0  501    0  0.00000000000E+00 -0.00000000000E+00 -0.13476712304E+04  0.13476712304E+04  0.00000000000E+00 0.  1.
         23    2    1    2    0    0  0.70425933972E+03  0.28127033643E+03 -0.75779152728E+03  0.10761677564E+04  0.93780709456E+02 0.  0.
         11    1    3    3    0    0  0.29973506911E+03  0.16610639852E+03 -0.36545927089E+03  0.50099194202E+03  0.00000000000E+00 0.  1.
        -11    1    3    3    0    0  0.40452427060E+03  0.11516393791E+03 -0.39233225638E+03  0.57517581443E+03  0.00000000000E+00 0. -1.
         22    1    1    2    0    0 -0.70425933972E+03 -0.28127033643E+03 -0.96871382160E+02  0.76451179482E+03  0.00000000000E+00 0. -1.
<mgrwt>
<rscale>  0 0.16302308E+04</rscale>
<asrwt>0</asrwt>
<pdfrwt beam="1">  1        2 0.20733404E+00 0.16302308E+04</pdfrwt>
<pdfrwt beam="2">  1       -2 0.75847433E-01 0.16302308E+04</pdfrwt>
<totfact> 0.23110778E+01</totfact>
</mgrwt>
</event>
<event>
 6    1  0.1719556E-004  0.3910077E+04  0.7818608E-02  0.8022937E-01
         -2   -1    0    0    0  501 -0.00000000000E+00  0.00000000000E+00  0.21040196959E+04  0.21040196959E+04  0.00000000000E+00 0. -1.
          2   -1    0    0  501    0  0.00000000000E+00 -0.00000000000E+00 -0.18166067449E+04  0.18166067449E+04  0.00000000000E+00 0.  1.
         23    2    1    2    0    0 -0.66270261634E+02 -0.19528074986E+04  0.15550679086E+03  0.19622474915E+04  0.91564086713E+02 0.  0.
         13    1    3    3    0    0 -0.42437315918E+02 -0.53598010545E+03  0.75863100929E+02  0.54298324956E+03  0.00000000000E+00 0. -1.
        -13    1    3    3    0    0 -0.23832945716E+02 -0.14168273931E+04  0.79643689933E+02  0.14192642420E+04  0.00000000000E+00 0.  1.
         22    1    1    2    0    0  0.66270261634E+02  0.19528074986E+04  0.13190616009E+03  0.19583789493E+04  0.00000000000E+00 0. -1.
<mgrwt>
<rscale>  0 0.39100774E+04</rscale>
<asrwt>0</asrwt>
<pdfrwt beam="1">  1        2 0.27947796E+00 0.39100774E+04</pdfrwt>
<pdfrwt beam="2">  1       -2 0.32369534E+00 0.39100774E+04</pdfrwt>
<totfact> 0.15246586E-01</totfact>
</mgrwt>
</event>
<event>
 6    1  0.1719556E-004  0.1203001E+04  0.7818608E-02  0.9110234E-01
          1   -1    0    0  501    0  0.00000000000E+00  0.00000000000E+00  0.40972545846E+03  0.40972545846E+03  0.00000000000E+00 0.  1.
         -1   -1    0    0    0  501 -0.00000000000E+00 -0.00000000000E+00 -0.88303735601E+03  0.88303735601E+03  0.00000000000E+00 0. -1.
         23    2    1    2    0    0  0.96698542937E+02  0.56773724885E+03 -0.41136724136E+03  0.71352768746E+03  0.90678341239E+02 0.  0.
         13    1    3    3    0    0  0.35342533133E+02  0.35915539830E+03 -0.21207544629E+03  0.41859012136E+03  0.00000000000E+00 0. -1.
        -13    1    3    3    0    0  0.61356009805E+02  0.20858185055E+03 -0.19929179507E+03  0.29493756610E+03  0.00000000000E+00 0.  1.
         22    1    1    2    0    0 -0.96698542937E+02 -0.56773724885E+03 -0.61944656178E+02  0.57923512701E+03  0.00000000000E+00 0.  1.
<mgrwt>
<rscale>  0 0.12030011E+04</rscale>
<asrwt>0</asrwt>
<pdfrwt beam="1">  1        1 0.63034686E-01 0.12030011E+04</pdfrwt>
<pdfrwt beam="2">  1       -1 0.13585190E+00 0.12030011E+04</pdfrwt>
<totfact> 0.26063179E+01</totfact>
</mgrwt>
</event>
<event>
 6    1  0.1719556E-004  0.3904271E+04  0.7818608E-02  0.8024141E-01
          1   -1    0    0  501    0  0.00000000000E+00  0.00000000000E+00  0.10429418813E+04  0.10429418813E+04  0.00000000000E+00 0.  1.
         -1   -1    0    0    0  501 -0.00000000000E+00 -0.00000000000E+00 -0.36539270337E+04  0.36539270337E+04  0.00000000000E+00 0. -1.
         23    2    1    2    0    0  0.16462504254E+04 -0.10359857635E+04 -0.14895977959E+04  0.24516703561E+04  0.91536748452E+02 0.  0.
         13    1    3    3    0    0  0.10035293328E+04 -0.63155151890E+03 -0.85146169363E+03  0.14597655492E+04  0.00000000000E+00 0. -1.
        -13    1    3    3    0    0  0.64272109262E+03 -0.40443424458E+03 -0.63813610224E+03  0.99190480696E+03  0.00000000000E+00 0.  1.
         22    1    1    2    0    0 -0.16462504254E+04  0.10359857635E+04 -0.11213873566E+04  0.22451985589E+04  0.00000000000E+00 0. -1.
<mgrwt>
<rscale>  0 0.39042713E+04</rscale>
<asrwt>0</asrwt>
<pdfrwt beam="1">  1        1 0.16045259E+00 0.39042713E+04</pdfrwt>
<pdfrwt beam="2">  1       -1 0.56214263E+00 0.39042713E+04</pdfrwt>
<totfact> 0.71875619E-03</totfact>
</mgrwt>
</event>
<event>
 6    1  0.1719556E-004  0.2023086E+04  0.7818608E-02  0.8595903E-01
          2   -1    0    0  501    0  0.00000000000E+00  0.00000000000E+00  0.42927102910E+03  0.42927102910E+03  0.00000000000E+00 0.  1.
         -2   -1    0    0    0  501 -0.00000000000E+00 -0.00000000000E+00 -0.23836199865E+04  0.23836199865E+04  0.00000000000E+00 0. -1.
         23    2    1    2    0    0 -0.13375301246E+03 -0.95972471663E+03 -0.13751443180E+04  0.16839802953E+04  0.76199341433E+02 0.  0.
         11    1    3    3    0    0 -0.20454933036E+02 -0.41703691248E+03 -0.60041150030E+03  0.73132220009E+03  0.00000000000E+00 0.  1.
        -11    1    3    3    0    0 -0.11329807942E+03 -0.54268780415E+03 -0.77473281773E+03  0.95265809525E+03  0.00000000000E+00 0. -1.
         22    1    1    2    0    0  0.13375301246E+03  0.95972471663E+03 -0.57920463937E+03  0.11289107203E+04  0.00000000000E+00 0. -1.
<mgrwt>
<rscale>  0 0.20230858E+04</rscale>
<asrwt>0</asrwt>
<pdfrwt beam="1">  1        2 0.66041696E-01 0.20230858E+04</pdfrwt>
<pdfrwt beam="2">  1       -2 0.36671077E+00 0.20230858E+04</pdfrwt>
<totfact> 0.83156589E-01</totfact>
</mgrwt>
</event>
<event>
 6    1  0.1719556E-004  0.2700968E+04  0.7818608E-02  0.8334691E-01
          2   -1    0    0  501    0  0.00000000000E+00  0.00000000000E+00  0.14955853151E+04  0.14955853151E+04  0.00000000000E+00 0.  1.
         -2   -1    0    0    0  501 -0.00000000000E+00 -0.00000000000E+00 -0.12194599921E+04  0.12194599921E+04  0.00000000000E+00 0. -1.
         23    2    1    2    0    0  0.99707165004E+03  0.34642714991E+03 -0.70607490681E+03  0.12732128146E+04  0.91462842764E+02 0.  0.
         13    1    3    3    0    0  0.66408648038E+03  0.23146349986E+03 -0.52140360760E+03  0.87547011783E+03  0.00000000000E+00 0.  1.
        -13    1    3    3    0    0  0.33298516966E+03  0.11496365005E+03 -0.18467129921E+03  0.39774269673E+03  0.00000000000E+00 0. -1.
         22    1    1    2    0    0 -0.99707165004E+03 -0.34642714991E+03  0.98220022982E+03  0.14418324927E+04  0.00000000000E+00 0.  1.
<mgrwt>
<rscale>  0 0.27009676E+04</rscale>
<asrwt>0</asrwt>
<pdfrwt beam="1">  1        2 0.23009005E+00 0.27009676E+04</pdfrwt>
<pdfrwt beam="2">  1       -2 0.18760923E+00 0.27009676E+04</pdfrwt>
<totfact> 0.18017760E+00</totfact>
</mgrwt>
</event>
<event>
 6    1  0.1719556E-004  0.8833885E+03  0.7818608E-02  0.9446588E-01
         -1   -1    0    0    0  501 -0.00000000000E+00  0.00000000000E+00  0.24029465296E+03  0.24029465296E+03  0.00000000000E+00 0.  1.
          1   -1    0    0  501    0  0.00000000000E+00 -0.00000000000E+00 -0.81189412910E+03  0.81189412910E+03  0.00000000000E+00 0. -1.
         23    2    1    2    0    0 -0.18811304924E+03  0.16246883778E+03  0.13945141359E+03  0.29894512272E+03  0.90215559104E+02 0.  0.
         11    1    3    3    0    0 -0.13355693503E+03  0.14941523700E+03  0.76203020689E+02  0.21440445029E+03  0.00000000000E+00 0. -1.
        -11    1    3    3    0    0 -0.54556114207E+02  0.13053600779E+02  0.63248392898E+02  0.84540672430E+02  0.00000000000E+00 0.  1.
         22    1    1    2    0    0  0.18811304924E+03 -0.16246883778E+03 -0.71105088972E+03  0.75324365933E+03  0.00000000000E+00 0. -1.
<mgrwt>
<rscale>  0 0.88338852E+03</rscale>
<asrwt>0</asrwt>
<pdfrwt beam="1">  1        1 0.12490679E+00 0.88338852E+03</pdfrwt>
<pdfrwt beam="2">  1       -1 0.36968409E-01 0.88338852E+03</pdfrwt>
<totfact> 0.15289058E+02</totfact>
</mgrwt>
</event>
<event>
 6    1  0.1719556E-004  0.2301080E+04  0.7818608E-02  0.8477496E-01
          1   -1    0    0  501    0  0.00000000000E+00  0.00000000000E+00  0.84257824890E+03  0.84257824890E+03  0.00000000000E+00 0. -1.
         -1   -1    0    0    0  501 -0.00000000000E+00 -0.00000000000E+00 -0.15710609276E+04  0.15710609276E+04  0.00000000000E+00 0.  1.
         23    2    1    2    0    0  0.89740303602E+03 -0.54685445919E+03 -0.85135472163E+03  0.13555845714E+04  0.91775048418E+02 0.  0.
         11    1    3    3    0    0  0.36136301350E+03 -0.19107184440E+03 -0.37903667106E+03  0.55745894491E+03  0.00000000000E+00 0. -1.
        -11    1    3    3    0    0  0.53604002252E+03 -0.35578261479E+03 -0.47231805057E+03  0.79812562647E+03  0.00000000000E+00 0.  1.
         22    1    1    2    0    0 -0.89740303602E+03  0.54685445919E+03  0.12287204289E+03  0.10580546052E+04  0.00000000000E+00 0.  1.
<mgrwt>
<rscale>  0 0.23010795E+04</rscale>
<asrwt>0</asrwt>
<pdfrwt beam="1">  1        1 0.12962742E+00 0.23010795E+04</pdfrwt>
<pdfrwt beam="2">  1       -1 0.24170168E+00 0.23010795E+04</pdfrwt>
<totfact> 0.14509931E+00</totfact>
</mgrwt>
</event>
<event>
 6    1  0.1719556E-004  0.1228200E+04  0.7818608E-02  0.9088525E-01
          1   -1    0    0  501    0  0.00000000000E+00  0.00000000000E+00  0.12395160400E+04  0.12395160400E+04  0.00000000000E+00 0.  1.
         -1   -1    0    0    0  501 -0.00000000000E+00 -0.00000000000E+00 -0.30424697380E+03  0.30424697380E+03  0.00000000000E+00 0. -1.
         23    2    1    2    0    0  0.36261710001E+03 -0.17629191792E+03  0.10467319146E+04  0.11254402101E+04  0.91640405072E+02 0.  0.
         13    1    3    3    0    0  0.24147053921E+03 -0.72933531374E+02  0.69426291273E+03  0.73866657790E+03  0.00000000000E+00 0. -1.
        -13    1    3    3    0    0  0.12114656080E+03 -0.10335838654E+03  0.35246900191E+03  0.38677363220E+03  0.00000000000E+00 0.  1.
         22    1    1    2    0    0 -0.36261710001E+03  0.17629191792E+03 -0.11146284841E+03  0.41832280373E+03  0.00000000000E+00 0. -1.
<mgrwt>
<rscale>  0 0.12282003E+04</rscale>
<asrwt>0</asrwt>
<pdfrwt beam="1">  1        1 0.19069477E+00 0.12282003E+04</pdfrwt>
<pdfrwt beam="2">  1       -1 0.46807227E-01 0.12282003E+04</pdfrwt>
<totfact> 0.44912792E+01</totfact>
</mgrwt>
</event>
<event>
 6    1  0.1719556E-004  0.1341460E+04  0.7818608E-02  0.8997318E-01
         -1   -1    0    0    0  501 -0.00000000000E+00  0.00000000000E+00  0.25220115484E+03  0.25220115484E+03  0.00000000000E+00 0. -1.
          1   -1    0    0  501    0  0.00000000000E+00 -0.00000000000E+00 -0.17838091678E+04  0.17838091678E+04  0.00000000000E+00 0.  1.
         23    2    1    2    0    0 -0.78614635963E+02  0.66168481127E+03 -0.83224465138E+03  0.10700309429E+04  0.91257923862E+02 0.  0.
         13    1    3    3    0    0 -0.65097516202E+02  0.29949234616E+03 -0.43699393664E+03  0.53375748490E+03  0.00000000000E+00 0. -1.
        -13    1    3    3    0    0 -0.13517119761E+02  0.36219246511E+03 -0.39525071473E+03  0.53627345805E+03  0.00000000000E+00 0.  1.
         22    1    1    2    0    0  0.78614635963E+02 -0.66168481127E+03 -0.69936336158E+03  0.96597937969E+03  0.00000000000E+00 0.  1.
<mgrwt>
<rscale>  0 0.13414600E+04</rscale>
<asrwt>0</asrwt>
<pdfrwt beam="1">  1        1 0.27443217E+00 0.13414600E+04</pdfrwt>
<pdfrwt beam="2">  1       -1 0.38800178E-01 0.13414600E+04</pdfrwt>
<totfact> 0.26366572E+01</totfact>
</mgrwt>
</event>
<event>
 6    1  0.1719556E-004  0.3910732E+04  0.7818608E-02  0.8022801E-01
         -2   -1    0    0    0  501 -0.00000000000E+00  0.00000000000E+00  0.16477581267E+04  0.16477581267E+04  0.00000000000E+00 0. -1.
          2   -1    0    0  501    0  0.00000000000E+00 -0.00000000000E+00 -0.23203985795E+04  0.23203985795E+04  0.00000000000E+00 0.  1.
         23    2    1    2    0    0 -0.53874791387E+03 -0.18576454964E+04 -0.62085238650E+03  0.20332721854E+04  0.87418470940E+02 0.  0.
         11    1    3    3    0    0 -0.40180589316E+03 -0.14982876500E+04 -0.51329905938E+03  0.16339491370E+04  0.00000000000E+00 0.  1.
        -11    1    3    3    0    0 -0.13694202072E+03 -0.35935784638E+03 -0.10755332712E+03  0.39932304838E+03  0.00000000000E+00 0. -1.
         22    1    1    2    0    0  0.53874791387E+03  0.18576454964E+04 -0.51788066270E+02  0.19348845208E+04  0.00000000000E+00 0.  1.
<mgrwt>
<rscale>  0 0.39107317E+04</rscale>
<asrwt>0</asrwt>
<pdfrwt beam="1">  1        2 0.35698440E+00 0.39107317E+04</pdfrwt>
<pdfrwt beam="2">  1       -2 0.25350125E+00 0.39107317E+04</pdfrwt>
<totfact> 0.21450592E-01</totfact>
</mgrwt>
</event>
<event>
 6    1  0.1719556E-004  0.1407058E+04  0.7818608E-02  0.8948726E-01
          2   -1    0    0  501    0  0.00000000000E+00  0.00000000000E+00  0.80294264169E+03  0.80294264169E+03  0.00000000000E+00 0.  1.
         -2   -1    0    0    0  501 -0.00000000000E+00 -0.00000000000E+00 -0.61642362908E+03  0.61642362908E+03  0.00000000000E+00 0. -1.
         23    2    1    2    0    0  0.68456775318E+03  0.14369437540E+03  0.13211611584E+03  0.71776755541E+03  0.91948427518E+02 0.  0.
         13    1    3    3    0    0  0.12671572838E+03  0.60462472811E+02  0.10614692564E+02  0.14080219507E+03  0.00000000000E+00 0.  1.
        -13    1    3    3    0    0  0.55785202480E+03  0.83231902593E+02  0.12150142327E+03  0.57696536034E+03  0.00000000000E+00 0. -1.
         22    1    1    2    0    0 -0.68456775318E+03 -0.14369437540E+03  0.54402896766E+02  0.70159871536E+03  0.00000000000E+00 0. -1.
<mgrwt>
<rscale>  0 0.14070577E+04</rscale>
<asrwt>0</asrwt>
<pdfrwt beam="1">  1        2 0.12352964E+00 0.14070577E+04</pdfrwt>
<pdfrwt beam="2">  1       -2 0.94834404E-01 0.14070577E+04</pdfrwt>
<totfact> 0.31214568E+01</totfact>
</mgrwt>
</event>
<event>
 6    1  0.1719556E-004  0.2296397E+04  0.7818608E-02  0.8479343E-01
         -1   -1    0    0    0  501 -0.00000000000E+00  0.00000000000E+00  0.58784189236E+03  0.58784189236E+03  0.00000000000E+00 0. -1.
          1   -1    0    0  501    0  0.00000000000E+00 -0.00000000000E+00 -0.22427108166E+04  0.22427108166E+04  0.00000000000E+00 0.  1.
         23    2    1    2    0    0  0.44253171671E+03 -0.10517104458E+04 -0.69202005200E+03  0.13375667302E+04  0.90905573842E+02 0.  0.
         13    1    3    3    0    0  0.17875759873E+03 -0.47713753206E+03 -0.35619942657E+03  0.62168523796E+03  0.00000000000E+00 0. -1.
        -13    1    3    3    0    0  0.26377411798E+03 -0.57457291370E+03 -0.33582062543E+03  0.71588149224E+03  0.00000000000E+00 0.  1.
         22    1    1    2    0    0 -0.44253171671E+03  0.10517104458E+04 -0.96284887223E+03  0.14929859788E+04  0.00000000000E+00 0.  1.
<mgrwt>
<rscale>  0 0.22963966E+04</rscale>
<asrwt>0</asrwt>
<pdfrwt beam="1">  1        1 0.34503244E+00 0.22963966E+04</pdfrwt>
<pdfrwt beam="2">  1       -1 0.90437214E-01 0.22963966E+04</pdfrwt>
<totfact> 0.22006312E+00</totfact>
</mgrwt>
</event>
<event>
 6    1  0.1719556E-004  0.4221021E+04  0.7818608E-02  0.7961386E-01
         -2   -1    0    0    0  501 -0.00000000000E+00  0.00000000000E+00  0.17564439220E+04  0.17564439220E+04  0.00000000000E+00 0. -1.
          2   -1    0    0  501    0  0.00000000000E+00 -0.00000000000E+00 -0.25359504824E+04  0.25359504824E+04  0.00000000000E+00 0.  1.
         23    2    1    2    0    0 -0.16499598471E+04 -0.13142872309E+04 -0.37437705768E+03  0.21444073615E+04  0.92770298745E+02 0.  0.
         11    1    3    3    0    0 -0.64838000796E+03 -0.55672474935E+03 -0.11822303764E+03  0.86273736901E+03  0.00000000000E+00 0. -1.
        -11    1    3    3    0    0 -0.10015798391E+04 -0.75756248154E+03 -0.25615402005E+03  0.12816699925E+04  0.00000000000E+00 0.  1.
         22    1    1    2    0    0  0.16499598471E+04  0.13142872309E+04 -0.40512950276E+03  0.21479870429E+04  0.00000000000E+00 0.  1.
<mgrwt>
<rscale>  0 0.42210211E+04</rscale>
<asrwt>0</asrwt>
<pdfrwt beam="1">  1        2 0.39014623E+00 0.42210211E+04</pdfrwt>
<pdfrwt beam="2">  1       -2 0.27022214E+00 0.42210211E+04</pdfrwt>
<totfact> 0.12421572E-01</totfact>
</mgrwt>
</event>
<event>
 6    1  0.1719556E-004  0.1572138E+04  0.7818608E-02  0.8837850E-01
          2   -1    0    0  501    0  0.00000000000E+00  0.00000000000E+00  0.88277092665E+03  0.88277092665E+03  0.00000000000E+00 0.  1.
         -2   -1    0    0    0  501 -0.00000000000E+00 -0.00000000000E+00 -0.69995971840E+03  0.69995971840E+03  0.00000000000E+00 0. -1.
         23    2    1    2    0    0 -0.25594864542E+03 -0.53865424415E+03 -0.41985624180E+03  0.73487089298E+03  0.89988120015E+02 0.  0.
         11    1    3    3    0    0 -0.10112590741E+03 -0.31705849112E+03 -0.23044863173E+03  0.40479514302E+03  0.00000000000E+00 0.  1.
        -11    1    3    3    0    0 -0.15482273801E+03 -0.22159575302E+03 -0.18940761007E+03  0.33007574997E+03  0.00000000000E+00 0. -1.
         22    1    1    2    0    0  0.25594864542E+03  0.53865424415E+03  0.60266745005E+03  0.84785975207E+03  0.00000000000E+00 0. -1.
<mgrwt>
<rscale>  0 0.15721375E+04</rscale>
<asrwt>0</asrwt>
<pdfrwt beam="1">  1        2 0.13581091E+00 0.15721375E+04</pdfrwt>
<pdfrwt beam="2">  1       -2 0.10768611E+00 0.15721375E+04</pdfrwt>
<totfact> 0.20026414E+01</totfact>
</mgrwt>
</event>
<event>
 6    1  0.1719556E-004  0.1558613E+04  0.7818608E-02  0.8846385E-01
         -1   -1    0    0    0  501 -0.00000000000E+00  0.00000000000E+00  0.14924683364E+04  0.14924683364E+04  0.00000000000E+00 0. -1.
          1   -1    0    0  501    0  0.00000000000E+00 -0.00000000000E+00 -0.40692209578E+03  0.40692209578E+03  0.00000000000E+00 0.  1.
         23    2    1    2    0    0  0.37459331738E+03  0.66810550007E+02  0.13696645044E+04  0.14245146686E+04  0.92072707274E+02 0.  0.
         13    1    3    3    0    0  0.24593465729E+03  0.55486696132E+02  0.74086312557E+03  0.78258596967E+03  0.00000000000E+00 0.  1.
        -13    1    3    3    0    0  0.12865866009E+03  0.11323853876E+02  0.62880137888E+03  0.64192869898E+03  0.00000000000E+00 0. -1.
         22    1    1    2    0    0 -0.37459331738E+03 -0.66810550007E+02 -0.28411826379E+03  0.47487576358E+03  0.00000000000E+00 0.  1.
<mgrwt>
<rscale>  0 0.15586126E+04</rscale>
<asrwt>0</asrwt>
<pdfrwt beam="1">  1        1 0.62603400E-01 0.15586126E+04</pdfrwt>
<pdfrwt beam="2">  1       -1 0.22961051E+00 0.15586126E+04</pdfrwt>
<totfact> 0.53610262E+00</totfact>
</mgrwt>
</event>
<event>
 6    1  0.1719556E-004  0.5303098E+04  0.7818608E-02  0.7783380E-01
          2   -1    0    0  501    0  0.00000000000E+00  0.00000000000E+00  0.39045477027E+04  0.39045477027E+04  0.00000000000E+00 0.  1.
         -2   -1    0    0    0  501 -0.00000000000E+00 -0.00000000000E+00 -0.18006468208E+04  0.18006468208E+04  0.00000000000E+00 0. -1.
         23    2    1    2    0    0 -0.22135027878E+03 -0.18833818224E+04 -0.93994951662E+03  0.21189502090E+04  0.10159655154E+03 0.  0.
         13    1    3    3    0    0 -0.13891804739E+03 -0.14722849686E+04 -0.70410213748E+03  0.16378892125E+04  0.00000000000E+00 0. -1.
        -13    1    3    3    0    0 -0.82432231395E+02 -0.41109685388E+03 -0.23584737914E+03  0.48106099643E+03  0.00000000000E+00 0.  1.
         22    1    1    2    0    0  0.22135027878E+03  0.18833818224E+04  0.30438503985E+04  0.35862443145E+04  0.00000000000E+00 0.  1.
<mgrwt>
<rscale>  0 0.53030977E+04</rscale>
<asrwt>0</asrwt>
<pdfrwt beam="1">  1        2 0.60069964E+00 0.53030977E+04</pdfrwt>
<pdfrwt beam="2">  1       -2 0.27702259E+00 0.53030977E+04</pdfrwt>
<totfact> 0.12670957E-02</totfact>
</mgrwt>
</event>
<event>
 6    1  0.1719556E-004  0.3961578E+04  0.7818608E-02  0.8012343E-01
         -1   -1    0    0    0  501 -0.00000000000E+00  0.00000000000E+00  0.92912019252E+03  0.92912019252E+03  0.00000000000E+00 0. -1.
          1   -1    0    0  501    0  0.00000000000E+00 -0.00000000000E+00 -0.42228388007E+04  0.42228388007E+04  0.00000000000E+00 0.  1.
         23    2    1    2    0    0  0.10792291619E+04  0.12140128287E+04 -0.31195422486E+04  0.35182821169E+04  0.90567551752E+02 0.  0.
         13    1    3    3    0    0  0.67336811597E+03  0.70948335310E+03 -0.19431763026E+04  0.21754827949E+04  0.00000000000E+00 0. -1.
        -13    1    3    3    0    0  0.40586104588E+03  0.50452947560E+03 -0.11763659460E+04  0.13427993220E+04  0.00000000000E+00 0.  1.
         22    1    1    2    0    0 -0.10792291619E+04 -0.12140128287E+04 -0.17417635964E+03  0.16336768763E+04  0.00000000000E+00 0. -1.
<mgrwt>
<rscale>  0 0.39615779E+04</rscale>
<asrwt>0</asrwt>
<pdfrwt beam="1">  1        1 0.64966750E+00 0.39615779E+04</pdfrwt>
<pdfrwt beam="2">  1       -1 0.14294157E+00 0.39615779E+04</pdfrwt>
<totfact> 0.18681174E-02</totfact>
</mgrwt>
</event>
<event>
 6    1  0.1719556E-004  0.5461221E+03  0.7818608E-02  0.1002396E+00
         -1   -1    0    0    0  501 -0.00000000000E+00  0.00000000000E+00  0.78475776854E+02  0.78475776854E+02  0.00000000000E+00 0. -1.
          1   -1    0    0  501    0  0.00000000000E+00 -0.00000000000E+00 -0.95013193106E+03  0.95013193106E+03  0.00000000000E+00 0.  1.
         23    2    1    2    0    0  0.15936783390E+03  0.15979421871E+02 -0.42871390179E+02  0.18448826525E+03  0.80898179899E+02 0.  0.
         13    1    3    3    0    0  0.96756975825E+02  0.17473756141E+02 -0.65225307353E+02  0.11798976754E+03  0.00000000000E+00 0. -1.
        -13    1    3    3    0    0  0.62610858080E+02 -0.14943342701E+01  0.22353917174E+02  0.66498497708E+02  0.00000000000E+00 0.  1.
         22    1    1    2    0    0 -0.15936783390E+03 -0.15979421871E+02 -0.82878476403E+03  0.84411944267E+03  0.00000000000E+00 0.  1.
<mgrwt>
<rscale>  0 0.54612212E+03</rscale>
<asrwt>0</asrwt>
<pdfrwt beam="1">  1        1 0.14617414E+00 0.54612212E+03</pdfrwt>
<pdfrwt beam="2">  1       -1 0.12073197E-01 0.54612212E+03</pdfrwt>
<totfact> 0.78485623E+02</totfact>
</mgrwt>
</event>
<event>
 6    1  0.1719556E-004  0.2304947E+04  0.7818608E-02  0.8475973E-01
          2   -1    0    0  501    0  0.00000000000E+00  0.00000000000E+00  0.77415105046E+03  0.77415105046E+03  0.00000000000E+00 0.  1.
         -2   -1    0    0    0  501 -0.00000000000E+00 -0.00000000000E+00 -0.17156792237E+04  0.17156792237E+04  0.00000000000E+00 0. -1.
         23    2    1    2    0    0 -0.74583399830E+02 -0.10427503238E+04 -0.99081375687E+03  0.14432549113E+04  0.91552808849E+02 0.  0.
         13    1    3    3    0    0  0.88273470438E+01 -0.41973367953E+03 -0.42803043421E+03  0.59955344748E+03  0.00000000000E+00 0. -1.
        -13    1    3    3    0    0 -0.83410746874E+02 -0.62301664429E+03 -0.56278332266E+03  0.84370146380E+03  0.00000000000E+00 0.  1.
         22    1    1    2    0    0  0.74583399830E+02  0.10427503238E+04  0.49285583662E+02  0.10465753628E+04  0.00000000000E+00 0.  1.
<mgrwt>
<rscale>  0 0.23049467E+04</rscale>
<asrwt>0</asrwt>
<pdfrwt beam="1">  1        2 0.11910016E+00 0.23049467E+04</pdfrwt>
<pdfrwt beam="2">  1       -2 0.26395065E+00 0.23049467E+04</pdfrwt>
<totfact> 0.17205619E+00</totfact>
</mgrwt>
</event>
<event>
 6    1  0.1719556E-004  0.2196698E+04  0.7818608E-02  0.8519804E-01
          1   -1    0    0  501    0  0.00000000000E+00  0.00000000000E+00  0.71148454175E+03  0.71148454175E+03  0.00000000000E+00 0.  1.
         -1   -1    0    0    0  501 -0.00000000000E+00 -0.00000000000E+00 -0.16955683038E+04  0.16955683038E+04  0.00000000000E+00 0. -1.
         23    2    1    2    0    0 -0.54851898332E+03  0.94708612232E+02 -0.15279077049E+04  0.16288579617E+04  0.93986745148E+02 0.  0.
         11    1    3    3    0    0 -0.38826926917E+03  0.89063211365E+02 -0.97702871892E+03  0.10551162962E+04  0.00000000000E+00 0.  1.
        -11    1    3    3    0    0 -0.16024971415E+03  0.56454008669E+01 -0.55087898603E+03  0.57374166546E+03  0.00000000000E+00 0. -1.
         22    1    1    2    0    0  0.54851898332E+03 -0.94708612232E+02  0.54382394293E+03  0.77819488382E+03  0.00000000000E+00 0.  1.
<mgrwt>
<rscale>  0 0.21966981E+04</rscale>
<asrwt>0</asrwt>
<pdfrwt beam="1">  1        1 0.10945916E+00 0.21966981E+04</pdfrwt>
<pdfrwt beam="2">  1       -1 0.26085666E+00 0.21966981E+04</pdfrwt>
<totfact> 0.14356854E+00</totfact>
</mgrwt>
</event>
<event>
 6    1  0.1719556E-004  0.1080517E+04  0.7818608E-02  0.9224392E-01
          2   -1    0    0  501    0  0.00000000000E+00  0.00000000000E+00  0.52079009125E+03  0.52079009125E+03  0.00000000000E+00 0.  1.
         -2   -1    0    0    0  501 -0.00000000000E+00 -0.00000000000E+00 -0.56045505775E+03  0.56045505775E+03  0.00000000000E+00 0. -1.
         23    2    1    2    0    0 -0.32095112239E+03  0.40749643734E+03  0.11669466694E+03  0.53947831319E+03  0.91412448343E+02 0.  0.
         13    1    3    3    0    0 -0.26009696466E+03  0.31245569429E+03  0.53262433807E+02  0.41001936391E+03  0.00000000000E+00 0.  1.
        -13    1    3    3    0    0 -0.60854157726E+02  0.95040743040E+02  0.63432233136E+02  0.12945894929E+03  0.00000000000E+00 0. -1.
         22    1    1    2    0    0  0.32095112239E+03 -0.40749643734E+03 -0.15635963345E+03  0.54176683580E+03  0.00000000000E+00 0. -1.
<mgrwt>
<rscale>  0 0.10805174E+04</rscale>
<asrwt>0</asrwt>
<pdfrwt beam="1">  1        2 0.80121553E-01 0.10805174E+04</pdfrwt>
<pdfrwt beam="2">  1       -2 0.86223855E-01 0.10805174E+04</pdfrwt>
<totfact> 0.68101617E+01</totfact>
</mgrwt>
</event>
<event>
 6    1  0.1719556E-004  0.2478582E+04  0.7818608E-02  0.8410656E-01
          2   -1    0    0  501    0  0.00000000000E+00  0.00000000000E+00  0.10512416698E+04  0.10512416698E+04  0.00000000000E+00 0.  1.
         -2   -1    0    0    0  501 -0.00000000000E+00 -0.00000000000E+00 -0.14609787847E+04  0.14609787847E+04  0.00000000000E+00 0. -1.
         23    2    1    2    0    0 -0.66227900839E+02  0.75499956886E+03  0.78643001575E+03  0.10961603257E+04  0.93192307014E+02 0.  0.
         11    1    3    3    0    0 -0.77068553069E+02  0.36542983143E+03  0.40297845798E+03  0.54942712089E+03  0.00000000000E+00 0.  1.
        -11    1    3    3    0    0  0.10840652230E+02  0.38956973743E+03  0.38345155777E+03  0.54673320479E+03  0.00000000000E+00 0. -1.
         22    1    1    2    0    0  0.66227900839E+02 -0.75499956886E+03 -0.11961671306E+04  0.14160601287E+04  0.00000000000E+00 0. -1.
<mgrwt>
<rscale>  0 0.24785817E+04</rscale>
<asrwt>0</asrwt>
<pdfrwt beam="1">  1        2 0.16172949E+00 0.24785817E+04</pdfrwt>
<pdfrwt beam="2">  1       -2 0.22476597E+00 0.24785817E+04</pdfrwt>
<totfact> 0.19248841E+00</totfact>
</mgrwt>
</event>
<event>
 6    1  0.1719556E-004  0.1967858E+04  0.7818608E-02  0.8621797E-01
         -1   -1    0    0    0  501 -0.00000000000E+00  0.00000000000E+00  0.23570427378E+04  0.23570427378E+04  0.00000000000E+00 0. -1.
          1   -1    0    0  501    0  0.00000000000E+00 -0.00000000000E+00 -0.41073337697E+03  0.41073337697E+03  0.00000000000E+00 0.  1.
         23    2    1    2    0    0  0.36343736445E+03  0.79045410585E+03  0.16153964511E+04  0.18369658413E+04  0.89629216636E+02 0.  0.
         11    1    3    3    0    0  0.12573609656E+03  0.33653086606E+03  0.74108405591E+03  0.82357037812E+03  0.00000000000E+00 0. -1.
        -11    1    3    3    0    0  0.23770126789E+03  0.45392323980E+03  0.87431239523E+03  0.10133954632E+04  0.00000000000E+00 0.  1.
         22    1    1    2    0    0 -0.36343736445E+03 -0.79045410585E+03  0.33091290967E+03  0.93081027343E+03  0.00000000000E+00 0.  1.
<mgrwt>
<rscale>  0 0.19678578E+04</rscale>
<asrwt>0</asrwt>
<pdfrwt beam="1">  1        1 0.63189751E-01 0.19678578E+04</pdfrwt>
<pdfrwt beam="2">  1       -1 0.36262195E+00 0.19678578E+04</pdfrwt>
<totfact> 0.69100559E-01</totfact>
</mgrwt>
</event>
<event>
 6    1  0.1719556E-004  0.2809285E+04  0.7818608E-02  0.8300392E-01
          2   -1    0    0  501    0  0.00000000000E+00  0.00000000000E+00  0.19651299761E+04  0.19651299761E+04  0.00000000000E+00 0.  1.
         -2   -1    0    0    0  501 -0.00000000000E+00 -0.00000000000E+00 -0.10040149768E+04  0.10040149768E+04  0.00000000000E+00 0. -1.
         23    2    1    2    0    0 -0.95469477056E+03  0.44160348935E+03 -0.50117360844E+03  0.11678277351E+04  0.78682185723E+02 0.  0.
         11    1    3    3    0    0 -0.25662214771E+03  0.15701305795E+03 -0.15094502891E+03  0.33658940687E+03  0.00000000000E+00 0.  1.
        -11    1    3    3    0    0 -0.69807262285E+03  0.28459043139E+03 -0.35022857953E+03  0.83123832824E+03  0.00000000000E+00 0. -1.
         22    1    1    2    0    0  0.95469477056E+03 -0.44160348935E+03  0.14622886077E+04  0.18013172178E+04  0.00000000000E+00 0.  1.
<mgrwt>
<rscale>  0 0.28092846E+04</rscale>
<asrwt>0</asrwt>
<pdfrwt beam="1">  1        2 0.30232769E+00 0.28092846E+04</pdfrwt>
<pdfrwt beam="2">  1       -2 0.15446384E+00 0.28092846E+04</pdfrwt>
<totfact> 0.16833501E+00</totfact>
</mgrwt>
</event>
<event>
 6    1  0.1719556E-004  0.3146769E+04  0.7818608E-02  0.8203018E-01
          2   -1    0    0  501    0  0.00000000000E+00  0.00000000000E+00  0.12958839535E+04  0.12958839535E+04  0.00000000000E+00 0.  1.
         -2   -1    0    0    0  501 -0.00000000000E+00 -0.00000000000E+00 -0.19103095594E+04  0.19103095594E+04  0.00000000000E+00 0. -1.
         23    2    1    2    0    0  0.28471627556E+03 -0.15149082758E+04 -0.62209804947E+03  0.16647431218E+04  0.91396044253E+02 0.  0.
         11    1    3    3    0    0  0.98241776420E+02 -0.40373647773E+03 -0.20471280144E+03  0.46320829133E+03  0.00000000000E+00 0. -1.
        -11    1    3    3    0    0  0.18647449914E+03 -0.11111717981E+04 -0.41738524803E+03  0.12015348305E+04  0.00000000000E+00 0.  1.
         22    1    1    2    0    0 -0.28471627556E+03  0.15149082758E+04  0.76724435233E+01  0.15414503910E+04  0.00000000000E+00 0.  1.
<mgrwt>
<rscale>  0 0.31467695E+04</rscale>
<asrwt>0</asrwt>
<pdfrwt beam="1">  1        2 0.19936676E+00 0.31467695E+04</pdfrwt>
<pdfrwt beam="2">  1       -2 0.29389378E+00 0.31467695E+04</pdfrwt>
<totfact> 0.48695262E-01</totfact>
</mgrwt>
</event>
<event>
 6    1  0.1719556E-004  0.3540802E+04  0.7818608E-02  0.8104188E-01
          2   -1    0    0  501    0  0.00000000000E+00  0.00000000000E+00  0.19689318653E+04  0.19689318653E+04  0.00000000000E+00 0. -1.
         -2   -1    0    0    0  501 -0.00000000000E+00 -0.00000000000E+00 -0.15918885835E+04  0.15918885835E+04  0.00000000000E+00 0.  1.
         23    2    1    2    0    0  0.97038842975E+03 -0.13216030277E+04  0.85712202519E+03  0.18523814340E+04  0.91490675540E+02 0.  0.
         13    1    3    3    0    0  0.48777405160E+03 -0.59266870660E+03  0.41980397442E+03  0.87488004786E+03  0.00000000000E+00 0. -1.
        -13    1    3    3    0    0  0.48261437814E+03 -0.72893432106E+03  0.43731805077E+03  0.97750138616E+03  0.00000000000E+00 0.  1.
         22    1    1    2    0    0 -0.97038842975E+03  0.13216030277E+04 -0.48007874345E+03  0.17084390148E+04  0.00000000000E+00 0.  1.
<mgrwt>
<rscale>  0 0.35408023E+04</rscale>
<asrwt>0</asrwt>
<pdfrwt beam="1">  1        2 0.30291259E+00 0.35408023E+04</pdfrwt>
<pdfrwt beam="2">  1       -2 0.24490594E+00 0.35408023E+04</pdfrwt>
<totfact> 0.39335801E-01</totfact>
</mgrwt>
</event>
<event>
 6    1  0.1719556E-004  0.4021021E+04  0.7818608E-02  0.8000319E-01
          1   -1    0    0  501    0  0.00000000000E+00  0.00000000000E+00  0.29465332041E+04  0.29465332041E+04  0.00000000000E+00 0.  1.
         -1   -1    0    0    0  501 -0.00000000000E+00 -0.00000000000E+00 -0.13718332058E+04  0.13718332058E+04  0.00000000000E+00 0. -1.
         23    2    1    2    0    0  0.17228756691E+04 -0.14822772341E+03  0.18870200277E+04  0.25611482020E+04  0.91452166436E+02 0.  0.
         13    1    3    3    0    0  0.81352279067E+03 -0.25818473314E+02  0.86915736648E+03  0.11907646502E+04  0.00000000000E+00 0. -1.
        -13    1    3    3    0    0  0.90935287845E+03 -0.12240925010E+03  0.10178626612E+04  0.13703835518E+04  0.00000000000E+00 0.  1.
         22    1    1    2    0    0 -0.17228756691E+04  0.14822772341E+03 -0.31232002945E+03  0.17572182079E+04  0.00000000000E+00 0. -1.
<mgrwt>
<rscale>  0 0.40210208E+04</rscale>
<asrwt>0</asrwt>
<pdfrwt beam="1">  1        1 0.45331280E+00 0.40210208E+04</pdfrwt>
<pdfrwt beam="2">  1       -1 0.21105126E+00 0.40210208E+04</pdfrwt>
<totfact> 0.64570957E-02</totfact>
</mgrwt>
</event>
<event>
 6    1  0.1719556E-004  0.7579257E+03  0.7818608E-02  0.9622998E-01
          1   -1    0    0  501    0  0.00000000000E+00  0.00000000000E+00  0.11167304178E+04  0.11167304178E+04  0.00000000000E+00 0.  1.
         -1   -1    0    0    0  501 -0.00000000000E+00 -0.00000000000E+00 -0.12860118872E+03  0.12860118872E+03  0.00000000000E+00 0. -1.
         23    2    1    2    0    0  0.17392699264E+03  0.93572667033E+02  0.10219067163E+04  0.10449635417E+04  0.93000128381E+02 0.  0.
         11    1    3    3    0    0  0.15974862778E+03  0.42536507606E+02  0.76821050219E+03  0.78579663668E+03  0.00000000000E+00 0.  1.
        -11    1    3    3    0    0  0.14178364859E+02  0.51036159427E+02  0.25369621409E+03  0.25916690499E+03  0.00000000000E+00 0. -1.
         22    1    1    2    0    0 -0.17392699264E+03 -0.93572667033E+02 -0.33777487167E+02  0.20036806488E+03  0.00000000000E+00 0. -1.
<mgrwt>
<rscale>  0 0.75792575E+03</rscale>
<asrwt>0</asrwt>
<pdfrwt beam="1">  1        1 0.17180467E+00 0.75792575E+03</pdfrwt>
<pdfrwt beam="2">  1       -1 0.19784799E-01 0.75792575E+03</pdfrwt>
<totfact> 0.25960084E+02</totfact>
</mgrwt>
</event>
<event>
 6    1  0.1719556E-004  0.3406408E+04  0.7818608E-02  0.8136335E-01
         -2   -1    0    0    0  501 -0.00000000000E+00  0.00000000000E+00  0.17546005163E+04  0.17546005163E+04  0.00000000000E+00 0. -1.
          2   -1    0    0  501    0  0.00000000000E+00 -0.00000000000E+00 -0.16533134382E+04  0.16533134382E+04  0.00000000000E+00 0.  1.
         23    2    1    2    0    0 -0.66624555572E+00  0.43270468235E+03 -0.15960827748E+04  0.16562581083E+04  0.92070143829E+02 0.  0.
         11    1    3    3    0    0  0.19320290070E+02  0.40991538275E+03 -0.15182146819E+04  0.15726982276E+04  0.00000000000E+00 0. -1.
        -11    1    3    3    0    0 -0.19986535626E+02  0.22789299603E+02 -0.77868092835E+02  0.83559880712E+02  0.00000000000E+00 0.  1.
         22    1    1    2    0    0  0.66624555572E+00 -0.43270468235E+03  0.16973698529E+04  0.17516558462E+04  0.00000000000E+00 0. -1.
<mgrwt>
<rscale>  0 0.34064084E+04</rscale>
<asrwt>0</asrwt>
<pdfrwt beam="1">  1        2 0.25435591E+00 0.34064084E+04</pdfrwt>
<pdfrwt beam="2">  1       -2 0.26993854E+00 0.34064084E+04</pdfrwt>
<totfact> 0.41822140E-01</totfact>
</mgrwt>
</event>
<event>
 6    1  0.1719556E-004  0.1909080E+04  0.7818608E-02  0.8650350E-01
         -3   -1    0    0    0  501 -0.00000000000E+00  0.00000000000E+00  0.61461276904E+03  0.61461276904E+03  0.00000000000E+00 0.  1.
          3   -1    0    0  501    0  0.00000000000E+00 -0.00000000000E+00 -0.14824729354E+04  0.14824729354E+04  0.00000000000E+00 0. -1.
         23    2    1    2    0    0 -0.89580472087E+03 -0.16703798294E+03 -0.13105751973E+03  0.92522994293E+03  0.92231166880E+02 0.  0.
         11    1    3    3    0    0 -0.87179639035E+03 -0.17274358363E+03 -0.13845959304E+03  0.89946670356E+03  0.00000000000E+00 0. -1.
        -11    1    3    3    0    0 -0.24008330523E+02  0.57056006873E+01  0.74020733120E+01  0.25763239373E+02  0.00000000000E+00 0.  1.
         22    1    1    2    0    0  0.89580472087E+03  0.16703798294E+03 -0.73680264662E+03  0.11718557615E+04  0.00000000000E+00 0. -1.
<mgrwt>
<rscale>  0 0.19090802E+04</rscale>
<asrwt>0</asrwt>
<pdfrwt beam="1">  1        3 0.22807276E+00 0.19090802E+04</pdfrwt>
<pdfrwt beam="2">  1       -3 0.94555812E-01 0.19090802E+04</pdfrwt>
<totfact> 0.24169591E-01</totfact>
</mgrwt>
</event>
<event>
 6    1  0.1719556E-004  0.3693789E+04  0.7818608E-02  0.8069340E-01
         -2   -1    0    0    0  501 -0.00000000000E+00  0.00000000000E+00  0.10292375106E+04  0.10292375106E+04  0.00000000000E+00 0. -1.
          2   -1    0    0  501    0  0.00000000000E+00 -0.00000000000E+00 -0.33141233116E+04  0.33141233116E+04  0.00000000000E+00 0.  1.
         23    2    1    2    0    0  0.87690506348E+02 -0.11878547081E+04 -0.28011371636E+04  0.30452067859E+04  0.90700206391E+02 0.  0.
         13    1    3    3    0    0  0.10460078647E+03 -0.93864830121E+03 -0.21872237235E+04  0.23824251456E+04  0.00000000000E+00 0. -1.
        -13    1    3    3    0    0 -0.16910280122E+02 -0.24920640687E+03 -0.61391344007E+03  0.66278164028E+03  0.00000000000E+00 0.  1.
         22    1    1    2    0    0 -0.87690506348E+02  0.11878547081E+04  0.51625136262E+03  0.12981540362E+04  0.00000000000E+00 0. -1.
<mgrwt>
<rscale>  0 0.36937894E+04</rscale>
<asrwt>0</asrwt>
<pdfrwt beam="1">  1        2 0.50986513E+00 0.36937894E+04</pdfrwt>
<pdfrwt beam="2">  1       -2 0.15834423E+00 0.36937894E+04</pdfrwt>
<totfact> 0.22812582E-01</totfact>
</mgrwt>
</event>
<event>
 6    1  0.1719556E-004  0.2730108E+04  0.7818608E-02  0.8325302E-01
         -2   -1    0    0    0  501 -0.00000000000E+00  0.00000000000E+00  0.14357978545E+04  0.14357978545E+04  0.00000000000E+00 0. -1.
          2   -1    0    0  501    0  0.00000000000E+00 -0.00000000000E+00 -0.12977958399E+04  0.12977958399E+04  0.00000000000E+00 0.  1.
         23    2    1    2    0    0  0.95881494991E+03 -0.92110672466E+03  0.37440679023E+03  0.13831674934E+04  0.72167608562E+02 0.  0.
         13    1    3    3    0    0  0.81686384013E+03 -0.80532948244E+03  0.30185839843E+03  0.11861452699E+04  0.00000000000E+00 0.  1.
        -13    1    3    3    0    0  0.14195110978E+03 -0.11577724221E+03  0.72548391801E+02  0.19702222346E+03  0.00000000000E+00 0. -1.
         22    1    1    2    0    0 -0.95881494991E+03  0.92110672466E+03 -0.23640477565E+03  0.13504262010E+04  0.00000000000E+00 0. -1.
<mgrwt>
<rscale>  0 0.27301080E+04</rscale>
<asrwt>0</asrwt>
<pdfrwt beam="1">  1        2 0.19966090E+00 0.27301080E+04</pdfrwt>
<pdfrwt beam="2">  1       -2 0.22089198E+00 0.27301080E+04</pdfrwt>
<totfact> 0.14156185E+00</totfact>
</mgrwt>
</event>
<event>
 6    1  0.1719556E-004  0.7941520E+03  0.7818608E-02  0.9568521E-01
         -2   -1    0    0    0  501 -0.00000000000E+00  0.00000000000E+00  0.16159658172E+03  0.16159658172E+03  0.00000000000E+00 0. -1.
          2   -1    0    0  501    0  0.00000000000E+00 -0.00000000000E+00 -0.97569740569E+03  0.97569740569E+03  0.00000000000E+00 0.  1.
         23    2    1    2    0    0  0.22274456431E+03  0.23823849579E+03 -0.10098747315E+03  0.35313623993E+03  0.90188759906E+02 0.  0.
         11    1    3    3    0    0  0.23546649169E+02  0.74133807262E+02 -0.56039861746E+01  0.77985067336E+02  0.00000000000E+00 0.  1.
        -11    1    3    3    0    0  0.19919791514E+03  0.16410468853E+03 -0.95383486971E+02  0.27515117259E+03  0.00000000000E+00 0. -1.
         22    1    1    2    0    0 -0.22274456431E+03 -0.23823849579E+03 -0.71311335083E+03  0.78415774748E+03  0.00000000000E+00 0.  1.
<mgrwt>
<rscale>  0 0.79415204E+03</rscale>
<asrwt>0</asrwt>
<pdfrwt beam="1">  1        2 0.15010729E+00 0.79415204E+03</pdfrwt>
<pdfrwt beam="2">  1       -2 0.24861012E-01 0.79415204E+03</pdfrwt>
<totfact> 0.37996563E+02</totfact>
</mgrwt>
</event>
<event>
 6    1  0.1719556E-004  0.1592265E+04  0.7818608E-02  0.8825314E-01
          2   -1    0    0  501    0  0.00000000000E+00  0.00000000000E+00  0.56628886719E+03  0.56628886719E+03  0.00000000000E+00 0.  1.
         -2   -1    0    0    0  501 -0.00000000000E+00 -0.00000000000E+00 -0.11192638596E+04  0.11192638596E+04  0.00000000000E+00 0. -1.
         23    2    1    2    0    0 -0.50992593937E+03  0.53602453310E+03  0.25134493948E+02  0.74663987571E+03  0.97429961953E+02 0.  0.
         11    1    3    3    0    0 -0.38800357010E+03  0.34290058960E+03  0.19728036710E+02  0.51818604785E+03  0.00000000000E+00 0. -1.
        -11    1    3    3    0    0 -0.12192236927E+03  0.19312394351E+03  0.54064572375E+01  0.22845382786E+03  0.00000000000E+00 0.  1.
         22    1    1    2    0    0  0.50992593937E+03 -0.53602453310E+03 -0.57810948637E+03  0.93891285110E+03  0.00000000000E+00 0. -1.
<mgrwt>
<rscale>  0 0.15922646E+04</rscale>
<asrwt>0</asrwt>
<pdfrwt beam="1">  1        2 0.87121364E-01 0.15922646E+04</pdfrwt>
<pdfrwt beam="2">  1       -2 0.17219444E+00 0.15922646E+04</pdfrwt>
<totfact> 0.10480527E+01</totfact>
</mgrwt>
</event>
<event>
 6    1  0.1719556E-004  0.2744571E+04  0.7818608E-02  0.8320687E-01
          2   -1    0    0  501    0  0.00000000000E+00  0.00000000000E+00  0.18058888985E+04  0.18058888985E+04  0.00000000000E+00 0.  1.
         -2   -1    0    0    0  501 -0.00000000000E+00 -0.00000000000E+00 -0.10427923774E+04  0.10427923774E+04  0.00000000000E+00 0. -1.
         23    2    1    2    0    0  0.12454777547E+04 -0.90449257154E+02  0.96851367457E+03  0.15831410305E+04  0.94450405479E+02 0.  0.
         13    1    3    3    0    0  0.67004762639E+03 -0.39551724918E+02  0.57874251949E+03  0.88626805451E+03  0.00000000000E+00 0.  1.
        -13    1    3    3    0    0  0.57543012832E+03 -0.50897532236E+02  0.38977115508E+03  0.69687297601E+03  0.00000000000E+00 0. -1.
         22    1    1    2    0    0 -0.12454777547E+04  0.90449257154E+02 -0.20541715344E+03  0.12655402453E+04  0.00000000000E+00 0. -1.
<mgrwt>
<rscale>  0 0.27445708E+04</rscale>
<asrwt>0</asrwt>
<pdfrwt beam="1">  1        2 0.27782906E+00 0.27445708E+04</pdfrwt>
<pdfrwt beam="2">  1       -2 0.16042960E+00 0.27445708E+04</pdfrwt>
<totfact> 0.18721766E+00</totfact>
</mgrwt>
</event>
<event>
 6    1  0.1719556E-004  0.1550514E+04  0.7818608E-02  0.8851539E-01
          2   -1    0    0  501    0  0.00000000000E+00  0.00000000000E+00  0.52272640857E+03  0.52272640857E+03  0.00000000000E+00 0.  1.
         -2   -1    0    0    0  501 -0.00000000000E+00 -0.00000000000E+00 -0.11497859492E+04  0.11497859492E+04  0.00000000000E+00 0. -1.
         23    2    1    2    0    0  0.12714355790E+02  0.51714762010E+03 -0.93345159827E+03  0.10712807810E+04  0.93312966280E+02 0.  0.
         11    1    3    3    0    0  0.24433359554E+02  0.33680205517E+03 -0.68872180485E+03  0.76705302157E+03  0.00000000000E+00 0. -1.
        -11    1    3    3    0    0 -0.11719003763E+02  0.18034556492E+03 -0.24472979342E+03  0.30422775946E+03  0.00000000000E+00 0.  1.
         22    1    1    2    0    0 -0.12714355790E+02 -0.51714762010E+03  0.30639205767E+03  0.60123157670E+03  0.00000000000E+00 0.  1.
<mgrwt>
<rscale>  0 0.15505141E+04</rscale>
<asrwt>0</asrwt>
<pdfrwt beam="1">  1        2 0.80419448E-01 0.15505141E+04</pdfrwt>
<pdfrwt beam="2">  1       -2 0.17689014E+00 0.15505141E+04</pdfrwt>
<totfact> 0.10712533E+01</totfact>
</mgrwt>
</event>
<event>
 6    1  0.1719556E-004  0.6395962E+04  0.7818608E-02  0.7643156E-01
          1   -1    0    0  501    0  0.00000000000E+00  0.00000000000E+00  0.34321344319E+04  0.34321344319E+04  0.00000000000E+00 0.  1.
         -1   -1    0    0    0  501 -0.00000000000E+00 -0.00000000000E+00 -0.29798025972E+04  0.29798025972E+04  0.00000000000E+00 0. -1.
         23    2    1    2    0    0 -0.28075029586E+04 -0.15214483028E+04  0.38836208349E+03  0.32180412998E+04  0.89927184469E+02 0.  0.
         11    1    3    3    0    0 -0.15852386599E+04 -0.89815903109E+03  0.25003719316E+03  0.18390730959E+04  0.00000000000E+00 0.  1.
        -11    1    3    3    0    0 -0.12222642987E+04 -0.62328927174E+03  0.13832489034E+03  0.13789682039E+04  0.00000000000E+00 0. -1.
         22    1    1    2    0    0  0.28075029586E+04  0.15214483028E+04  0.63969751289E+02  0.31938957293E+04  0.00000000000E+00 0. -1.
<mgrwt>
<rscale>  0 0.63959622E+04</rscale>
<asrwt>0</asrwt>
<pdfrwt beam="1">  1        1 0.52802068E+00 0.63959622E+04</pdfrwt>
<pdfrwt beam="2">  1       -1 0.45843117E+00 0.63959622E+04</pdfrwt>
<totfact> 0.52088692E-04</totfact>
</mgrwt>
</event>
<event>
 6    1  0.1719556E-004  0.4664069E+04  0.7818608E-02  0.7882526E-01
          2   -1    0    0  501    0  0.00000000000E+00  0.00000000000E+00  0.34045476841E+04  0.34045476841E+04  0.00000000000E+00 0.  1.
         -2   -1    0    0    0  501 -0.00000000000E+00 -0.00000000000E+00 -0.15973883942E+04  0.15973883942E+04  0.00000000000E+00 0. -1.
         23    2    1    2    0    0 -0.19775225553E+04 -0.80188533129E+03 -0.10242643158E+03  0.21383486134E+04  0.91804561959E+02 0.  0.
         11    1    3    3    0    0 -0.13714789882E+04 -0.58111257940E+03 -0.36171792619E+02  0.14899512890E+04  0.00000000000E+00 0.  1.
        -11    1    3    3    0    0 -0.60604356707E+03 -0.22077275189E+03 -0.66254638960E+02  0.64839732444E+03  0.00000000000E+00 0. -1.
         22    1    1    2    0    0  0.19775225553E+04  0.80188533129E+03  0.19095857215E+04  0.28635874648E+04  0.00000000000E+00 0.  1.
<mgrwt>
<rscale>  0 0.46640690E+04</rscale>
<asrwt>0</asrwt>
<pdfrwt beam="1">  1        2 0.52377657E+00 0.46640690E+04</pdfrwt>
<pdfrwt beam="2">  1       -2 0.24575206E+00 0.46640690E+04</pdfrwt>
<totfact> 0.48233921E-02</totfact>
</mgrwt>
</event>
<event>
 6    1  0.1719556E-004  0.1180848E+04  0.7818608E-02  0.9129788E-01
         -2   -1    0    0    0  501 -0.00000000000E+00  0.00000000000E+00  0.28274165228E+03  0.28274165228E+03  0.00000000000E+00 0.  1.
          2   -1    0    0  501    0  0.00000000000E+00 -0.00000000000E+00 -0.12329288216E+04  0.12329288216E+04  0.00000000000E+00 0. -1.
         23    2    1    2    0    0 -0.28700079818E+03  0.55309585732E+02 -0.11311987360E+04  0.11718772282E+04  0.90868307077E+02 0.  0.
         13    1    3    3    0    0 -0.69623872603E+02  0.38983256335E+02 -0.43806327303E+03  0.44527138813E+03  0.00000000000E+00 0. -1.
        -13    1    3    3    0    0 -0.21737692558E+03  0.16326329397E+02 -0.69313546301E+03  0.72660584012E+03  0.00000000000E+00 0.  1.
         22    1    1    2    0    0  0.28700079818E+03 -0.55309585732E+02  0.18101156674E+03  0.34379324561E+03  0.00000000000E+00 0.  1.
<mgrwt>
<rscale>  0 0.11808477E+04</rscale>
<asrwt>0</asrwt>
<pdfrwt beam="1">  1        2 0.18968136E+00 0.11808477E+04</pdfrwt>
<pdfrwt beam="2">  1       -2 0.43498716E-01 0.11808477E+04</pdfrwt>
<totfact> 0.89586494E+01</totfact>
</mgrwt>
</event>
<event>
 6    1  0.1719556E-004  0.1112404E+04  0.7818608E-02  0.9193186E-01
          2   -1    0    0  501    0  0.00000000000E+00  0.00000000000E+00  0.18659525173E+04  0.18659525173E+04  0.00000000000E+00 0.  1.
         -2   -1    0    0    0  501 -0.00000000000E+00 -0.00000000000E+00 -0.16579237452E+03  0.16579237452E+03  0.00000000000E+00 0. -1.
         23    2    1    2    0    0 -0.47910326025E+03 -0.26091673291E+03  0.69381086225E+03  0.88703691599E+03  0.88563549318E+02 0.  0.
         13    1    3    3    0    0 -0.43747137877E+03 -0.26352148054E+03  0.63391964702E+03  0.81405091783E+03  0.00000000000E+00 0. -1.
        -13    1    3    3    0    0 -0.41631881482E+02  0.26047476312E+01  0.59891215228E+02  0.72985998160E+02  0.00000000000E+00 0.  1.
         22    1    1    2    0    0  0.47910326025E+03  0.26091673291E+03  0.10063492805E+04  0.11447079758E+04  0.00000000000E+00 0.  1.
<mgrwt>
<rscale>  0 0.11124041E+04</rscale>
<asrwt>0</asrwt>
<pdfrwt beam="1">  1        2 0.28706960E+00 0.11124041E+04</pdfrwt>
<pdfrwt beam="2">  1       -2 0.25506520E-01 0.11124041E+04</pdfrwt>
<totfact> 0.10894741E+02</totfact>
</mgrwt>
</event>
<event>
 6    1  0.1719556E-004  0.1462498E+04  0.7818608E-02  0.8909782E-01
          2   -1    0    0  501    0  0.00000000000E+00  0.00000000000E+00  0.12708583292E+04  0.12708583292E+04  0.00000000000E+00 0.  1.
         -2   -1    0    0    0  501 -0.00000000000E+00 -0.00000000000E+00 -0.42075898291E+03  0.42075898291E+03  0.00000000000E+00 0. -1.
         23    2    1    2    0    0  0.38958009899E+03 -0.60669835082E+03  0.54615322178E+03  0.90916041938E+03  0.91835636243E+02 0.  0.
         11    1    3    3    0    0  0.53853226408E+02 -0.92679956905E+02  0.12491357795E+03  0.16459995857E+03  0.00000000000E+00 0.  1.
        -11    1    3    3    0    0  0.33572687258E+03 -0.51401839392E+03  0.42123964383E+03  0.74456046080E+03  0.00000000000E+00 0. -1.
         22    1    1    2    0    0 -0.38958009899E+03  0.60669835082E+03  0.30394612454E+03  0.78245689277E+03  0.00000000000E+00 0. -1.
<mgrwt>
<rscale>  0 0.14624979E+04</rscale>
<asrwt>0</asrwt>
<pdfrwt beam="1">  1        2 0.19551667E+00 0.14624979E+04</pdfrwt>
<pdfrwt beam="2">  1       -2 0.64732152E-01 0.14624979E+04</pdfrwt>
<totfact> 0.36694138E+01</totfact>
</mgrwt>
</event>
<event>
 6    1  0.1719556E-004  0.1378332E+04  0.7818608E-02  0.8969654E-01
         -2   -1    0    0    0  501 -0.00000000000E+00  0.00000000000E+00  0.77405110070E+03  0.77405110070E+03  0.00000000000E+00 0.  1.
          2   -1    0    0  501    0  0.00000000000E+00 -0.00000000000E+00 -0.61358985771E+03  0.61358985771E+03  0.00000000000E+00 0. -1.
         23    2    1    2    0    0 -0.43836354774E+03  0.19266209566E+02 -0.45049981547E+03  0.63543938849E+03  0.91100745811E+02 0.  0.
         13    1    3    3    0    0 -0.16750262741E+03  0.27454192507E+02 -0.23129797118E+03  0.28689652202E+03  0.00000000000E+00 0. -1.
        -13    1    3    3    0    0 -0.27086092033E+03 -0.81879829412E+01 -0.21920184430E+03  0.34854286647E+03  0.00000000000E+00 0.  1.
         22    1    1    2    0    0  0.43836354774E+03 -0.19266209566E+02  0.61096105846E+03  0.75220156991E+03  0.00000000000E+00 0.  1.
<mgrwt>
<rscale>  0 0.13783322E+04</rscale>
<asrwt>0</asrwt>
<pdfrwt beam="1">  1        2 0.94398440E-01 0.13783322E+04</pdfrwt>
<pdfrwt beam="2">  1       -2 0.11908478E+00 0.13783322E+04</pdfrwt>
<totfact> 0.25458289E+01</totfact>
</mgrwt>
</event>
<event>
 6    1  0.1719556E-004  0.1057845E+04  0.7818608E-02  0.9247281E-01
         -1   -1    0    0    0  501 -0.00000000000E+00  0.00000000000E+00  0.47256606731E+03  0.47256606731E+03  0.00000000000E+00 0. -1.
          1   -1    0    0  501    0  0.00000000000E+00 -0.00000000000E+00 -0.59200018683E+03  0.59200018683E+03  0.00000000000E+00 0.  1.
         23    2    1    2    0    0 -0.39050517371E+03  0.32260985701E+03 -0.19895894584E+03  0.55183278679E+03  0.91451363657E+02 0.  0.
         11    1    3    3    0    0 -0.63390216742E+02  0.10187799470E+03 -0.41665417395E+02  0.12701752789E+03  0.00000000000E+00 0.  1.
        -11    1    3    3    0    0 -0.32711495697E+03  0.22073186231E+03 -0.15729352845E+03  0.42481525891E+03  0.00000000000E+00 0. -1.
         22    1    1    2    0    0  0.39050517371E+03 -0.32260985701E+03  0.79524826328E+02  0.51273346735E+03  0.00000000000E+00 0. -1.
<mgrwt>
<rscale>  0 0.10578454E+04</rscale>
<asrwt>0</asrwt>
<pdfrwt beam="1">  1        1 0.91076951E-01 0.10578454E+04</pdfrwt>
<pdfrwt beam="2">  1       -1 0.72702472E-01 0.10578454E+04</pdfrwt>
<totfact> 0.66595100E+01</totfact>
</mgrwt>
</event>
<event>
 6    1  0.1719556E-004  0.2309957E+04  0.7818608E-02  0.8474005E-01
          1   -1    0    0  501    0  0.00000000000E+00  0.00000000000E+00  0.39393942059E+04  0.39393942059E+04  0.00000000000E+00 0.  1.
         -1   -1    0    0    0  501 -0.00000000000E+00 -0.00000000000E+00 -0.33862456172E+03  0.33862456172E+03  0.00000000000E+00 0. -1.
         23    2    1    2    0    0  0.31134367147E+03 -0.11064551073E+04  0.19751005039E+04  0.22870446493E+04  0.91506507782E+02 0.  0.
         11    1    3    3    0    0  0.16779066243E+03 -0.74669358949E+03  0.12825765171E+04  0.14935553372E+04  0.00000000000E+00 0.  1.
        -11    1    3    3    0    0  0.14355300904E+03 -0.35976151782E+03  0.69252398678E+03  0.79348931207E+03  0.00000000000E+00 0. -1.
         22    1    1    2    0    0 -0.31134367147E+03  0.11064551073E+04  0.16256691402E+04  0.19909741183E+04  0.00000000000E+00 0. -1.
<mgrwt>
<rscale>  0 0.23099573E+04</rscale>
<asrwt>0</asrwt>
<pdfrwt beam="1">  1        1 0.60606061E+00 0.23099573E+04</pdfrwt>
<pdfrwt beam="2">  1       -1 0.52096089E-01 0.23099573E+04</pdfrwt>
<totfact> 0.36469473E-01</totfact>
</mgrwt>
</event>
<event>
 6    1  0.1719556E-004  0.9004248E+03  0.7818608E-02  0.9425051E-01
          2   -1    0    0  501    0  0.00000000000E+00  0.00000000000E+00  0.27378056348E+04  0.27378056348E+04  0.00000000000E+00 0.  1.
         -2   -1    0    0    0  501 -0.00000000000E+00 -0.00000000000E+00 -0.74034188125E+02  0.74034188125E+02  0.00000000000E+00 0. -1.
         23    2    1    2    0    0 -0.23661926939E+03  0.18556153777E+03  0.23724447151E+04  0.23931597213E+04  0.91092055822E+02 0.  0.
         13    1    3    3    0    0 -0.10811349007E+03  0.40431435816E+02  0.10991227846E+04  0.11051670115E+04  0.00000000000E+00 0.  1.
        -13    1    3    3    0    0 -0.12850577932E+03  0.14513010196E+03  0.12733219305E+04  0.12879927098E+04  0.00000000000E+00 0. -1.
         22    1    1    2    0    0  0.23661926939E+03 -0.18556153777E+03  0.29132673158E+03  0.41868010160E+03  0.00000000000E+00 0. -1.
<mgrwt>
<rscale>  0 0.90042483E+03</rscale>
<asrwt>0</asrwt>
<pdfrwt beam="1">  1        2 0.42120079E+00 0.90042483E+03</pdfrwt>
<pdfrwt beam="2">  1       -2 0.11389877E-01 0.90042483E+03</pdfrwt>
<totfact> 0.14394373E+02</totfact>
</mgrwt>
</event>
<event>
 6    1  0.1719556E-004  0.1574547E+04  0.7818608E-02  0.8836339E-01
          1   -1    0    0  501    0  0.00000000000E+00  0.00000000000E+00  0.70390720647E+03  0.70390720647E+03  0.00000000000E+00 0. -1.
         -1   -1    0    0    0  501 -0.00000000000E+00 -0.00000000000E+00 -0.88051264149E+03  0.88051264149E+03  0.00000000000E+00 0.  1.
         23    2    1    2    0    0 -0.15245921189E+03 -0.58330959583E+03  0.41683576854E+03  0.73844918774E+03  0.89784458887E+02 0.  0.
         11    1    3    3    0    0 -0.20816238409E+02 -0.15545739390E+03  0.68080603170E+02  0.17098329049E+03  0.00000000000E+00 0. -1.
        -11    1    3    3    0    0 -0.13164297348E+03 -0.42785220193E+03  0.34875516537E+03  0.56746589724E+03  0.00000000000E+00 0.  1.
         22    1    1    2    0    0  0.15245921189E+03  0.58330959583E+03 -0.59344120356E+03  0.84597066023E+03  0.00000000000E+00 0.  1.
<mgrwt>
<rscale>  0 0.15745465E+04</rscale>
<asrwt>0</asrwt>
<pdfrwt beam="1">  1        1 0.10829342E+00 0.15745465E+04</pdfrwt>
<pdfrwt beam="2">  1       -1 0.13546348E+00 0.15745465E+04</pdfrwt>
<totfact> 0.11862292E+01</totfact>
</mgrwt>
</event>
<event>
 6    1  0.1719556E-004  0.8431295E+03  0.7818608E-02  0.9499605E-01
          2   -1    0    0  501    0  0.00000000000E+00  0.00000000000E+00  0.15577521231E+04  0.15577521231E+04  0.00000000000E+00 0.  1.
         -2   -1    0    0    0  501 -0.00000000000E+00 -0.00000000000E+00 -0.11408544370E+03  0.11408544370E+03  0.00000000000E+00 0. -1.
         23    2    1    2    0    0  0.24321564185E+03  0.26183841855E+03  0.30479813593E+03  0.47821502798E+03  0.89858240873E+02 0.  0.
         11    1    3    3    0    0  0.14778354851E+03  0.11559113037E+03  0.20148384260E+03  0.27531259589E+03  0.00000000000E+00 0. -1.
        -11    1    3    3    0    0  0.95432093341E+02  0.14624728819E+03  0.10331429332E+03  0.20290243209E+03  0.00000000000E+00 0.  1.
         22    1    1    2    0    0 -0.24321564185E+03 -0.26183841855E+03  0.11388685435E+04  0.11936225388E+04  0.00000000000E+00 0.  1.
<mgrwt>
<rscale>  0 0.84312951E+03</rscale>
<asrwt>0</asrwt>
<pdfrwt beam="1">  1        2 0.23965416E+00 0.84312951E+03</pdfrwt>
<pdfrwt beam="2">  1       -2 0.17551608E-01 0.84312951E+03</pdfrwt>
<totfact> 0.31803773E+02</totfact>
</mgrwt>
</event>
<event>
 6    1  0.1719556E-004  0.4152619E+04  0.7818608E-02  0.7974447E-01
         -2   -1    0    0    0  501 -0.00000000000E+00  0.00000000000E+00  0.14429663238E+04  0.14429663238E+04  0.00000000000E+00 0. -1.
          2   -1    0    0  501    0  0.00000000000E+00 -0.00000000000E+00 -0.29876377588E+04  0.29876377588E+04  0.00000000000E+00 0.  1.
         23    2    1    2    0    0 -0.15389137852E+04  0.10436254604E+04  0.21066433378E+03  0.18735328279E+04  0.91302003646E+02 0.  0.
         11    1    3    3    0    0 -0.55334663090E+03  0.40119063170E+03  0.11614281027E+03  0.69327885390E+03  0.00000000000E+00 0.  1.
        -11    1    3    3    0    0 -0.98556715431E+03  0.64243482872E+03  0.94521523517E+02  0.11802539740E+04  0.00000000000E+00 0. -1.
         22    1    1    2    0    0  0.15389137852E+04 -0.10436254604E+04 -0.17553357689E+04  0.25570712547E+04  0.00000000000E+00 0. -1.
<mgrwt>
<rscale>  0 0.41526188E+04</rscale>
<asrwt>0</asrwt>
<pdfrwt beam="1">  1        2 0.45963658E+00 0.41526188E+04</pdfrwt>
<pdfrwt beam="2">  1       -2 0.22199482E+00 0.41526188E+04</pdfrwt>
<totfact> 0.13252489E-01</totfact>
</mgrwt>
</event>
<event>
 6    1  0.1719556E-004  0.7538154E+03  0.7818608E-02  0.9629384E-01
          2   -1    0    0  501    0  0.00000000000E+00  0.00000000000E+00  0.66059720313E+03  0.66059720313E+03  0.00000000000E+00 0. -1.
         -2   -1    0    0    0  501 -0.00000000000E+00 -0.00000000000E+00 -0.21504692496E+03  0.21504692496E+03  0.00000000000E+00 0.  1.
         23    2    1    2    0    0  0.46517197121E+02 -0.32882242027E+03  0.41920791052E+03  0.54250458671E+03  0.91038017635E+02 0.  0.
         11    1    3    3    0    0  0.49740416490E+02 -0.29490751464E+03  0.32183022321E+03  0.43933955410E+03  0.00000000000E+00 0. -1.
        -11    1    3    3    0    0 -0.32232193684E+01 -0.33914905626E+02  0.97377687310E+02  0.10316503261E+03  0.00000000000E+00 0.  1.
         22    1    1    2    0    0 -0.46517197121E+02  0.32882242027E+03  0.26342367641E+02  0.33313954138E+03  0.00000000000E+00 0.  1.
<mgrwt>
<rscale>  0 0.75381535E+03</rscale>
<asrwt>0</asrwt>
<pdfrwt beam="1">  1        2 0.10163034E+00 0.75381535E+03</pdfrwt>
<pdfrwt beam="2">  1       -2 0.33084143E-01 0.75381535E+03</pdfrwt>
<totfact> 0.37806593E+02</totfact>
</mgrwt>
</event>
<event>
 6    1  0.1719556E-004  0.3429652E+04  0.7818608E-02  0.8130667E-01
         -2   -1    0    0    0  501 -0.00000000000E+00  0.00000000000E+00  0.65587908704E+03  0.65587908704E+03  0.00000000000E+00 0. -1.
          2   -1    0    0  501    0  0.00000000000E+00 -0.00000000000E+00 -0.44834903924E+04  0.44834903924E+04  0.00000000000E+00 0.  1.
         23    2    1    2    0    0  0.37836808139E+03  0.16616940647E+04 -0.21835692865E+04  0.27714033206E+04  0.91169986900E+02 0.  0.
         13    1    3    3    0    0  0.20904936427E+03  0.83139068394E+03 -0.10309971205E+04  0.13408456915E+04  0.00000000000E+00 0.  1.
        -13    1    3    3    0    0  0.16931871712E+03  0.83030338079E+03 -0.11525721660E+04  0.14305576290E+04  0.00000000000E+00 0. -1.
         22    1    1    2    0    0 -0.37836808139E+03 -0.16616940647E+04 -0.16440420188E+04  0.23679661588E+04  0.00000000000E+00 0. -1.
<mgrwt>
<rscale>  0 0.34296516E+04</rscale>
<asrwt>0</asrwt>
<pdfrwt beam="1">  1        2 0.68976774E+00 0.34296516E+04</pdfrwt>
<pdfrwt beam="2">  1       -2 0.10090448E+00 0.34296516E+04</pdfrwt>
<totfact> 0.84979890E-02</totfact>
</mgrwt>
</event>
<event>
 6    1  0.1719556E-004  0.1970120E+04  0.7818608E-02  0.8620719E-01
          2   -1    0    0  501    0  0.00000000000E+00  0.00000000000E+00  0.22759143552E+04  0.22759143552E+04  0.00000000000E+00 0. -1.
         -2   -1    0    0    0  501 -0.00000000000E+00 -0.00000000000E+00 -0.42635305598E+03  0.42635305598E+03  0.00000000000E+00 0.  1.
         23    2    1    2    0    0  0.42036280518E+03  0.78583882632E+02  0.21407362378E+04  0.21849056814E+04  0.90448229944E+02 0.  0.
         11    1    3    3    0    0  0.96631558026E+02  0.18246430625E+02  0.70894383340E+03  0.71573175782E+03  0.00000000000E+00 0.  1.
        -11    1    3    3    0    0  0.32373124715E+03  0.60337452006E+02  0.14317924044E+04  0.14691739236E+04  0.00000000000E+00 0. -1.
         22    1    1    2    0    0 -0.42036280518E+03 -0.78583882632E+02 -0.29117493856E+03  0.51736172977E+03  0.00000000000E+00 0.  1.
<mgrwt>
<rscale>  0 0.19701198E+04</rscale>
<asrwt>0</asrwt>
<pdfrwt beam="1">  1        2 0.35014066E+00 0.19701198E+04</pdfrwt>
<pdfrwt beam="2">  1       -2 0.65592779E-01 0.19701198E+04</pdfrwt>
<totfact> 0.93293869E+00</totfact>
</mgrwt>
</event>
<event>
 6    1  0.1719556E-004  0.2619054E+04  0.7818608E-02  0.8361758E-01
          2   -1    0    0  501    0  0.00000000000E+00  0.00000000000E+00  0.11798738470E+04  0.11798738470E+04  0.00000000000E+00 0.  1.
         -2   -1    0    0    0  501 -0.00000000000E+00 -0.00000000000E+00 -0.14534278802E+04  0.14534278802E+04  0.00000000000E+00 0. -1.
         23    2    1    2    0    0 -0.10834318868E+04  0.48961475920E+03 -0.68506458694E+03  0.13751728777E+04  0.90772735886E+02 0.  0.
         11    1    3    3    0    0 -0.71620195456E+03  0.30776466684E+03 -0.49534669197E+03  0.92359768033E+03  0.00000000000E+00 0. -1.
        -11    1    3    3    0    0 -0.36722993227E+03  0.18185009236E+03 -0.18971789497E+03  0.45157519742E+03  0.00000000000E+00 0.  1.
         22    1    1    2    0    0  0.10834318868E+04 -0.48961475920E+03  0.41151055377E+03  0.12581288494E+04  0.00000000000E+00 0. -1.
<mgrwt>
<rscale>  0 0.26190544E+04</rscale>
<asrwt>0</asrwt>
<pdfrwt beam="1">  1        2 0.18151905E+00 0.26190544E+04</pdfrwt>
<pdfrwt beam="2">  1       -2 0.22360429E+00 0.26190544E+04</pdfrwt>
<totfact> 0.16129896E+00</totfact>
</mgrwt>
</event>
<event>
 6    1  0.1719556E-004  0.5851118E+04  0.7818608E-02  0.7709140E-01
         -2   -1    0    0    0  501 -0.00000000000E+00  0.00000000000E+00  0.43881706409E+04  0.43881706409E+04  0.00000000000E+00 0. -1.
          2   -1    0    0  501    0  0.00000000000E+00 -0.00000000000E+00 -0.19504471805E+04  0.19504471805E+04  0.00000000000E+00 0.  1.
         23    2    1    2    0    0  0.21480263921E+04  0.19772098673E+04  0.10303494908E+04  0.30976183257E+04  0.10120759748E+03 0.  0.
         11    1    3    3    0    0  0.58491884210E+03  0.58267021464E+03  0.32522424410E+03  0.88735868724E+03  0.00000000000E+00 0. -1.
        -11    1    3    3    0    0  0.15631075500E+04  0.13945396527E+04  0.70512524675E+03  0.22102596385E+04  0.00000000000E+00 0.  1.
         22    1    1    2    0    0 -0.21480263921E+04 -0.19772098673E+04  0.14073739696E+04  0.32409994957E+04  0.00000000000E+00 0.  1.
<mgrwt>
<rscale>  0 0.58511179E+04</rscale>
<asrwt>0</asrwt>
<pdfrwt beam="1">  1        2 0.30006880E+00 0.58511179E+04</pdfrwt>
<pdfrwt beam="2">  1       -2 0.67510317E+00 0.58511179E+04</pdfrwt>
<totfact> 0.13681726E-03</totfact>
</mgrwt>
</event>
<event>
 6    1  0.1719556E-004  0.1122279E+04  0.7818608E-02  0.9183745E-01
         -2   -1    0    0    0  501 -0.00000000000E+00  0.00000000000E+00  0.10364058083E+03  0.10364058083E+03  0.00000000000E+00 0. -1.
          2   -1    0    0  501    0  0.00000000000E+00 -0.00000000000E+00 -0.30381677753E+04  0.30381677753E+04  0.00000000000E+00 0.  1.
         23    2    1    2    0    0  0.21692916138E+03  0.42731778546E+03 -0.68018154773E+03  0.83708862353E+03  0.91715183823E+02 0.  0.
         11    1    3    3    0    0  0.10248328512E+03  0.18741099885E+03 -0.22692743062E+03  0.31164365064E+03  0.00000000000E+00 0.  1.
        -11    1    3    3    0    0  0.11444587626E+03  0.23990678661E+03 -0.45325411711E+03  0.52544497289E+03  0.00000000000E+00 0. -1.
         22    1    1    2    0    0 -0.21692916138E+03 -0.42731778546E+03 -0.22543456467E+04  0.23047197326E+04  0.00000000000E+00 0.  1.
<mgrwt>
<rscale>  0 0.11222789E+04</rscale>
<asrwt>0</asrwt>
<pdfrwt beam="1">  1        2 0.46741044E+00 0.11222789E+04</pdfrwt>
<pdfrwt beam="2">  1       -2 0.15944704E-01 0.11222789E+04</pdfrwt>
<totfact> 0.52670736E+01</totfact>
</mgrwt>
</event>
<event>
 6    1  0.1719556E-004  0.9020032E+03  0.7818608E-02  0.9423081E-01
         -1   -1    0    0    0  501 -0.00000000000E+00  0.00000000000E+00  0.30807783563E+03  0.30807783563E+03  0.00000000000E+00 0. -1.
          1   -1    0    0  501    0  0.00000000000E+00 -0.00000000000E+00 -0.66023074004E+03  0.66023074004E+03  0.00000000000E+00 0.  1.
         23    2    1    2    0    0 -0.22495144223E+03  0.19532121812E+03  0.17784795432E+03  0.36031643766E+03  0.97182872877E+02 0.  0.
         13    1    3    3    0    0 -0.16154241281E+03  0.77529750356E+02  0.92702767880E+02  0.20174393795E+03  0.00000000000E+00 0.  1.
        -13    1    3    3    0    0 -0.63409029428E+02  0.11779146777E+03  0.85145186444E+02  0.15857249972E+03  0.00000000000E+00 0. -1.
         22    1    1    2    0    0  0.22495144223E+03 -0.19532121812E+03 -0.53000085874E+03  0.60799213801E+03  0.00000000000E+00 0.  1.
<mgrwt>
<rscale>  0 0.90200323E+03</rscale>
<asrwt>0</asrwt>
<pdfrwt beam="1">  1        1 0.10157396E+00 0.90200323E+03</pdfrwt>
<pdfrwt beam="2">  1       -1 0.47396591E-01 0.90200323E+03</pdfrwt>
<totfact> 0.13315093E+02</totfact>
</mgrwt>
</event>
<event>
 6    1  0.1719556E-004  0.9945890E+03  0.7818608E-02  0.9314499E-01
          1   -1    0    0  501    0  0.00000000000E+00  0.00000000000E+00  0.64897795518E+03  0.64897795518E+03  0.00000000000E+00 0.  1.
         -1   -1    0    0    0  501 -0.00000000000E+00 -0.00000000000E+00 -0.38106350718E+03  0.38106350718E+03  0.00000000000E+00 0. -1.
         23    2    1    2    0    0  0.17210488063E+03  0.28989807428E+03  0.50782606853E+03  0.61625580640E+03  0.90680315571E+02 0.  0.
         13    1    3    3    0    0  0.52456996999E+02  0.15399918550E+03  0.29449801618E+03  0.33644697532E+03  0.00000000000E+00 0. -1.
        -13    1    3    3    0    0  0.11964788363E+03  0.13589888878E+03  0.21332805235E+03  0.27980883108E+03  0.00000000000E+00 0.  1.
         22    1    1    2    0    0 -0.17210488063E+03 -0.28989807428E+03 -0.23991162054E+03  0.41378565596E+03  0.00000000000E+00 0. -1.
<mgrwt>
<rscale>  0 0.99458899E+03</rscale>
<asrwt>0</asrwt>
<pdfrwt beam="1">  1        1 0.99842762E-01 0.99458899E+03</pdfrwt>
<pdfrwt beam="2">  1       -1 0.58625155E-01 0.99458899E+03</pdfrwt>
<totfact> 0.90287718E+01</totfact>
</mgrwt>
</event>
<event>
 6    1  0.1719556E-004  0.3843974E+04  0.7818608E-02  0.8036784E-01
         -2   -1    0    0    0  501 -0.00000000000E+00  0.00000000000E+00  0.21199966441E+04  0.21199966441E+04  0.00000000000E+00 0. -1.
          2   -1    0    0  501    0  0.00000000000E+00 -0.00000000000E+00 -0.17424714524E+04  0.17424714524E+04  0.00000000000E+00 0.  1.
         23    2    1    2    0    0 -0.72644784913E+03  0.21359777458E+03  0.19627687258E+04  0.21056677239E+04  0.89582394996E+02 0.  0.
         13    1    3    3    0    0 -0.62662952796E+03  0.21126140921E+03  0.16603468276E+04  0.17871898433E+04  0.00000000000E+00 0.  1.
        -13    1    3    3    0    0 -0.99818321163E+02  0.23363653640E+01  0.30242189824E+03  0.31847788052E+03  0.00000000000E+00 0. -1.
         22    1    1    2    0    0  0.72644784913E+03 -0.21359777458E+03 -0.15852435341E+04  0.17568003726E+04  0.00000000000E+00 0.  1.
<mgrwt>
<rscale>  0 0.38439738E+04</rscale>
<asrwt>0</asrwt>
<pdfrwt beam="1">  1        2 0.26807253E+00 0.38439738E+04</pdfrwt>
<pdfrwt beam="2">  1       -2 0.32615333E+00 0.38439738E+04</pdfrwt>
<totfact> 0.16271994E-01</totfact>
</mgrwt>
</event>
<event>
 6    1  0.1719556E-004  0.1952318E+04  0.7818608E-02  0.8629244E-01
         -1   -1    0    0    0  501 -0.00000000000E+00  0.00000000000E+00  0.52380853629E+03  0.52380853629E+03  0.00000000000E+00 0. -1.
          1   -1    0    0  501    0  0.00000000000E+00 -0.00000000000E+00 -0.18191496475E+04  0.18191496475E+04  0.00000000000E+00 0.  1.
         23    2    1    2    0    0  0.71446201627E+03  0.49465905961E+03 -0.12085864123E+03  0.88194735897E+03  0.89893130451E+02 0.  0.
         13    1    3    3    0    0  0.55262041797E+03  0.36995867390E+03 -0.55051710746E+02  0.66730011060E+03  0.00000000000E+00 0. -1.
        -13    1    3    3    0    0  0.16184159830E+03  0.12470038571E+03 -0.65806930485E+02  0.21464724837E+03  0.00000000000E+00 0.  1.
         22    1    1    2    0    0 -0.71446201627E+03 -0.49465905961E+03 -0.11744824700E+04  0.14610108248E+04  0.00000000000E+00 0.  1.
<mgrwt>
<rscale>  0 0.19523177E+04</rscale>
<asrwt>0</asrwt>
<pdfrwt beam="1">  1        1 0.27986917E+00 0.19523177E+04</pdfrwt>
<pdfrwt beam="2">  1       -1 0.80585930E-01 0.19523177E+04</pdfrwt>
<totfact> 0.56552275E+00</totfact>
</mgrwt>
</event>
<event>
 6    1  0.1719556E-004  0.2789508E+04  0.7818608E-02  0.8306533E-01
          2   -1    0    0  501    0  0.00000000000E+00  0.00000000000E+00  0.18674334073E+04  0.18674334073E+04  0.00000000000E+00 0.  1.
         -2   -1    0    0    0  501 -0.00000000000E+00 -0.00000000000E+00 -0.10417182267E+04  0.10417182267E+04  0.00000000000E+00 0. -1.
         23    2    1    2    0    0 -0.36342949237E+03 -0.48933055594E+03 -0.89330142513E+03  0.10852702015E+04  0.91096570911E+02 0.  0.
         11    1    3    3    0    0 -0.46499211566E+02 -0.84998740236E+02 -0.20142425272E+03  0.22351441140E+03  0.00000000000E+00 0.  1.
        -11    1    3    3    0    0 -0.31693028081E+03 -0.40433181570E+03 -0.69187717241E+03  0.86175579010E+03  0.00000000000E+00 0. -1.
         22    1    1    2    0    0  0.36342949237E+03  0.48933055594E+03  0.17190166057E+04  0.18238814325E+04  0.00000000000E+00 0.  1.
<mgrwt>
<rscale>  0 0.27895085E+04</rscale>
<asrwt>0</asrwt>
<pdfrwt beam="1">  1        2 0.28729745E+00 0.27895085E+04</pdfrwt>
<pdfrwt beam="2">  1       -2 0.16026434E+00 0.27895085E+04</pdfrwt>
<totfact> 0.17290297E+00</totfact>
</mgrwt>
</event>
<event>
 6    1  0.1719556E-004  0.4475011E+03  0.7818608E-02  0.1028470E+00
         -2   -1    0    0    0  501 -0.00000000000E+00  0.00000000000E+00  0.76517137755E+02  0.76517137755E+02  0.00000000000E+00 0. -1.
          2   -1    0    0  501    0  0.00000000000E+00 -0.00000000000E+00 -0.65428877575E+03  0.65428877575E+03  0.00000000000E+00 0.  1.
         23    2    1    2    0    0 -0.88194142178E+02  0.12885733058E+03 -0.54093082294E+03  0.57037005712E+03  0.91287614174E+02 0.  0.
         11    1    3    3    0    0 -0.60983707646E+01  0.88687225017E+02 -0.24388394945E+03  0.25958042069E+03  0.00000000000E+00 0.  1.
        -11    1    3    3    0    0 -0.82095771414E+02  0.40170105559E+02 -0.29704687349E+03  0.31078963644E+03  0.00000000000E+00 0. -1.
         22    1    1    2    0    0  0.88194142178E+02 -0.12885733058E+03 -0.36840815053E+02  0.16043585638E+03  0.00000000000E+00 0. -1.
<mgrwt>
<rscale>  0 0.44750108E+03</rscale>
<asrwt>0</asrwt>
<pdfrwt beam="1">  1        2 0.10065981E+00 0.44750108E+03</pdfrwt>
<pdfrwt beam="2">  1       -2 0.11771867E-01 0.44750108E+03</pdfrwt>
<totfact> 0.23341219E+03</totfact>
</mgrwt>
</event>
<event>
 6    1  0.1719556E-004  0.2219596E+04  0.7818608E-02  0.8510316E-01
          2   -1    0    0  501    0  0.00000000000E+00  0.00000000000E+00  0.23326195758E+04  0.23326195758E+04  0.00000000000E+00 0.  1.
         -2   -1    0    0    0  501 -0.00000000000E+00 -0.00000000000E+00 -0.52801206411E+03  0.52801206411E+03  0.00000000000E+00 0. -1.
         23    2    1    2    0    0 -0.22475553154E+03 -0.10647516494E+04  0.11717590108E+04  0.16017796435E+04  0.92020232064E+02 0.  0.
         11    1    3    3    0    0 -0.40999342463E+02 -0.19920218890E+03  0.27430493302E+03  0.34147570107E+03  0.00000000000E+00 0. -1.
        -11    1    3    3    0    0 -0.18375618908E+03 -0.86554946046E+03  0.89745407782E+03  0.12603039424E+04  0.00000000000E+00 0.  1.
         22    1    1    2    0    0  0.22475553154E+03  0.10647516494E+04  0.63284850085E+03  0.12588519964E+04  0.00000000000E+00 0. -1.
<mgrwt>
<rscale>  0 0.22195957E+04</rscale>
<asrwt>0</asrwt>
<pdfrwt beam="1">  1        2 0.35886455E+00 0.22195957E+04</pdfrwt>
<pdfrwt beam="2">  1       -2 0.81232626E-01 0.22195957E+04</pdfrwt>
<totfact> 0.52936469E+00</totfact>
</mgrwt>
</event>
<event>
 6    1  0.1719556E-004  0.1952182E+04  0.7818608E-02  0.8629309E-01
         -2   -1    0    0    0  501 -0.00000000000E+00  0.00000000000E+00  0.53126978973E+03  0.53126978973E+03  0.00000000000E+00 0. -1.
          2   -1    0    0  501    0  0.00000000000E+00 -0.00000000000E+00 -0.17933524272E+04  0.17933524272E+04  0.00000000000E+00 0.  1.
         23    2    1    2    0    0  0.81580654092E+03 -0.25604701760E+03 -0.11877510124E+04  0.14663532743E+04  0.91318509238E+02 0.  0.
         13    1    3    3    0    0  0.34153378974E+03 -0.67750283589E+02 -0.44055814676E+03  0.56153976808E+03  0.00000000000E+00 0.  1.
        -13    1    3    3    0    0  0.47427275118E+03 -0.18829673401E+03 -0.74719286565E+03  0.90481350621E+03  0.00000000000E+00 0. -1.
         22    1    1    2    0    0 -0.81580654092E+03  0.25604701760E+03 -0.74331625080E+02  0.85826894265E+03  0.00000000000E+00 0. -1.
<mgrwt>
<rscale>  0 0.19521823E+04</rscale>
<asrwt>0</asrwt>
<pdfrwt beam="1">  1        2 0.27590037E+00 0.19521823E+04</pdfrwt>
<pdfrwt beam="2">  1       -2 0.81733814E-01 0.19521823E+04</pdfrwt>
<totfact> 0.10688571E+01</totfact>
</mgrwt>
</event>
<event>
 6    1  0.1719556E-004  0.1538572E+04  0.7818608E-02  0.8859201E-01
          2   -1    0    0  501    0  0.00000000000E+00  0.00000000000E+00  0.59899365027E+03  0.59899365027E+03  0.00000000000E+00 0.  1.
         -2   -1    0    0    0  501 -0.00000000000E+00 -0.00000000000E+00 -0.98799170755E+03  0.98799170755E+03  0.00000000000E+00 0. -1.
         23    2    1    2    0    0  0.49116085502E+03 -0.46284361942E+03 -0.56934665292E+03  0.88842339386E+03  0.98373340062E+02 0.  0.
         11    1    3    3    0    0  0.44214581189E+02 -0.84827071182E+02 -0.97163996650E+02  0.13635029681E+03  0.00000000000E+00 0. -1.
        -11    1    3    3    0    0  0.44694627383E+03 -0.37801654824E+03 -0.47218265627E+03  0.75207309706E+03  0.00000000000E+00 0.  1.
         22    1    1    2    0    0 -0.49116085502E+03  0.46284361942E+03  0.18034859563E+03  0.69856196396E+03  0.00000000000E+00 0.  1.
<mgrwt>
<rscale>  0 0.15385718E+04</rscale>
<asrwt>0</asrwt>
<pdfrwt beam="1">  1        2 0.92152870E-01 0.15385718E+04</pdfrwt>
<pdfrwt beam="2">  1       -2 0.15199872E+00 0.15385718E+04</pdfrwt>
<totfact> 0.13838670E+01</totfact>
</mgrwt>
</event>
<event>
 6    1  0.1719556E-004  0.2174660E+04  0.7818608E-02  0.8529050E-01
          2   -1    0    0  501    0  0.00000000000E+00  0.00000000000E+00  0.26586271183E+04  0.26586271183E+04  0.00000000000E+00 0.  1.
         -2   -1    0    0    0  501 -0.00000000000E+00 -0.00000000000E+00 -0.44469825264E+03  0.44469825264E+03  0.00000000000E+00 0. -1.
         23    2    1    2    0    0 -0.95704485528E+03 -0.40560769775E+03  0.66277061544E+03  0.12360963071E+04  0.90646193083E+02 0.  0.
         13    1    3    3    0    0 -0.67674773021E+03 -0.31436495929E+03  0.51235678562E+03  0.90516423578E+03  0.00000000000E+00 0.  1.
        -13    1    3    3    0    0 -0.28029712507E+03 -0.91242738465E+02  0.15041382982E+03  0.33093207135E+03  0.00000000000E+00 0. -1.
         22    1    1    2    0    0  0.95704485528E+03  0.40560769775E+03  0.15511582502E+04  0.18672290638E+04  0.00000000000E+00 0.  1.
<mgrwt>
<rscale>  0 0.21746603E+04</rscale>
<asrwt>0</asrwt>
<pdfrwt beam="1">  1        2 0.40901955E+00 0.21746603E+04</pdfrwt>
<pdfrwt beam="2">  1       -2 0.68415117E-01 0.21746603E+04</pdfrwt>
<totfact> 0.50320536E+00</totfact>
</mgrwt>
</event>
<event>
 6    1  0.1719556E-004  0.1582270E+04  0.7818608E-02  0.8831515E-01
         -2   -1    0    0    0  501 -0.00000000000E+00  0.00000000000E+00  0.21407487391E+03  0.21407487391E+03  0.00000000000E+00 0. -1.
          2   -1    0    0  501    0  0.00000000000E+00 -0.00000000000E+00 -0.29237183051E+04  0.29237183051E+04  0.00000000000E+00 0.  1.
         23    2    1    2    0    0  0.13846924346E+03  0.40575621685E+01 -0.28986500051E+04  0.29034564977E+04  0.93260853582E+02 0.  0.
         13    1    3    3    0    0  0.20043976764E+02 -0.33882813956E+02 -0.47995120837E+03  0.48156304727E+03  0.00000000000E+00 0.  1.
        -13    1    3    3    0    0  0.11842526670E+03  0.37940376125E+02 -0.24186987967E+04  0.24218934504E+04  0.00000000000E+00 0. -1.
         22    1    1    2    0    0 -0.13846924346E+03 -0.40575621685E+01  0.18900657394E+03  0.23433668127E+03  0.00000000000E+00 0. -1.
<mgrwt>
<rscale>  0 0.15822700E+04</rscale>
<asrwt>0</asrwt>
<pdfrwt beam="1">  1        2 0.44980283E+00 0.15822700E+04</pdfrwt>
<pdfrwt beam="2">  1       -2 0.32934595E-01 0.15822700E+04</pdfrwt>
<totfact> 0.16133275E+01</totfact>
</mgrwt>
</event>
<event>
 6    1  0.1719556E-004  0.1643548E+04  0.7818608E-02  0.8794233E-01
          2   -1    0    0  501    0  0.00000000000E+00  0.00000000000E+00  0.25539230825E+04  0.25539230825E+04  0.00000000000E+00 0.  1.
         -2   -1    0    0    0  501 -0.00000000000E+00 -0.00000000000E+00 -0.26442151957E+03  0.26442151957E+03  0.00000000000E+00 0. -1.
         23    2    1    2    0    0  0.24309334307E+03 -0.58226888418E+03  0.20443153134E+04  0.21414046314E+04  0.90869510556E+02 0.  0.
         11    1    3    3    0    0  0.54608376803E+02 -0.24601008379E+03  0.81263136527E+03  0.85080712971E+03  0.00000000000E+00 0. -1.
        -11    1    3    3    0    0  0.18848496626E+03 -0.33625880038E+03  0.12316839481E+04  0.12905975017E+04  0.00000000000E+00 0.  1.
         22    1    1    2    0    0 -0.24309334307E+03  0.58226888418E+03  0.24518624956E+03  0.67693997067E+03  0.00000000000E+00 0. -1.
<mgrwt>
<rscale>  0 0.16435477E+04</rscale>
<asrwt>0</asrwt>
<pdfrwt beam="1">  1        2 0.39291123E+00 0.16435477E+04</pdfrwt>
<pdfrwt beam="2">  1       -2 0.40680235E-01 0.16435477E+04</pdfrwt>
<totfact> 0.17747935E+01</totfact>
</mgrwt>
</event>
<event>
 6    1  0.1719556E-004  0.1013771E+04  0.7818608E-02  0.9293568E-01
         -2   -1    0    0    0  501 -0.00000000000E+00  0.00000000000E+00  0.45254562120E+03  0.45254562120E+03  0.00000000000E+00 0. -1.
          2   -1    0    0  501    0  0.00000000000E+00 -0.00000000000E+00 -0.56775063545E+03  0.56775063545E+03  0.00000000000E+00 0.  1.
         23    2    1    2    0    0 -0.36743018118E+03 -0.27704606211E+03  0.14589446451E+03  0.49120987771E+03  0.90788163426E+02 0.  0.
         11    1    3    3    0    0 -0.29384146201E+03 -0.25462361024E+03  0.99385532116E+02  0.40131467912E+03  0.00000000000E+00 0.  1.
        -11    1    3    3    0    0 -0.73588719171E+02 -0.22422451867E+02  0.46508932394E+02  0.89895198589E+02  0.00000000000E+00 0. -1.
         22    1    1    2    0    0  0.36743018118E+03  0.27704606211E+03 -0.26109947876E+03  0.52908637894E+03  0.00000000000E+00 0.  1.
<mgrwt>
<rscale>  0 0.10137713E+04</rscale>
<asrwt>0</asrwt>
<pdfrwt beam="1">  1        2 0.87346252E-01 0.10137713E+04</pdfrwt>
<pdfrwt beam="2">  1       -2 0.69622403E-01 0.10137713E+04</pdfrwt>
<totfact> 0.99550644E+01</totfact>
</mgrwt>
</event>
<event>
 6    1  0.1719556E-004  0.4228306E+04  0.7818608E-02  0.7960010E-01
         -1   -1    0    0    0  501 -0.00000000000E+00  0.00000000000E+00  0.23436596245E+04  0.23436596245E+04  0.00000000000E+00 0.  1.
          1   -1    0    0  501    0  0.00000000000E+00 -0.00000000000E+00 -0.19071214434E+04  0.19071214434E+04  0.00000000000E+00 0. -1.
         23    2    1    2    0    0 -0.54606835411E+03 -0.16926126684E+04 -0.92903844831E+03  0.20084769352E+04  0.87970837292E+02 0.  0.
         13    1    3    3    0    0 -0.11031941321E+03 -0.46191805360E+03 -0.26194798487E+03  0.54236095725E+03  0.00000000000E+00 0. -1.
        -13    1    3    3    0    0 -0.43574894090E+03 -0.12306946148E+04 -0.66709046344E+03  0.14661159779E+04  0.00000000000E+00 0.  1.
         22    1    1    2    0    0  0.54606835411E+03  0.16926126684E+04  0.13655766295E+04  0.22423041327E+04  0.00000000000E+00 0.  1.
<mgrwt>
<rscale>  0 0.42283063E+04</rscale>
<asrwt>0</asrwt>
<pdfrwt beam="1">  1        1 0.29340330E+00 0.42283063E+04</pdfrwt>
<pdfrwt beam="2">  1       -1 0.36056302E+00 0.42283063E+04</pdfrwt>
<totfact> 0.34970587E-02</totfact>
</mgrwt>
</event>
<event>
 6    1  0.1719556E-004  0.1941814E+04  0.7818608E-02  0.8634318E-01
          1   -1    0    0  501    0  0.00000000000E+00  0.00000000000E+00  0.98382194937E+03  0.98382194937E+03  0.00000000000E+00 0. -1.
         -1   -1    0    0    0  501 -0.00000000000E+00 -0.00000000000E+00 -0.95816202461E+03  0.95816202461E+03  0.00000000000E+00 0.  1.
         23    2    1    2    0    0 -0.91452709591E+03 -0.28790583694E+03  0.15102738424E+03  0.97504727492E+03  0.93050187782E+02 0.  0.
         13    1    3    3    0    0 -0.26469176087E+03 -0.77731594699E+02  0.14095978626E+01  0.27587300711E+03  0.00000000000E+00 0.  1.
        -13    1    3    3    0    0 -0.64983533504E+03 -0.21017424224E+03  0.14961778638E+03  0.69917426781E+03  0.00000000000E+00 0. -1.
         22    1    1    2    0    0  0.91452709591E+03  0.28790583694E+03 -0.12536745948E+03  0.96693669906E+03  0.00000000000E+00 0.  1.
<mgrwt>
<rscale>  0 0.19418144E+04</rscale>
<asrwt>0</asrwt>
<pdfrwt beam="1">  1        1 0.15135722E+00 0.19418144E+04</pdfrwt>
<pdfrwt beam="2">  1       -1 0.14740954E+00 0.19418144E+04</pdfrwt>
<totfact> 0.53114727E+00</totfact>
</mgrwt>
</event>
<event>
 6    1  0.1719556E-004  0.2053665E+04  0.7818608E-02  0.8581933E-01
         -1   -1    0    0    0  501 -0.00000000000E+00  0.00000000000E+00  0.41124871871E+03  0.41124871871E+03  0.00000000000E+00 0. -1.
          1   -1    0    0  501    0  0.00000000000E+00 -0.00000000000E+00 -0.25638627208E+04  0.25638627208E+04  0.00000000000E+00 0.  1.
         23    2    1    2    0    0  0.34172182372E+03  0.45844897148E+02 -0.24767652248E+04  0.25018783314E+04  0.78445185311E+02 0.  0.
         13    1    3    3    0    0  0.27830911012E+03  0.44860492787E+02 -0.21971745294E+04  0.22151849442E+04  0.00000000000E+00 0. -1.
        -13    1    3    3    0    0  0.63412713597E+02  0.98440436067E+00 -0.27959069536E+03  0.28669338714E+03  0.00000000000E+00 0.  1.
         22    1    1    2    0    0 -0.34172182372E+03 -0.45844897148E+02  0.32415122271E+03  0.47323310808E+03  0.00000000000E+00 0. -1.
<mgrwt>
<rscale>  0 0.20536653E+04</rscale>
<asrwt>0</asrwt>
<pdfrwt beam="1">  1        1 0.39444042E+00 0.20536653E+04</pdfrwt>
<pdfrwt beam="2">  1       -1 0.63269033E-01 0.20536653E+04</pdfrwt>
<totfact> 0.28624443E+00</totfact>
</mgrwt>
</event>
<event>
 6    1  0.1719556E-004  0.1137426E+04  0.7818608E-02  0.9169462E-01
          2   -1    0    0  501    0  0.00000000000E+00  0.00000000000E+00  0.70426274232E+03  0.70426274232E+03  0.00000000000E+00 0.  1.
         -2   -1    0    0    0  501 -0.00000000000E+00 -0.00000000000E+00 -0.45925269893E+03  0.45925269893E+03  0.00000000000E+00 0. -1.
         23    2    1    2    0    0 -0.29800364871E+03 -0.26335635937E+03  0.53453449668E+03  0.67159354123E+03  0.84545903543E+02 0.  0.
         13    1    3    3    0    0 -0.23164382488E+03 -0.19501484146E+03  0.34202422956E+03  0.45680436032E+03  0.00000000000E+00 0.  1.
        -13    1    3    3    0    0 -0.66359823827E+02 -0.68341517913E+02  0.19251026712E+03  0.21478918091E+03  0.00000000000E+00 0. -1.
         22    1    1    2    0    0  0.29800364871E+03  0.26335635937E+03 -0.28952445329E+03  0.49192190002E+03  0.00000000000E+00 0. -1.
<mgrwt>
<rscale>  0 0.11374262E+04</rscale>
<asrwt>0</asrwt>
<pdfrwt beam="1">  1        2 0.10834811E+00 0.11374262E+04</pdfrwt>
<pdfrwt beam="2">  1       -2 0.70654261E-01 0.11374262E+04</pdfrwt>
<totfact> 0.73404761E+01</totfact>
</mgrwt>
</event>
<event>
 6    1  0.1719556E-004  0.2433850E+04  0.7818608E-02  0.8426938E-01
          1   -1    0    0  501    0  0.00000000000E+00  0.00000000000E+00  0.13318747461E+04  0.13318747461E+04  0.00000000000E+00 0.  1.
         -1   -1    0    0    0  501 -0.00000000000E+00 -0.00000000000E+00 -0.11118958730E+04  0.11118958730E+04  0.00000000000E+00 0. -1.
         23    2    1    2    0    0 -0.26484107004E+03 -0.24682888768E+03  0.12748854486E+04  0.13284710293E+04  0.91853559333E+02 0.  0.
         13    1    3    3    0    0 -0.46505721529E+02 -0.94801997112E+02  0.30523873424E+03  0.32298743887E+03  0.00000000000E+00 0. -1.
        -13    1    3    3    0    0 -0.21833534851E+03 -0.15202689057E+03  0.96964671437E+03  0.10054835904E+04  0.00000000000E+00 0.  1.
         22    1    1    2    0    0  0.26484107004E+03  0.24682888768E+03 -0.10549065755E+04  0.11152995899E+04  0.00000000000E+00 0. -1.
<mgrwt>
<rscale>  0 0.24338497E+04</rscale>
<asrwt>0</asrwt>
<pdfrwt beam="1">  1        1 0.20490381E+00 0.24338497E+04</pdfrwt>
<pdfrwt beam="2">  1       -1 0.17106090E+00 0.24338497E+04</pdfrwt>
<totfact> 0.18538357E+00</totfact>
</mgrwt>
</event>
<event>
 6    1  0.1719556E-004  0.1644138E+04  0.7818608E-02  0.8793882E-01
          2   -1    0    0  501    0  0.00000000000E+00  0.00000000000E+00  0.65000261077E+03  0.65000261077E+03  0.00000000000E+00 0.  1.
         -2   -1    0    0    0  501 -0.00000000000E+00 -0.00000000000E+00 -0.10396847840E+04  0.10396847840E+04  0.00000000000E+00 0. -1.
         23    2    1    2    0    0  0.19079330200E+03 -0.73659656149E+03  0.11740326650E+03  0.77529567254E+03  0.91231981119E+02 0.  0.
         13    1    3    3    0    0  0.78354611245E+01 -0.53836868946E+02 -0.14369242175E+02  0.56269690151E+02  0.00000000000E+00 0. -1.
        -13    1    3    3    0    0  0.18295784087E+03 -0.68275969255E+03  0.13177250868E+03  0.71902598239E+03  0.00000000000E+00 0.  1.
         22    1    1    2    0    0 -0.19079330200E+03  0.73659656149E+03 -0.50708543973E+03  0.91439172222E+03  0.00000000000E+00 0. -1.
<mgrwt>
<rscale>  0 0.16441385E+04</rscale>
<asrwt>0</asrwt>
<pdfrwt beam="1">  1        2 0.10000040E+00 0.16441385E+04</pdfrwt>
<pdfrwt beam="2">  1       -2 0.15995150E+00 0.16441385E+04</pdfrwt>
<totfact> 0.10824722E+01</totfact>
</mgrwt>
</event>
<event>
 6    1  0.1719556E-004  0.1643810E+04  0.7818608E-02  0.8794077E-01
         -2   -1    0    0    0  501 -0.00000000000E+00  0.00000000000E+00  0.51464394447E+03  0.51464394447E+03  0.00000000000E+00 0. -1.
          2   -1    0    0  501    0  0.00000000000E+00 -0.00000000000E+00 -0.13126122757E+04  0.13126122757E+04  0.00000000000E+00 0.  1.
         23    2    1    2    0    0  0.57987606950E+03 -0.54012572955E+03 -0.16912123409E+03  0.81560374460E+03  0.92819268978E+02 0.  0.
         13    1    3    3    0    0  0.37315291546E+03 -0.40597651312E+03 -0.11390297857E+03  0.56305764896E+03  0.00000000000E+00 0. -1.
        -13    1    3    3    0    0  0.20672315403E+03 -0.13414921643E+03 -0.55218255525E+02  0.25254609564E+03  0.00000000000E+00 0.  1.
         22    1    1    2    0    0 -0.57987606950E+03  0.54012572955E+03 -0.62884709710E+03  0.10116524755E+04  0.00000000000E+00 0.  1.
<mgrwt>
<rscale>  0 0.16438102E+04</rscale>
<asrwt>0</asrwt>
<pdfrwt beam="1">  1        2 0.20194035E+00 0.16438102E+04</pdfrwt>
<pdfrwt beam="2">  1       -2 0.79175993E-01 0.16438102E+04</pdfrwt>
<totfact> 0.21979828E+01</totfact>
</mgrwt>
</event>
<event>
 6    1  0.1719556E-004  0.2067603E+04  0.7818608E-02  0.8575650E-01
          2   -1    0    0  501    0  0.00000000000E+00  0.00000000000E+00  0.10594877281E+04  0.10594877281E+04  0.00000000000E+00 0.  1.
         -2   -1    0    0    0  501 -0.00000000000E+00 -0.00000000000E+00 -0.10087384590E+04  0.10087384590E+04  0.00000000000E+00 0. -1.
         23    2    1    2    0    0 -0.10065900809E+04  0.21319883505E+03 -0.51370528609E+02  0.10342504682E+04  0.91420815186E+02 0.  0.
         11    1    3    3    0    0 -0.99691803387E+02  0.43933884073E+02 -0.22484497055E+02  0.11123935653E+03  0.00000000000E+00 0.  1.
        -11    1    3    3    0    0 -0.90689827751E+03  0.16926495098E+03 -0.28886031554E+02  0.92301111163E+03  0.00000000000E+00 0. -1.
         22    1    1    2    0    0  0.10065900809E+04 -0.21319883505E+03  0.10211979774E+03  0.10339757189E+04  0.00000000000E+00 0. -1.
<mgrwt>
<rscale>  0 0.20676035E+04</rscale>
<asrwt>0</asrwt>
<pdfrwt beam="1">  1        2 0.16299811E+00 0.20676035E+04</pdfrwt>
<pdfrwt beam="2">  1       -2 0.15519053E+00 0.20676035E+04</pdfrwt>
<totfact> 0.58369964E+00</totfact>
</mgrwt>
</event>
<event>
 6    1  0.1719556E-004  0.6815561E+03  0.7818608E-02  0.9749304E-01
          1   -1    0    0  501    0  0.00000000000E+00  0.00000000000E+00  0.26784747992E+03  0.26784747992E+03  0.00000000000E+00 0.  1.
         -1   -1    0    0    0  501 -0.00000000000E+00 -0.00000000000E+00 -0.43356638334E+03  0.43356638334E+03  0.00000000000E+00 0. -1.
         23    2    1    2    0    0 -0.23835491450E+03  0.22712835803E+03 -0.14557236644E+03  0.37155595562E+03  0.91989988550E+02 0.  0.
         13    1    3    3    0    0 -0.16978471560E+03  0.10311680473E+03 -0.10199694598E+03  0.22330092265E+03  0.00000000000E+00 0.  1.
        -13    1    3    3    0    0 -0.68570198896E+02  0.12401155330E+03 -0.43575420467E+02  0.14825503296E+03  0.00000000000E+00 0. -1.
         22    1    1    2    0    0  0.23835491450E+03 -0.22712835803E+03 -0.20146536976E+02  0.32985790765E+03  0.00000000000E+00 0. -1.
<mgrwt>
<rscale>  0 0.68155605E+03</rscale>
<asrwt>0</asrwt>
<pdfrwt beam="1">  1        1 0.41207305E-01 0.68155605E+03</pdfrwt>
<pdfrwt beam="2">  1       -1 0.66702520E-01 0.68155605E+03</pdfrwt>
<totfact> 0.23487902E+02</totfact>
</mgrwt>
</event>
<event>
 6    1  0.1719556E-004  0.4692963E+04  0.7818608E-02  0.7877699E-01
         -2   -1    0    0    0  501 -0.00000000000E+00  0.00000000000E+00  0.19627472341E+04  0.19627472341E+04  0.00000000000E+00 0. -1.
          2   -1    0    0  501    0  0.00000000000E+00 -0.00000000000E+00 -0.28052387876E+04  0.28052387876E+04  0.00000000000E+00 0.  1.
         23    2    1    2    0    0  0.17248562899E+04 -0.95594865634E+03 -0.17117324519E+04  0.26128649592E+04  0.89823459101E+02 0.  0.
         13    1    3    3    0    0  0.12179269805E+04 -0.71234838015E+03 -0.11918275810E+04  0.18469540675E+04  0.00000000000E+00 0. -1.
        -13    1    3    3    0    0  0.50692930936E+03 -0.24360027619E+03 -0.51990487093E+03  0.76591089173E+03  0.00000000000E+00 0.  1.
         22    1    1    2    0    0 -0.17248562899E+04  0.95594865634E+03  0.86924089841E+03  0.21551210624E+04  0.00000000000E+00 0.  1.
<mgrwt>
<rscale>  0 0.46929627E+04</rscale>
<asrwt>0</asrwt>
<pdfrwt beam="1">  1        2 0.43157520E+00 0.46929627E+04</pdfrwt>
<pdfrwt beam="2">  1       -2 0.30196111E+00 0.46929627E+04</pdfrwt>
<totfact> 0.52933647E-02</totfact>
</mgrwt>
</event>
<event>
 6    1  0.1719556E-004  0.3981419E+04  0.7818608E-02  0.8008306E-01
         -1   -1    0    0    0  501 -0.00000000000E+00  0.00000000000E+00  0.14595361712E+04  0.14595361712E+04  0.00000000000E+00 0. -1.
          1   -1    0    0  501    0  0.00000000000E+00 -0.00000000000E+00 -0.27151937692E+04  0.27151937692E+04  0.00000000000E+00 0.  1.
         23    2    1    2    0    0  0.70431826664E+03 -0.63222223689E+03  0.12069484327E+04  0.15365112915E+04  0.91505475137E+02 0.  0.
         13    1    3    3    0    0  0.59295931175E+03 -0.55518078181E+03  0.10755626050E+04  0.13478358072E+04  0.00000000000E+00 0.  1.
        -13    1    3    3    0    0  0.11135895490E+03 -0.77041455078E+02  0.13138582773E+03  0.18867548427E+03  0.00000000000E+00 0. -1.
         22    1    1    2    0    0 -0.70431826664E+03  0.63222223689E+03 -0.24626060307E+04  0.26382186490E+04  0.00000000000E+00 0.  1.
<mgrwt>
<rscale>  0 0.39814186E+04</rscale>
<asrwt>0</asrwt>
<pdfrwt beam="1">  1        1 0.41772211E+00 0.39814186E+04</pdfrwt>
<pdfrwt beam="2">  1       -1 0.22454403E+00 0.39814186E+04</pdfrwt>
<totfact> 0.76995988E-02</totfact>
</mgrwt>
</event>
<event>
 6    1  0.1719556E-004  0.3148663E+04  0.7818608E-02  0.8202508E-01
         -2   -1    0    0    0  501 -0.00000000000E+00  0.00000000000E+00  0.86981591677E+03  0.86981591677E+03  0.00000000000E+00 0. -1.
          2   -1    0    0  501    0  0.00000000000E+00 -0.00000000000E+00 -0.28494767778E+04  0.28494767778E+04  0.00000000000E+00 0.  1.
         23    2    1    2    0    0  0.35438772005E+03 -0.71118898089E+03  0.61301050380E+03  0.10075911570E+04  0.89875688152E+02 0.  0.
         11    1    3    3    0    0  0.66749104247E+02 -0.76222498629E+02  0.59621144279E+02  0.11755846656E+03  0.00000000000E+00 0. -1.
        -11    1    3    3    0    0  0.28763861580E+03 -0.63496648226E+03  0.55338935952E+03  0.89003269048E+03  0.00000000000E+00 0.  1.
         22    1    1    2    0    0 -0.35438772005E+03  0.71118898089E+03 -0.25926713649E+04  0.27117015376E+04  0.00000000000E+00 0.  1.
<mgrwt>
<rscale>  0 0.31486634E+04</rscale>
<asrwt>0</asrwt>
<pdfrwt beam="1">  1        2 0.43838104E+00 0.31486634E+04</pdfrwt>
<pdfrwt beam="2">  1       -2 0.13381783E+00 0.31486634E+04</pdfrwt>
<totfact> 0.73578205E-01</totfact>
</mgrwt>
</event>
<event>
 6    1  0.1719556E-004  0.2493239E+04  0.7818608E-02  0.8405398E-01
          2   -1    0    0  501    0  0.00000000000E+00  0.00000000000E+00  0.13359660498E+04  0.13359660498E+04  0.00000000000E+00 0.  1.
         -2   -1    0    0    0  501 -0.00000000000E+00 -0.00000000000E+00 -0.11632481824E+04  0.11632481824E+04  0.00000000000E+00 0. -1.
         23    2    1    2    0    0  0.10182070318E+04 -0.70286175478E+03  0.22456530739E+03  0.12608894109E+04  0.93017865554E+02 0.  0.
         11    1    3    3    0    0  0.90960486193E+02 -0.71285331222E+02 -0.52564039583E+01  0.11568508235E+03  0.00000000000E+00 0. -1.
        -11    1    3    3    0    0  0.92724654564E+03 -0.63157642356E+03  0.22982171135E+03  0.11452043286E+04  0.00000000000E+00 0.  1.
         22    1    1    2    0    0 -0.10182070318E+04  0.70286175478E+03 -0.51847440001E+02  0.12383248213E+04  0.00000000000E+00 0.  1.
<mgrwt>
<rscale>  0 0.24932389E+04</rscale>
<asrwt>0</asrwt>
<pdfrwt beam="1">  1        2 0.20553324E+00 0.24932389E+04</pdfrwt>
<pdfrwt beam="2">  1       -2 0.17896126E+00 0.24932389E+04</pdfrwt>
<totfact> 0.25919767E+00</totfact>
</mgrwt>
</event>
<event>
 6    1  0.1719556E-004  0.2419926E+04  0.7818608E-02  0.8432081E-01
         -1   -1    0    0    0  501 -0.00000000000E+00  0.00000000000E+00  0.77346901857E+03  0.77346901857E+03  0.00000000000E+00 0.  1.
          1   -1    0    0  501    0  0.00000000000E+00 -0.00000000000E+00 -0.18927842203E+04  0.18927842203E+04  0.00000000000E+00 0. -1.
         23    2    1    2    0    0 -0.58882983588E+02 -0.72473394565E+03  0.50477340598E+03  0.88682346970E+03  0.54343143964E+02 0.  0.
         11    1    3    3    0    0 -0.48726614435E+02 -0.31102503399E+03  0.23436497663E+03  0.39247649228E+03  0.00000000000E+00 0. -1.
        -11    1    3    3    0    0 -0.10156369153E+02 -0.41370891166E+03  0.27040842935E+03  0.49434697742E+03  0.00000000000E+00 0.  1.
         22    1    1    2    0    0  0.58882983588E+02  0.72473394565E+03 -0.16240886077E+04  0.17794297692E+04  0.00000000000E+00 0. -1.
<mgrwt>
<rscale>  0 0.24199256E+04</rscale>
<asrwt>0</asrwt>
<pdfrwt beam="1">  1        1 0.29119757E+00 0.24199256E+04</pdfrwt>
<pdfrwt beam="2">  1       -1 0.11899523E+00 0.24199256E+04</pdfrwt>
<totfact> 0.19918031E+00</totfact>
</mgrwt>
</event>
<event>
 6    1  0.1719556E-004  0.6133374E+03  0.7818608E-02  0.9878115E-01
          2   -1    0    0  501    0  0.00000000000E+00  0.00000000000E+00  0.60089267293E+03  0.60089267293E+03  0.00000000000E+00 0.  1.
         -2   -1    0    0    0  501 -0.00000000000E+00 -0.00000000000E+00 -0.15650998484E+03  0.15650998484E+03  0.00000000000E+00 0. -1.
         23    2    1    2    0    0  0.11655658621E+03 -0.23239799792E+02 -0.11241526569E+03  0.18806138276E+03  0.92759719931E+02 0.  0.
         11    1    3    3    0    0  0.49379895516E+02  0.19478342719E+02 -0.91447720224E+02  0.10573772009E+03  0.00000000000E+00 0. -1.
        -11    1    3    3    0    0  0.67176690692E+02 -0.42718142511E+02 -0.20967545470E+02  0.82323662667E+02  0.00000000000E+00 0.  1.
         22    1    1    2    0    0 -0.11655658621E+03  0.23239799792E+02  0.55679795379E+03  0.56934127500E+03  0.00000000000E+00 0.  1.
<mgrwt>
<rscale>  0 0.61333744E+03</rscale>
<asrwt>0</asrwt>
<pdfrwt beam="1">  1        2 0.92445025E-01 0.61333744E+03</pdfrwt>
<pdfrwt beam="2">  1       -2 0.24078460E-01 0.61333744E+03</pdfrwt>
<totfact> 0.76330090E+02</totfact>
</mgrwt>
</event>
<event>
 6    1  0.1719556E-004  0.2121252E+04  0.7818608E-02  0.8551939E-01
         -2   -1    0    0    0  501 -0.00000000000E+00  0.00000000000E+00  0.31661875170E+03  0.31661875170E+03  0.00000000000E+00 0. -1.
          2   -1    0    0  501    0  0.00000000000E+00 -0.00000000000E+00 -0.35529414549E+04  0.35529414549E+04  0.00000000000E+00 0.  1.
         23    2    1    2    0    0 -0.56660775875E+03  0.12508713640E+03 -0.32365170787E+04  0.32893092422E+04  0.88438375562E+02 0.  0.
         13    1    3    3    0    0 -0.41737380124E+03  0.57984693169E+02 -0.22064155276E+04  0.22462930786E+04  0.00000000000E+00 0.  1.
        -13    1    3    3    0    0 -0.14923395751E+03  0.67102443233E+02 -0.10301015511E+04  0.10430161636E+04  0.00000000000E+00 0. -1.
         22    1    1    2    0    0  0.56660775875E+03 -0.12508713640E+03  0.19437543707E+00  0.58025096445E+03  0.00000000000E+00 0. -1.
<mgrwt>
<rscale>  0 0.21212524E+04</rscale>
<asrwt>0</asrwt>
<pdfrwt beam="1">  1        2 0.54660640E+00 0.21212524E+04</pdfrwt>
<pdfrwt beam="2">  1       -2 0.48710575E-01 0.21212524E+04</pdfrwt>
<totfact> 0.27519130E+00</totfact>
</mgrwt>
</event>
<event>
 6    1  0.1719556E-004  0.1346699E+04  0.7818608E-02  0.8993331E-01
          2   -1    0    0  501    0  0.00000000000E+00  0.00000000000E+00  0.98640060905E+03  0.98640060905E+03  0.00000000000E+00 0.  1.
         -2   -1    0    0    0  501 -0.00000000000E+00 -0.00000000000E+00 -0.45965042665E+03  0.45965042665E+03  0.00000000000E+00 0. -1.
         23    2    1    2    0    0  0.44154673200E+03  0.36508008271E+01  0.80594926606E+03  0.92362499002E+03  0.92477336941E+02 0.  0.
         11    1    3    3    0    0  0.19798268221E+03 -0.34145219525E+02  0.42177752348E+03  0.46718231750E+03  0.00000000000E+00 0.  1.
        -11    1    3    3    0    0  0.24356404979E+03  0.37796020352E+02  0.38417174258E+03  0.45644267252E+03  0.00000000000E+00 0. -1.
         22    1    1    2    0    0 -0.44154673200E+03 -0.36508008271E+01 -0.27919908366E+03  0.52242604568E+03  0.00000000000E+00 0. -1.
<mgrwt>
<rscale>  0 0.13466989E+04</rscale>
<asrwt>0</asrwt>
<pdfrwt beam="1">  1        2 0.15175394E+00 0.13466989E+04</pdfrwt>
<pdfrwt beam="2">  1       -2 0.70715451E-01 0.13466989E+04</pdfrwt>
<totfact> 0.45664750E+01</totfact>
</mgrwt>
</event>
<event>
 6    1  0.1719556E-004  0.3148801E+04  0.7818608E-02  0.8202471E-01
          2   -1    0    0  501    0  0.00000000000E+00  0.00000000000E+00  0.36645646323E+04  0.36645646323E+04  0.00000000000E+00 0.  1.
         -2   -1    0    0    0  501 -0.00000000000E+00 -0.00000000000E+00 -0.67640691852E+03  0.67640691852E+03  0.00000000000E+00 0. -1.
         23    2    1    2    0    0 -0.43758015644E+03 -0.13055074509E+04  0.44934609196E+03  0.14528249914E+04  0.11385274538E+03 0.  0.
         11    1    3    3    0    0 -0.14669527929E+03 -0.61583546722E+03  0.20233324785E+03  0.66461385092E+03  0.00000000000E+00 0.  1.
        -11    1    3    3    0    0 -0.29088487715E+03 -0.68967198368E+03  0.24701284411E+03  0.78821114048E+03  0.00000000000E+00 0. -1.
         22    1    1    2    0    0  0.43758015644E+03  0.13055074509E+04  0.25388116218E+04  0.28881465595E+04  0.00000000000E+00 0.  1.
<mgrwt>
<rscale>  0 0.31488010E+04</rscale>
<asrwt>0</asrwt>
<pdfrwt beam="1">  1        2 0.56377916E+00 0.31488010E+04</pdfrwt>
<pdfrwt beam="2">  1       -2 0.10406261E+00 0.31488010E+04</pdfrwt>
<totfact> 0.39315091E-01</totfact>
</mgrwt>
</event>
<event>
 6    1  0.1719556E-004  0.3655559E+04  0.7818608E-02  0.8077883E-01
          2   -1    0    0  501    0  0.00000000000E+00  0.00000000000E+00  0.25982411972E+04  0.25982411972E+04  0.00000000000E+00 0. -1.
         -2   -1    0    0    0  501 -0.00000000000E+00 -0.00000000000E+00 -0.12857840372E+04  0.12857840372E+04  0.00000000000E+00 0.  1.
         23    2    1    2    0    0  0.61720195260E+03  0.12150753704E+04 -0.63540341112E+03  0.15067353467E+04  0.95747084019E+02 0.  0.
         13    1    3    3    0    0  0.40815778940E+03  0.73180461153E+03 -0.35315696718E+03  0.90931326504E+03  0.00000000000E+00 0. -1.
        -13    1    3    3    0    0  0.20904416320E+03  0.48327075882E+03 -0.28224644394E+03  0.59742208163E+03  0.00000000000E+00 0.  1.
         22    1    1    2    0    0 -0.61720195260E+03 -0.12150753704E+04  0.19478605711E+04  0.23772898878E+04  0.00000000000E+00 0. -1.
<mgrwt>
<rscale>  0 0.36555585E+04</rscale>
<asrwt>0</asrwt>
<pdfrwt beam="1">  1        2 0.39972941E+00 0.36555585E+04</pdfrwt>
<pdfrwt beam="2">  1       -2 0.19781293E+00 0.36555585E+04</pdfrwt>
<totfact> 0.34022629E-01</totfact>
</mgrwt>
</event>
<event>
 6    1  0.1719556E-004  0.1913778E+04  0.7818608E-02  0.8648028E-01
          2   -1    0    0  501    0  0.00000000000E+00  0.00000000000E+00  0.32076154828E+04  0.32076154828E+04  0.00000000000E+00 0.  1.
         -2   -1    0    0    0  501 -0.00000000000E+00 -0.00000000000E+00 -0.28545717776E+03  0.28545717776E+03  0.00000000000E+00 0. -1.
         23    2    1    2    0    0 -0.80019963098E+03 -0.47076317374E+03  0.10589369603E+04  0.14113591369E+04  0.93003828895E+02 0.  0.
         13    1    3    3    0    0 -0.49545194954E+03 -0.32743212165E+03  0.62627284587E+03  0.86307711478E+03  0.00000000000E+00 0.  1.
        -13    1    3    3    0    0 -0.30474768144E+03 -0.14333105209E+03  0.43266411440E+03  0.54828202207E+03  0.00000000000E+00 0. -1.
         22    1    1    2    0    0  0.80019963098E+03  0.47076317374E+03  0.18632213448E+04  0.20817135237E+04  0.00000000000E+00 0.  1.
<mgrwt>
<rscale>  0 0.19137783E+04</rscale>
<asrwt>0</asrwt>
<pdfrwt beam="1">  1        2 0.49347928E+00 0.19137783E+04</pdfrwt>
<pdfrwt beam="2">  1       -2 0.43916491E-01 0.19137783E+04</pdfrwt>
<totfact> 0.59225127E+00</totfact>
</mgrwt>
</event>
<event>
 6    1  0.1719556E-004  0.1659540E+04  0.7818608E-02  0.8784783E-01
          1   -1    0    0  501    0  0.00000000000E+00  0.00000000000E+00  0.96314836704E+03  0.96314836704E+03  0.00000000000E+00 0.  1.
         -1   -1    0    0    0  501 -0.00000000000E+00 -0.00000000000E+00 -0.71486165761E+03  0.71486165761E+03  0.00000000000E+00 0. -1.
         23    2    1    2    0    0 -0.18181493451E+02  0.22465020277E+03 -0.68025899011E+03  0.72250209875E+03  0.91971238726E+02 0.  0.
         13    1    3    3    0    0 -0.47599800799E+02  0.10351626981E+03 -0.25386334302E+03  0.27825879336E+03  0.00000000000E+00 0. -1.
        -13    1    3    3    0    0  0.29418307347E+02  0.12113393295E+03 -0.42639564709E+03  0.44424330538E+03  0.00000000000E+00 0.  1.
         22    1    1    2    0    0  0.18181493451E+02 -0.22465020277E+03  0.92854569955E+03  0.95550792590E+03  0.00000000000E+00 0.  1.
<mgrwt>
<rscale>  0 0.16595395E+04</rscale>
<asrwt>0</asrwt>
<pdfrwt beam="1">  1        1 0.14817667E+00 0.16595395E+04</pdfrwt>
<pdfrwt beam="2">  1       -1 0.10997872E+00 0.16595395E+04</pdfrwt>
<totfact> 0.11797881E+01</totfact>
</mgrwt>
</event>
<event>
 6    1  0.1719556E-004  0.1258923E+04  0.7818608E-02  0.9062789E-01
         -2   -1    0    0    0  501 -0.00000000000E+00  0.00000000000E+00  0.45607290084E+03  0.45607290084E+03  0.00000000000E+00 0. -1.
          2   -1    0    0  501    0  0.00000000000E+00 -0.00000000000E+00 -0.86876811903E+03  0.86876811903E+03  0.00000000000E+00 0.  1.
         23    2    1    2    0    0 -0.21532621530E+03 -0.35028683716E+03  0.28987335554E+03  0.51079627413E+03  0.88430900300E+02 0.  0.
         13    1    3    3    0    0 -0.10189360362E+03 -0.19375401405E+03  0.20413982561E+03  0.29932589734E+03  0.00000000000E+00 0.  1.
        -13    1    3    3    0    0 -0.11343261168E+03 -0.15653282310E+03  0.85733529927E+02  0.21147037678E+03  0.00000000000E+00 0. -1.
         22    1    1    2    0    0  0.21532621530E+03  0.35028683716E+03 -0.70256857374E+03  0.81404474575E+03  0.00000000000E+00 0.  1.
<mgrwt>
<rscale>  0 0.12589227E+04</rscale>
<asrwt>0</asrwt>
<pdfrwt beam="1">  1        2 0.13365663E+00 0.12589227E+04</pdfrwt>
<pdfrwt beam="2">  1       -2 0.70165063E-01 0.12589227E+04</pdfrwt>
<totfact> 0.56007819E+01</totfact>
</mgrwt>
</event>
<event>
 6    1  0.1719556E-004  0.1410165E+04  0.7818608E-02  0.8946494E-01
         -2   -1    0    0    0  501 -0.00000000000E+00  0.00000000000E+00  0.27988137363E+03  0.27988137363E+03  0.00000000000E+00 0. -1.
          2   -1    0    0  501    0  0.00000000000E+00 -0.00000000000E+00 -0.17762563934E+04  0.17762563934E+04  0.00000000000E+00 0.  1.
         23    2    1    2    0    0  0.57048370985E+03  0.54751694360E+02 -0.15963722534E+03  0.60172470936E+03  0.90217353682E+02 0.  0.
         11    1    3    3    0    0  0.27655814518E+03  0.38711669698E+02 -0.32713276489E+02  0.28116393705E+03  0.00000000000E+00 0.  1.
        -11    1    3    3    0    0  0.29392556467E+03  0.16040024662E+02 -0.12692394885E+03  0.32056077232E+03  0.00000000000E+00 0. -1.
         22    1    1    2    0    0 -0.57048370985E+03 -0.54751694360E+02 -0.13367377945E+04  0.14544130577E+04  0.00000000000E+00 0.  1.
<mgrwt>
<rscale>  0 0.14101646E+04</rscale>
<asrwt>0</asrwt>
<pdfrwt beam="1">  1        2 0.27327021E+00 0.14101646E+04</pdfrwt>
<pdfrwt beam="2">  1       -2 0.43058673E-01 0.14101646E+04</pdfrwt>
<totfact> 0.44239057E+01</totfact>
</mgrwt>
</event>
<event>
 6    1  0.1719556E-004  0.1195460E+04  0.7818608E-02  0.9116839E-01
          2   -1    0    0  501    0  0.00000000000E+00  0.00000000000E+00  0.30024421057E+04  0.30024421057E+04  0.00000000000E+00 0.  1.
         -2   -1    0    0    0  501 -0.00000000000E+00 -0.00000000000E+00 -0.11899690061E+03  0.11899690061E+03  0.00000000000E+00 0. -1.
         23    2    1    2    0    0 -0.58758375691E+03 -0.42985303455E+01  0.16812409603E+04  0.17833178628E+04  0.91532967507E+02 0.  0.
         13    1    3    3    0    0 -0.31628665411E+03  0.38850994834E+02  0.84351544512E+03  0.90170114424E+03  0.00000000000E+00 0.  1.
        -13    1    3    3    0    0 -0.27129710280E+03 -0.43149525180E+02  0.83772551523E+03  0.88161671852E+03  0.00000000000E+00 0. -1.
         22    1    1    2    0    0  0.58758375691E+03  0.42985303455E+01  0.12022042448E+04  0.13381211436E+04  0.00000000000E+00 0. -1.
<mgrwt>
<rscale>  0 0.11954603E+04</rscale>
<asrwt>0</asrwt>
<pdfrwt beam="1">  1        2 0.46191412E+00 0.11954603E+04</pdfrwt>
<pdfrwt beam="2">  1       -2 0.18307218E-01 0.11954603E+04</pdfrwt>
<totfact> 0.43361325E+01</totfact>
</mgrwt>
</event>
<event>
 6    1  0.1719556E-004  0.8421533E+03  0.7818608E-02  0.9500929E-01
         -2   -1    0    0    0  501 -0.00000000000E+00  0.00000000000E+00  0.24815670980E+03  0.24815670980E+03  0.00000000000E+00 0. -1.
          2   -1    0    0  501    0  0.00000000000E+00 -0.00000000000E+00 -0.71449021152E+03  0.71449021152E+03  0.00000000000E+00 0.  1.
         23    2    1    2    0    0 -0.70910284143E+02 -0.27917581535E+03 -0.57922056706E+03  0.65327514854E+03  0.91129304381E+02 0.  0.
         11    1    3    3    0    0 -0.48613649589E+02 -0.46531746116E+02 -0.10733600801E+03  0.12668665652E+03  0.00000000000E+00 0.  1.
        -11    1    3    3    0    0 -0.22296634554E+02 -0.23264406924E+03 -0.47188455905E+03  0.52658849202E+03  0.00000000000E+00 0. -1.
         22    1    1    2    0    0  0.70910284143E+02  0.27917581535E+03  0.11288706533E+03  0.30937177278E+03  0.00000000000E+00 0. -1.
<mgrwt>
<rscale>  0 0.84215329E+03</rscale>
<asrwt>0</asrwt>
<pdfrwt beam="1">  1        2 0.10992157E+00 0.84215329E+03</pdfrwt>
<pdfrwt beam="2">  1       -2 0.38177955E-01 0.84215329E+03</pdfrwt>
<totfact> 0.25969357E+02</totfact>
</mgrwt>
</event>
<event>
 6    1  0.1719556E-004  0.1447865E+04  0.7818608E-02  0.8919882E-01
         -1   -1    0    0    0  501 -0.00000000000E+00  0.00000000000E+00  0.50985973134E+03  0.50985973134E+03  0.00000000000E+00 0. -1.
          1   -1    0    0  501    0  0.00000000000E+00 -0.00000000000E+00 -0.10278871460E+04  0.10278871460E+04  0.00000000000E+00 0.  1.
         23    2    1    2    0    0 -0.61277973273E+03 -0.24910703963E+03 -0.56487870816E+03  0.87461162583E+03  0.91127509916E+02 0.  0.
         11    1    3    3    0    0 -0.20247431536E+03 -0.41751953667E+02 -0.20054781578E+03  0.28802517325E+03  0.00000000000E+00 0.  1.
        -11    1    3    3    0    0 -0.41030541737E+03 -0.20735508597E+03 -0.36433089239E+03  0.58658645258E+03  0.00000000000E+00 0. -1.
         22    1    1    2    0    0  0.61277973273E+03  0.24910703963E+03  0.46851293545E+02  0.66313525147E+03  0.00000000000E+00 0. -1.
<mgrwt>
<rscale>  0 0.14478650E+04</rscale>
<asrwt>0</asrwt>
<pdfrwt beam="1">  1        1 0.15813648E+00 0.14478650E+04</pdfrwt>
<pdfrwt beam="2">  1       -1 0.78439960E-01 0.14478650E+04</pdfrwt>
<totfact> 0.22747408E+01</totfact>
</mgrwt>
</event>
<event>
 6    1  0.1719556E-004  0.1905237E+04  0.7818608E-02  0.8652254E-01
         -2   -1    0    0    0  501 -0.00000000000E+00  0.00000000000E+00  0.58059018669E+03  0.58059018669E+03  0.00000000000E+00 0. -1.
          2   -1    0    0  501    0  0.00000000000E+00 -0.00000000000E+00 -0.15630340464E+04  0.15630340464E+04  0.00000000000E+00 0.  1.
         23    2    1    2    0    0 -0.36758549154E+02  0.23201479713E+03 -0.15286867420E+04  0.15490123064E+04  0.85871492700E+02 0.  0.
         13    1    3    3    0    0 -0.27724453264E+02  0.97872805411E+02 -0.41713351635E+03  0.42935777833E+03  0.00000000000E+00 0.  1.
        -13    1    3    3    0    0 -0.90340958899E+01  0.13414199172E+03 -0.11115532256E+04  0.11196545281E+04  0.00000000000E+00 0. -1.
         22    1    1    2    0    0  0.36758549154E+02 -0.23201479713E+03  0.54624288223E+03  0.59461192673E+03  0.00000000000E+00 0. -1.
<mgrwt>
<rscale>  0 0.19052372E+04</rscale>
<asrwt>0</asrwt>
<pdfrwt beam="1">  1        2 0.24046678E+00 0.19052372E+04</pdfrwt>
<pdfrwt beam="2">  1       -2 0.89321567E-01 0.19052372E+04</pdfrwt>
<totfact> 0.11776790E+01</totfact>
</mgrwt>
</event>
<event>
 6    1  0.1719556E-004  0.4262993E+04  0.7818608E-02  0.7953497E-01
          2   -1    0    0  501    0  0.00000000000E+00  0.00000000000E+00  0.15279959728E+04  0.15279959728E+04  0.00000000000E+00 0.  1.
         -2   -1    0    0    0  501 -0.00000000000E+00 -0.00000000000E+00 -0.29733571789E+04  0.29733571789E+04  0.00000000000E+00 0. -1.
         23    2    1    2    0    0  0.16366582110E+04 -0.28431488661E+03  0.68562227501E+03  0.17993954075E+04  0.90889351248E+02 0.  0.
         11    1    3    3    0    0  0.11313345003E+04 -0.16256873861E+03  0.44346522895E+03  0.12259721676E+04  0.00000000000E+00 0.  1.
        -11    1    3    3    0    0  0.50532371067E+03 -0.12174614801E+03  0.24215704606E+03  0.57342323992E+03  0.00000000000E+00 0. -1.
         22    1    1    2    0    0 -0.16366582110E+04  0.28431488661E+03 -0.21309834811E+04  0.27019577442E+04  0.00000000000E+00 0. -1.
<mgrwt>
<rscale>  0 0.42629932E+04</rscale>
<asrwt>0</asrwt>
<pdfrwt beam="1">  1        2 0.23507631E+00 0.42629932E+04</pdfrwt>
<pdfrwt beam="2">  1       -2 0.45743956E+00 0.42629932E+04</pdfrwt>
<totfact> 0.29329377E-02</totfact>
</mgrwt>
</event>
<event>
 6    1  0.1719556E-004  0.5502572E+04  0.7818608E-02  0.7755335E-01
         -2   -1    0    0    0  501 -0.00000000000E+00  0.00000000000E+00  0.20607822831E+04  0.20607822831E+04  0.00000000000E+00 0. -1.
          2   -1    0    0  501    0  0.00000000000E+00 -0.00000000000E+00 -0.36731562543E+04  0.36731562543E+04  0.00000000000E+00 0.  1.
         23    2    1    2    0    0  0.16361476552E+04 -0.81477024439E+03  0.13354885630E+04  0.22654052420E+04  0.87758234129E+02 0.  0.
         13    1    3    3    0    0  0.59959717461E+03 -0.25167422660E+03  0.47387231548E+03  0.80461895299E+03  0.00000000000E+00 0. -1.
        -13    1    3    3    0    0  0.10365504806E+04 -0.56309601779E+03  0.86161624751E+03  0.14607862890E+04  0.00000000000E+00 0.  1.
         22    1    1    2    0    0 -0.16361476552E+04  0.81477024439E+03 -0.29478625342E+04  0.34685332954E+04  0.00000000000E+00 0.  1.
<mgrwt>
<rscale>  0 0.55025722E+04</rscale>
<asrwt>0</asrwt>
<pdfrwt beam="1">  1        2 0.56510096E+00 0.55025722E+04</pdfrwt>
<pdfrwt beam="2">  1       -2 0.31704343E+00 0.55025722E+04</pdfrwt>
<totfact> 0.10642133E-02</totfact>
</mgrwt>
</event>
<event>
 6    1  0.1719556E-004  0.1658635E+04  0.7818608E-02  0.8785314E-01
         -2   -1    0    0    0  501 -0.00000000000E+00  0.00000000000E+00  0.34195573620E+03  0.34195573620E+03  0.00000000000E+00 0. -1.
          2   -1    0    0  501    0  0.00000000000E+00 -0.00000000000E+00 -0.20112763120E+04  0.20112763120E+04  0.00000000000E+00 0.  1.
         23    2    1    2    0    0 -0.73103150000E+03  0.33217052327E+03 -0.11174059151E+04  0.13788840081E+04  0.89335425855E+02 0.  0.
         11    1    3    3    0    0 -0.25208507271E+03  0.16185082784E+03 -0.41037774045E+03  0.50808706361E+03  0.00000000000E+00 0. -1.
        -11    1    3    3    0    0 -0.47894642729E+03  0.17031969543E+03 -0.70702817464E+03  0.87079694452E+03  0.00000000000E+00 0.  1.
         22    1    1    2    0    0  0.73103150000E+03 -0.33217052327E+03 -0.55191466075E+03  0.97434804011E+03  0.00000000000E+00 0. -1.
<mgrwt>
<rscale>  0 0.16586349E+04</rscale>
<asrwt>0</asrwt>
<pdfrwt beam="1">  1        2 0.30942712E+00 0.16586349E+04</pdfrwt>
<pdfrwt beam="2">  1       -2 0.52608575E-01 0.16586349E+04</pdfrwt>
<totfact> 0.21434437E+01</totfact>
</mgrwt>
</event>
<event>
 6    1  0.1719556E-004  0.2971421E+04  0.7818608E-02  0.8251939E-01
          2   -1    0    0  501    0  0.00000000000E+00  0.00000000000E+00  0.28847870814E+04  0.28847870814E+04  0.00000000000E+00 0.  1.
         -2   -1    0    0    0  501 -0.00000000000E+00 -0.00000000000E+00 -0.76516425143E+03  0.76516425143E+03  0.00000000000E+00 0. -1.
         23    2    1    2    0    0  0.54977706893E+03  0.98831596281E+03  0.22415859254E+04  0.25124548429E+04  0.93266333146E+02 0.  0.
         13    1    3    3    0    0  0.54232561876E+03  0.93781578742E+03  0.21262214457E+04  0.23863011470E+04  0.00000000000E+00 0. -1.
        -13    1    3    3    0    0  0.74514501634E+01  0.50500175381E+02  0.11536447972E+03  0.12615369596E+03  0.00000000000E+00 0.  1.
         22    1    1    2    0    0 -0.54977706893E+03 -0.98831596281E+03 -0.12196309545E+03  0.11374964899E+04  0.00000000000E+00 0. -1.
<mgrwt>
<rscale>  0 0.29714212E+04</rscale>
<asrwt>0</asrwt>
<pdfrwt beam="1">  1        2 0.44381339E+00 0.29714212E+04</pdfrwt>
<pdfrwt beam="2">  1       -2 0.11771758E+00 0.29714212E+04</pdfrwt>
<totfact> 0.98035476E-01</totfact>
</mgrwt>
</event>
<event>
 6    1  0.1719556E-004  0.3201274E+04  0.7818608E-02  0.8188481E-01
          2   -1    0    0  501    0  0.00000000000E+00  0.00000000000E+00  0.18772300464E+04  0.18772300464E+04  0.00000000000E+00 0.  1.
         -2   -1    0    0    0  501 -0.00000000000E+00 -0.00000000000E+00 -0.13647975564E+04  0.13647975564E+04  0.00000000000E+00 0. -1.
         23    2    1    2    0    0 -0.37578453930E+03 -0.52499520061E+03  0.17383778611E+04  0.18564677760E+04  0.87641513522E+02 0.  0.
         13    1    3    3    0    0 -0.31690472873E+03 -0.46664918005E+03  0.14325949718E+04  0.15396487969E+04  0.00000000000E+00 0. -1.
        -13    1    3    3    0    0 -0.58879810564E+02 -0.58346020559E+02  0.30578288923E+03  0.31681897916E+03  0.00000000000E+00 0.  1.
         22    1    1    2    0    0  0.37578453930E+03  0.52499520061E+03 -0.12259453711E+04  0.13855598268E+04  0.00000000000E+00 0. -1.
<mgrwt>
<rscale>  0 0.32012741E+04</rscale>
<asrwt>0</asrwt>
<pdfrwt beam="1">  1        2 0.28880462E+00 0.32012741E+04</pdfrwt>
<pdfrwt beam="2">  1       -2 0.20996886E+00 0.32012741E+04</pdfrwt>
<totfact> 0.75415391E-01</totfact>
</mgrwt>
</event>
<event>
 6    1  0.1719556E-004  0.2591653E+04  0.7818608E-02  0.8371042E-01
          2   -1    0    0  501    0  0.00000000000E+00  0.00000000000E+00  0.13282523556E+04  0.13282523556E+04  0.00000000000E+00 0.  1.
         -2   -1    0    0    0  501 -0.00000000000E+00 -0.00000000000E+00 -0.12641919929E+04  0.12641919929E+04  0.00000000000E+00 0. -1.
         23    2    1    2    0    0  0.57413094969E+03 -0.11596956731E+04  0.11755614307E+02  0.12973550896E+04  0.92041471909E+02 0.  0.
         13    1    3    3    0    0  0.36662236143E+03 -0.68162061219E+03  0.43817541497E+02  0.77520229089E+03  0.00000000000E+00 0.  1.
        -13    1    3    3    0    0  0.20750858826E+03 -0.47807506091E+03 -0.32061927190E+02  0.52215279875E+03  0.00000000000E+00 0. -1.
         22    1    1    2    0    0 -0.57413094969E+03  0.11596956731E+04  0.52304748350E+02  0.12950892588E+04  0.00000000000E+00 0.  1.
<mgrwt>
<rscale>  0 0.25916527E+04</rscale>
<asrwt>0</asrwt>
<pdfrwt beam="1">  1        2 0.20434652E+00 0.25916527E+04</pdfrwt>
<pdfrwt beam="2">  1       -2 0.19449108E+00 0.25916527E+04</pdfrwt>
<totfact> 0.20380194E+00</totfact>
</mgrwt>
</event>
<event>
 6    1  0.1719556E-004  0.4696595E+04  0.7818608E-02  0.7877095E-01
         -1   -1    0    0    0  501 -0.00000000000E+00  0.00000000000E+00  0.18268061767E+04  0.18268061767E+04  0.00000000000E+00 0. -1.
          1   -1    0    0  501    0  0.00000000000E+00 -0.00000000000E+00 -0.30186575281E+04  0.30186575281E+04  0.00000000000E+00 0.  1.
         23    2    1    2    0    0  0.80242108908E+03 -0.31709201191E+03  0.16562093350E+04  0.18695812101E+04  0.88755798946E+02 0.  0.
         13    1    3    3    0    0  0.19336690796E+03 -0.50114428525E+02  0.32420264532E+03  0.38080122410E+03  0.00000000000E+00 0.  1.
        -13    1    3    3    0    0  0.60905418111E+03 -0.26697758339E+03  0.13320066897E+04  0.14887799860E+04  0.00000000000E+00 0. -1.
         22    1    1    2    0    0 -0.80242108908E+03  0.31709201191E+03 -0.28480606865E+04  0.29758824947E+04  0.00000000000E+00 0.  1.
<mgrwt>
<rscale>  0 0.46965955E+04</rscale>
<asrwt>0</asrwt>
<pdfrwt beam="1">  1        1 0.46440885E+00 0.46965955E+04</pdfrwt>
<pdfrwt beam="2">  1       -1 0.28104710E+00 0.46965955E+04</pdfrwt>
<totfact> 0.18767165E-02</totfact>
</mgrwt>
</event>
<event>
 6    1  0.1719556E-004  0.2231260E+04  0.7818608E-02  0.8505529E-01
         -2   -1    0    0    0  501 -0.00000000000E+00  0.00000000000E+00  0.12528636303E+04  0.12528636303E+04  0.00000000000E+00 0. -1.
          2   -1    0    0  501    0  0.00000000000E+00 -0.00000000000E+00 -0.99342845286E+03  0.99342845286E+03  0.00000000000E+00 0.  1.
         23    2    1    2    0    0  0.55287686378E+03 -0.34884966341E+03  0.10378302597E+04  0.12297942632E+04  0.89069454302E+02 0.  0.
         11    1    3    3    0    0  0.47325547905E+03 -0.28164116298E+03  0.92236338465E+03  0.10742656592E+04  0.00000000000E+00 0. -1.
        -11    1    3    3    0    0  0.79621384725E+02 -0.67208500424E+02  0.11546687501E+03  0.15552860399E+03  0.00000000000E+00 0.  1.
         22    1    1    2    0    0 -0.55287686378E+03  0.34884966341E+03 -0.77839508218E+03  0.10164978200E+04  0.00000000000E+00 0.  1.
<mgrwt>
<rscale>  0 0.22312601E+04</rscale>
<asrwt>0</asrwt>
<pdfrwt beam="1">  1        2 0.15283515E+00 0.22312601E+04</pdfrwt>
<pdfrwt beam="2">  1       -2 0.19274825E+00 0.22312601E+04</pdfrwt>
<totfact> 0.34444068E+00</totfact>
</mgrwt>
</event>
<event>
 6    1  0.1719556E-004  0.2027073E+04  0.7818608E-02  0.8594067E-01
         -2   -1    0    0    0  501 -0.00000000000E+00  0.00000000000E+00  0.12755739701E+04  0.12755739701E+04  0.00000000000E+00 0. -1.
          2   -1    0    0  501    0  0.00000000000E+00 -0.00000000000E+00 -0.80532837831E+03  0.80532837831E+03  0.00000000000E+00 0.  1.
         23    2    1    2    0    0  0.63042691545E+03  0.69154228492E+03 -0.15843984527E+03  0.95355404094E+03  0.92159084470E+02 0.  0.
         13    1    3    3    0    0  0.50748848392E+03  0.53225856723E+03 -0.89424882623E+02  0.74083773752E+03  0.00000000000E+00 0.  1.
        -13    1    3    3    0    0  0.12293843154E+03  0.15928371770E+03 -0.69014962644E+02  0.21271630342E+03  0.00000000000E+00 0. -1.
         22    1    1    2    0    0 -0.63042691545E+03 -0.69154228492E+03  0.62868543703E+03  0.11273483074E+04  0.00000000000E+00 0.  1.
<mgrwt>
<rscale>  0 0.20270727E+04</rscale>
<asrwt>0</asrwt>
<pdfrwt beam="1">  1        2 0.12389667E+00 0.20270727E+04</pdfrwt>
<pdfrwt beam="2">  1       -2 0.19624215E+00 0.20270727E+04</pdfrwt>
<totfact> 0.44547378E+00</totfact>
</mgrwt>
</event>
<event>
 6    1  0.1719556E-004  0.1069030E+04  0.7818608E-02  0.9235915E-01
          4   -1    0    0  501    0  0.00000000000E+00  0.00000000000E+00  0.29639042878E+03  0.29639042878E+03  0.00000000000E+00 0.  1.
         -4   -1    0    0    0  501 -0.00000000000E+00 -0.00000000000E+00 -0.96395205621E+03  0.96395205621E+03  0.00000000000E+00 0. -1.
         23    2    1    2    0    0 -0.44374146764E+03 -0.27732052704E+03 -0.23205623722E+03  0.57955021879E+03  0.90637707647E+02 0.  0.
         13    1    3    3    0    0 -0.22437556632E+03 -0.11406620594E+03 -0.15440908019E+03  0.29529249592E+03  0.00000000000E+00 0. -1.
        -13    1    3    3    0    0 -0.21936590131E+03 -0.16325432109E+03 -0.77647157025E+02  0.28425772287E+03  0.00000000000E+00 0.  1.
         22    1    1    2    0    0  0.44374146764E+03  0.27732052704E+03 -0.43550539022E+03  0.68079226621E+03  0.00000000000E+00 0. -1.
<mgrwt>
<rscale>  0 0.10690298E+04</rscale>
<asrwt>0</asrwt>
<pdfrwt beam="1">  1        4 0.45598528E-01 0.10690298E+04</pdfrwt>
<pdfrwt beam="2">  1       -4 0.14830032E+00 0.10690298E+04</pdfrwt>
<totfact> 0.28401792E+00</totfact>
</mgrwt>
</event>
<event>
 6    1  0.1719556E-004  0.4031408E+04  0.7818608E-02  0.7998240E-01
          2   -1    0    0  501    0  0.00000000000E+00  0.00000000000E+00  0.12989828220E+04  0.12989828220E+04  0.00000000000E+00 0.  1.
         -2   -1    0    0    0  501 -0.00000000000E+00 -0.00000000000E+00 -0.31278804716E+04  0.31278804716E+04  0.00000000000E+00 0. -1.
         23    2    1    2    0    0  0.19808741466E+04  0.34567648364E+03 -0.10515023786E+04  0.22710112524E+04  0.92088219090E+02 0.  0.
         11    1    3    3    0    0  0.15045596592E+04  0.28726516774E+03 -0.76556589644E+03  0.17123995405E+04  0.00000000000E+00 0. -1.
        -11    1    3    3    0    0  0.47631448746E+03  0.58411315905E+02 -0.28593648215E+03  0.55861171185E+03  0.00000000000E+00 0.  1.
         22    1    1    2    0    0 -0.19808741466E+04 -0.34567648364E+03 -0.77739527109E+03  0.21558520412E+04  0.00000000000E+00 0.  1.
<mgrwt>
<rscale>  0 0.40314082E+04</rscale>
<asrwt>0</asrwt>
<pdfrwt beam="1">  1        2 0.19984351E+00 0.40314082E+04</pdfrwt>
<pdfrwt beam="2">  1       -2 0.48121238E+00 0.40314082E+04</pdfrwt>
<totfact> 0.28276697E-02</totfact>
</mgrwt>
</event>
<event>
 6    1  0.1719556E-004  0.2687814E+04  0.7818608E-02  0.8338970E-01
          2   -1    0    0  501    0  0.00000000000E+00  0.00000000000E+00  0.16020961276E+04  0.16020961276E+04  0.00000000000E+00 0.  1.
         -2   -1    0    0    0  501 -0.00000000000E+00 -0.00000000000E+00 -0.11273268331E+04  0.11273268331E+04  0.00000000000E+00 0. -1.
         23    2    1    2    0    0  0.65882065949E+03 -0.98546945696E+03 -0.40254625641E+03  0.12546764442E+04  0.83515143356E+02 0.  0.
         13    1    3    3    0    0  0.45665723932E+03 -0.64436117594E+03 -0.23291262833E+03  0.82339871977E+03  0.00000000000E+00 0. -1.
        -13    1    3    3    0    0  0.20216342017E+03 -0.34110828102E+03 -0.16963362808E+03  0.43127772445E+03  0.00000000000E+00 0.  1.
         22    1    1    2    0    0 -0.65882065949E+03  0.98546945696E+03  0.87731555092E+03  0.14747465165E+04  0.00000000000E+00 0.  1.
<mgrwt>
<rscale>  0 0.26878139E+04</rscale>
<asrwt>0</asrwt>
<pdfrwt beam="1">  1        2 0.24647633E+00 0.26878139E+04</pdfrwt>
<pdfrwt beam="2">  1       -2 0.17343490E+00 0.26878139E+04</pdfrwt>
<totfact> 0.19686302E+00</totfact>
</mgrwt>
</event>
<event>
 6    1  0.1719556E-004  0.2556076E+04  0.7818608E-02  0.8383276E-01
         -1   -1    0    0    0  501 -0.00000000000E+00  0.00000000000E+00  0.91165733676E+03  0.91165733676E+03  0.00000000000E+00 0. -1.
          1   -1    0    0  501    0  0.00000000000E+00 -0.00000000000E+00 -0.17916617125E+04  0.17916617125E+04  0.00000000000E+00 0.  1.
         23    2    1    2    0    0 -0.71264129758E+03 -0.47976400507E+03 -0.14390141140E+04  0.16783688032E+04  0.90161519084E+02 0.  0.
         13    1    3    3    0    0 -0.66379422798E+03 -0.46284794394E+03 -0.13154658990E+04  0.15444421413E+04  0.00000000000E+00 0.  1.
        -13    1    3    3    0    0 -0.48847069596E+02 -0.16916061132E+02 -0.12354821498E+03  0.13392666186E+03  0.00000000000E+00 0. -1.
         22    1    1    2    0    0  0.71264129758E+03  0.47976400507E+03  0.55900973824E+03  0.10249502461E+04  0.00000000000E+00 0. -1.
<mgrwt>
<rscale>  0 0.25560763E+04</rscale>
<asrwt>0</asrwt>
<pdfrwt beam="1">  1        1 0.27564026E+00 0.25560763E+04</pdfrwt>
<pdfrwt beam="2">  1       -1 0.14025498E+00 0.25560763E+04</pdfrwt>
<totfact> 0.15222383E+00</totfact>
</mgrwt>
</event>
<event>
 6    1  0.1719556E-004  0.1496432E+04  0.7818608E-02  0.8886829E-01
          2   -1    0    0  501    0  0.00000000000E+00  0.00000000000E+00  0.92050595656E+03  0.92050595656E+03  0.00000000000E+00 0.  1.
         -2   -1    0    0    0  501 -0.00000000000E+00 -0.00000000000E+00 -0.60817358722E+03  0.60817358722E+03  0.00000000000E+00 0. -1.
         23    2    1    2    0    0 -0.80625362392E+02 -0.38282690923E+03 -0.49023546076E+03  0.63583464493E+03  0.10439347303E+03 0.  0.
         11    1    3    3    0    0 -0.39612409249E+02 -0.13182526786E+03 -0.25307206278E+03  0.28808421195E+03  0.00000000000E+00 0.  1.
        -11    1    3    3    0    0 -0.41012953142E+02 -0.25100164137E+03 -0.23716339798E+03  0.34775043298E+03  0.00000000000E+00 0. -1.
         22    1    1    2    0    0  0.80625362392E+02  0.38282690923E+03  0.80256783010E+03  0.89284489885E+03  0.00000000000E+00 0.  1.
<mgrwt>
<rscale>  0 0.14964323E+04</rscale>
<asrwt>0</asrwt>
<pdfrwt beam="1">  1        2 0.14161630E+00 0.14964323E+04</pdfrwt>
<pdfrwt beam="2">  1       -2 0.93565167E-01 0.14964323E+04</pdfrwt>
<totfact> 0.26516219E+01</totfact>
</mgrwt>
</event>
<event>
 6    1  0.1719556E-004  0.4238658E+04  0.7818608E-02  0.7958059E-01
         -2   -1    0    0    0  501 -0.00000000000E+00  0.00000000000E+00  0.12779323234E+04  0.12779323234E+04  0.00000000000E+00 0. -1.
          2   -1    0    0  501    0  0.00000000000E+00 -0.00000000000E+00 -0.35147052336E+04  0.35147052336E+04  0.00000000000E+00 0.  1.
         23    2    1    2    0    0  0.15294049137E+04  0.73555176051E+03  0.31483932479E+03  0.17281896818E+04  0.86023215951E+02 0.  0.
         13    1    3    3    0    0  0.56791551875E+03  0.31611320508E+03  0.10446071924E+03  0.65830664338E+03  0.00000000000E+00 0. -1.
        -13    1    3    3    0    0  0.96148939491E+03  0.41943855543E+03  0.21037860556E+03  0.10698830385E+04  0.00000000000E+00 0.  1.
         22    1    1    2    0    0 -0.15294049137E+04 -0.73555176051E+03 -0.25516122350E+04  0.30644478752E+04  0.00000000000E+00 0. -1.
<mgrwt>
<rscale>  0 0.42386580E+04</rscale>
<asrwt>0</asrwt>
<pdfrwt beam="1">  1        2 0.54072388E+00 0.42386580E+04</pdfrwt>
<pdfrwt beam="2">  1       -2 0.19660497E+00 0.42386580E+04</pdfrwt>
<totfact> 0.85869082E-02</totfact>
</mgrwt>
</event>
<event>
 6    1  0.1719556E-004  0.8021404E+03  0.7818608E-02  0.9556924E-01
         -1   -1    0    0    0  501 -0.00000000000E+00  0.00000000000E+00  0.42448215976E+03  0.42448215976E+03  0.00000000000E+00 0. -1.
          1   -1    0    0  501    0  0.00000000000E+00 -0.00000000000E+00 -0.37894951183E+03  0.37894951183E+03  0.00000000000E+00 0.  1.
         23    2    1    2    0    0  0.14021916897E+03 -0.82573915312E+02  0.38449045899E+03  0.42743663903E+03  0.91593124691E+02 0.  0.
         11    1    3    3    0    0  0.10165920604E+03 -0.11440508574E+02  0.17282392700E+03  0.20083224132E+03  0.00000000000E+00 0.  1.
        -11    1    3    3    0    0  0.38559962927E+02 -0.71133406738E+02  0.21166653199E+03  0.22660439771E+03  0.00000000000E+00 0. -1.
         22    1    1    2    0    0 -0.14021916897E+03  0.82573915312E+02 -0.33895781106E+03  0.37599503257E+03  0.00000000000E+00 0.  1.
<mgrwt>
<rscale>  0 0.80214040E+03</rscale>
<asrwt>0</asrwt>
<pdfrwt beam="1">  1        1 0.58299925E-01 0.80214040E+03</pdfrwt>
<pdfrwt beam="2">  1       -1 0.65304947E-01 0.80214040E+03</pdfrwt>
<totfact> 0.15512873E+02</totfact>
</mgrwt>
</event>
<event>
 6    1  0.1719556E-004  0.2340795E+04  0.7818608E-02  0.8462008E-01
         -2   -1    0    0    0  501 -0.00000000000E+00  0.00000000000E+00  0.57549726762E+03  0.57549726762E+03  0.00000000000E+00 0. -1.
          2   -1    0    0  501    0  0.00000000000E+00 -0.00000000000E+00 -0.23802561185E+04  0.23802561185E+04  0.00000000000E+00 0.  1.
         23    2    1    2    0    0 -0.77094063796E+03 -0.60091283474E+03 -0.17122986061E+04  0.19739211198E+04  0.94616957404E+02 0.  0.
         13    1    3    3    0    0 -0.96115274150E+02 -0.97211677401E+02 -0.29904471675E+03  0.32880997364E+03  0.00000000000E+00 0. -1.
        -13    1    3    3    0    0 -0.67482536381E+03 -0.50370115734E+03 -0.14132538894E+04  0.16451111462E+04  0.00000000000E+00 0.  1.
         22    1    1    2    0    0  0.77094063796E+03  0.60091283474E+03 -0.92460244753E+02  0.98183226627E+03  0.00000000000E+00 0. -1.
<mgrwt>
<rscale>  0 0.23407955E+04</rscale>
<asrwt>0</asrwt>
<pdfrwt beam="1">  1        2 0.36619325E+00 0.23407955E+04</pdfrwt>
<pdfrwt beam="2">  1       -2 0.88538041E-01 0.23407955E+04</pdfrwt>
<totfact> 0.40459261E+00</totfact>
</mgrwt>
</event>
<event>
 6    1  0.1719556E-004  0.1344368E+04  0.7818608E-02  0.8995102E-01
          1   -1    0    0  501    0  0.00000000000E+00  0.00000000000E+00  0.70288678686E+03  0.70288678686E+03  0.00000000000E+00 0.  1.
         -1   -1    0    0    0  501 -0.00000000000E+00 -0.00000000000E+00 -0.64282238938E+03  0.64282238938E+03  0.00000000000E+00 0. -1.
         23    2    1    2    0    0  0.26449368390E+02 -0.43256122472E+03  0.53996264458E+03  0.69909405904E+03  0.96768091941E+02 0.  0.
         11    1    3    3    0    0  0.27474785149E+02 -0.16624376910E+03  0.14260858162E+03  0.22074660164E+03  0.00000000000E+00 0. -1.
        -11    1    3    3    0    0 -0.10254167591E+01 -0.26631745562E+03  0.39735406296E+03  0.47834745740E+03  0.00000000000E+00 0.  1.
         22    1    1    2    0    0 -0.26449368390E+02  0.43256122472E+03 -0.47989824710E+03  0.64661511720E+03  0.00000000000E+00 0. -1.
<mgrwt>
<rscale>  0 0.13443681E+04</rscale>
<asrwt>0</asrwt>
<pdfrwt beam="1">  1        1 0.10813643E+00 0.13443681E+04</pdfrwt>
<pdfrwt beam="2">  1       -1 0.98895752E-01 0.13443681E+04</pdfrwt>
<totfact> 0.25930735E+01</totfact>
</mgrwt>
</event>
<event>
 6    1  0.1719556E-004  0.2279584E+04  0.7818608E-02  0.8486014E-01
          2   -1    0    0  501    0  0.00000000000E+00  0.00000000000E+00  0.40416052009E+04  0.40416052009E+04  0.00000000000E+00 0.  1.
         -2   -1    0    0    0  501 -0.00000000000E+00 -0.00000000000E+00 -0.32143816532E+03  0.32143816532E+03  0.00000000000E+00 0. -1.
         23    2    1    2    0    0  0.76127318152E+03  0.84514921922E+02  0.34739187179E+04  0.35584827017E+04  0.89488830213E+02 0.  0.
         11    1    3    3    0    0  0.46639233322E+03  0.50583032507E+02  0.19212522157E+04  0.19776982904E+04  0.00000000000E+00 0.  1.
        -11    1    3    3    0    0  0.29488084830E+03  0.33931889415E+02  0.15526665022E+04  0.15807844112E+04  0.00000000000E+00 0. -1.
         22    1    1    2    0    0 -0.76127318152E+03 -0.84514921922E+02  0.24624831767E+03  0.80456066451E+03  0.00000000000E+00 0. -1.
<mgrwt>
<rscale>  0 0.22795843E+04</rscale>
<asrwt>0</asrwt>
<pdfrwt beam="1">  1        2 0.62178538E+00 0.22795843E+04</pdfrwt>
<pdfrwt beam="2">  1       -2 0.49452028E-01 0.22795843E+04</pdfrwt>
<totfact> 0.11191787E+00</totfact>
</mgrwt>
</event>
<event>
 6    1  0.1719556E-004  0.1400215E+04  0.7818608E-02  0.8953663E-01
         -2   -1    0    0    0  501 -0.00000000000E+00  0.00000000000E+00  0.69666489349E+03  0.69666489349E+03  0.00000000000E+00 0. -1.
          2   -1    0    0  501    0  0.00000000000E+00 -0.00000000000E+00 -0.70356675444E+03  0.70356675444E+03  0.00000000000E+00 0.  1.
         23    2    1    2    0    0 -0.47945602140E+03  0.45878827326E+03  0.21061134965E+03  0.70189308181E+03  0.89061785041E+02 0.  0.
         13    1    3    3    0    0 -0.39951790442E+03  0.33942178748E+03  0.18529887891E+03  0.55601922655E+03  0.00000000000E+00 0. -1.
        -13    1    3    3    0    0 -0.79938116984E+02  0.11936648578E+03  0.25312470741E+02  0.14587385526E+03  0.00000000000E+00 0.  1.
         22    1    1    2    0    0  0.47945602140E+03 -0.45878827326E+03 -0.21751321060E+03  0.69833856611E+03  0.00000000000E+00 0.  1.
<mgrwt>
<rscale>  0 0.14002146E+04</rscale>
<asrwt>0</asrwt>
<pdfrwt beam="1">  1        2 0.10824104E+00 0.14002146E+04</pdfrwt>
<pdfrwt beam="2">  1       -2 0.10717921E+00 0.14002146E+04</pdfrwt>
<totfact> 0.27723455E+01</totfact>
</mgrwt>
</event>
<event>
 6    1  0.1719556E-004  0.1787691E+04  0.7818608E-02  0.8712873E-01
         -2   -1    0    0    0  501 -0.00000000000E+00  0.00000000000E+00  0.73663887946E+03  0.73663887946E+03  0.00000000000E+00 0. -1.
          2   -1    0    0  501    0  0.00000000000E+00 -0.00000000000E+00 -0.10846017995E+04  0.10846017995E+04  0.00000000000E+00 0.  1.
         23    2    1    2    0    0  0.76102251893E+03 -0.30546673776E+03 -0.53097113754E+03  0.98102808093E+03  0.89557492617E+02 0.  0.
         13    1    3    3    0    0  0.46078274162E+03 -0.13786015952E+03 -0.30217560804E+03  0.56801078920E+03  0.00000000000E+00 0. -1.
        -13    1    3    3    0    0  0.30023977731E+03 -0.16760657824E+03 -0.22879552949E+03  0.41301729173E+03  0.00000000000E+00 0.  1.
         22    1    1    2    0    0 -0.76102251893E+03  0.30546673776E+03  0.18300821752E+03  0.84021259802E+03  0.00000000000E+00 0.  1.
<mgrwt>
<rscale>  0 0.17876911E+04</rscale>
<asrwt>0</asrwt>
<pdfrwt beam="1">  1        2 0.16686181E+00 0.17876911E+04</pdfrwt>
<pdfrwt beam="2">  1       -2 0.11332906E+00 0.17876911E+04</pdfrwt>
<totfact> 0.12862360E+01</totfact>
</mgrwt>
</event>
<event>
 6    1  0.1719556E-004  0.1408760E+04  0.7818608E-02  0.8947502E-01
          2   -1    0    0  501    0  0.00000000000E+00  0.00000000000E+00  0.85271453891E+03  0.85271453891E+03  0.00000000000E+00 0.  1.
         -2   -1    0    0    0  501 -0.00000000000E+00 -0.00000000000E+00 -0.58184901321E+03  0.58184901321E+03  0.00000000000E+00 0. -1.
         23    2    1    2    0    0  0.21252005278E+03 -0.65482127936E+03  0.27257846345E+03  0.74611702923E+03  0.91847274543E+02 0.  0.
         11    1    3    3    0    0  0.99420876666E+02 -0.23959121509E+03  0.14535141636E+03  0.29734743198E+03  0.00000000000E+00 0.  1.
        -11    1    3    3    0    0  0.11309917611E+03 -0.41523006427E+03  0.12722704709E+03  0.44876959725E+03  0.00000000000E+00 0. -1.
         22    1    1    2    0    0 -0.21252005278E+03  0.65482127936E+03 -0.17129377533E+01  0.68844652289E+03  0.00000000000E+00 0. -1.
<mgrwt>
<rscale>  0 0.14087599E+04</rscale>
<asrwt>0</asrwt>
<pdfrwt beam="1">  1        2 0.13118685E+00 0.14087599E+04</pdfrwt>
<pdfrwt beam="2">  1       -2 0.89515233E-01 0.14087599E+04</pdfrwt>
<totfact> 0.32901572E+01</totfact>
</mgrwt>
</event>
<event>
 6    1  0.1719556E-004  0.1474204E+04  0.7818608E-02  0.8901791E-01
          2   -1    0    0  501    0  0.00000000000E+00  0.00000000000E+00  0.78224361533E+03  0.78224361533E+03  0.00000000000E+00 0.  1.
         -2   -1    0    0    0  501 -0.00000000000E+00 -0.00000000000E+00 -0.69456501054E+03  0.69456501054E+03  0.00000000000E+00 0. -1.
         23    2    1    2    0    0 -0.35493827063E+03 -0.32282915087E+03 -0.51320247407E+03  0.70787565899E+03  0.86667944398E+02 0.  0.
         11    1    3    3    0    0 -0.34139375857E+03 -0.32206020949E+03 -0.51151525707E+03  0.69420482218E+03  0.00000000000E+00 0. -1.
        -11    1    3    3    0    0 -0.13544512061E+02 -0.76894137760E+00 -0.16872170069E+01  0.13670836809E+02  0.00000000000E+00 0.  1.
         22    1    1    2    0    0  0.35493827063E+03  0.32282915087E+03  0.60088107887E+03  0.76893296688E+03  0.00000000000E+00 0.  1.
<mgrwt>
<rscale>  0 0.14742036E+04</rscale>
<asrwt>0</asrwt>
<pdfrwt beam="1">  1        2 0.12034517E+00 0.14742036E+04</pdfrwt>
<pdfrwt beam="2">  1       -2 0.10685616E+00 0.14742036E+04</pdfrwt>
<totfact> 0.24213280E+01</totfact>
</mgrwt>
</event>
<event>
 6    1  0.1719556E-004  0.1339011E+04  0.7818608E-02  0.8999189E-01
          1   -1    0    0  501    0  0.00000000000E+00  0.00000000000E+00  0.29942865760E+03  0.29942865760E+03  0.00000000000E+00 0.  1.
         -1   -1    0    0    0  501 -0.00000000000E+00 -0.00000000000E+00 -0.14969757453E+04  0.14969757453E+04  0.00000000000E+00 0. -1.
         23    2    1    2    0    0 -0.69907743202E+02  0.36581207053E+03  0.13978799260E+03  0.40817867178E+03  0.91452620060E+02 0.  0.
         13    1    3    3    0    0 -0.55582862780E+02  0.15963222890E+03  0.10389323783E+03  0.19840793332E+03  0.00000000000E+00 0.  1.
        -13    1    3    3    0    0 -0.14324880422E+02  0.20617984163E+03  0.35894754778E+02  0.20977073846E+03  0.00000000000E+00 0. -1.
         22    1    1    2    0    0  0.69907743202E+02 -0.36581207053E+03 -0.13373350803E+04  0.13882257311E+04  0.00000000000E+00 0. -1.
<mgrwt>
<rscale>  0 0.13390107E+04</rscale>
<asrwt>0</asrwt>
<pdfrwt beam="1">  1        1 0.46065949E-01 0.13390107E+04</pdfrwt>
<pdfrwt beam="2">  1       -1 0.23030395E+00 0.13390107E+04</pdfrwt>
<totfact> 0.80948642E+00</totfact>
</mgrwt>
</event>
<event>
 6    1  0.1719556E-004  0.3804008E+04  0.7818608E-02  0.8045295E-01
         -2   -1    0    0    0  501 -0.00000000000E+00  0.00000000000E+00  0.14292114683E+04  0.14292114683E+04  0.00000000000E+00 0. -1.
          2   -1    0    0  501    0  0.00000000000E+00 -0.00000000000E+00 -0.25311999830E+04  0.25311999830E+04  0.00000000000E+00 0.  1.
         23    2    1    2    0    0  0.13651888673E+04  0.74357326072E+03 -0.16902801834E+04  0.22982655718E+04  0.91300068311E+02 0.  0.
         13    1    3    3    0    0  0.34917775365E+03  0.15784954402E+03 -0.45715750414E+03  0.59651870530E+03  0.00000000000E+00 0. -1.
        -13    1    3    3    0    0  0.10160111137E+04  0.58572371670E+03 -0.12331226793E+04  0.17017468665E+04  0.00000000000E+00 0.  1.
         22    1    1    2    0    0 -0.13651888673E+04 -0.74357326072E+03  0.58829166871E+03  0.16621458796E+04  0.00000000000E+00 0. -1.
<mgrwt>
<rscale>  0 0.38040084E+04</rscale>
<asrwt>0</asrwt>
<pdfrwt beam="1">  1        2 0.38941538E+00 0.38040084E+04</pdfrwt>
<pdfrwt beam="2">  1       -2 0.21987869E+00 0.38040084E+04</pdfrwt>
<totfact> 0.26495432E-01</totfact>
</mgrwt>
</event>
<event>
 6    1  0.1719556E-004  0.1596971E+04  0.7818608E-02  0.8822411E-01
         -1   -1    0    0    0  501 -0.00000000000E+00  0.00000000000E+00  0.85992145850E+03  0.85992145850E+03  0.00000000000E+00 0. -1.
          1   -1    0    0  501    0  0.00000000000E+00 -0.00000000000E+00 -0.74143907525E+03  0.74143907525E+03  0.00000000000E+00 0.  1.
         23    2    1    2    0    0  0.65201814022E+03  0.26422610497E+03  0.43285031940E+03  0.83079561825E+03  0.88988036187E+02 0.  0.
         11    1    3    3    0    0  0.26650568086E+03  0.14073013599E+03  0.22235341349E+03  0.37452808919E+03  0.00000000000E+00 0. -1.
        -11    1    3    3    0    0  0.38551245936E+03  0.12349596898E+03  0.21049690591E+03  0.45626752906E+03  0.00000000000E+00 0.  1.
         22    1    1    2    0    0 -0.65201814022E+03 -0.26422610497E+03 -0.31436793615E+03  0.77056491550E+03  0.00000000000E+00 0.  1.
<mgrwt>
<rscale>  0 0.15969713E+04</rscale>
<asrwt>0</asrwt>
<pdfrwt beam="1">  1        1 0.11406755E+00 0.15969713E+04</pdfrwt>
<pdfrwt beam="2">  1       -1 0.13229561E+00 0.15969713E+04</pdfrwt>
<totfact> 0.11611949E+01</totfact>
</mgrwt>
</event>
<event>
 6    1  0.1719556E-004  0.1706722E+04  0.7818608E-02  0.8757540E-01
          2   -1    0    0  501    0  0.00000000000E+00  0.00000000000E+00  0.34019387025E+04  0.34019387025E+04  0.00000000000E+00 0.  1.
         -2   -1    0    0    0  501 -0.00000000000E+00 -0.00000000000E+00 -0.21406175285E+03  0.21406175285E+03  0.00000000000E+00 0. -1.
         23    2    1    2    0    0 -0.61047530514E+03  0.22675428931E+02  0.34252758174E+03  0.70581020405E+03  0.87456426957E+02 0.  0.
         11    1    3    3    0    0 -0.41290562582E+03 -0.35035557274E+01  0.27174884332E+03  0.49431848496E+03  0.00000000000E+00 0. -1.
        -11    1    3    3    0    0 -0.19756967933E+03  0.26178984658E+02  0.70778738419E+02  0.21149171908E+03  0.00000000000E+00 0.  1.
         22    1    1    2    0    0  0.61047530514E+03 -0.22675428931E+02  0.28453493679E+04  0.29101902513E+04  0.00000000000E+00 0.  1.
<mgrwt>
<rscale>  0 0.17067220E+04</rscale>
<asrwt>0</asrwt>
<pdfrwt beam="1">  1        2 0.52337514E+00 0.17067220E+04</pdfrwt>
<pdfrwt beam="2">  1       -2 0.32932580E-01 0.17067220E+04</pdfrwt>
<totfact> 0.78450974E+00</totfact>
</mgrwt>
</event>
<event>
 6    1  0.1719556E-004  0.2051793E+04  0.7818608E-02  0.8582782E-01
          1   -1    0    0  501    0  0.00000000000E+00  0.00000000000E+00  0.18323394786E+04  0.18323394786E+04  0.00000000000E+00 0.  1.
         -1   -1    0    0    0  501 -0.00000000000E+00 -0.00000000000E+00 -0.57438217137E+03  0.57438217137E+03  0.00000000000E+00 0. -1.
         23    2    1    2    0    0  0.26166457654E+02  0.86026757511E+03 -0.20573407964E+02  0.86549299270E+03  0.88937455581E+02 0.  0.
         11    1    3    3    0    0 -0.17746394901E+02  0.30937453078E+03 -0.40348356247E+02  0.31249883949E+03  0.00000000000E+00 0. -1.
        -11    1    3    3    0    0  0.43912852555E+02  0.55089304432E+03  0.19774948283E+02  0.55299415321E+03  0.00000000000E+00 0.  1.
         22    1    1    2    0    0 -0.26166457654E+02 -0.86026757511E+03  0.12785307151E+04  0.15412286572E+04  0.00000000000E+00 0.  1.
<mgrwt>
<rscale>  0 0.20517925E+04</rscale>
<asrwt>0</asrwt>
<pdfrwt beam="1">  1        1 0.28189838E+00 0.20517925E+04</pdfrwt>
<pdfrwt beam="2">  1       -1 0.88366489E-01 0.20517925E+04</pdfrwt>
<totfact> 0.44979289E+00</totfact>
</mgrwt>
</event>
<event>
 6    1  0.1719556E-004  0.1408349E+04  0.7818608E-02  0.8947797E-01
         -1   -1    0    0    0  501 -0.00000000000E+00  0.00000000000E+00  0.23176870187E+03  0.23176870187E+03  0.00000000000E+00 0. -1.
          1   -1    0    0  501    0  0.00000000000E+00 -0.00000000000E+00 -0.21394685609E+04  0.21394685609E+04  0.00000000000E+00 0.  1.
         23    2    1    2    0    0  0.63691598665E+02  0.25989694973E+03 -0.20491303191E+04  0.20685730607E+04  0.91958679085E+02 0.  0.
         11    1    3    3    0    0  0.83259535284E+02  0.20830413808E+03 -0.15006869452E+04  0.15173608904E+04  0.00000000000E+00 0.  1.
        -11    1    3    3    0    0 -0.19567936619E+02  0.51592811658E+02 -0.54844337384E+03  0.55121217028E+03  0.00000000000E+00 0. -1.
         22    1    1    2    0    0 -0.63691598665E+02 -0.25989694973E+03  0.14143046000E+03  0.30266420211E+03  0.00000000000E+00 0. -1.
<mgrwt>
<rscale>  0 0.14083492E+04</rscale>
<asrwt>0</asrwt>
<pdfrwt beam="1">  1        1 0.32914899E+00 0.14083492E+04</pdfrwt>
<pdfrwt beam="2">  1       -1 0.35656725E-01 0.14083492E+04</pdfrwt>
<totfact> 0.17544085E+01</totfact>
</mgrwt>
</event>
<event>
 6    1  0.1719556E-004  0.2006106E+04  0.7818608E-02  0.8603771E-01
          2   -1    0    0  501    0  0.00000000000E+00  0.00000000000E+00  0.41114925748E+03  0.41114925748E+03  0.00000000000E+00 0.  1.
         -2   -1    0    0    0  501 -0.00000000000E+00 -0.00000000000E+00 -0.24470812579E+04  0.24470812579E+04  0.00000000000E+00 0. -1.
         23    2    1    2    0    0 -0.84644550030E+03 -0.53428628662E+03 -0.10176805873E+04  0.14303762647E+04  0.91491309000E+02 0.  0.
         11    1    3    3    0    0 -0.29436073678E+03 -0.21867523144E+03 -0.32422136547E+03  0.48947583600E+03  0.00000000000E+00 0.  1.
        -11    1    3    3    0    0 -0.55208476353E+03 -0.31561105518E+03 -0.69345922187E+03  0.94090042867E+03  0.00000000000E+00 0. -1.
         22    1    1    2    0    0  0.84644550030E+03  0.53428628662E+03 -0.10182514131E+04  0.14278542507E+04  0.00000000000E+00 0.  1.
<mgrwt>
<rscale>  0 0.20061063E+04</rscale>
<asrwt>0</asrwt>
<pdfrwt beam="1">  1        2 0.63253732E-01 0.20061063E+04</pdfrwt>
<pdfrwt beam="2">  1       -2 0.37647404E+00 0.20061063E+04</pdfrwt>
<totfact> 0.75729796E-01</totfact>
</mgrwt>
</event>
<event>
 6    1  0.1719556E-004  0.1777574E+04  0.7818608E-02  0.8718317E-01
          2   -1    0    0  501    0  0.00000000000E+00  0.00000000000E+00  0.17249005294E+04  0.17249005294E+04  0.00000000000E+00 0.  1.
         -2   -1    0    0    0  501 -0.00000000000E+00 -0.00000000000E+00 -0.45796405608E+03  0.45796405608E+03  0.00000000000E+00 0. -1.
         23    2    1    2    0    0  0.32873992567E+03 -0.81680783968E+03  0.50998747213E+03  0.10217372126E+04  0.92815538384E+02 0.  0.
         13    1    3    3    0    0  0.19531914603E+03 -0.38340348937E+03  0.27896362253E+03  0.51280455065E+03  0.00000000000E+00 0.  1.
        -13    1    3    3    0    0  0.13342077964E+03 -0.43340435031E+03  0.23102384959E+03  0.50893266194E+03  0.00000000000E+00 0. -1.
         22    1    1    2    0    0 -0.32873992567E+03  0.81680783968E+03  0.75694900119E+03  0.11611273729E+04  0.00000000000E+00 0.  1.
<mgrwt>
<rscale>  0 0.17775741E+04</rscale>
<asrwt>0</asrwt>
<pdfrwt beam="1">  1        2 0.26536931E+00 0.17775741E+04</pdfrwt>
<pdfrwt beam="2">  1       -2 0.70456009E-01 0.17775741E+04</pdfrwt>
<totfact> 0.16462611E+01</totfact>
</mgrwt>
</event>
<event>
 6    1  0.1719556E-004  0.2080525E+04  0.7818608E-02  0.8569871E-01
         -2   -1    0    0    0  501 -0.00000000000E+00  0.00000000000E+00  0.53346207545E+03  0.53346207545E+03  0.00000000000E+00 0. -1.
          2   -1    0    0  501    0  0.00000000000E+00 -0.00000000000E+00 -0.20285343003E+04  0.20285343003E+04  0.00000000000E+00 0.  1.
         23    2    1    2    0    0 -0.26753829299E+03 -0.39748960270E+03  0.38495198256E+03  0.62187634263E+03  0.94696537307E+02 0.  0.
         13    1    3    3    0    0 -0.17205179082E+03 -0.17939576911E+03  0.22297116438E+03  0.33391735631E+03  0.00000000000E+00 0.  1.
        -13    1    3    3    0    0 -0.95486502170E+02 -0.21809383359E+03  0.16198081818E+03  0.28795898632E+03  0.00000000000E+00 0. -1.
         22    1    1    2    0    0  0.26753829299E+03  0.39748960270E+03 -0.18800242075E+04  0.19401200332E+04  0.00000000000E+00 0.  1.
<mgrwt>
<rscale>  0 0.20805250E+04</rscale>
<asrwt>0</asrwt>
<pdfrwt beam="1">  1        2 0.31208221E+00 0.20805250E+04</pdfrwt>
<pdfrwt beam="2">  1       -2 0.82071086E-01 0.20805250E+04</pdfrwt>
<totfact> 0.77566599E+00</totfact>
</mgrwt>
</event>
<event>
 6    1  0.1719556E-004  0.1855788E+04  0.7818608E-02  0.8677182E-01
          2   -1    0    0  501    0  0.00000000000E+00  0.00000000000E+00  0.14997502322E+04  0.14997502322E+04  0.00000000000E+00 0.  1.
         -2   -1    0    0    0  501 -0.00000000000E+00 -0.00000000000E+00 -0.57408706991E+03  0.57408706991E+03  0.00000000000E+00 0. -1.
         23    2    1    2    0    0 -0.47694317491E+03  0.64222183607E+03  0.98452977497E+03  0.12717220006E+04  0.89745697413E+02 0.  0.
         11    1    3    3    0    0 -0.20781910890E+03  0.24590424173E+03  0.45840973872E+03  0.56017601401E+03  0.00000000000E+00 0. -1.
        -11    1    3    3    0    0 -0.26912406601E+03  0.39631759434E+03  0.52612003625E+03  0.71154598659E+03  0.00000000000E+00 0.  1.
         22    1    1    2    0    0  0.47694317491E+03 -0.64222183607E+03 -0.58866612680E+02  0.80211530150E+03  0.00000000000E+00 0. -1.
<mgrwt>
<rscale>  0 0.18557879E+04</rscale>
<asrwt>0</asrwt>
<pdfrwt beam="1">  1        2 0.23073080E+00 0.18557879E+04</pdfrwt>
<pdfrwt beam="2">  1       -2 0.88321088E-01 0.18557879E+04</pdfrwt>
<totfact> 0.13172380E+01</totfact>
</mgrwt>
</event>
<event>
 6    1  0.1719556E-004  0.2213057E+04  0.7818608E-02  0.8513013E-01
          1   -1    0    0  501    0  0.00000000000E+00  0.00000000000E+00  0.28864929692E+04  0.28864929692E+04  0.00000000000E+00 0.  1.
         -1   -1    0    0    0  501 -0.00000000000E+00 -0.00000000000E+00 -0.42418424133E+03  0.42418424133E+03  0.00000000000E+00 0. -1.
         23    2    1    2    0    0  0.45262793863E+03 -0.18252412753E+03 -0.24921146944E+03  0.55558576225E+03  0.91553671456E+02 0.  0.
         13    1    3    3    0    0  0.50499454264E+02 -0.53128850033E+02 -0.48511227066E+02  0.87898855159E+02  0.00000000000E+00 0. -1.
        -13    1    3    3    0    0  0.40212848437E+03 -0.12939527750E+03 -0.20070024238E+03  0.46768690709E+03  0.00000000000E+00 0.  1.
         22    1    1    2    0    0 -0.45262793863E+03  0.18252412753E+03  0.27115201973E+04  0.27550914483E+04  0.00000000000E+00 0.  1.
<mgrwt>
<rscale>  0 0.22130566E+04</rscale>
<asrwt>0</asrwt>
<pdfrwt beam="1">  1        1 0.44407583E+00 0.22130566E+04</pdfrwt>
<pdfrwt beam="2">  1       -1 0.65259116E-01 0.22130566E+04</pdfrwt>
<totfact> 0.15672181E+00</totfact>
</mgrwt>
</event>
<event>
 6    1  0.1719556E-004  0.2857719E+04  0.7818608E-02  0.8285570E-01
          2   -1    0    0  501    0  0.00000000000E+00  0.00000000000E+00  0.25399503076E+04  0.25399503076E+04  0.00000000000E+00 0.  1.
         -2   -1    0    0    0  501 -0.00000000000E+00 -0.00000000000E+00 -0.80381051917E+03  0.80381051917E+03  0.00000000000E+00 0. -1.
         23    2    1    2    0    0  0.17330686771E+03  0.11624675183E+04  0.18162406674E+04  0.21657191669E+04  0.10120942008E+03 0.  0.
         13    1    3    3    0    0  0.16135014545E+03  0.90771802020E+03  0.14806166166E+04  0.17441936357E+04  0.00000000000E+00 0.  1.
        -13    1    3    3    0    0  0.11956722257E+02  0.25474949808E+03  0.33562405085E+03  0.42152553124E+03  0.00000000000E+00 0. -1.
         22    1    1    2    0    0 -0.17330686771E+03 -0.11624675183E+04 -0.80100878966E+02  0.11780416598E+04  0.00000000000E+00 0. -1.
<mgrwt>
<rscale>  0 0.28577185E+04</rscale>
<asrwt>0</asrwt>
<pdfrwt beam="1">  1        2 0.39076158E+00 0.28577185E+04</pdfrwt>
<pdfrwt beam="2">  1       -2 0.12366316E+00 0.28577185E+04</pdfrwt>
<totfact> 0.14073747E+00</totfact>
</mgrwt>
</event>
<event>
 6    1  0.1719556E-004  0.1632009E+04  0.7818608E-02  0.8801121E-01
          2   -1    0    0  501    0  0.00000000000E+00  0.00000000000E+00  0.19547583262E+04  0.19547583262E+04  0.00000000000E+00 0.  1.
         -2   -1    0    0    0  501 -0.00000000000E+00 -0.00000000000E+00 -0.34063717322E+03  0.34063717322E+03  0.00000000000E+00 0. -1.
         23    2    1    2    0    0  0.69291355061E+03 -0.32824804581E+03  0.42799913321E+03  0.88303527131E+03  0.93231240174E+02 0.  0.
         13    1    3    3    0    0  0.45690556253E+03 -0.25274279851E+03  0.25702645823E+03  0.58198300276E+03  0.00000000000E+00 0. -1.
        -13    1    3    3    0    0  0.23600798808E+03 -0.75505247301E+02  0.17097267499E+03  0.30105226855E+03  0.00000000000E+00 0.  1.
         22    1    1    2    0    0 -0.69291355061E+03  0.32824804581E+03  0.11861220198E+04  0.14123602281E+04  0.00000000000E+00 0.  1.
<mgrwt>
<rscale>  0 0.16320090E+04</rscale>
<asrwt>0</asrwt>
<pdfrwt beam="1">  1        2 0.30073204E+00 0.16320090E+04</pdfrwt>
<pdfrwt beam="2">  1       -2 0.52405721E-01 0.16320090E+04</pdfrwt>
<totfact> 0.23274454E+01</totfact>
</mgrwt>
</event>
<event>
 6    1  0.1719556E-004  0.3202030E+04  0.7818608E-02  0.8188281E-01
         -1   -1    0    0    0  501 -0.00000000000E+00  0.00000000000E+00  0.13780792085E+04  0.13780792085E+04  0.00000000000E+00 0. -1.
          1   -1    0    0  501    0  0.00000000000E+00 -0.00000000000E+00 -0.18600159370E+04  0.18600159370E+04  0.00000000000E+00 0.  1.
         23    2    1    2    0    0  0.97572075060E+03  0.93291863771E+03 -0.11091677421E+04  0.17495431941E+04  0.90995274149E+02 0.  0.
         11    1    3    3    0    0  0.45735516893E+03  0.48645290102E+03 -0.51111391743E+03  0.84086123234E+03  0.00000000000E+00 0.  1.
        -11    1    3    3    0    0  0.51836558167E+03  0.44646573669E+03 -0.59805382471E+03  0.90868196171E+03  0.00000000000E+00 0. -1.
         22    1    1    2    0    0 -0.97572075060E+03 -0.93291863771E+03  0.62723101362E+03  0.14885519515E+04  0.00000000000E+00 0. -1.
<mgrwt>
<rscale>  0 0.32020302E+04</rscale>
<asrwt>0</asrwt>
<pdfrwt beam="1">  1        1 0.28615630E+00 0.32020302E+04</pdfrwt>
<pdfrwt beam="2">  1       -1 0.21201219E+00 0.32020302E+04</pdfrwt>
<totfact> 0.38652970E-01</totfact>
</mgrwt>
</event>
<event>
 6    1  0.1719556E-004  0.2309249E+04  0.7818608E-02  0.8474283E-01
          2   -1    0    0  501    0  0.00000000000E+00  0.00000000000E+00  0.38595761608E+04  0.38595761608E+04  0.00000000000E+00 0.  1.
         -2   -1    0    0    0  501 -0.00000000000E+00 -0.00000000000E+00 -0.34541548380E+03  0.34541548380E+03  0.00000000000E+00 0. -1.
         23    2    1    2    0    0 -0.40702161245E+03 -0.55985673379E+03  0.34382668547E+04  0.35086684240E+04  0.99844829507E+02 0.  0.
         11    1    3    3    0    0 -0.20835716648E+03 -0.21418203534E+03  0.15999087257E+04  0.16275732191E+04  0.00000000000E+00 0. -1.
        -11    1    3    3    0    0 -0.19866444597E+03 -0.34567469846E+03  0.18383581290E+04  0.18810952049E+04  0.00000000000E+00 0.  1.
         22    1    1    2    0    0  0.40702161245E+03  0.55985673379E+03  0.75893822365E+02  0.69632322068E+03  0.00000000000E+00 0. -1.
<mgrwt>
<rscale>  0 0.23092487E+04</rscale>
<asrwt>0</asrwt>
<pdfrwt beam="1">  1        2 0.59378092E+00 0.23092487E+04</pdfrwt>
<pdfrwt beam="2">  1       -2 0.53140846E-01 0.23092487E+04</pdfrwt>
<totfact> 0.13433164E+00</totfact>
</mgrwt>
</event>
<event>
 6    1  0.1719556E-004  0.3196766E+04  0.7818608E-02  0.8189672E-01
          2   -1    0    0  501    0  0.00000000000E+00  0.00000000000E+00  0.24738072383E+04  0.24738072383E+04  0.00000000000E+00 0.  1.
         -2   -1    0    0    0  501 -0.00000000000E+00 -0.00000000000E+00 -0.10327516152E+04  0.10327516152E+04  0.00000000000E+00 0. -1.
         23    2    1    2    0    0  0.56738953768E+03 -0.84054462379E+03  0.20744306656E+04  0.23108958172E+04  0.92362003023E+02 0.  0.
         13    1    3    3    0    0  0.28833519865E+03 -0.42467749082E+03  0.94514491440E+03  0.10755403606E+04  0.00000000000E+00 0. -1.
        -13    1    3    3    0    0  0.27905433904E+03 -0.41586713296E+03  0.11292857512E+04  0.12353554567E+04  0.00000000000E+00 0.  1.
         22    1    1    2    0    0 -0.56738953768E+03  0.84054462379E+03 -0.63337504252E+03  0.11956630364E+04  0.00000000000E+00 0. -1.
<mgrwt>
<rscale>  0 0.31967661E+04</rscale>
<asrwt>0</asrwt>
<pdfrwt beam="1">  1        2 0.38058573E+00 0.31967661E+04</pdfrwt>
<pdfrwt beam="2">  1       -2 0.15888486E+00 0.31967661E+04</pdfrwt>
<totfact> 0.77939585E-01</totfact>
</mgrwt>
</event>
<event>
 6    1  0.1779687E-004  0.2826866E+04  0.7818608E-02  0.8294976E-01
         -1   -1    0    0    0  501 -0.00000000000E+00  0.00000000000E+00  0.11631625641E+04  0.11631625641E+04  0.00000000000E+00 0. -1.
          1   -1    0    0  501    0  0.00000000000E+00 -0.00000000000E+00 -0.17175531114E+04  0.17175531114E+04  0.00000000000E+00 0.  1.
         23    2    1    2    0    0  0.47078016097E+03 -0.35624281372E+03 -0.15845526179E+04  0.16933754573E+04  0.90391030325E+02 0.  0.
         11    1    3    3    0    0  0.16906400185E+03 -0.14998743648E+03 -0.72322129257E+03  0.75771228435E+03  0.00000000000E+00 0.  1.
        -11    1    3    3    0    0  0.30171615912E+03 -0.20625537724E+03 -0.86133132529E+03  0.93566317297E+03  0.00000000000E+00 0. -1.
         22    1    1    2    0    0 -0.47078016097E+03  0.35624281372E+03  0.10301620705E+04  0.11873402182E+04  0.00000000000E+00 0. -1.
<mgrwt>
<rscale>  0 0.28268664E+04</rscale>
<asrwt>0</asrwt>
<pdfrwt beam="1">  1        1 0.26423894E+00 0.28268664E+04</pdfrwt>
<pdfrwt beam="2">  1       -1 0.17894809E+00 0.28268664E+04</pdfrwt>
<totfact> 0.84808600E-01</totfact>
</mgrwt>
</event>
<event>
 6    1  0.1719556E-004  0.8873128E+03  0.7818608E-02  0.9441582E-01
          1   -1    0    0  501    0  0.00000000000E+00  0.00000000000E+00  0.11283653965E+04  0.11283653965E+04  0.00000000000E+00 0.  1.
         -1   -1    0    0    0  501 -0.00000000000E+00 -0.00000000000E+00 -0.17443904568E+03  0.17443904568E+03  0.00000000000E+00 0. -1.
         23    2    1    2    0    0 -0.36292024076E+02 -0.32068425070E+03  0.45538022388E+02  0.33878947608E+03  0.92461332245E+02 0.  0.
         11    1    3    3    0    0  0.33294585383E+01 -0.24798863842E+03  0.86776194439E+01  0.24816275136E+03  0.00000000000E+00 0. -1.
        -11    1    3    3    0    0 -0.39621482614E+02 -0.72695612272E+02  0.36860402944E+02  0.90626724719E+02  0.00000000000E+00 0.  1.
         22    1    1    2    0    0  0.36292024076E+02  0.32068425070E+03  0.90838832846E+03  0.96401496614E+03  0.00000000000E+00 0.  1.
<mgrwt>
<rscale>  0 0.88731276E+03</rscale>
<asrwt>0</asrwt>
<pdfrwt beam="1">  1        1 0.17359467E+00 0.88731276E+03</pdfrwt>
<pdfrwt beam="2">  1       -1 0.26836777E-01 0.88731276E+03</pdfrwt>
<totfact> 0.15066445E+02</totfact>
</mgrwt>
</event>
<event>
 6    1  0.1719556E-004  0.7150247E+03  0.7818608E-02  0.9691877E-01
          1   -1    0    0  501    0  0.00000000000E+00  0.00000000000E+00  0.82386759142E+03  0.82386759142E+03  0.00000000000E+00 0.  1.
         -1   -1    0    0    0  501 -0.00000000000E+00 -0.00000000000E+00 -0.15514032042E+03  0.15514032042E+03  0.00000000000E+00 0. -1.
         23    2    1    2    0    0 -0.58059811889E+02  0.19836350746E+03 -0.50837228171E+02  0.23034771435E+03  0.88071691761E+02 0.  0.
         11    1    3    3    0    0 -0.19584689747E+01  0.34918717867E+02 -0.45594631322E+02  0.57463230536E+02  0.00000000000E+00 0.  1.
        -11    1    3    3    0    0 -0.56101342915E+02  0.16344478959E+03 -0.52425968487E+01  0.17288448381E+03  0.00000000000E+00 0. -1.
         22    1    1    2    0    0  0.58059811889E+02 -0.19836350746E+03  0.71956449917E+03  0.74866019750E+03  0.00000000000E+00 0.  1.
<mgrwt>
<rscale>  0 0.71502470E+03</rscale>
<asrwt>0</asrwt>
<pdfrwt beam="1">  1        1 0.12674886E+00 0.71502470E+03</pdfrwt>
<pdfrwt beam="2">  1       -1 0.23867742E-01 0.71502470E+03</pdfrwt>
<totfact> 0.32323182E+02</totfact>
</mgrwt>
</event>
<event>
 6    1  0.1719556E-004  0.2913221E+04  0.7818608E-02  0.8268955E-01
          1   -1    0    0  501    0  0.00000000000E+00  0.00000000000E+00  0.27739529063E+04  0.27739529063E+04  0.00000000000E+00 0.  1.
         -1   -1    0    0    0  501 -0.00000000000E+00 -0.00000000000E+00 -0.76487044359E+03  0.76487044359E+03  0.00000000000E+00 0. -1.
         23    2    1    2    0    0  0.51399998286E+03  0.96039798886E+03 -0.16783594006E+03  0.11045813710E+04  0.73285899325E+02 0.  0.
         11    1    3    3    0    0  0.30623013404E+03  0.50038802608E+03 -0.76361687627E+02  0.59160474895E+03  0.00000000000E+00 0. -1.
        -11    1    3    3    0    0  0.20776984882E+03  0.46000996277E+03 -0.91474252436E+02  0.51297662207E+03  0.00000000000E+00 0.  1.
         22    1    1    2    0    0 -0.51399998286E+03 -0.96039798886E+03  0.21769184028E+04  0.24342419789E+04  0.00000000000E+00 0.  1.
<mgrwt>
<rscale>  0 0.29132213E+04</rscale>
<asrwt>0</asrwt>
<pdfrwt beam="1">  1        1 0.42676198E+00 0.29132213E+04</pdfrwt>
<pdfrwt beam="2">  1       -1 0.11767238E+00 0.29132213E+04</pdfrwt>
<totfact> 0.48399810E-01</totfact>
</mgrwt>
</event>
<event>
 6    1  0.1719556E-004  0.5056895E+03  0.7818608E-02  0.1012304E+00
         -2   -1    0    0    0  501 -0.00000000000E+00  0.00000000000E+00  0.97771108180E+02  0.97771108180E+02  0.00000000000E+00 0. -1.
          2   -1    0    0  501    0  0.00000000000E+00 -0.00000000000E+00 -0.65387888169E+03  0.65387888169E+03  0.00000000000E+00 0.  1.
         23    2    1    2    0    0 -0.17844583740E+03 -0.15710325351E+03 -0.37411963192E+03  0.45224385628E+03  0.89636250510E+02 0.  0.
         13    1    3    3    0    0 -0.10276028686E+03 -0.52924693184E+02 -0.23961151520E+03  0.26603454272E+03  0.00000000000E+00 0.  1.
        -13    1    3    3    0    0 -0.75685550541E+02 -0.10417856033E+03 -0.13450811672E+03  0.18620931356E+03  0.00000000000E+00 0. -1.
         22    1    1    2    0    0  0.17844583740E+03  0.15710325351E+03 -0.18198814159E+03  0.29940613359E+03  0.00000000000E+00 0. -1.
<mgrwt>
<rscale>  0 0.50568948E+03</rscale>
<asrwt>0</asrwt>
<pdfrwt beam="1">  1        2 0.10059675E+00 0.50568948E+03</pdfrwt>
<pdfrwt beam="2">  1       -2 0.15041709E-01 0.50568948E+03</pdfrwt>
<totfact> 0.15574096E+03</totfact>
</mgrwt>
</event>
<event>
 6    1  0.1719556E-004  0.1885404E+04  0.7818608E-02  0.8662156E-01
         -1   -1    0    0    0  501 -0.00000000000E+00  0.00000000000E+00  0.50787247068E+03  0.50787247068E+03  0.00000000000E+00 0.  1.
          1   -1    0    0  501    0  0.00000000000E+00 -0.00000000000E+00 -0.17498229281E+04  0.17498229281E+04  0.00000000000E+00 0. -1.
         23    2    1    2    0    0 -0.49240551144E+03 -0.43899263104E+03 -0.14250146556E+04  0.15730858616E+04  0.93566240554E+02 0.  0.
         13    1    3    3    0    0 -0.16099537836E+03 -0.19423042702E+03 -0.48300893201E+03  0.54492439755E+03  0.00000000000E+00 0.  1.
        -13    1    3    3    0    0 -0.33141013308E+03 -0.24476220402E+03 -0.94200572362E+03  0.10281614640E+04  0.00000000000E+00 0. -1.
         22    1    1    2    0    0  0.49240551144E+03  0.43899263104E+03  0.18306419817E+03  0.68460953722E+03  0.00000000000E+00 0.  1.
<mgrwt>
<rscale>  0 0.18854038E+04</rscale>
<asrwt>0</asrwt>
<pdfrwt beam="1">  1        1 0.26920352E+00 0.18854038E+04</pdfrwt>
<pdfrwt beam="2">  1       -1 0.78134227E-01 0.18854038E+04</pdfrwt>
<totfact> 0.67710706E+00</totfact>
</mgrwt>
</event>
<event>
 6    1  0.1719556E-004  0.2506786E+04  0.7818608E-02  0.8400572E-01
          1   -1    0    0  501    0  0.00000000000E+00  0.00000000000E+00  0.11490791215E+04  0.11490791215E+04  0.00000000000E+00 0.  1.
         -1   -1    0    0    0  501 -0.00000000000E+00 -0.00000000000E+00 -0.13671768608E+04  0.13671768608E+04  0.00000000000E+00 0. -1.
         23    2    1    2    0    0  0.49467449407E+03 -0.13237378855E+03  0.10377358441E+04  0.11600319359E+04  0.80948966851E+02 0.  0.
         11    1    3    3    0    0  0.39713671165E+03 -0.10330213461E+03  0.75145268181E+03  0.85619508977E+03  0.00000000000E+00 0.  1.
        -11    1    3    3    0    0  0.97537782413E+02 -0.29071653938E+02  0.28628316225E+03  0.30383684610E+03  0.00000000000E+00 0. -1.
         22    1    1    2    0    0 -0.49467449407E+03  0.13237378855E+03 -0.12558335833E+04  0.13562240464E+04  0.00000000000E+00 0. -1.
<mgrwt>
<rscale>  0 0.25067863E+04</rscale>
<asrwt>0</asrwt>
<pdfrwt beam="1">  1        1 0.17678140E+00 0.25067863E+04</pdfrwt>
<pdfrwt beam="2">  1       -1 0.21033490E+00 0.25067863E+04</pdfrwt>
<totfact> 0.13229321E+00</totfact>
</mgrwt>
</event>
<event>
 6    1  0.1719556E-004  0.1858083E+04  0.7818608E-02  0.8676007E-01
          1   -1    0    0  501    0  0.00000000000E+00  0.00000000000E+00  0.83773651669E+03  0.83773651669E+03  0.00000000000E+00 0.  1.
         -1   -1    0    0    0  501 -0.00000000000E+00 -0.00000000000E+00 -0.10302980073E+04  0.10302980073E+04  0.00000000000E+00 0. -1.
         23    2    1    2    0    0  0.71353493595E+01 -0.60302436170E+03  0.61189317738E+03  0.86263082057E+03  0.77649069961E+02 0.  0.
         13    1    3    3    0    0  0.41440966321E+02 -0.25659981687E+03  0.26245729815E+03  0.36938415378E+03  0.00000000000E+00 0. -1.
        -13    1    3    3    0    0 -0.34305616962E+02 -0.34642454483E+03  0.34943587922E+03  0.49324666679E+03  0.00000000000E+00 0.  1.
         22    1    1    2    0    0 -0.71353493595E+01  0.60302436170E+03 -0.80445466798E+03  0.10054037034E+04  0.00000000000E+00 0. -1.
<mgrwt>
<rscale>  0 0.18580832E+04</rscale>
<asrwt>0</asrwt>
<pdfrwt beam="1">  1        1 0.12888254E+00 0.18580832E+04</pdfrwt>
<pdfrwt beam="2">  1       -1 0.15850739E+00 0.18580832E+04</pdfrwt>
<totfact> 0.57780970E+00</totfact>
</mgrwt>
</event>
<event>
 6    1  0.1719556E-004  0.3302462E+04  0.7818608E-02  0.8162269E-01
          2   -1    0    0  501    0  0.00000000000E+00  0.00000000000E+00  0.34146749666E+04  0.34146749666E+04  0.00000000000E+00 0.  1.
         -2   -1    0    0    0  501 -0.00000000000E+00 -0.00000000000E+00 -0.79848430855E+03  0.79848430855E+03  0.00000000000E+00 0. -1.
         23    2    1    2    0    0  0.28900853529E+03  0.97294738773E+03 -0.35056129891E+03  0.10775939789E+04  0.90349357333E+02 0.  0.
         11    1    3    3    0    0  0.24500601754E+03  0.71352312112E+03 -0.28469057251E+03  0.80634478673E+03  0.00000000000E+00 0.  1.
        -11    1    3    3    0    0  0.44002517746E+02  0.25942426661E+03 -0.65870726397E+02  0.27124919220E+03  0.00000000000E+00 0. -1.
         22    1    1    2    0    0 -0.28900853529E+03 -0.97294738773E+03  0.29667519570E+04  0.31355652963E+04  0.00000000000E+00 0.  1.
<mgrwt>
<rscale>  0 0.33024623E+04</rscale>
<asrwt>0</asrwt>
<pdfrwt beam="1">  1        2 0.52533460E+00 0.33024623E+04</pdfrwt>
<pdfrwt beam="2">  1       -2 0.12284374E+00 0.33024623E+04</pdfrwt>
<totfact> 0.38912255E-01</totfact>
</mgrwt>
</event>
<event>
 6    1  0.1719556E-004  0.1000573E+04  0.7818608E-02  0.9307917E-01
          1   -1    0    0  501    0  0.00000000000E+00  0.00000000000E+00  0.15081759238E+04  0.15081759238E+04  0.00000000000E+00 0.  1.
         -1   -1    0    0    0  501 -0.00000000000E+00 -0.00000000000E+00 -0.16595305289E+03  0.16595305289E+03  0.00000000000E+00 0. -1.
         23    2    1    2    0    0 -0.31054166798E+03 -0.29446978623E+03  0.25519775126E+03  0.50589432847E+03  0.87490552506E+02 0.  0.
         11    1    3    3    0    0 -0.87413805863E+02 -0.38849196240E+02  0.37439460223E+02  0.10272364229E+03  0.00000000000E+00 0. -1.
        -11    1    3    3    0    0 -0.22312786212E+03 -0.25562058999E+03  0.21775829103E+03  0.40317068617E+03  0.00000000000E+00 0.  1.
         22    1    1    2    0    0  0.31054166798E+03  0.29446978623E+03  0.10870251196E+04  0.11682346482E+04  0.00000000000E+00 0.  1.
<mgrwt>
<rscale>  0 0.10005726E+04</rscale>
<asrwt>0</asrwt>
<pdfrwt beam="1">  1        1 0.23202706E+00 0.10005726E+04</pdfrwt>
<pdfrwt beam="2">  1       -1 0.25531240E-01 0.10005726E+04</pdfrwt>
<totfact> 0.87457506E+01</totfact>
</mgrwt>
</event>
<event>
 6    1  0.1719556E-004  0.2975661E+04  0.7818608E-02  0.8250715E-01
         -2   -1    0    0    0  501 -0.00000000000E+00  0.00000000000E+00  0.95824557169E+03  0.95824557169E+03  0.00000000000E+00 0. -1.
          2   -1    0    0  501    0  0.00000000000E+00 -0.00000000000E+00 -0.23100957284E+04  0.23100957284E+04  0.00000000000E+00 0.  1.
         23    2    1    2    0    0  0.91085016221E+03  0.41973879935E+03  0.52846453754E+03  0.11372824020E+04  0.91147225953E+02 0.  0.
         13    1    3    3    0    0  0.85107767732E+03  0.41480067721E+03  0.50328287769E+03  0.10722343352E+04  0.00000000000E+00 0. -1.
        -13    1    3    3    0    0  0.59772484884E+02  0.49381221399E+01  0.25181659856E+02  0.65048066786E+02  0.00000000000E+00 0.  1.
         22    1    1    2    0    0 -0.91085016221E+03 -0.41973879935E+03 -0.18803146943E+04  0.21310588981E+04  0.00000000000E+00 0.  1.
<mgrwt>
<rscale>  0 0.29756606E+04</rscale>
<asrwt>0</asrwt>
<pdfrwt beam="1">  1        2 0.35539934E+00 0.29756606E+04</pdfrwt>
<pdfrwt beam="2">  1       -2 0.14742240E+00 0.29756606E+04</pdfrwt>
<totfact> 0.12036880E+00</totfact>
</mgrwt>
</event>
<event>
 6    1  0.1719556E-004  0.1727285E+04  0.7818608E-02  0.8745954E-01
         -2   -1    0    0    0  501 -0.00000000000E+00  0.00000000000E+00  0.86594479187E+03  0.86594479187E+03  0.00000000000E+00 0. -1.
          2   -1    0    0  501    0  0.00000000000E+00 -0.00000000000E+00 -0.86134671935E+03  0.86134671935E+03  0.00000000000E+00 0.  1.
         23    2    1    2    0    0  0.48901159494E+03 -0.17695517913E+03 -0.68422523376E+03  0.86420227906E+03  0.90752042453E+02 0.  0.
         11    1    3    3    0    0  0.41876169526E+03 -0.18194709347E+03 -0.57479075731E+03  0.73406438201E+03  0.00000000000E+00 0. -1.
        -11    1    3    3    0    0  0.70249899679E+02  0.49919143390E+01 -0.10943447644E+03  0.13013789705E+03  0.00000000000E+00 0.  1.
         22    1    1    2    0    0 -0.48901159494E+03  0.17695517913E+03  0.68882330628E+03  0.86308923217E+03  0.00000000000E+00 0. -1.
<mgrwt>
<rscale>  0 0.17272854E+04</rscale>
<asrwt>0</asrwt>
<pdfrwt beam="1">  1        2 0.13251488E+00 0.17272854E+04</pdfrwt>
<pdfrwt beam="2">  1       -2 0.13322228E+00 0.17272854E+04</pdfrwt>
<totfact> 0.12074941E+01</totfact>
</mgrwt>
</event>
<event>
 6    1  0.1719556E-004  0.5607845E+03  0.7818608E-02  0.9990281E-01
         -2   -1    0    0    0  501 -0.00000000000E+00  0.00000000000E+00  0.50468082085E+02  0.50468082085E+02  0.00000000000E+00 0. -1.
          2   -1    0    0  501    0  0.00000000000E+00 -0.00000000000E+00 -0.15578127569E+04  0.15578127569E+04  0.00000000000E+00 0.  1.
         23    2    1    2    0    0  0.25850124983E+03  0.58939279106E+02 -0.96037339043E+03  0.10004368452E+04  0.90885078546E+02 0.  0.
         11    1    3    3    0    0  0.10716516815E+03  0.47297954398E+02 -0.28336182879E+03  0.30661930104E+03  0.00000000000E+00 0.  1.
        -11    1    3    3    0    0  0.15133608167E+03  0.11641324709E+02 -0.67701156164E+03  0.69381754421E+03  0.00000000000E+00 0. -1.
         22    1    1    2    0    0 -0.25850124983E+03 -0.58939279106E+02 -0.54697128442E+03  0.60784399377E+03  0.00000000000E+00 0. -1.
<mgrwt>
<rscale>  0 0.56078453E+03</rscale>
<asrwt>0</asrwt>
<pdfrwt beam="1">  1        2 0.23966350E+00 0.56078453E+03</pdfrwt>
<pdfrwt beam="2">  1       -2 0.77643202E-02 0.56078453E+03</pdfrwt>
<totfact> 0.12410905E+03</totfact>
</mgrwt>
</event>
<event>
 6    1  0.1719556E-004  0.3439313E+04  0.7818608E-02  0.8128324E-01
         -2   -1    0    0    0  501 -0.00000000000E+00  0.00000000000E+00  0.15167282128E+04  0.15167282128E+04  0.00000000000E+00 0. -1.
          2   -1    0    0  501    0  0.00000000000E+00 -0.00000000000E+00 -0.19497355883E+04  0.19497355883E+04  0.00000000000E+00 0.  1.
         23    2    1    2    0    0 -0.12544667824E+04  0.41695574801E+03  0.89000406428E+03  0.15961969020E+04  0.90544529282E+02 0.  0.
         11    1    3    3    0    0 -0.60604827069E+03  0.24814711527E+03  0.42884238399E+03  0.78280092458E+03  0.00000000000E+00 0. -1.
        -11    1    3    3    0    0 -0.64841851167E+03  0.16880863275E+03  0.46116168030E+03  0.81339597745E+03  0.00000000000E+00 0.  1.
         22    1    1    2    0    0  0.12544667824E+04 -0.41695574801E+03 -0.13230114398E+04  0.18702668990E+04  0.00000000000E+00 0.  1.
<mgrwt>
<rscale>  0 0.34393133E+04</rscale>
<asrwt>0</asrwt>
<pdfrwt beam="1">  1        2 0.29995932E+00 0.34393133E+04</pdfrwt>
<pdfrwt beam="2">  1       -2 0.23334280E+00 0.34393133E+04</pdfrwt>
<totfact> 0.47948196E-01</totfact>
</mgrwt>
</event>
<event>
 6    1  0.1719556E-004  0.5591188E+04  0.7818608E-02  0.7743265E-01
          3   -1    0    0  501    0  0.00000000000E+00  0.00000000000E+00  0.21007496886E+04  0.21007496886E+04  0.00000000000E+00 0. -1.
         -3   -1    0    0    0  501 -0.00000000000E+00 -0.00000000000E+00 -0.37202651562E+04  0.37202651562E+04  0.00000000000E+00 0.  1.
         23    2    1    2    0    0 -0.59368992036E+03 -0.27304991491E+04 -0.75160312239E+03  0.28950337848E+04  0.90664417480E+02 0.  0.
         11    1    3    3    0    0 -0.56868325142E+02 -0.32721067632E+03 -0.11629439128E+03  0.35188807673E+03  0.00000000000E+00 0. -1.
        -11    1    3    3    0    0 -0.53682159522E+03 -0.24032884728E+04 -0.63530873111E+03  0.25431457080E+04  0.00000000000E+00 0.  1.
         22    1    1    2    0    0  0.59368992036E+03  0.27304991491E+04 -0.86791234524E+03  0.29259810600E+04  0.00000000000E+00 0. -1.
<mgrwt>
<rscale>  0 0.55911880E+04</rscale>
<asrwt>0</asrwt>
<pdfrwt beam="1">  1        3 0.32319226E+00 0.55911880E+04</pdfrwt>
<pdfrwt beam="2">  1       -3 0.57234848E+00 0.55911880E+04</pdfrwt>
<totfact> 0.65088190E-05</totfact>
</mgrwt>
</event>
<event>
 6    1  0.1719556E-004  0.3604789E+04  0.7818608E-02  0.8089396E-01
          2   -1    0    0  501    0  0.00000000000E+00  0.00000000000E+00  0.14900251506E+04  0.14900251506E+04  0.00000000000E+00 0.  1.
         -2   -1    0    0    0  501 -0.00000000000E+00 -0.00000000000E+00 -0.21802492674E+04  0.21802492674E+04  0.00000000000E+00 0. -1.
         23    2    1    2    0    0  0.32184383031E+01 -0.13528580001E+04 -0.15560742092E+04  0.20640578980E+04  0.93450174727E+02 0.  0.
         13    1    3    3    0    0 -0.37280221445E+02 -0.30374734272E+03 -0.36484581717E+03  0.47619820813E+03  0.00000000000E+00 0.  1.
        -13    1    3    3    0    0  0.40498659748E+02 -0.10491106574E+04 -0.11912283920E+04  0.15878596899E+04  0.00000000000E+00 0. -1.
         22    1    1    2    0    0 -0.32184383031E+01  0.13528580001E+04  0.86585009233E+03  0.16062165200E+04  0.00000000000E+00 0.  1.
<mgrwt>
<rscale>  0 0.36047892E+04</rscale>
<asrwt>0</asrwt>
<pdfrwt beam="1">  1        2 0.22923464E+00 0.36047892E+04</pdfrwt>
<pdfrwt beam="2">  1       -2 0.33542296E+00 0.36047892E+04</pdfrwt>
<totfact> 0.20115397E-01</totfact>
</mgrwt>
</event>
<event>
 6    1  0.1719556E-004  0.3027174E+04  0.7818608E-02  0.8236013E-01
          2   -1    0    0  501    0  0.00000000000E+00  0.00000000000E+00  0.19805732840E+04  0.19805732840E+04  0.00000000000E+00 0.  1.
         -2   -1    0    0    0  501 -0.00000000000E+00 -0.00000000000E+00 -0.11567084250E+04  0.11567084250E+04  0.00000000000E+00 0. -1.
         23    2    1    2    0    0  0.11768627974E+04  0.86435023871E+03  0.55241426765E+01  0.14634272030E+04  0.97371881564E+02 0.  0.
         11    1    3    3    0    0  0.33356838528E+03  0.27825610786E+03  0.37172846054E+02  0.43597723531E+03  0.00000000000E+00 0. -1.
        -11    1    3    3    0    0  0.84329441214E+03  0.58609413085E+03 -0.31648703377E+02  0.10274499677E+04  0.00000000000E+00 0.  1.
         22    1    1    2    0    0 -0.11768627974E+04 -0.86435023871E+03  0.81834071638E+03  0.16738545060E+04  0.00000000000E+00 0. -1.
<mgrwt>
<rscale>  0 0.30271741E+04</rscale>
<asrwt>0</asrwt>
<pdfrwt beam="1">  1        2 0.30470358E+00 0.30271741E+04</pdfrwt>
<pdfrwt beam="2">  1       -2 0.17795514E+00 0.30271741E+04</pdfrwt>
<totfact> 0.10961466E+00</totfact>
</mgrwt>
</event>
<event>
 6    1  0.1719556E-004  0.1162588E+04  0.7818608E-02  0.9146248E-01
          2   -1    0    0  501    0  0.00000000000E+00  0.00000000000E+00  0.74431509177E+03  0.74431509177E+03  0.00000000000E+00 0.  1.
         -2   -1    0    0    0  501 -0.00000000000E+00 -0.00000000000E+00 -0.45397822112E+03  0.45397822112E+03  0.00000000000E+00 0. -1.
         23    2    1    2    0    0  0.17558713296E+03  0.35789066206E+03  0.57694822651E+03  0.70731201329E+03  0.92219633620E+02 0.  0.
         13    1    3    3    0    0  0.14252936375E+03  0.29650753682E+03  0.40509796354E+03  0.52185792988E+03  0.00000000000E+00 0. -1.
        -13    1    3    3    0    0  0.33057769213E+02  0.61383125241E+02  0.17185026297E+03  0.18545408341E+03  0.00000000000E+00 0.  1.
         22    1    1    2    0    0 -0.17558713296E+03 -0.35789066206E+03 -0.28661135586E+03  0.49098129960E+03  0.00000000000E+00 0. -1.
<mgrwt>
<rscale>  0 0.11625882E+04</rscale>
<asrwt>0</asrwt>
<pdfrwt beam="1">  1        2 0.11451001E+00 0.11625882E+04</pdfrwt>
<pdfrwt beam="2">  1       -2 0.69842803E-01 0.11625882E+04</pdfrwt>
<totfact> 0.70012035E+01</totfact>
</mgrwt>
</event>
<event>
 6    1  0.1719556E-004  0.1986493E+04  0.7818608E-02  0.8612962E-01
         -1   -1    0    0    0  501 -0.00000000000E+00  0.00000000000E+00  0.77434359374E+03  0.77434359374E+03  0.00000000000E+00 0.  1.
          1   -1    0    0  501    0  0.00000000000E+00 -0.00000000000E+00 -0.12740324047E+04  0.12740324047E+04  0.00000000000E+00 0. -1.
         23    2    1    2    0    0  0.58096006984E+03 -0.37856769509E+03  0.47991503796E+03  0.84818776181E+03  0.90972155723E+02 0.  0.
         13    1    3    3    0    0  0.20324224702E+03 -0.18386485214E+03  0.20120113740E+03  0.33999351834E+03  0.00000000000E+00 0.  1.
        -13    1    3    3    0    0  0.37771782282E+03 -0.19470284295E+03  0.27871390056E+03  0.50819424347E+03  0.00000000000E+00 0. -1.
         22    1    1    2    0    0 -0.58096006984E+03  0.37856769509E+03 -0.97960384889E+03  0.12001882366E+04  0.00000000000E+00 0. -1.
<mgrwt>
<rscale>  0 0.19864932E+04</rscale>
<asrwt>0</asrwt>
<pdfrwt beam="1">  1        1 0.19600498E+00 0.19864932E+04</pdfrwt>
<pdfrwt beam="2">  1       -1 0.11912979E+00 0.19864932E+04</pdfrwt>
<totfact> 0.55269795E+00</totfact>
</mgrwt>
</event>
<event>
 6    1  0.1719556E-004  0.2397553E+04  0.7818608E-02  0.8440420E-01
         -1   -1    0    0    0  501 -0.00000000000E+00  0.00000000000E+00  0.22628360854E+04  0.22628360854E+04  0.00000000000E+00 0. -1.
          1   -1    0    0  501    0  0.00000000000E+00 -0.00000000000E+00 -0.63507271256E+03  0.63507271256E+03  0.00000000000E+00 0.  1.
         23    2    1    2    0    0 -0.49828061742E+03  0.38485809793E+03  0.20456334990E+04  0.21422536044E+04  0.90745600467E+02 0.  0.
         13    1    3    3    0    0 -0.25630614088E+03  0.15981268849E+03  0.10912605088E+04  0.11322907892E+04  0.00000000000E+00 0.  1.
        -13    1    3    3    0    0 -0.24197447654E+03  0.22504540944E+03  0.95437299021E+03  0.10099628152E+04  0.00000000000E+00 0. -1.
         22    1    1    2    0    0  0.49828061742E+03 -0.38485809793E+03 -0.41787012617E+03  0.75565519358E+03  0.00000000000E+00 0.  1.
<mgrwt>
<rscale>  0 0.23975533E+04</rscale>
<asrwt>0</asrwt>
<pdfrwt beam="1">  1        1 0.97703496E-01 0.23975533E+04</pdfrwt>
<pdfrwt beam="2">  1       -1 0.34812862E+00 0.23975533E+04</pdfrwt>
<totfact> 0.45191210E-01</totfact>
</mgrwt>
</event>
<event>
 6    1  0.1719556E-004  0.2340034E+04  0.7818608E-02  0.8462302E-01
          2   -1    0    0  501    0  0.00000000000E+00  0.00000000000E+00  0.25711291757E+04  0.25711291757E+04  0.00000000000E+00 0.  1.
         -2   -1    0    0    0  501 -0.00000000000E+00 -0.00000000000E+00 -0.53242730697E+03  0.53242730697E+03  0.00000000000E+00 0. -1.
         23    2    1    2    0    0 -0.10726773423E+04 -0.45908693821E+03  0.10982526314E+04  0.16049430351E+04  0.91026402660E+02 0.  0.
         11    1    3    3    0    0 -0.25166479450E+03 -0.14506407584E+03  0.24695325238E+03  0.38126718158E+03  0.00000000000E+00 0. -1.
        -11    1    3    3    0    0 -0.82101254775E+03 -0.31402286238E+03  0.85129937902E+03  0.12236758535E+04  0.00000000000E+00 0.  1.
         22    1    1    2    0    0  0.10726773423E+04  0.45908693821E+03  0.94044923737E+03  0.14986134477E+04  0.00000000000E+00 0. -1.
<mgrwt>
<rscale>  0 0.23400337E+04</rscale>
<asrwt>0</asrwt>
<pdfrwt beam="1">  1        2 0.39555833E+00 0.23400337E+04</pdfrwt>
<pdfrwt beam="2">  1       -2 0.81911895E-01 0.23400337E+04</pdfrwt>
<totfact> 0.37473052E+00</totfact>
</mgrwt>
</event>
<event>
 6    1  0.1719556E-004  0.1378976E+04  0.7818608E-02  0.8969179E-01
          2   -1    0    0  501    0  0.00000000000E+00  0.00000000000E+00  0.29712548968E+04  0.29712548968E+04  0.00000000000E+00 0.  1.
         -2   -1    0    0    0  501 -0.00000000000E+00 -0.00000000000E+00 -0.15999753391E+03  0.15999753391E+03  0.00000000000E+00 0. -1.
         23    2    1    2    0    0  0.61869944881E+03 -0.18943063265E+03  0.89160871818E+03  0.11054874168E+04  0.91996466136E+02 0.  0.
         11    1    3    3    0    0  0.35612488170E+03 -0.15582689842E+03  0.52016287255E+03  0.64936612755E+03  0.00000000000E+00 0. -1.
        -11    1    3    3    0    0  0.26257456711E+03 -0.33603734221E+02  0.37144584563E+03  0.45612128923E+03  0.00000000000E+00 0.  1.
         22    1    1    2    0    0 -0.61869944881E+03  0.18943063265E+03  0.19196486447E+04  0.20257650140E+04  0.00000000000E+00 0. -1.
<mgrwt>
<rscale>  0 0.13789756E+04</rscale>
<asrwt>0</asrwt>
<pdfrwt beam="1">  1        2 0.45711610E+00 0.13789756E+04</pdfrwt>
<pdfrwt beam="2">  1       -2 0.24615007E-01 0.13789756E+04</pdfrwt>
<totfact> 0.26343607E+01</totfact>
</mgrwt>
</event>
<event>
 6    1  0.1719556E-004  0.8995798E+03  0.7818608E-02  0.9426107E-01
         -1   -1    0    0    0  501 -0.00000000000E+00  0.00000000000E+00  0.88182080925E+03  0.88182080925E+03  0.00000000000E+00 0. -1.
          1   -1    0    0  501    0  0.00000000000E+00 -0.00000000000E+00 -0.22942410151E+03  0.22942410151E+03  0.00000000000E+00 0.  1.
         23    2    1    2    0    0 -0.13478706151E+03 -0.23545478782E+03  0.76569082654E+03  0.81723459393E+03  0.89350045395E+02 0.  0.
         13    1    3    3    0    0 -0.43459128325E+02 -0.14647169333E+03  0.49446632072E+03  0.51753221649E+03  0.00000000000E+00 0.  1.
        -13    1    3    3    0    0 -0.91327933181E+02 -0.88983094489E+02  0.27122450581E+03  0.29970237743E+03  0.00000000000E+00 0. -1.
         22    1    1    2    0    0  0.13478706151E+03  0.23545478782E+03 -0.11329411880E+03  0.29401031684E+03  0.00000000000E+00 0.  1.
<mgrwt>
<rscale>  0 0.89957978E+03</rscale>
<asrwt>0</asrwt>
<pdfrwt beam="1">  1        1 0.35296016E-01 0.89957978E+03</pdfrwt>
<pdfrwt beam="2">  1       -1 0.13566474E+00 0.89957978E+03</pdfrwt>
<totfact> 0.57062082E+01</totfact>
</mgrwt>
</event>
<event>
 6    1  0.1719556E-004  0.1335110E+04  0.7818608E-02  0.9002177E-01
          1   -1    0    0  501    0  0.00000000000E+00  0.00000000000E+00  0.11502035600E+04  0.11502035600E+04  0.00000000000E+00 0.  1.
         -1   -1    0    0    0  501 -0.00000000000E+00 -0.00000000000E+00 -0.38743535720E+03  0.38743535720E+03  0.00000000000E+00 0. -1.
         23    2    1    2    0    0  0.39149984018E+02  0.61042624417E+03  0.68343788339E+03  0.92083569054E+03  0.81841967740E+02 0.  0.
         11    1    3    3    0    0 -0.21077334630E+02  0.29604427552E+03  0.31602462261E+03  0.43354126585E+03  0.00000000000E+00 0.  1.
        -11    1    3    3    0    0  0.60227318649E+02  0.31438196866E+03  0.36741326078E+03  0.48729442468E+03  0.00000000000E+00 0. -1.
         22    1    1    2    0    0 -0.39149984018E+02 -0.61042624417E+03  0.79330319393E+02  0.61680322665E+03  0.00000000000E+00 0.  1.
<mgrwt>
<rscale>  0 0.13351098E+04</rscale>
<asrwt>0</asrwt>
<pdfrwt beam="1">  1        1 0.17695439E+00 0.13351098E+04</pdfrwt>
<pdfrwt beam="2">  1       -1 0.59605440E-01 0.13351098E+04</pdfrwt>
<totfact> 0.32515212E+01</totfact>
</mgrwt>
</event>
<event>
 6    1  0.1719556E-004  0.4061786E+04  0.7818608E-02  0.7992197E-01
         -2   -1    0    0    0  501 -0.00000000000E+00  0.00000000000E+00  0.27796877256E+04  0.27796877256E+04  0.00000000000E+00 0. -1.
          2   -1    0    0  501    0  0.00000000000E+00 -0.00000000000E+00 -0.14838095378E+04  0.14838095378E+04  0.00000000000E+00 0.  1.
         23    2    1    2    0    0 -0.10728934184E+02 -0.20252089128E+04  0.50517121397E+03  0.20893758847E+04  0.93313351757E+02 0.  0.
         11    1    3    3    0    0 -0.41375192633E+02 -0.11593781162E+04  0.25842521502E+03  0.11885508465E+04  0.00000000000E+00 0.  1.
        -11    1    3    3    0    0  0.30646258449E+02 -0.86583079663E+03  0.24674599894E+03  0.90082503825E+03  0.00000000000E+00 0. -1.
         22    1    1    2    0    0  0.10728934184E+02  0.20252089128E+04  0.79070697389E+03  0.21741213787E+04  0.00000000000E+00 0. -1.
<mgrwt>
<rscale>  0 0.40617864E+04</rscale>
<asrwt>0</asrwt>
<pdfrwt beam="1">  1        2 0.22827839E+00 0.40617864E+04</pdfrwt>
<pdfrwt beam="2">  1       -2 0.42764427E+00 0.40617864E+04</pdfrwt>
<totfact> 0.49656119E-02</totfact>
</mgrwt>
</event>
<event>
 6    1  0.1719556E-004  0.5167558E+03  0.7818608E-02  0.1009496E+00
          2   -1    0    0  501    0  0.00000000000E+00  0.00000000000E+00  0.60830965784E+03  0.60830965784E+03  0.00000000000E+00 0.  1.
         -2   -1    0    0    0  501 -0.00000000000E+00 -0.00000000000E+00 -0.10974531224E+03  0.10974531224E+03  0.00000000000E+00 0. -1.
         23    2    1    2    0    0 -0.12481344027E+03  0.14083287942E+03  0.34481964090E+02  0.21727083332E+03  0.10298210702E+03 0.  0.
         13    1    3    3    0    0  0.44782308949E+01  0.55787311132E+02  0.27501077190E+02  0.62358542975E+02  0.00000000000E+00 0.  1.
        -13    1    3    3    0    0 -0.12929167117E+03  0.85045568287E+02  0.69808868994E+01  0.15491229035E+03  0.00000000000E+00 0. -1.
         22    1    1    2    0    0  0.12481344027E+03 -0.14083287942E+03  0.46408238151E+03  0.50078413675E+03  0.00000000000E+00 0.  1.
<mgrwt>
<rscale>  0 0.51675578E+03</rscale>
<asrwt>0</asrwt>
<pdfrwt beam="1">  1        2 0.93586099E-01 0.51675578E+03</pdfrwt>
<pdfrwt beam="2">  1       -2 0.16883894E-01 0.51675578E+03</pdfrwt>
<totfact> 0.13979542E+03</totfact>
</mgrwt>
</event>
<event>
 6    1  0.1719556E-004  0.1128037E+04  0.7818608E-02  0.9178288E-01
          1   -1    0    0  501    0  0.00000000000E+00  0.00000000000E+00  0.12274186171E+04  0.12274186171E+04  0.00000000000E+00 0. -1.
         -1   -1    0    0    0  501 -0.00000000000E+00 -0.00000000000E+00 -0.25917551062E+03  0.25917551062E+03  0.00000000000E+00 0.  1.
         23    2    1    2    0    0 -0.47425908990E+03 -0.27156695463E+03  0.32228384462E+03  0.64046549497E+03  0.87515018911E+02 0.  0.
         13    1    3    3    0    0 -0.22567260293E+03 -0.10491041710E+03  0.10248592689E+03  0.26914249858E+03  0.00000000000E+00 0. -1.
        -13    1    3    3    0    0 -0.24858648697E+03 -0.16665653754E+03  0.21979791774E+03  0.37132299639E+03  0.00000000000E+00 0.  1.
         22    1    1    2    0    0  0.47425908990E+03  0.27156695463E+03  0.64595926187E+03  0.84612863278E+03  0.00000000000E+00 0. -1.
<mgrwt>
<rscale>  0 0.11280370E+04</rscale>
<asrwt>0</asrwt>
<pdfrwt beam="1">  1        1 0.18883363E+00 0.11280370E+04</pdfrwt>
<pdfrwt beam="2">  1       -1 0.39873156E-01 0.11280370E+04</pdfrwt>
<totfact> 0.62144022E+01</totfact>
</mgrwt>
</event>
<event>
 6    1  0.1719556E-004  0.5022102E+04  0.7818608E-02  0.7825107E-01
          2   -1    0    0  501    0  0.00000000000E+00  0.00000000000E+00  0.40045300029E+04  0.40045300029E+04  0.00000000000E+00 0.  1.
         -2   -1    0    0    0  501 -0.00000000000E+00 -0.00000000000E+00 -0.15745609221E+04  0.15745609221E+04  0.00000000000E+00 0. -1.
         23    2    1    2    0    0  0.10029034251E+04  0.57550759111E+03 -0.12597877122E+04  0.17123960237E+04  0.90613436092E+02 0.  0.
         11    1    3    3    0    0  0.48075645233E+03  0.32176802192E+03 -0.59683329568E+03  0.83118674750E+03  0.00000000000E+00 0. -1.
        -11    1    3    3    0    0  0.52214697279E+03  0.25373956920E+03 -0.66295441651E+03  0.88120927625E+03  0.00000000000E+00 0.  1.
         22    1    1    2    0    0 -0.10029034251E+04 -0.57550759111E+03  0.36897567930E+04  0.38666949012E+04  0.00000000000E+00 0.  1.
<mgrwt>
<rscale>  0 0.50221017E+04</rscale>
<asrwt>0</asrwt>
<pdfrwt beam="1">  1        2 0.61608154E+00 0.50221017E+04</pdfrwt>
<pdfrwt beam="2">  1       -2 0.24224014E+00 0.50221017E+04</pdfrwt>
<totfact> 0.17605874E-02</totfact>
</mgrwt>
</event>
<event>
 6    1  0.1719556E-004  0.1117372E+04  0.7818608E-02  0.9188424E-01
          2   -1    0    0  501    0  0.00000000000E+00  0.00000000000E+00  0.26426566145E+03  0.26426566145E+03  0.00000000000E+00 0.  1.
         -2   -1    0    0    0  501 -0.00000000000E+00 -0.00000000000E+00 -0.11811220153E+04  0.11811220153E+04  0.00000000000E+00 0. -1.
         23    2    1    2    0    0 -0.51400004311E+03  0.18326851789E+03 -0.33401037810E+03  0.64695619855E+03  0.95947882703E+02 0.  0.
         13    1    3    3    0    0 -0.39107324556E+03  0.12581761504E+03 -0.29503347951E+03  0.50577970469E+03  0.00000000000E+00 0.  1.
        -13    1    3    3    0    0 -0.12292679755E+03  0.57450902849E+02 -0.38976898596E+02  0.14117649386E+03  0.00000000000E+00 0. -1.
         22    1    1    2    0    0  0.51400004311E+03 -0.18326851789E+03 -0.58284597579E+03  0.79843147825E+03  0.00000000000E+00 0. -1.
<mgrwt>
<rscale>  0 0.11173719E+04</rscale>
<asrwt>0</asrwt>
<pdfrwt beam="1">  1        2 0.40656256E-01 0.11173719E+04</pdfrwt>
<pdfrwt beam="2">  1       -2 0.18171108E+00 0.11173719E+04</pdfrwt>
<totfact> 0.22120068E+01</totfact>
</mgrwt>
</event>
<event>
 6    1  0.1719556E-004  0.5870026E+04  0.7818608E-02  0.7706729E-01
          2   -1    0    0  501    0  0.00000000000E+00  0.00000000000E+00  0.52865533637E+04  0.52865533637E+04  0.00000000000E+00 0.  1.
         -2   -1    0    0    0  501 -0.00000000000E+00 -0.00000000000E+00 -0.16294738308E+04  0.16294738308E+04  0.00000000000E+00 0. -1.
         23    2    1    2    0    0  0.22088481714E+04  0.16870592249E+04  0.29365357846E+04  0.40447274250E+04  0.10676355064E+03 0.  0.
         11    1    3    3    0    0  0.13255124486E+04  0.96466052556E+03  0.17840124960E+04  0.24228606577E+04  0.00000000000E+00 0.  1.
        -11    1    3    3    0    0  0.88333572281E+03  0.72239869936E+03  0.11525232887E+04  0.16218667673E+04  0.00000000000E+00 0. -1.
         22    1    1    2    0    0 -0.22088481714E+04 -0.16870592249E+04  0.72054374831E+03  0.28712997694E+04  0.00000000000E+00 0. -1.
<mgrwt>
<rscale>  0 0.58700257E+04</rscale>
<asrwt>0</asrwt>
<pdfrwt beam="1">  1        2 0.81331589E+00 0.58700257E+04</pdfrwt>
<pdfrwt beam="2">  1       -2 0.25068828E+00 0.58700257E+04</pdfrwt>
<totfact> 0.57545413E-04</totfact>
</mgrwt>
</event>
<event>
 6    1  0.1719556E-004  0.2655464E+04  0.7818608E-02  0.8349602E-01
          4   -1    0    0  501    0  0.00000000000E+00  0.00000000000E+00  0.17425974301E+04  0.17425974301E+04  0.00000000000E+00 0.  1.
         -4   -1    0    0    0  501 -0.00000000000E+00 -0.00000000000E+00 -0.10116347896E+04  0.10116347896E+04  0.00000000000E+00 0. -1.
         23    2    1    2    0    0  0.12001980513E+04  0.39738646151E+03  0.78163184931E+03  0.14889422407E+04  0.87231221451E+02 0.  0.
         13    1    3    3    0    0  0.55778081136E+03  0.23021943239E+03  0.36584884847E+03  0.70566691895E+03  0.00000000000E+00 0.  1.
        -13    1    3    3    0    0  0.64241723995E+03  0.16716702912E+03  0.41578300083E+03  0.78327532170E+03  0.00000000000E+00 0. -1.
         22    1    1    2    0    0 -0.12001980513E+04 -0.39738646151E+03 -0.50669208816E+02  0.12652899790E+04  0.00000000000E+00 0.  1.
<mgrwt>
<rscale>  0 0.26554639E+04</rscale>
<asrwt>0</asrwt>
<pdfrwt beam="1">  1        4 0.26809191E+00 0.26554639E+04</pdfrwt>
<pdfrwt beam="2">  1       -4 0.15563612E+00 0.26554639E+04</pdfrwt>
<totfact> 0.23075882E-02</totfact>
</mgrwt>
</event>
<event>
 6    1  0.1719556E-004  0.6065475E+03  0.7818608E-02  0.9891914E-01
          2   -1    0    0  501    0  0.00000000000E+00  0.00000000000E+00  0.70678737117E+03  0.70678737117E+03  0.00000000000E+00 0.  1.
         -2   -1    0    0    0  501 -0.00000000000E+00 -0.00000000000E+00 -0.13013104890E+03  0.13013104890E+03  0.00000000000E+00 0. -1.
         23    2    1    2    0    0  0.67546716197E+02 -0.11653986200E+03 -0.70200286365E+02  0.17618581875E+03  0.89270735516E+02 0.  0.
         13    1    3    3    0    0  0.24288446424E+02 -0.88559650312E+02 -0.34876438595E+01  0.91896158531E+02  0.00000000000E+00 0. -1.
        -13    1    3    3    0    0  0.43258269773E+02 -0.27980211685E+02 -0.66712642506E+02  0.84289660219E+02  0.00000000000E+00 0.  1.
         22    1    1    2    0    0 -0.67546716197E+02  0.11653986200E+03  0.64685660864E+03  0.66073260132E+03  0.00000000000E+00 0.  1.
<mgrwt>
<rscale>  0 0.60654755E+03</rscale>
<asrwt>0</asrwt>
<pdfrwt beam="1">  1        2 0.10873652E+00 0.60654755E+03</pdfrwt>
<pdfrwt beam="2">  1       -2 0.20020162E-01 0.60654755E+03</pdfrwt>
<totfact> 0.86645315E+02</totfact>
</mgrwt>
</event>
<event>
 6    1  0.1719556E-004  0.1295193E+04  0.7818608E-02  0.9033386E-01
         -1   -1    0    0    0  501 -0.00000000000E+00  0.00000000000E+00  0.75508506853E+03  0.75508506853E+03  0.00000000000E+00 0. -1.
          1   -1    0    0  501    0  0.00000000000E+00 -0.00000000000E+00 -0.55540931356E+03  0.55540931356E+03  0.00000000000E+00 0.  1.
         23    2    1    2    0    0 -0.35956149353E+03 -0.45177787338E+03  0.38974930972E+03  0.70261637564E+03  0.91528860996E+02 0.  0.
         11    1    3    3    0    0 -0.28101585047E+03 -0.31621251867E+03  0.24254125475E+03  0.48763359752E+03  0.00000000000E+00 0. -1.
        -11    1    3    3    0    0 -0.78545643062E+02 -0.13556535471E+03  0.14720805497E+03  0.21498277812E+03  0.00000000000E+00 0.  1.
         22    1    1    2    0    0  0.35956149353E+03  0.45177787338E+03 -0.19007355474E+03  0.60787800644E+03  0.00000000000E+00 0.  1.
<mgrwt>
<rscale>  0 0.12951931E+04</rscale>
<asrwt>0</asrwt>
<pdfrwt beam="1">  1        1 0.85447587E-01 0.12951931E+04</pdfrwt>
<pdfrwt beam="2">  1       -1 0.11616693E+00 0.12951931E+04</pdfrwt>
<totfact> 0.25200889E+01</totfact>
</mgrwt>
</event>
<event>
 6    1  0.1719556E-004  0.1910433E+04  0.7818608E-02  0.8649681E-01
          4   -1    0    0  501    0  0.00000000000E+00  0.00000000000E+00  0.74292880732E+03  0.74292880732E+03  0.00000000000E+00 0.  1.
         -4   -1    0    0    0  501 -0.00000000000E+00 -0.00000000000E+00 -0.12281639722E+04  0.12281639722E+04  0.00000000000E+00 0. -1.
         23    2    1    2    0    0  0.30408866236E+03  0.52515356198E+03  0.51501799621E+03  0.80115151412E+03  0.91345683638E+02 0.  0.
         11    1    3    3    0    0  0.14181415133E+03  0.30448340973E+03  0.32806948606E+03  0.46952208468E+03  0.00000000000E+00 0.  1.
        -11    1    3    3    0    0  0.16227451102E+03  0.22067015225E+03  0.18694851015E+03  0.33162942944E+03  0.00000000000E+00 0. -1.
         22    1    1    2    0    0 -0.30408866236E+03 -0.52515356198E+03 -0.10002531611E+04  0.11699412654E+04  0.00000000000E+00 0. -1.
<mgrwt>
<rscale>  0 0.19104328E+04</rscale>
<asrwt>0</asrwt>
<pdfrwt beam="1">  1        4 0.11429674E+00 0.19104328E+04</pdfrwt>
<pdfrwt beam="2">  1       -4 0.18894830E+00 0.19104328E+04</pdfrwt>
<totfact> 0.17443821E-01</totfact>
</mgrwt>
</event>
<event>
 6    1  0.1719556E-004  0.3147967E+04  0.7818608E-02  0.8202696E-01
         -2   -1    0    0    0  501 -0.00000000000E+00  0.00000000000E+00  0.10239659395E+04  0.10239659395E+04  0.00000000000E+00 0. -1.
          2   -1    0    0  501    0  0.00000000000E+00 -0.00000000000E+00 -0.24194395697E+04  0.24194395697E+04  0.00000000000E+00 0.  1.
         23    2    1    2    0    0 -0.56677949934E+02  0.62205764973E+03 -0.22771502069E+04  0.23628863306E+04  0.87467917243E+02 0.  0.
         11    1    3    3    0    0 -0.93206882825E+01  0.30729780903E+03 -0.12673742718E+04  0.13041305009E+04  0.00000000000E+00 0.  1.
        -11    1    3    3    0    0 -0.47357261652E+02  0.31475984070E+03 -0.10097759352E+04  0.10587558297E+04  0.00000000000E+00 0. -1.
         22    1    1    2    0    0  0.56677949934E+02 -0.62205764973E+03  0.88167657668E+03  0.10805191787E+04  0.00000000000E+00 0. -1.
<mgrwt>
<rscale>  0 0.31479668E+04</rscale>
<asrwt>0</asrwt>
<pdfrwt beam="1">  1        2 0.37222146E+00 0.31479668E+04</pdfrwt>
<pdfrwt beam="2">  1       -2 0.15753322E+00 0.31479668E+04</pdfrwt>
<totfact> 0.86085771E-01</totfact>
</mgrwt>
</event>
<event>
 6    1  0.1719556E-004  0.3479116E+04  0.7818608E-02  0.8118757E-01
          2   -1    0    0  501    0  0.00000000000E+00  0.00000000000E+00  0.15398833895E+04  0.15398833895E+04  0.00000000000E+00 0.  1.
         -2   -1    0    0    0  501 -0.00000000000E+00 -0.00000000000E+00 -0.19651238735E+04  0.19651238735E+04  0.00000000000E+00 0. -1.
         23    2    1    2    0    0 -0.97006521190E+03 -0.13846556555E+04 -0.62047036235E+03  0.18031222772E+04  0.89267443721E+02 0.  0.
         13    1    3    3    0    0 -0.60643352820E+03 -0.87340527130E+03 -0.43569142705E+03  0.11490976511E+04  0.00000000000E+00 0. -1.
        -13    1    3    3    0    0 -0.36363168370E+03 -0.51125038418E+03 -0.18477893530E+03  0.65402462618E+03  0.00000000000E+00 0.  1.
         22    1    1    2    0    0  0.97006521190E+03  0.13846556555E+04  0.19522987835E+03  0.17018849858E+04  0.00000000000E+00 0.  1.
<mgrwt>
<rscale>  0 0.34791158E+04</rscale>
<asrwt>0</asrwt>
<pdfrwt beam="1">  1        2 0.23690514E+00 0.34791158E+04</pdfrwt>
<pdfrwt beam="2">  1       -2 0.30232675E+00 0.34791158E+04</pdfrwt>
<totfact> 0.30511242E-01</totfact>
</mgrwt>
</event>
<event>
 6    1  0.1719556E-004  0.3829222E+04  0.7818608E-02  0.8039913E-01
         -2   -1    0    0    0  501 -0.00000000000E+00  0.00000000000E+00  0.11005229886E+04  0.11005229886E+04  0.00000000000E+00 0. -1.
          2   -1    0    0  501    0  0.00000000000E+00 -0.00000000000E+00 -0.33309033864E+04  0.33309033864E+04  0.00000000000E+00 0.  1.
         23    2    1    2    0    0  0.17623407204E+04  0.10776146635E+03 -0.19693390647E+04  0.26466014744E+04  0.93518254737E+02 0.  0.
         11    1    3    3    0    0  0.42461144337E+03  0.66111970034E+02 -0.47682303846E+03  0.64189242123E+03  0.00000000000E+00 0.  1.
        -11    1    3    3    0    0  0.13377292770E+04  0.41649496320E+02 -0.14925160263E+04  0.20047090531E+04  0.00000000000E+00 0. -1.
         22    1    1    2    0    0 -0.17623407204E+04 -0.10776146635E+03 -0.26104133318E+03  0.17848249006E+04  0.00000000000E+00 0. -1.
<mgrwt>
<rscale>  0 0.38292222E+04</rscale>
<asrwt>0</asrwt>
<pdfrwt beam="1">  1        2 0.51244668E+00 0.38292222E+04</pdfrwt>
<pdfrwt beam="2">  1       -2 0.16931123E+00 0.38292222E+04</pdfrwt>
<totfact> 0.18286614E-01</totfact>
</mgrwt>
</event>
<event>
 6    1  0.1719556E-004  0.2281484E+04  0.7818608E-02  0.8485258E-01
         -1   -1    0    0    0  501 -0.00000000000E+00  0.00000000000E+00  0.69646387416E+03  0.69646387416E+03  0.00000000000E+00 0. -1.
          1   -1    0    0  501    0  0.00000000000E+00 -0.00000000000E+00 -0.18684271857E+04  0.18684271857E+04  0.00000000000E+00 0.  1.
         23    2    1    2    0    0  0.22104727339E+03 -0.71589595569E+03 -0.15512887157E+04  0.17250954427E+04  0.89937147978E+02 0.  0.
         13    1    3    3    0    0  0.95165758400E+02 -0.44944171694E+03 -0.91344964714E+03  0.10224698706E+04  0.00000000000E+00 0. -1.
        -13    1    3    3    0    0  0.12588151499E+03 -0.26645423874E+03 -0.63783906855E+03  0.70262557207E+03  0.00000000000E+00 0.  1.
         22    1    1    2    0    0 -0.22104727339E+03  0.71589595569E+03  0.37932540411E+03  0.83979561719E+03  0.00000000000E+00 0. -1.
<mgrwt>
<rscale>  0 0.22814838E+04</rscale>
<asrwt>0</asrwt>
<pdfrwt beam="1">  1        1 0.28745033E+00 0.22814838E+04</pdfrwt>
<pdfrwt beam="2">  1       -1 0.10714829E+00 0.22814838E+04</pdfrwt>
<totfact> 0.26902576E+00</totfact>
</mgrwt>
</event>
<event>
 6    1  0.1719556E-004  0.2077909E+04  0.7818608E-02  0.8571038E-01
          2   -1    0    0  501    0  0.00000000000E+00  0.00000000000E+00  0.17158610381E+04  0.17158610381E+04  0.00000000000E+00 0.  1.
         -2   -1    0    0    0  501 -0.00000000000E+00 -0.00000000000E+00 -0.62908737640E+03  0.62908737640E+03  0.00000000000E+00 0. -1.
         23    2    1    2    0    0  0.97732280095E+03  0.30289627546E+03  0.35429187550E+03  0.10866020480E+04  0.90968493378E+02 0.  0.
         13    1    3    3    0    0  0.86872778194E+03  0.25240606690E+03  0.28623194937E+03  0.94885484167E+03  0.00000000000E+00 0.  1.
        -13    1    3    3    0    0  0.10859501902E+03  0.50490208565E+02  0.68059926131E+02  0.13774720636E+03  0.00000000000E+00 0. -1.
         22    1    1    2    0    0 -0.97732280095E+03 -0.30289627546E+03  0.73248178625E+03  0.12583463665E+04  0.00000000000E+00 0. -1.
<mgrwt>
<rscale>  0 0.20779091E+04</rscale>
<asrwt>0</asrwt>
<pdfrwt beam="1">  1        2 0.26397862E+00 0.20779091E+04</pdfrwt>
<pdfrwt beam="2">  1       -2 0.96782674E-01 0.20779091E+04</pdfrwt>
<totfact> 0.79159994E+00</totfact>
</mgrwt>
</event>
<event>
 6    1  0.1719556E-004  0.1865699E+04  0.7818608E-02  0.8672121E-01
         -1   -1    0    0    0  501 -0.00000000000E+00  0.00000000000E+00  0.34663711115E+03  0.34663711115E+03  0.00000000000E+00 0. -1.
          1   -1    0    0  501    0  0.00000000000E+00 -0.00000000000E+00 -0.25104288881E+04  0.25104288881E+04  0.00000000000E+00 0.  1.
         23    2    1    2    0    0 -0.41165807709E+03 -0.33053638218E+03  0.89125686603E+02  0.54311833995E+03  0.91200168865E+02 0.  0.
         13    1    3    3    0    0 -0.40529218073E+02 -0.28008715586E+01  0.74608663374E+01  0.41305289318E+02  0.00000000000E+00 0. -1.
        -13    1    3    3    0    0 -0.37112885901E+03 -0.32773551062E+03  0.81664820266E+02  0.50181305063E+03  0.00000000000E+00 0.  1.
         22    1    1    2    0    0  0.41165807709E+03  0.33053638218E+03 -0.22529174635E+04  0.23139476593E+04  0.00000000000E+00 0.  1.
<mgrwt>
<rscale>  0 0.18656986E+04</rscale>
<asrwt>0</asrwt>
<pdfrwt beam="1">  1        1 0.38621983E+00 0.18656986E+04</pdfrwt>
<pdfrwt beam="2">  1       -1 0.53328787E-01 0.18656986E+04</pdfrwt>
<totfact> 0.44382161E+00</totfact>
</mgrwt>
</event>
<event>
 6    1  0.1719556E-004  0.1267705E+04  0.7818608E-02  0.9055575E-01
          2   -1    0    0  501    0  0.00000000000E+00  0.00000000000E+00  0.15826258247E+04  0.15826258247E+04  0.00000000000E+00 0.  1.
         -2   -1    0    0    0  501 -0.00000000000E+00 -0.00000000000E+00 -0.25386215997E+03  0.25386215997E+03  0.00000000000E+00 0. -1.
         23    2    1    2    0    0 -0.27136194439E+03 -0.12111770957E+03  0.14735743802E+04  0.15059173451E+04  0.89770774231E+02 0.  0.
         13    1    3    3    0    0 -0.15299885100E+03 -0.11387599391E+03  0.96948560660E+03  0.98806818176E+03  0.00000000000E+00 0. -1.
        -13    1    3    3    0    0 -0.11836309339E+03 -0.72417156640E+01  0.50408877356E+03  0.51784916332E+03  0.00000000000E+00 0.  1.
         22    1    1    2    0    0  0.27136194439E+03  0.12111770957E+03 -0.14481071545E+03  0.33057063957E+03  0.00000000000E+00 0. -1.
<mgrwt>
<rscale>  0 0.12677047E+04</rscale>
<asrwt>0</asrwt>
<pdfrwt beam="1">  1        2 0.24348089E+00 0.12677047E+04</pdfrwt>
<pdfrwt beam="2">  1       -2 0.39055718E-01 0.12677047E+04</pdfrwt>
<totfact> 0.69402834E+01</totfact>
</mgrwt>
</event>
<event>
 6    1  0.1719556E-004  0.1842930E+04  0.7818608E-02  0.8683797E-01
          1   -1    0    0  501    0  0.00000000000E+00  0.00000000000E+00  0.99265403609E+03  0.99265403609E+03  0.00000000000E+00 0.  1.
         -1   -1    0    0    0  501 -0.00000000000E+00 -0.00000000000E+00 -0.85538106243E+03  0.85538106243E+03  0.00000000000E+00 0. -1.
         23    2    1    2    0    0 -0.15708075666E+03 -0.50919823850E+03  0.81971737483E+03  0.98219009455E+03  0.93827485495E+02 0.  0.
         13    1    3    3    0    0 -0.70467123580E+02 -0.99186391422E+02  0.17011499538E+03  0.20914747764E+03  0.00000000000E+00 0. -1.
        -13    1    3    3    0    0 -0.86613633082E+02 -0.41001184708E+03  0.64960237945E+03  0.77304261692E+03  0.00000000000E+00 0.  1.
         22    1    1    2    0    0  0.15708075666E+03  0.50919823850E+03 -0.68244440117E+03  0.86584500397E+03  0.00000000000E+00 0. -1.
<mgrwt>
<rscale>  0 0.18429297E+04</rscale>
<asrwt>0</asrwt>
<pdfrwt beam="1">  1        1 0.15271600E+00 0.18429297E+04</pdfrwt>
<pdfrwt beam="2">  1       -1 0.13159709E+00 0.18429297E+04</pdfrwt>
<totfact> 0.70888470E+00</totfact>
</mgrwt>
</event>
<event>
 6    1  0.1719556E-004  0.2292866E+04  0.7818608E-02  0.8480739E-01
          2   -1    0    0  501    0  0.00000000000E+00  0.00000000000E+00  0.21532829397E+04  0.21532829397E+04  0.00000000000E+00 0.  1.
         -2   -1    0    0    0  501 -0.00000000000E+00 -0.00000000000E+00 -0.61037423732E+03  0.61037423732E+03  0.00000000000E+00 0. -1.
         23    2    1    2    0    0  0.38714016907E+03 -0.23186506277E+03  0.20406035648E+04  0.20918394234E+04  0.89946355415E+02 0.  0.
         11    1    3    3    0    0  0.19503248904E+03 -0.96445977273E+02  0.11704495282E+04  0.11905005654E+04  0.00000000000E+00 0.  1.
        -11    1    3    3    0    0  0.19210768003E+03 -0.13541908550E+03  0.87015403666E+03  0.90133885801E+03  0.00000000000E+00 0. -1.
         22    1    1    2    0    0 -0.38714016907E+03  0.23186506277E+03 -0.49769486248E+03  0.67181775355E+03  0.00000000000E+00 0. -1.
<mgrwt>
<rscale>  0 0.22928658E+04</rscale>
<asrwt>0</asrwt>
<pdfrwt beam="1">  1        2 0.33127430E+00 0.22928658E+04</pdfrwt>
<pdfrwt beam="2">  1       -2 0.93903729E-01 0.22928658E+04</pdfrwt>
<totfact> 0.47647818E+00</totfact>
</mgrwt>
</event>
<event>
 6    1  0.1719556E-004  0.4371189E+04  0.7818608E-02  0.7933584E-01
         -2   -1    0    0    0  501 -0.00000000000E+00  0.00000000000E+00  0.17319060772E+04  0.17319060772E+04  0.00000000000E+00 0. -1.
          2   -1    0    0  501    0  0.00000000000E+00 -0.00000000000E+00 -0.27581308981E+04  0.27581308981E+04  0.00000000000E+00 0.  1.
         23    2    1    2    0    0  0.17174197293E+04  0.11774132548E+04  0.16560083982E+03  0.20908119120E+04  0.90765160637E+02 0.  0.
         13    1    3    3    0    0  0.59883893211E+03  0.38744243545E+03  0.95504392820E+02  0.71961155941E+03  0.00000000000E+00 0. -1.
        -13    1    3    3    0    0  0.11185807972E+04  0.78997081933E+03  0.70096447001E+02  0.13712003526E+04  0.00000000000E+00 0.  1.
         22    1    1    2    0    0 -0.17174197293E+04 -0.11774132548E+04 -0.11918256607E+04  0.23992250633E+04  0.00000000000E+00 0. -1.
<mgrwt>
<rscale>  0 0.43711892E+04</rscale>
<asrwt>0</asrwt>
<pdfrwt beam="1">  1        2 0.42432783E+00 0.43711892E+04</pdfrwt>
<pdfrwt beam="2">  1       -2 0.26644709E+00 0.43711892E+04</pdfrwt>
<totfact> 0.95594214E-02</totfact>
</mgrwt>
</event>
<event>
 6    1  0.1719556E-004  0.1351986E+04  0.7818608E-02  0.8989326E-01
         -2   -1    0    0    0  501 -0.00000000000E+00  0.00000000000E+00  0.24523133980E+03  0.24523133980E+03  0.00000000000E+00 0. -1.
          2   -1    0    0  501    0  0.00000000000E+00 -0.00000000000E+00 -0.18634100455E+04  0.18634100455E+04  0.00000000000E+00 0.  1.
         23    2    1    2    0    0  0.52089029419E+03 -0.11014007386E+03 -0.17728564643E+03  0.57253255365E+03  0.11360365356E+03 0.  0.
         11    1    3    3    0    0  0.39919241512E+03 -0.55991300742E+02 -0.89232322938E+02  0.41285835041E+03  0.00000000000E+00 0.  1.
        -11    1    3    3    0    0  0.12169787908E+03 -0.54148773119E+02 -0.88053323496E+02  0.15967420324E+03  0.00000000000E+00 0. -1.
         22    1    1    2    0    0 -0.52089029419E+03  0.11014007386E+03 -0.14408930593E+04  0.15361088317E+04  0.00000000000E+00 0.  1.
<mgrwt>
<rscale>  0 0.13519860E+04</rscale>
<asrwt>0</asrwt>
<pdfrwt beam="1">  1        2 0.28667847E+00 0.13519860E+04</pdfrwt>
<pdfrwt beam="2">  1       -2 0.37727898E-01 0.13519860E+04</pdfrwt>
<totfact> 0.51525491E+01</totfact>
</mgrwt>
</event>
<event>
 6    1  0.1719556E-004  0.3925643E+04  0.7818608E-02  0.8019717E-01
         -2   -1    0    0    0  501 -0.00000000000E+00  0.00000000000E+00  0.12525417971E+04  0.12525417971E+04  0.00000000000E+00 0. -1.
          2   -1    0    0  501    0  0.00000000000E+00 -0.00000000000E+00 -0.30758795362E+04  0.30758795362E+04  0.00000000000E+00 0.  1.
         23    2    1    2    0    0 -0.14502026091E+04 -0.13165745669E+04 -0.10342565471E+04  0.22167619560E+04  0.88829988948E+02 0.  0.
         13    1    3    3    0    0 -0.41227943776E+03 -0.34290709518E+03 -0.24710656413E+03  0.59044158455E+03  0.00000000000E+00 0. -1.
        -13    1    3    3    0    0 -0.10379231713E+04 -0.97366747176E+03 -0.78714998293E+03  0.16263203715E+04  0.00000000000E+00 0.  1.
         22    1    1    2    0    0  0.14502026091E+04  0.13165745669E+04 -0.78908119210E+03  0.21116593772E+04  0.00000000000E+00 0. -1.
<mgrwt>
<rscale>  0 0.39256427E+04</rscale>
<asrwt>0</asrwt>
<pdfrwt beam="1">  1        2 0.47321223E+00 0.39256427E+04</pdfrwt>
<pdfrwt beam="2">  1       -2 0.19269874E+00 0.39256427E+04</pdfrwt>
<totfact> 0.18383475E-01</totfact>
</mgrwt>
</event>
<event>
 6    1  0.1719556E-004  0.5669661E+03  0.7818608E-02  0.9976415E-01
          2   -1    0    0  501    0  0.00000000000E+00  0.00000000000E+00  0.21405560568E+04  0.21405560568E+04  0.00000000000E+00 0.  1.
         -2   -1    0    0    0  501 -0.00000000000E+00 -0.00000000000E+00 -0.37542876690E+02  0.37542876690E+02  0.00000000000E+00 0. -1.
         23    2    1    2    0    0  0.70279235509E+02  0.26422152049E+03  0.10589669298E+04  0.10988469909E+04  0.10630883372E+03 0.  0.
         11    1    3    3    0    0  0.70685279248E+02  0.88081220114E+02  0.32583762665E+03  0.34485485204E+03  0.00000000000E+00 0. -1.
        -11    1    3    3    0    0 -0.40604373899E+00  0.17614030038E+03  0.73312930315E+03  0.75399213883E+03  0.00000000000E+00 0.  1.
         22    1    1    2    0    0 -0.70279235509E+02 -0.26422152049E+03  0.10440462503E+04  0.10792519426E+04  0.00000000000E+00 0.  1.
<mgrwt>
<rscale>  0 0.56696607E+03</rscale>
<asrwt>0</asrwt>
<pdfrwt beam="1">  1        2 0.32931622E+00 0.56696607E+03</pdfrwt>
<pdfrwt beam="2">  1       -2 0.57758289E-02 0.56696607E+03</pdfrwt>
<totfact> 0.95562567E+02</totfact>
</mgrwt>
</event>
<event>
 6    1  0.1719556E-004  0.3881949E+04  0.7818608E-02  0.8028794E-01
         -2   -1    0    0    0  501 -0.00000000000E+00  0.00000000000E+00  0.30605562896E+04  0.30605562896E+04  0.00000000000E+00 0. -1.
          2   -1    0    0  501    0  0.00000000000E+00 -0.00000000000E+00 -0.12309470308E+04  0.12309470308E+04  0.00000000000E+00 0.  1.
         23    2    1    2    0    0  0.16161656441E+03  0.11151250317E+04  0.26610375991E+04  0.28911830587E+04  0.90524168201E+02 0.  0.
         13    1    3    3    0    0  0.15255692118E+02  0.39484841856E+03  0.90064748199E+03  0.98351608863E+03  0.00000000000E+00 0. -1.
        -13    1    3    3    0    0  0.14636087229E+03  0.72027661312E+03  0.17603901171E+04  0.19076669701E+04  0.00000000000E+00 0.  1.
         22    1    1    2    0    0 -0.16161656441E+03 -0.11151250317E+04 -0.83142834026E+03  0.14003202616E+04  0.00000000000E+00 0.  1.
<mgrwt>
<rscale>  0 0.38819493E+04</rscale>
<asrwt>0</asrwt>
<pdfrwt beam="1">  1        2 0.18937647E+00 0.38819493E+04</pdfrwt>
<pdfrwt beam="2">  1       -2 0.47085481E+00 0.38819493E+04</pdfrwt>
<totfact> 0.36599601E-02</totfact>
</mgrwt>
</event>
<event>
 6    1  0.1719556E-004  0.3587125E+04  0.7818608E-02  0.8093447E-01
          2   -1    0    0  501    0  0.00000000000E+00  0.00000000000E+00  0.34925456345E+04  0.34925456345E+04  0.00000000000E+00 0.  1.
         -2   -1    0    0    0  501 -0.00000000000E+00 -0.00000000000E+00 -0.92106623967E+03  0.92106623967E+03  0.00000000000E+00 0. -1.
         23    2    1    2    0    0 -0.11342233803E+04 -0.85829733313E+03 -0.55424023602E+02  0.14263458066E+04  0.90849045522E+02 0.  0.
         13    1    3    3    0    0 -0.69827395183E+03 -0.47241786636E+03 -0.31805239955E+02  0.84366861121E+03  0.00000000000E+00 0. -1.
        -13    1    3    3    0    0 -0.43594942852E+03 -0.38587946677E+03 -0.23618783647E+02  0.58267719540E+03  0.00000000000E+00 0.  1.
         22    1    1    2    0    0  0.11342233803E+04  0.85829733313E+03  0.26269034184E+04  0.29872660675E+04  0.00000000000E+00 0.  1.
<mgrwt>
<rscale>  0 0.35871247E+04</rscale>
<asrwt>0</asrwt>
<pdfrwt beam="1">  1        2 0.53731471E+00 0.35871247E+04</pdfrwt>
<pdfrwt beam="2">  1       -2 0.14170250E+00 0.35871247E+04</pdfrwt>
<totfact> 0.23324973E-01</totfact>
</mgrwt>
</event>
<event>
 6    1  0.1719556E-004  0.1181669E+04  0.7818608E-02  0.9129054E-01
          2   -1    0    0  501    0  0.00000000000E+00  0.00000000000E+00  0.21431736018E+04  0.21431736018E+04  0.00000000000E+00 0.  1.
         -2   -1    0    0    0  501 -0.00000000000E+00 -0.00000000000E+00 -0.16288254708E+03  0.16288254708E+03  0.00000000000E+00 0. -1.
         23    2    1    2    0    0  0.45645557339E+02 -0.57911758438E+03  0.82696481609E+03  0.10146917130E+04  0.90927289709E+02 0.  0.
         11    1    3    3    0    0 -0.10371471853E+01 -0.13333023412E+03  0.25764537517E+03  0.29010199301E+03  0.00000000000E+00 0.  1.
        -11    1    3    3    0    0  0.46682704524E+02 -0.44578735026E+03  0.56931944092E+03  0.72458972003E+03  0.00000000000E+00 0. -1.
         22    1    1    2    0    0 -0.45645557339E+02  0.57911758438E+03  0.11533262387E+04  0.12913644359E+04  0.00000000000E+00 0. -1.
<mgrwt>
<rscale>  0 0.11816693E+04</rscale>
<asrwt>0</asrwt>
<pdfrwt beam="1">  1        2 0.32971899E+00 0.11816693E+04</pdfrwt>
<pdfrwt beam="2">  1       -2 0.25058855E-01 0.11816693E+04</pdfrwt>
<totfact> 0.78640597E+01</totfact>
</mgrwt>
</event>
<event>
 6    1  0.1719556E-004  0.3218196E+04  0.7818608E-02  0.8184028E-01
         -1   -1    0    0    0  501 -0.00000000000E+00  0.00000000000E+00  0.25001548660E+04  0.25001548660E+04  0.00000000000E+00 0. -1.
          1   -1    0    0  501    0  0.00000000000E+00 -0.00000000000E+00 -0.10356144859E+04  0.10356144859E+04  0.00000000000E+00 0.  1.
         23    2    1    2    0    0  0.23096974138E+03  0.14595837692E+04  0.14289210016E+04  0.20575946190E+04  0.90269522924E+02 0.  0.
         11    1    3    3    0    0  0.12894336077E+03  0.53570663330E+03  0.53219367358E+03  0.76605358392E+03  0.00000000000E+00 0.  1.
        -11    1    3    3    0    0  0.10202638061E+03  0.92387713591E+03  0.89672732797E+03  0.12915410351E+04  0.00000000000E+00 0. -1.
         22    1    1    2    0    0 -0.23096974138E+03 -0.14595837692E+04  0.35619378547E+02  0.14781747329E+04  0.00000000000E+00 0.  1.
<mgrwt>
<rscale>  0 0.32181961E+04</rscale>
<asrwt>0</asrwt>
<pdfrwt beam="1">  1        1 0.15932531E+00 0.32181961E+04</pdfrwt>
<pdfrwt beam="2">  1       -1 0.38463921E+00 0.32181961E+04</pdfrwt>
<totfact> 0.10786067E-01</totfact>
</mgrwt>
</event>
<event>
 6    1  0.1719556E-004  0.3737203E+04  0.7818608E-02  0.8059767E-01
          2   -1    0    0  501    0  0.00000000000E+00  0.00000000000E+00  0.34237253401E+04  0.34237253401E+04  0.00000000000E+00 0.  1.
         -2   -1    0    0    0  501 -0.00000000000E+00 -0.00000000000E+00 -0.10198456935E+04  0.10198456935E+04  0.00000000000E+00 0. -1.
         23    2    1    2    0    0 -0.61784595428E+03  0.16185321618E+04  0.37391257287E+03  0.17748360707E+04  0.94087637704E+02 0.  0.
         13    1    3    3    0    0 -0.34390217539E+03  0.10269496371E+04  0.24101052205E+03  0.11094955318E+04  0.00000000000E+00 0. -1.
        -13    1    3    3    0    0 -0.27394377889E+03  0.59158252475E+03  0.13290205083E+03  0.66534053890E+03  0.00000000000E+00 0.  1.
         22    1    1    2    0    0  0.61784595428E+03 -0.16185321618E+04  0.20299670737E+04  0.26687349630E+04  0.00000000000E+00 0.  1.
<mgrwt>
<rscale>  0 0.37372030E+04</rscale>
<asrwt>0</asrwt>
<pdfrwt beam="1">  1        2 0.52672697E+00 0.37372030E+04</pdfrwt>
<pdfrwt beam="2">  1       -2 0.15689934E+00 0.37372030E+04</pdfrwt>
<totfact> 0.19630942E-01</totfact>
</mgrwt>
</event>
<event>
 6    1  0.1719556E-004  0.4128830E+04  0.7818608E-02  0.7979050E-01
         -1   -1    0    0    0  501 -0.00000000000E+00  0.00000000000E+00  0.26774128935E+04  0.26774128935E+04  0.00000000000E+00 0. -1.
          1   -1    0    0  501    0  0.00000000000E+00 -0.00000000000E+00 -0.15917640044E+04  0.15917640044E+04  0.00000000000E+00 0.  1.
         23    2    1    2    0    0 -0.10891275198E+04  0.73760377248E+03 -0.11007464836E+04  0.17175925263E+04  0.90681781908E+02 0.  0.
         13    1    3    3    0    0 -0.69421886984E+03  0.49928820960E+03 -0.76130659057E+03  0.11449088524E+04  0.00000000000E+00 0. -1.
        -13    1    3    3    0    0 -0.39490864994E+03  0.23831556288E+03 -0.33943989308E+03  0.57268367387E+03  0.00000000000E+00 0.  1.
         22    1    1    2    0    0  0.10891275198E+04 -0.73760377248E+03  0.21863953728E+04  0.25515843717E+04  0.00000000000E+00 0. -1.
<mgrwt>
<rscale>  0 0.41288301E+04</rscale>
<asrwt>0</asrwt>
<pdfrwt beam="1">  1        1 0.24488677E+00 0.41288301E+04</pdfrwt>
<pdfrwt beam="2">  1       -1 0.41190967E+00 0.41288301E+04</pdfrwt>
<totfact> 0.25939210E-02</totfact>
</mgrwt>
</event>
<event>
 6    1  0.1719556E-004  0.5641498E+04  0.7818608E-02  0.7736514E-01
          2   -1    0    0  501    0  0.00000000000E+00  0.00000000000E+00  0.27390952463E+04  0.27390952463E+04  0.00000000000E+00 0.  1.
         -2   -1    0    0    0  501 -0.00000000000E+00 -0.00000000000E+00 -0.29048365874E+04  0.29048365874E+04  0.00000000000E+00 0. -1.
         23    2    1    2    0    0 -0.48053490305E+03  0.97300515498E+02 -0.28611627993E+04  0.29042825822E+04  0.90683898263E+02 0.  0.
         11    1    3    3    0    0 -0.32111394993E+03  0.23211038438E+02 -0.19304751009E+04  0.19571374598E+04  0.00000000000E+00 0. -1.
        -11    1    3    3    0    0 -0.15942095312E+03  0.74089477060E+02 -0.93068769843E+03  0.94714512242E+03  0.00000000000E+00 0.  1.
         22    1    1    2    0    0  0.48053490305E+03 -0.97300515498E+02  0.26954214583E+04  0.27396492515E+04  0.00000000000E+00 0.  1.
<mgrwt>
<rscale>  0 0.56414977E+04</rscale>
<asrwt>0</asrwt>
<pdfrwt beam="1">  1        2 0.42139927E+00 0.56414977E+04</pdfrwt>
<pdfrwt beam="2">  1       -2 0.44689794E+00 0.56414977E+04</pdfrwt>
<totfact> 0.63609053E-03</totfact>
</mgrwt>
</event>
<event>
 6    1  0.1719556E-004  0.1886688E+04  0.7818608E-02  0.8661511E-01
          2   -1    0    0  501    0  0.00000000000E+00  0.00000000000E+00  0.63247667660E+03  0.63247667660E+03  0.00000000000E+00 0.  1.
         -2   -1    0    0    0  501 -0.00000000000E+00 -0.00000000000E+00 -0.14070047597E+04  0.14070047597E+04  0.00000000000E+00 0. -1.
         23    2    1    2    0    0 -0.71660826651E+03  0.60562105746E+03 -0.46756930849E+03  0.10522996080E+04  0.91701329465E+02 0.  0.
         11    1    3    3    0    0 -0.54718154873E+03  0.41171530262E+03 -0.32531217286E+03  0.75811948101E+03  0.00000000000E+00 0. -1.
        -11    1    3    3    0    0 -0.16942671777E+03  0.19390575485E+03 -0.14225713564E+03  0.29418012696E+03  0.00000000000E+00 0.  1.
         22    1    1    2    0    0  0.71660826651E+03 -0.60562105746E+03 -0.30695877460E+03  0.98718182832E+03  0.00000000000E+00 0. -1.
<mgrwt>
<rscale>  0 0.18866878E+04</rscale>
<asrwt>0</asrwt>
<pdfrwt beam="1">  1        2 0.97304104E-01 0.18866878E+04</pdfrwt>
<pdfrwt beam="2">  1       -2 0.21646227E+00 0.18866878E+04</pdfrwt>
<totfact> 0.45354590E+00</totfact>
</mgrwt>
</event>
<event>
 6    1  0.1719556E-004  0.3287979E+04  0.7818608E-02  0.8165961E-01
          2   -1    0    0  501    0  0.00000000000E+00  0.00000000000E+00  0.20137980883E+04  0.20137980883E+04  0.00000000000E+00 0.  1.
         -2   -1    0    0    0  501 -0.00000000000E+00 -0.00000000000E+00 -0.13420919842E+04  0.13420919842E+04  0.00000000000E+00 0. -1.
         23    2    1    2    0    0  0.11632934103E+04  0.40865882504E+03  0.14441880038E+04  0.19009048909E+04  0.86641908125E+02 0.  0.
         11    1    3    3    0    0  0.44576926310E+03  0.20131405147E+03  0.57740387903E+03  0.75672506418E+03  0.00000000000E+00 0. -1.
        -11    1    3    3    0    0  0.71752414715E+03  0.20734477357E+03  0.86678412473E+03  0.11441798267E+04  0.00000000000E+00 0.  1.
         22    1    1    2    0    0 -0.11632934103E+04 -0.40865882504E+03 -0.77248189966E+03  0.14549851817E+04  0.00000000000E+00 0. -1.
<mgrwt>
<rscale>  0 0.32879795E+04</rscale>
<asrwt>0</asrwt>
<pdfrwt beam="1">  1        2 0.30981509E+00 0.32879795E+04</pdfrwt>
<pdfrwt beam="2">  1       -2 0.20647569E+00 0.32879795E+04</pdfrwt>
<totfact> 0.66224861E-01</totfact>
</mgrwt>
</event>
<event>
 6    1  0.1719556E-004  0.3762802E+04  0.7818608E-02  0.8054185E-01
         -2   -1    0    0    0  501 -0.00000000000E+00  0.00000000000E+00  0.15318365556E+04  0.15318365556E+04  0.00000000000E+00 0. -1.
          2   -1    0    0  501    0  0.00000000000E+00 -0.00000000000E+00 -0.23107353985E+04  0.23107353985E+04  0.00000000000E+00 0.  1.
         23    2    1    2    0    0 -0.51262336610E+03  0.10398235857E+04 -0.19015883100E+04  0.22287418997E+04  0.85067915339E+02 0.  0.
         13    1    3    3    0    0 -0.31291755374E+01  0.39605615333E+02 -0.57813102958E+02  0.70148067536E+02  0.00000000000E+00 0. -1.
        -13    1    3    3    0    0 -0.50949419056E+03  0.10002179703E+04 -0.18437752070E+04  0.21585938322E+04  0.00000000000E+00 0.  1.
         22    1    1    2    0    0  0.51262336610E+03 -0.10398235857E+04  0.11226894671E+04  0.16138300543E+04  0.00000000000E+00 0. -1.
<mgrwt>
<rscale>  0 0.37628016E+04</rscale>
<asrwt>0</asrwt>
<pdfrwt beam="1">  1        2 0.35549775E+00 0.37628016E+04</pdfrwt>
<pdfrwt beam="2">  1       -2 0.23566716E+00 0.37628016E+04</pdfrwt>
<totfact> 0.28335943E-01</totfact>
</mgrwt>
</event>
<event>
 6    1  0.1719556E-004  0.1020193E+04  0.7818608E-02  0.9286670E-01
         -1   -1    0    0    0  501 -0.00000000000E+00  0.00000000000E+00  0.13245757122E+03  0.13245757122E+03  0.00000000000E+00 0. -1.
          1   -1    0    0  501    0  0.00000000000E+00 -0.00000000000E+00 -0.19643922101E+04  0.19643922101E+04  0.00000000000E+00 0.  1.
         23    2    1    2    0    0 -0.49147376593E+03 -0.68468358836E+02 -0.11314771440E+04  0.12384354986E+04  0.85132707311E+02 0.  0.
         11    1    3    3    0    0 -0.40065869551E+03 -0.37066887328E+02 -0.83731707492E+03  0.92897859414E+03  0.00000000000E+00 0.  1.
        -11    1    3    3    0    0 -0.90815070425E+02 -0.31401471508E+02 -0.29416006911E+03  0.30945690441E+03  0.00000000000E+00 0. -1.
         22    1    1    2    0    0  0.49147376593E+03  0.68468358836E+02 -0.70045749486E+03  0.85841428277E+03  0.00000000000E+00 0. -1.
<mgrwt>
<rscale>  0 0.10201934E+04</rscale>
<asrwt>0</asrwt>
<pdfrwt beam="1">  1        1 0.30221418E+00 0.10201934E+04</pdfrwt>
<pdfrwt beam="2">  1       -1 0.20378088E-01 0.10201934E+04</pdfrwt>
<totfact> 0.62783071E+01</totfact>
</mgrwt>
</event>
<event>
 6    1  0.1719556E-004  0.2781910E+04  0.7818608E-02  0.8308907E-01
          2   -1    0    0  501    0  0.00000000000E+00  0.00000000000E+00  0.14797080776E+04  0.14797080776E+04  0.00000000000E+00 0.  1.
         -2   -1    0    0    0  501 -0.00000000000E+00 -0.00000000000E+00 -0.13075251545E+04  0.13075251545E+04  0.00000000000E+00 0. -1.
         23    2    1    2    0    0  0.27434244845E+02  0.42623884011E+03  0.14107536404E+04  0.14770845351E+04  0.95502372315E+02 0.  0.
         11    1    3    3    0    0  0.12055870457E+02  0.94284572310E+02  0.19811825744E+03  0.21974022963E+03  0.00000000000E+00 0. -1.
        -11    1    3    3    0    0  0.15378374388E+02  0.33195426780E+03  0.12126353830E+04  0.12573443054E+04  0.00000000000E+00 0.  1.
         22    1    1    2    0    0 -0.27434244845E+02 -0.42623884011E+03 -0.12385707173E+04  0.13101486971E+04  0.00000000000E+00 0. -1.
<mgrwt>
<rscale>  0 0.27819098E+04</rscale>
<asrwt>0</asrwt>
<pdfrwt beam="1">  1        2 0.22764740E+00 0.27819098E+04</pdfrwt>
<pdfrwt beam="2">  1       -2 0.20115772E+00 0.27819098E+04</pdfrwt>
<totfact> 0.14846095E+00</totfact>
</mgrwt>
</event>
<event>
 6    1  0.1719556E-004  0.1392262E+04  0.7818608E-02  0.8959439E-01
          2   -1    0    0  501    0  0.00000000000E+00  0.00000000000E+00  0.17631457439E+04  0.17631457439E+04  0.00000000000E+00 0.  1.
         -2   -1    0    0    0  501 -0.00000000000E+00 -0.00000000000E+00 -0.27484885045E+03  0.27484885045E+03  0.00000000000E+00 0. -1.
         23    2    1    2    0    0  0.56531741338E+03 -0.24149588408E+03  0.12159687968E+04  0.13656355890E+04  0.92067405330E+02 0.  0.
         13    1    3    3    0    0  0.21468596407E+03 -0.81539542638E+02  0.36153046746E+03  0.42830250885E+03  0.00000000000E+00 0. -1.
        -13    1    3    3    0    0  0.35063144931E+03 -0.15995634145E+03  0.85443832939E+03  0.93733308015E+03  0.00000000000E+00 0.  1.
         22    1    1    2    0    0 -0.56531741338E+03  0.24149588408E+03  0.27232809662E+03  0.67235900537E+03  0.00000000000E+00 0. -1.
<mgrwt>
<rscale>  0 0.13922623E+04</rscale>
<asrwt>0</asrwt>
<pdfrwt beam="1">  1        2 0.27125318E+00 0.13922623E+04</pdfrwt>
<pdfrwt beam="2">  1       -2 0.42284440E-01 0.13922623E+04</pdfrwt>
<totfact> 0.46695015E+01</totfact>
</mgrwt>
</event>
<event>
 6    1  0.1719556E-004  0.1715650E+04  0.7818608E-02  0.8752489E-01
         -2   -1    0    0    0  501 -0.00000000000E+00  0.00000000000E+00  0.95913198783E+03  0.95913198783E+03  0.00000000000E+00 0. -1.
          2   -1    0    0  501    0  0.00000000000E+00 -0.00000000000E+00 -0.76721802710E+03  0.76721802710E+03  0.00000000000E+00 0.  1.
         23    2    1    2    0    0 -0.95258418719E+02  0.79184924844E+03  0.40756379082E+03  0.90015134160E+03  0.89804207079E+02 0.  0.
         13    1    3    3    0    0 -0.47050236960E+02  0.54105156455E+03  0.31895393964E+03  0.62982706826E+03  0.00000000000E+00 0.  1.
        -13    1    3    3    0    0 -0.48208181759E+02  0.25079768388E+03  0.88609851185E+02  0.27032427334E+03  0.00000000000E+00 0. -1.
         22    1    1    2    0    0  0.95258418719E+02 -0.79184924844E+03 -0.21564983010E+03  0.82619867333E+03  0.00000000000E+00 0.  1.
<mgrwt>
<rscale>  0 0.17156496E+04</rscale>
<asrwt>0</asrwt>
<pdfrwt beam="1">  1        2 0.11803354E+00 0.17156496E+04</pdfrwt>
<pdfrwt beam="2">  1       -2 0.14755877E+00 0.17156496E+04</pdfrwt>
<totfact> 0.10822181E+01</totfact>
</mgrwt>
</event>
<event>
 6    1  0.1719556E-004  0.3724120E+04  0.7818608E-02  0.8062637E-01
         -2   -1    0    0    0  501 -0.00000000000E+00  0.00000000000E+00  0.18011864257E+04  0.18011864257E+04  0.00000000000E+00 0. -1.
          2   -1    0    0  501    0  0.00000000000E+00 -0.00000000000E+00 -0.19249911096E+04  0.19249911096E+04  0.00000000000E+00 0.  1.
         23    2    1    2    0    0  0.11101122619E+04 -0.23296586065E+03 -0.15378868344E+04  0.19133756557E+04  0.96375091039E+02 0.  0.
         11    1    3    3    0    0  0.15927676140E+03 -0.19229930800E+02 -0.27218816580E+03  0.31595138006E+03  0.00000000000E+00 0.  1.
        -11    1    3    3    0    0  0.95083550048E+03 -0.21373592985E+03 -0.12656986686E+04  0.15974242756E+04  0.00000000000E+00 0. -1.
         22    1    1    2    0    0 -0.11101122619E+04  0.23296586065E+03  0.14140821505E+04  0.18128018796E+04  0.00000000000E+00 0. -1.
<mgrwt>
<rscale>  0 0.37241202E+04</rscale>
<asrwt>0</asrwt>
<pdfrwt beam="1">  1        2 0.29615248E+00 0.37241202E+04</pdfrwt>
<pdfrwt beam="2">  1       -2 0.27710560E+00 0.37241202E+04</pdfrwt>
<totfact> 0.26026524E-01</totfact>
</mgrwt>
</event>
<event>
 6    1  0.1719556E-004  0.2010302E+04  0.7818608E-02  0.8601819E-01
         -2   -1    0    0    0  501 -0.00000000000E+00  0.00000000000E+00  0.12065912300E+04  0.12065912300E+04  0.00000000000E+00 0. -1.
          2   -1    0    0  501    0  0.00000000000E+00 -0.00000000000E+00 -0.83734079723E+03  0.83734079723E+03  0.00000000000E+00 0.  1.
         23    2    1    2    0    0 -0.90309146692E+02  0.30502207740E+03 -0.78269570400E+03  0.84886963903E+03  0.82297565709E+02 0.  0.
         13    1    3    3    0    0  0.14184465436E+02  0.33232131777E+02 -0.65281794007E+02  0.74614249785E+02  0.00000000000E+00 0.  1.
        -13    1    3    3    0    0 -0.10449361213E+03  0.27178994563E+03 -0.71741391000E+03  0.77425538925E+03  0.00000000000E+00 0. -1.
         22    1    1    2    0    0  0.90309146692E+02 -0.30502207740E+03  0.11519461368E+04  0.11950623883E+04  0.00000000000E+00 0. -1.
<mgrwt>
<rscale>  0 0.20103015E+04</rscale>
<asrwt>0</asrwt>
<pdfrwt beam="1">  1        2 0.12882166E+00 0.20103015E+04</pdfrwt>
<pdfrwt beam="2">  1       -2 0.18562942E+00 0.20103015E+04</pdfrwt>
<totfact> 0.49868134E+00</totfact>
</mgrwt>
</event>
<event>
 6    1  0.1719556E-004  0.1528439E+04  0.7818608E-02  0.8865758E-01
          1   -1    0    0  501    0  0.00000000000E+00  0.00000000000E+00  0.65534387860E+03  0.65534387860E+03  0.00000000000E+00 0. -1.
         -1   -1    0    0    0  501 -0.00000000000E+00 -0.00000000000E+00 -0.89118326706E+03  0.89118326706E+03  0.00000000000E+00 0.  1.
         23    2    1    2    0    0 -0.69585739683E+03 -0.73856918191E+01 -0.43181139244E+03  0.82356304454E+03  0.86734909453E+02 0.  0.
         11    1    3    3    0    0 -0.34769286435E+03  0.34946958039E+02 -0.19237693765E+03  0.39889911498E+03  0.00000000000E+00 0. -1.
        -11    1    3    3    0    0 -0.34816453248E+03 -0.42332649858E+02 -0.23943445479E+03  0.42466392955E+03  0.00000000000E+00 0.  1.
         22    1    1    2    0    0  0.69585739683E+03  0.73856918191E+01  0.19597200398E+03  0.72296410112E+03  0.00000000000E+00 0. -1.
<mgrwt>
<rscale>  0 0.15284391E+04</rscale>
<asrwt>0</asrwt>
<pdfrwt beam="1">  1        1 0.10082214E+00 0.15284391E+04</pdfrwt>
<pdfrwt beam="2">  1       -1 0.13710512E+00 0.15284391E+04</pdfrwt>
<totfact> 0.12855683E+01</totfact>
</mgrwt>
</event>
<event>
 6    1  0.1719556E-004  0.2041550E+04  0.7818608E-02  0.8587437E-01
         -2   -1    0    0    0  501 -0.00000000000E+00  0.00000000000E+00  0.10611147082E+04  0.10611147082E+04  0.00000000000E+00 0. -1.
          2   -1    0    0  501    0  0.00000000000E+00 -0.00000000000E+00 -0.98196929475E+03  0.98196929475E+03  0.00000000000E+00 0.  1.
         23    2    1    2    0    0  0.68627479086E+03  0.17392123612E+03  0.77242531375E+03  0.10521961662E+04  0.96198866017E+02 0.  0.
         13    1    3    3    0    0  0.21175348955E+03  0.12692651908E+02  0.25785857819E+03  0.33390371381E+03  0.00000000000E+00 0. -1.
        -13    1    3    3    0    0  0.47452130131E+03  0.16122858422E+03  0.51456673556E+03  0.71829245235E+03  0.00000000000E+00 0.  1.
         22    1    1    2    0    0 -0.68627479086E+03 -0.17392123612E+03 -0.69327990029E+03  0.99088783679E+03  0.00000000000E+00 0.  1.
<mgrwt>
<rscale>  0 0.20415505E+04</rscale>
<asrwt>0</asrwt>
<pdfrwt beam="1">  1        2 0.15107220E+00 0.20415505E+04</pdfrwt>
<pdfrwt beam="2">  1       -2 0.16324842E+00 0.20415505E+04</pdfrwt>
<totfact> 0.57107290E+00</totfact>
</mgrwt>
</event>
<event>
 6    1  0.1719556E-004  0.4419055E+04  0.7818608E-02  0.7924963E-01
         -2   -1    0    0    0  501 -0.00000000000E+00  0.00000000000E+00  0.14080319972E+04  0.14080319972E+04  0.00000000000E+00 0. -1.
          2   -1    0    0  501    0  0.00000000000E+00 -0.00000000000E+00 -0.34672597244E+04  0.34672597244E+04  0.00000000000E+00 0.  1.
         23    2    1    2    0    0  0.85081771890E+03 -0.20304095828E+04 -0.12245160887E+04  0.25208921413E+04  0.94887678670E+02 0.  0.
         13    1    3    3    0    0  0.52492891014E+03 -0.13658238778E+04 -0.80189536972E+03  0.16685506914E+04  0.00000000000E+00 0.  1.
        -13    1    3    3    0    0  0.32588880876E+03 -0.66458570499E+03 -0.42262071901E+03  0.85234144983E+03  0.00000000000E+00 0. -1.
         22    1    1    2    0    0 -0.85081771890E+03  0.20304095828E+04 -0.83471163848E+03  0.23543995804E+04  0.00000000000E+00 0. -1.
<mgrwt>
<rscale>  0 0.44190554E+04</rscale>
<asrwt>0</asrwt>
<pdfrwt beam="1">  1        2 0.53342458E+00 0.44190554E+04</pdfrwt>
<pdfrwt beam="2">  1       -2 0.21662031E+00 0.44190554E+04</pdfrwt>
<totfact> 0.67746430E-02</totfact>
</mgrwt>
</event>
<event>
 6    1  0.1719556E-004  0.1535080E+04  0.7818608E-02  0.8861454E-01
         -2   -1    0    0    0  501 -0.00000000000E+00  0.00000000000E+00  0.27385763132E+03  0.27385763132E+03  0.00000000000E+00 0. -1.
          2   -1    0    0  501    0  0.00000000000E+00 -0.00000000000E+00 -0.21511822047E+04  0.21511822047E+04  0.00000000000E+00 0.  1.
         23    2    1    2    0    0 -0.66996374362E+03 -0.30829898540E+03 -0.12626307138E+04  0.14649626395E+04  0.89328235371E+02 0.  0.
         13    1    3    3    0    0 -0.23580052193E+03 -0.11590199616E+03 -0.36895012538E+03  0.45294519964E+03  0.00000000000E+00 0. -1.
        -13    1    3    3    0    0 -0.43416322169E+03 -0.19239698924E+03 -0.89368058842E+03  0.10120174399E+04  0.00000000000E+00 0.  1.
         22    1    1    2    0    0  0.66996374362E+03  0.30829898540E+03 -0.61469385953E+03  0.96007719643E+03  0.00000000000E+00 0. -1.
<mgrwt>
<rscale>  0 0.15350800E+04</rscale>
<asrwt>0</asrwt>
<pdfrwt beam="1">  1        2 0.33095111E+00 0.15350800E+04</pdfrwt>
<pdfrwt beam="2">  1       -2 0.42131943E-01 0.15350800E+04</pdfrwt>
<totfact> 0.28323126E+01</totfact>
</mgrwt>
</event>
<event>
 6    1  0.1719556E-004  0.2710161E+04  0.7818608E-02  0.8331716E-01
         -2   -1    0    0    0  501 -0.00000000000E+00  0.00000000000E+00  0.85533735873E+03  0.85533735873E+03  0.00000000000E+00 0. -1.
          2   -1    0    0  501    0  0.00000000000E+00 -0.00000000000E+00 -0.21468060796E+04  0.21468060796E+04  0.00000000000E+00 0.  1.
         23    2    1    2    0    0 -0.11213402573E+04  0.42981839911E+03  0.45261932275E+02  0.12052025189E+04  0.91195614747E+02 0.  0.
         13    1    3    3    0    0 -0.40835495108E+03  0.16625130868E+03  0.59697127695E+02  0.44492360105E+03  0.00000000000E+00 0.  1.
        -13    1    3    3    0    0 -0.71298530623E+03  0.26356709043E+03 -0.14435195420E+02  0.76027891784E+03  0.00000000000E+00 0. -1.
         22    1    1    2    0    0  0.11213402573E+04 -0.42981839911E+03 -0.13367306531E+04  0.17969409194E+04  0.00000000000E+00 0.  1.
<mgrwt>
<rscale>  0 0.27101612E+04</rscale>
<asrwt>0</asrwt>
<pdfrwt beam="1">  1        2 0.33027786E+00 0.27101612E+04</pdfrwt>
<pdfrwt beam="2">  1       -2 0.13159036E+00 0.27101612E+04</pdfrwt>
<totfact> 0.20418238E+00</totfact>
</mgrwt>
</event>
<event>
 6    1  0.1719556E-004  0.1161115E+04  0.7818608E-02  0.9147590E-01
         -1   -1    0    0    0  501 -0.00000000000E+00  0.00000000000E+00  0.32917992974E+03  0.32917992974E+03  0.00000000000E+00 0. -1.
          1   -1    0    0  501    0  0.00000000000E+00 -0.00000000000E+00 -0.10238998936E+04  0.10238998936E+04  0.00000000000E+00 0.  1.
         23    2    1    2    0    0  0.41384679534E+03 -0.11239466632E+03 -0.79927998194E+03  0.91167917950E+03  0.91698995455E+02 0.  0.
         11    1    3    3    0    0  0.33270040242E+03 -0.54190534473E+02 -0.58247458922E+03  0.67298054867E+03  0.00000000000E+00 0.  1.
        -11    1    3    3    0    0  0.81146392924E+02 -0.58204131844E+02 -0.21680539272E+03  0.23869863083E+03  0.00000000000E+00 0. -1.
         22    1    1    2    0    0 -0.41384679534E+03  0.11239466632E+03  0.10456001805E+03  0.44140064387E+03  0.00000000000E+00 0. -1.
<mgrwt>
<rscale>  0 0.11611155E+04</rscale>
<asrwt>0</asrwt>
<pdfrwt beam="1">  1        1 0.15752306E+00 0.11611155E+04</pdfrwt>
<pdfrwt beam="2">  1       -1 0.50643066E-01 0.11611155E+04</pdfrwt>
<totfact> 0.56335274E+01</totfact>
</mgrwt>
</event>
<event>
 6    1  0.1719556E-004  0.4357548E+04  0.7818608E-02  0.7936062E-01
         -1   -1    0    0    0  501 -0.00000000000E+00  0.00000000000E+00  0.14512849762E+04  0.14512849762E+04  0.00000000000E+00 0. -1.
          1   -1    0    0  501    0  0.00000000000E+00 -0.00000000000E+00 -0.32709325736E+04  0.32709325736E+04  0.00000000000E+00 0.  1.
         23    2    1    2    0    0 -0.13356901008E+04 -0.12541884129E+04  0.36563327839E+03  0.18704621033E+04  0.88792822257E+02 0.  0.
         13    1    3    3    0    0 -0.76401093181E+03 -0.71579363839E+03  0.25365279996E+03  0.10772246653E+04  0.00000000000E+00 0. -1.
        -13    1    3    3    0    0 -0.57167916901E+03 -0.53839477450E+03  0.11198047843E+03  0.79323743799E+03  0.00000000000E+00 0.  1.
         22    1    1    2    0    0  0.13356901008E+04  0.12541884129E+04 -0.21852808758E+04  0.28517554465E+04  0.00000000000E+00 0.  1.
<mgrwt>
<rscale>  0 0.43575476E+04</rscale>
<asrwt>0</asrwt>
<pdfrwt beam="1">  1        1 0.50322040E+00 0.43575476E+04</pdfrwt>
<pdfrwt beam="2">  1       -1 0.22327461E+00 0.43575476E+04</pdfrwt>
<totfact> 0.29865550E-02</totfact>
</mgrwt>
</event>
<event>
 6    1  0.1719556E-004  0.2775260E+04  0.7818608E-02  0.8310990E-01
          1   -1    0    0  501    0  0.00000000000E+00  0.00000000000E+00  0.22412993791E+04  0.22412993791E+04  0.00000000000E+00 0. -1.
         -1   -1    0    0    0  501 -0.00000000000E+00 -0.00000000000E+00 -0.85910769172E+03  0.85910769172E+03  0.00000000000E+00 0.  1.
         23    2    1    2    0    0 -0.61780257108E+03 -0.91746672691E+03 -0.24148749557E+03  0.11357800576E+04  0.90856573528E+02 0.  0.
         13    1    3    3    0    0 -0.27975570411E+03 -0.38974647521E+03 -0.14848035044E+03  0.50220711205E+03  0.00000000000E+00 0.  1.
        -13    1    3    3    0    0 -0.33804686697E+03 -0.52772025170E+03 -0.93007145130E+02  0.63357294558E+03  0.00000000000E+00 0. -1.
         22    1    1    2    0    0  0.61780257108E+03  0.91746672691E+03  0.16236791829E+04  0.19646270132E+04  0.00000000000E+00 0. -1.
<mgrwt>
<rscale>  0 0.27752604E+04</rscale>
<asrwt>0</asrwt>
<pdfrwt beam="1">  1        1 0.34481529E+00 0.27752604E+04</pdfrwt>
<pdfrwt beam="2">  1       -1 0.13217041E+00 0.27752604E+04</pdfrwt>
<totfact> 0.86104589E-01</totfact>
</mgrwt>
</event>
<event>
 6    1  0.1719556E-004  0.1918212E+04  0.7818608E-02  0.8645844E-01
          2   -1    0    0  501    0  0.00000000000E+00  0.00000000000E+00  0.89743733777E+03  0.89743733777E+03  0.00000000000E+00 0.  1.
         -2   -1    0    0    0  501 -0.00000000000E+00 -0.00000000000E+00 -0.10250127559E+04  0.10250127559E+04  0.00000000000E+00 0. -1.
         23    2    1    2    0    0 -0.91489383879E+03  0.13127110387E+02 -0.34486109991E+03  0.98201608490E+03  0.90682718751E+02 0.  0.
         11    1    3    3    0    0 -0.54269343913E+03 -0.17848926606E+02 -0.24304449489E+03  0.59489947012E+03  0.00000000000E+00 0. -1.
        -11    1    3    3    0    0 -0.37220039967E+03  0.30976036994E+02 -0.10181660501E+03  0.38711661478E+03  0.00000000000E+00 0.  1.
         22    1    1    2    0    0  0.91489383879E+03 -0.13127110387E+02  0.21728568180E+03  0.94043400875E+03  0.00000000000E+00 0.  1.
<mgrwt>
<rscale>  0 0.19182124E+04</rscale>
<asrwt>0</asrwt>
<pdfrwt beam="1">  1        2 0.13806728E+00 0.19182124E+04</pdfrwt>
<pdfrwt beam="2">  1       -2 0.15769427E+00 0.19182124E+04</pdfrwt>
<totfact> 0.72120534E+00</totfact>
</mgrwt>
</event>
<event>
 6    1  0.1719556E-004  0.2328766E+04  0.7818608E-02  0.8466665E-01
         -2   -1    0    0    0  501 -0.00000000000E+00  0.00000000000E+00  0.56680587060E+03  0.56680587060E+03  0.00000000000E+00 0. -1.
          2   -1    0    0  501    0  0.00000000000E+00 -0.00000000000E+00 -0.23919786447E+04  0.23919786447E+04  0.00000000000E+00 0.  1.
         23    2    1    2    0    0  0.20833393840E+03 -0.78399714813E+03  0.14422855972E+03  0.82885583767E+03  0.90252778589E+02 0.  0.
         13    1    3    3    0    0  0.13730641366E+03 -0.47557456634E+03  0.44384906288E+02  0.49698514997E+03  0.00000000000E+00 0.  1.
        -13    1    3    3    0    0  0.71027524741E+02 -0.30842258179E+03  0.99843653431E+02  0.33187068770E+03  0.00000000000E+00 0. -1.
         22    1    1    2    0    0 -0.20833393840E+03  0.78399714813E+03 -0.19694013338E+04  0.21299286776E+04  0.00000000000E+00 0.  1.
<mgrwt>
<rscale>  0 0.23287658E+04</rscale>
<asrwt>0</asrwt>
<pdfrwt beam="1">  1        2 0.36799671E+00 0.23287658E+04</pdfrwt>
<pdfrwt beam="2">  1       -2 0.87200904E-01 0.23287658E+04</pdfrwt>
<totfact> 0.41296795E+00</totfact>
</mgrwt>
</event>
<event>
 6    1  0.1719556E-004  0.2293887E+04  0.7818608E-02  0.8480335E-01
         -2   -1    0    0    0  501 -0.00000000000E+00  0.00000000000E+00  0.57001116852E+03  0.57001116852E+03  0.00000000000E+00 0. -1.
          2   -1    0    0  501    0  0.00000000000E+00 -0.00000000000E+00 -0.23078126090E+04  0.23078126090E+04  0.00000000000E+00 0.  1.
         23    2    1    2    0    0 -0.28053802028E+03  0.51427376147E+03 -0.21046050912E+04  0.21866479672E+04  0.94274388446E+02 0.  0.
         13    1    3    3    0    0 -0.66177139634E+02  0.15775911801E+03 -0.76702000383E+03  0.78586706217E+03  0.00000000000E+00 0.  1.
        -13    1    3    3    0    0 -0.21436088064E+03  0.35651464346E+03 -0.13375850873E+04  0.14007809051E+04  0.00000000000E+00 0. -1.
         22    1    1    2    0    0  0.28053802028E+03 -0.51427376147E+03  0.36680365069E+03  0.69117581028E+03  0.00000000000E+00 0. -1.
<mgrwt>
<rscale>  0 0.22938866E+04</rscale>
<asrwt>0</asrwt>
<pdfrwt beam="1">  1        2 0.35504809E+00 0.22938866E+04</pdfrwt>
<pdfrwt beam="2">  1       -2 0.87694026E-01 0.22938866E+04</pdfrwt>
<totfact> 0.45661031E+00</totfact>
</mgrwt>
</event>
<event>
 6    1  0.1719556E-004  0.2211233E+04  0.7818608E-02  0.8513767E-01
         -2   -1    0    0    0  501 -0.00000000000E+00  0.00000000000E+00  0.55391724396E+03  0.55391724396E+03  0.00000000000E+00 0. -1.
          2   -1    0    0  501    0  0.00000000000E+00 -0.00000000000E+00 -0.22068067152E+04  0.22068067152E+04  0.00000000000E+00 0.  1.
         23    2    1    2    0    0 -0.91829353300E+02 -0.93867139190E+03 -0.11184398018E+03  0.95397056767E+03  0.89521818416E+02 0.  0.
         11    1    3    3    0    0 -0.56837916599E+02 -0.34348810033E+03 -0.45892695166E+01  0.34818915151E+03  0.00000000000E+00 0. -1.
        -11    1    3    3    0    0 -0.34991436702E+02 -0.59518329157E+03 -0.10725471066E+03  0.60578141616E+03  0.00000000000E+00 0.  1.
         22    1    1    2    0    0  0.91829353300E+02  0.93867139190E+03 -0.15410454910E+04  0.18067533915E+04  0.00000000000E+00 0.  1.
<mgrwt>
<rscale>  0 0.22112334E+04</rscale>
<asrwt>0</asrwt>
<pdfrwt beam="1">  1        2 0.33950872E+00 0.22112334E+04</pdfrwt>
<pdfrwt beam="2">  1       -2 0.85218038E-01 0.22112334E+04</pdfrwt>
<totfact> 0.55984510E+00</totfact>
</mgrwt>
</event>
<event>
 6    1  0.1719556E-004  0.1448401E+04  0.7818608E-02  0.8919510E-01
          2   -1    0    0  501    0  0.00000000000E+00  0.00000000000E+00  0.85316132811E+03  0.85316132811E+03  0.00000000000E+00 0.  1.
         -2   -1    0    0    0  501 -0.00000000000E+00 -0.00000000000E+00 -0.61473259869E+03  0.61473259869E+03  0.00000000000E+00 0. -1.
         23    2    1    2    0    0 -0.11212681638E+03 -0.71119155019E+03  0.12375349449E+03  0.73884231441E+03  0.11048617178E+03 0.  0.
         11    1    3    3    0    0 -0.12148928809E+03 -0.45364962927E+03  0.98884834760E+02  0.47993316598E+03  0.00000000000E+00 0. -1.
        -11    1    3    3    0    0  0.93624717130E+01 -0.25754192092E+03  0.24868659726E+02  0.25890914844E+03  0.00000000000E+00 0.  1.
         22    1    1    2    0    0  0.11212681638E+03  0.71119155019E+03  0.11467523494E+03  0.72905161239E+03  0.00000000000E+00 0.  1.
<mgrwt>
<rscale>  0 0.14484006E+04</rscale>
<asrwt>0</asrwt>
<pdfrwt beam="1">  1        2 0.13125559E+00 0.14484006E+04</pdfrwt>
<pdfrwt beam="2">  1       -2 0.94574246E-01 0.14484006E+04</pdfrwt>
<totfact> 0.28853738E+01</totfact>
</mgrwt>
</event>
<event>
 6    1  0.1719556E-004  0.3082499E+04  0.7818608E-02  0.8220557E-01
         -2   -1    0    0    0  501 -0.00000000000E+00  0.00000000000E+00  0.25995958506E+04  0.25995958506E+04  0.00000000000E+00 0. -1.
          2   -1    0    0  501    0  0.00000000000E+00 -0.00000000000E+00 -0.91377694305E+03  0.91377694305E+03  0.00000000000E+00 0.  1.
         23    2    1    2    0    0 -0.14325241644E+04 -0.48547984838E+03  0.11733896090E+04  0.19163756268E+04  0.88522335385E+02 0.  0.
         11    1    3    3    0    0 -0.45208670389E+03 -0.18325838671E+03  0.41648209114E+03  0.64142291538E+03  0.00000000000E+00 0. -1.
        -11    1    3    3    0    0 -0.98043746052E+03 -0.30222146167E+03  0.75690751786E+03  0.12749527115E+04  0.00000000000E+00 0.  1.
         22    1    1    2    0    0  0.14325241644E+04  0.48547984838E+03  0.51242929858E+03  0.15969971668E+04  0.00000000000E+00 0.  1.
<mgrwt>
<rscale>  0 0.30824995E+04</rscale>
<asrwt>0</asrwt>
<pdfrwt beam="1">  1        2 0.14058107E+00 0.30824995E+04</pdfrwt>
<pdfrwt beam="2">  1       -2 0.39993782E+00 0.30824995E+04</pdfrwt>
<totfact> 0.18114731E-01</totfact>
</mgrwt>
</event>
<event>
 6    1  0.2302015E-004  0.2771359E+04  0.7818608E-02  0.8312216E-01
         -1   -1    0    0    0  501 -0.00000000000E+00  0.00000000000E+00  0.10505699707E+04  0.10505699707E+04  0.00000000000E+00 0. -1.
          1   -1    0    0  501    0  0.00000000000E+00 -0.00000000000E+00 -0.18276817820E+04  0.18276817820E+04  0.00000000000E+00 0.  1.
         23    2    1    2    0    0 -0.10197295725E+02  0.43852200432E+03  0.97446000534E+03  0.10725913855E+04  0.92056748923E+02 0.  0.
         11    1    3    3    0    0  0.39758836743E+02  0.23294688297E+03  0.49379996282E+03  0.54743348333E+03  0.00000000000E+00 0.  1.
        -11    1    3    3    0    0 -0.49956132468E+02  0.20557512135E+03  0.48066004252E+03  0.52515790213E+03  0.00000000000E+00 0. -1.
         22    1    1    2    0    0  0.10197295725E+02 -0.43852200432E+03 -0.17515718166E+04  0.18056603672E+04  0.00000000000E+00 0.  1.
<mgrwt>
<rscale>  0 0.27713589E+04</rscale>
<asrwt>0</asrwt>
<pdfrwt beam="1">  1        1 0.28118181E+00 0.27713589E+04</pdfrwt>
<pdfrwt beam="2">  1       -1 0.16162615E+00 0.27713589E+04</pdfrwt>
<totfact> 0.96179059E-01</totfact>
</mgrwt>
</event>
<event>
 6    1  0.1719556E-004  0.2790442E+04  0.7818608E-02  0.8306242E-01
          1   -1    0    0  501    0  0.00000000000E+00  0.00000000000E+00  0.14418961131E+04  0.14418961131E+04  0.00000000000E+00 0.  1.
         -1   -1    0    0    0  501 -0.00000000000E+00 -0.00000000000E+00 -0.13500564567E+04  0.13500564567E+04  0.00000000000E+00 0. -1.
         23    2    1    2    0    0 -0.18815254653E+03 -0.13330896594E+04 -0.31472079058E+03  0.13856023937E+04  0.91188796282E+02 0.  0.
         13    1    3    3    0    0 -0.13794069994E+03 -0.73232451539E+03 -0.14342699224E+03  0.75887952577E+03  0.00000000000E+00 0. -1.
        -13    1    3    3    0    0 -0.50211846595E+02 -0.60076514402E+03 -0.17129379834E+03  0.62672286791E+03  0.00000000000E+00 0.  1.
         22    1    1    2    0    0  0.18815254653E+03  0.13330896594E+04  0.40656044704E+03  0.14063501761E+04  0.00000000000E+00 0.  1.
<mgrwt>
<rscale>  0 0.27904417E+04</rscale>
<asrwt>0</asrwt>
<pdfrwt beam="1">  1        1 0.22183017E+00 0.27904417E+04</pdfrwt>
<pdfrwt beam="2">  1       -1 0.20770099E+00 0.27904417E+04</pdfrwt>
<totfact> 0.82916993E-01</totfact>
</mgrwt>
</event>
<event>
 6    1  0.1719556E-004  0.6950831E+03  0.7818608E-02  0.9725678E-01
          2   -1    0    0  501    0  0.00000000000E+00  0.00000000000E+00  0.11020121100E+04  0.11020121100E+04  0.00000000000E+00 0.  1.
         -2   -1    0    0    0  501 -0.00000000000E+00 -0.00000000000E+00 -0.10960417291E+03  0.10960417291E+03  0.00000000000E+00 0. -1.
         23    2    1    2    0    0  0.88236492585E+02  0.42042291452E+02  0.10751106544E+04  0.10835812395E+04  0.93445976045E+02 0.  0.
         13    1    3    3    0    0  0.10543024148E+03  0.49050416303E+02  0.89707583977E+03  0.90458086507E+03  0.00000000000E+00 0.  1.
        -13    1    3    3    0    0 -0.17193748892E+02 -0.70081248517E+01  0.17803481461E+03  0.17900037438E+03  0.00000000000E+00 0. -1.
         22    1    1    2    0    0 -0.88236492585E+02 -0.42042291452E+02 -0.82702717316E+02  0.12803504343E+03  0.00000000000E+00 0. -1.
<mgrwt>
<rscale>  0 0.69508309E+03</rscale>
<asrwt>0</asrwt>
<pdfrwt beam="1">  1        2 0.16954032E+00 0.69508309E+03</pdfrwt>
<pdfrwt beam="2">  1       -2 0.16862181E-01 0.69508309E+03</pdfrwt>
<totfact> 0.62856221E+02</totfact>
</mgrwt>
</event>
<event>
 6    1  0.1719556E-004  0.2148266E+04  0.7818608E-02  0.8540275E-01
         -2   -1    0    0    0  501 -0.00000000000E+00  0.00000000000E+00  0.20896921803E+04  0.20896921803E+04  0.00000000000E+00 0. -1.
          2   -1    0    0  501    0  0.00000000000E+00 -0.00000000000E+00 -0.55212029592E+03  0.55212029592E+03  0.00000000000E+00 0.  1.
         23    2    1    2    0    0 -0.10548197557E+04 -0.85141831265E+02  0.55796055188E+03  0.11997541518E+04  0.90532860355E+02 0.  0.
         13    1    3    3    0    0 -0.28684899190E+03  0.16848348097E+02  0.15658619899E+03  0.32723913077E+03  0.00000000000E+00 0. -1.
        -13    1    3    3    0    0 -0.76797076378E+03 -0.10199017936E+03  0.40137435289E+03  0.87251502100E+03  0.00000000000E+00 0.  1.
         22    1    1    2    0    0  0.10548197557E+04  0.85141831265E+02  0.97961133251E+03  0.14420583245E+04  0.00000000000E+00 0. -1.
<mgrwt>
<rscale>  0 0.21482658E+04</rscale>
<asrwt>0</asrwt>
<pdfrwt beam="1">  1        2 0.84941586E-01 0.21482658E+04</pdfrwt>
<pdfrwt beam="2">  1       -2 0.32149110E+00 0.21482658E+04</pdfrwt>
<totfact> 0.11804778E+00</totfact>
</mgrwt>
</event>
<event>
 6    1  0.1719556E-004  0.3156129E+04  0.7818608E-02  0.8200500E-01
          2   -1    0    0  501    0  0.00000000000E+00  0.00000000000E+00  0.15118197601E+04  0.15118197601E+04  0.00000000000E+00 0.  1.
         -2   -1    0    0    0  501 -0.00000000000E+00 -0.00000000000E+00 -0.16472117398E+04  0.16472117398E+04  0.00000000000E+00 0. -1.
         23    2    1    2    0    0 -0.14902104197E+04 -0.90777411642E+02  0.43989919765E+03  0.15590541338E+04  0.90392778689E+02 0.  0.
         13    1    3    3    0    0 -0.10958410279E+04 -0.85345045385E+02  0.28666644049E+03  0.11359264868E+04  0.00000000000E+00 0.  1.
        -13    1    3    3    0    0 -0.39436939180E+03 -0.54323662563E+01  0.15323275716E+03  0.42312764700E+03  0.00000000000E+00 0. -1.
         22    1    1    2    0    0  0.14902104197E+04  0.90777411642E+02 -0.57529117728E+03  0.15999773661E+04  0.00000000000E+00 0. -1.
<mgrwt>
<rscale>  0 0.31561288E+04</rscale>
<asrwt>0</asrwt>
<pdfrwt beam="1">  1        2 0.23258766E+00 0.31561288E+04</pdfrwt>
<pdfrwt beam="2">  1       -2 0.25341719E+00 0.31561288E+04</pdfrwt>
<totfact> 0.64680886E-01</totfact>
</mgrwt>
</event>
<event>
 6    1  0.1719556E-004  0.1030643E+04  0.7818608E-02  0.9275560E-01
          2   -1    0    0  501    0  0.00000000000E+00  0.00000000000E+00  0.29729204027E+04  0.29729204027E+04  0.00000000000E+00 0.  1.
         -2   -1    0    0    0  501 -0.00000000000E+00 -0.00000000000E+00 -0.89325010538E+02  0.89325010538E+02  0.00000000000E+00 0. -1.
         23    2    1    2    0    0 -0.49862607057E+03  0.10673364973E+03  0.13451243122E+04  0.14414698908E+04  0.91956514748E+02 0.  0.
         11    1    3    3    0    0 -0.10491143752E+03 -0.14037166028E+02  0.30077496529E+03  0.31885581616E+03  0.00000000000E+00 0. -1.
        -11    1    3    3    0    0 -0.39371463304E+03  0.12077081576E+03  0.10443493469E+04  0.11226140747E+04  0.00000000000E+00 0.  1.
         22    1    1    2    0    0  0.49862607057E+03 -0.10673364973E+03  0.15384710800E+04  0.16207755224E+04  0.00000000000E+00 0.  1.
<mgrwt>
<rscale>  0 0.10306428E+04</rscale>
<asrwt>0</asrwt>
<pdfrwt beam="1">  1        2 0.45737229E+00 0.10306428E+04</pdfrwt>
<pdfrwt beam="2">  1       -2 0.13742312E-01 0.10306428E+04</pdfrwt>
<totfact> 0.75066705E+01</totfact>
</mgrwt>
</event>
<event>
 6    1  0.1719556E-004  0.5085639E+04  0.7818608E-02  0.7815431E-01
         -2   -1    0    0    0  501 -0.00000000000E+00  0.00000000000E+00  0.16688841355E+04  0.16688841355E+04  0.00000000000E+00 0. -1.
          2   -1    0    0  501    0  0.00000000000E+00 -0.00000000000E+00 -0.38744037187E+04  0.38744037187E+04  0.00000000000E+00 0.  1.
         23    2    1    2    0    0  0.18820520508E+04 -0.15993290580E+04 -0.17579274577E+04  0.30332456099E+04  0.10147229199E+03 0.  0.
         13    1    3    3    0    0  0.69586605161E+03 -0.52814054329E+03 -0.62841154998E+03  0.10761333892E+04  0.00000000000E+00 0.  1.
        -13    1    3    3    0    0  0.11861859992E+04 -0.10711885147E+04 -0.11295159077E+04  0.19571122207E+04  0.00000000000E+00 0. -1.
         22    1    1    2    0    0 -0.18820520508E+04  0.15993290580E+04 -0.44759212556E+03  0.25100422443E+04  0.00000000000E+00 0.  1.
<mgrwt>
<rscale>  0 0.50856390E+04</rscale>
<asrwt>0</asrwt>
<pdfrwt beam="1">  1        2 0.59606211E+00 0.50856390E+04</pdfrwt>
<pdfrwt beam="2">  1       -2 0.25675141E+00 0.50856390E+04</pdfrwt>
<totfact> 0.18109640E-02</totfact>
</mgrwt>
</event>
<event>
 6    1  0.1719556E-004  0.3296540E+04  0.7818608E-02  0.8163776E-01
          1   -1    0    0  501    0  0.00000000000E+00  0.00000000000E+00  0.10832967952E+04  0.10832967952E+04  0.00000000000E+00 0.  1.
         -1   -1    0    0    0  501 -0.00000000000E+00 -0.00000000000E+00 -0.25078937250E+04  0.25078937250E+04  0.00000000000E+00 0. -1.
         23    2    1    2    0    0 -0.12928330239E+04  0.60655988165E+03 -0.16067200126E+04  0.21515721906E+04  0.91550940766E+02 0.  0.
         13    1    3    3    0    0 -0.50019063821E+03  0.25648901891E+03 -0.57241817899E+03  0.80227168903E+03  0.00000000000E+00 0.  1.
        -13    1    3    3    0    0 -0.79264238568E+03  0.35007086274E+03 -0.10343018337E+04  0.13493005016E+04  0.00000000000E+00 0. -1.
         22    1    1    2    0    0  0.12928330239E+04 -0.60655988165E+03  0.18212308279E+03  0.14396183296E+04  0.00000000000E+00 0.  1.
<mgrwt>
<rscale>  0 0.32965395E+04</rscale>
<asrwt>0</asrwt>
<pdfrwt beam="1">  1        1 0.16666105E+00 0.32965395E+04</pdfrwt>
<pdfrwt beam="2">  1       -1 0.38582980E+00 0.32965395E+04</pdfrwt>
<totfact> 0.96701222E-02</totfact>
</mgrwt>
</event>
<event>
 6    1  0.1719556E-004  0.3626894E+04  0.7818608E-02  0.8084359E-01
         -1   -1    0    0    0  501 -0.00000000000E+00  0.00000000000E+00  0.11588670782E+04  0.11588670782E+04  0.00000000000E+00 0. -1.
          1   -1    0    0  501    0  0.00000000000E+00 -0.00000000000E+00 -0.28377634522E+04  0.28377634522E+04  0.00000000000E+00 0.  1.
         23    2    1    2    0    0 -0.99675390613E+03 -0.99677327051E+03  0.41506215618E+03  0.14724004244E+04  0.92796088077E+02 0.  0.
         13    1    3    3    0    0 -0.40021379306E+03 -0.45920351050E+03  0.15893749239E+03  0.62952368558E+03  0.00000000000E+00 0.  1.
        -13    1    3    3    0    0 -0.59654011306E+03 -0.53756976001E+03  0.25612466379E+03  0.84287673878E+03  0.00000000000E+00 0. -1.
         22    1    1    2    0    0  0.99675390613E+03  0.99677327051E+03 -0.20939585301E+04  0.25242301060E+04  0.00000000000E+00 0.  1.
<mgrwt>
<rscale>  0 0.36268943E+04</rscale>
<asrwt>0</asrwt>
<pdfrwt beam="1">  1        1 0.43657899E+00 0.36268943E+04</pdfrwt>
<pdfrwt beam="2">  1       -1 0.17828725E+00 0.36268943E+04</pdfrwt>
<totfact> 0.13529437E-01</totfact>
</mgrwt>
</event>
<event>
 6    1  0.1719556E-004  0.3591220E+04  0.7818608E-02  0.8092506E-01
          2   -1    0    0  501    0  0.00000000000E+00  0.00000000000E+00  0.27454685570E+04  0.27454685570E+04  0.00000000000E+00 0.  1.
         -2   -1    0    0    0  501 -0.00000000000E+00 -0.00000000000E+00 -0.11743770021E+04  0.11743770021E+04  0.00000000000E+00 0. -1.
         23    2    1    2    0    0 -0.74446982348E+03  0.10611020502E+04  0.21405204459E+04  0.25040693971E+04  0.91448823283E+02 0.  0.
         11    1    3    3    0    0 -0.62059227589E+03  0.81996216399E+03  0.16914688317E+04  0.19795301291E+04  0.00000000000E+00 0. -1.
        -11    1    3    3    0    0 -0.12387754759E+03  0.24113988618E+03  0.44905161421E+03  0.52453926806E+03  0.00000000000E+00 0.  1.
         22    1    1    2    0    0  0.74446982348E+03 -0.10611020502E+04 -0.56942889100E+03  0.14157761620E+04  0.00000000000E+00 0. -1.
<mgrwt>
<rscale>  0 0.35912199E+04</rscale>
<asrwt>0</asrwt>
<pdfrwt beam="1">  1        2 0.42237978E+00 0.35912199E+04</pdfrwt>
<pdfrwt beam="2">  1       -2 0.18067339E+00 0.35912199E+04</pdfrwt>
<totfact> 0.36483917E-01</totfact>
</mgrwt>
</event>
<event>
 6    1  0.1719556E-004  0.4340758E+04  0.7818608E-02  0.7939124E-01
          1   -1    0    0  501    0  0.00000000000E+00  0.00000000000E+00  0.30436212872E+04  0.30436212872E+04  0.00000000000E+00 0. -1.
         -1   -1    0    0    0  501 -0.00000000000E+00 -0.00000000000E+00 -0.15476776603E+04  0.15476776603E+04  0.00000000000E+00 0.  1.
         23    2    1    2    0    0 -0.31847496804E+03  0.37410911780E+03  0.29833247761E+04  0.30248741582E+04  0.90846110157E+02 0.  0.
         13    1    3    3    0    0 -0.97705268427E+02  0.12913827859E+03  0.74575552425E+03  0.76313453363E+03  0.00000000000E+00 0.  1.
        -13    1    3    3    0    0 -0.22076969961E+03  0.24497083921E+03  0.22375692519E+04  0.22617396246E+04  0.00000000000E+00 0. -1.
         22    1    1    2    0    0  0.31847496804E+03 -0.37410911780E+03 -0.14873811493E+04  0.15664247893E+04  0.00000000000E+00 0.  1.
<mgrwt>
<rscale>  0 0.43407578E+04</rscale>
<asrwt>0</asrwt>
<pdfrwt beam="1">  1        1 0.46824943E+00 0.43407578E+04</pdfrwt>
<pdfrwt beam="2">  1       -1 0.23810426E+00 0.43407578E+04</pdfrwt>
<totfact> 0.35257888E-02</totfact>
</mgrwt>
</event>
<event>
 6    1  0.1974522E-004  0.1776792E+04  0.7818608E-02  0.8718739E-01
          2   -1    0    0  501    0  0.00000000000E+00  0.00000000000E+00  0.61328169807E+03  0.61328169807E+03  0.00000000000E+00 0. -1.
         -2   -1    0    0    0  501 -0.00000000000E+00 -0.00000000000E+00 -0.12869254922E+04  0.12869254922E+04  0.00000000000E+00 0.  1.
         23    2    1    2    0    0 -0.37916546425E+03 -0.67925491494E+03  0.11584435104E+03  0.79185471017E+03  0.91979778269E+02 0.  0.
         13    1    3    3    0    0 -0.20029172780E+03 -0.38704282844E+03  0.20755231416E+02  0.43629085127E+03  0.00000000000E+00 0. -1.
        -13    1    3    3    0    0 -0.17887373645E+03 -0.29221208649E+03  0.95089119623E+02  0.35556385890E+03  0.00000000000E+00 0.  1.
         22    1    1    2    0    0  0.37916546425E+03  0.67925491494E+03 -0.78948814516E+03  0.11083524801E+04  0.00000000000E+00 0.  1.
<mgrwt>
<rscale>  0 0.17767924E+04</rscale>
<asrwt>0</asrwt>
<pdfrwt beam="1">  1        2 0.94351031E-01 0.17767924E+04</pdfrwt>
<pdfrwt beam="2">  1       -2 0.19798854E+00 0.17767924E+04</pdfrwt>
<totfact> 0.62579303E+00</totfact>
</mgrwt>
</event>
<event>
 6    1  0.1719556E-004  0.3585912E+03  0.7818608E-02  0.1059143E+00
          1   -1    0    0  501    0  0.00000000000E+00  0.00000000000E+00  0.30295690283E+04  0.30295690283E+04  0.00000000000E+00 0.  1.
         -1   -1    0    0    0  501 -0.00000000000E+00 -0.00000000000E+00 -0.10611050765E+02  0.10611050765E+02  0.00000000000E+00 0. -1.
         23    2    1    2    0    0 -0.12957029158E+03 -0.51439442763E+02  0.23991380489E+04  0.24048760411E+04  0.90171606448E+02 0.  0.
         13    1    3    3    0    0 -0.18468562923E+02 -0.28402685723E+02  0.11756234175E+04  0.11761114829E+04  0.00000000000E+00 0.  1.
        -13    1    3    3    0    0 -0.11110172866E+03 -0.23036757040E+02  0.12235146314E+04  0.12287645583E+04  0.00000000000E+00 0. -1.
         22    1    1    2    0    0  0.12957029158E+03  0.51439442763E+02  0.61981992865E+03  0.63530403799E+03  0.00000000000E+00 0. -1.
<mgrwt>
<rscale>  0 0.35859119E+03</rscale>
<asrwt>0</asrwt>
<pdfrwt beam="1">  1        1 0.46608685E+00 0.35859119E+03</pdfrwt>
<pdfrwt beam="2">  1       -1 0.16324718E-02 0.35859119E+03</pdfrwt>
<totfact> 0.62864117E+02</totfact>
</mgrwt>
</event>
<event>
 6    1  0.1719556E-004  0.7660245E+03  0.7818608E-02  0.9610541E-01
         -2   -1    0    0    0  501 -0.00000000000E+00  0.00000000000E+00  0.21156631382E+03  0.21156631382E+03  0.00000000000E+00 0. -1.
          2   -1    0    0  501    0  0.00000000000E+00 -0.00000000000E+00 -0.69339195349E+03  0.69339195349E+03  0.00000000000E+00 0.  1.
         23    2    1    2    0    0  0.13547030346E+03 -0.25873334858E+03 -0.52682153425E+03  0.60945906373E+03  0.92759218500E+02 0.  0.
         11    1    3    3    0    0  0.52693281837E+02 -0.38988986180E+02 -0.17106227097E+03  0.18319122125E+03  0.00000000000E+00 0. -1.
        -11    1    3    3    0    0  0.82777021627E+02 -0.21974436240E+03 -0.35575926328E+03  0.42626784248E+03  0.00000000000E+00 0.  1.
         22    1    1    2    0    0 -0.13547030346E+03  0.25873334858E+03  0.44995894572E+02  0.29549920358E+03  0.00000000000E+00 0. -1.
<mgrwt>
<rscale>  0 0.76602449E+03</rscale>
<asrwt>0</asrwt>
<pdfrwt beam="1">  1        2 0.10667569E+00 0.76602449E+03</pdfrwt>
<pdfrwt beam="2">  1       -2 0.32548663E-01 0.76602449E+03</pdfrwt>
<totfact> 0.36680824E+02</totfact>
</mgrwt>
</event>
<event>
 6    1  0.1719556E-004  0.4166314E+04  0.7818608E-02  0.7971811E-01
          2   -1    0    0  501    0  0.00000000000E+00  0.00000000000E+00  0.24242127849E+04  0.24242127849E+04  0.00000000000E+00 0. -1.
         -2   -1    0    0    0  501 -0.00000000000E+00 -0.00000000000E+00 -0.17900834764E+04  0.17900834764E+04  0.00000000000E+00 0.  1.
         23    2    1    2    0    0 -0.20880416128E+03  0.20174615363E+04 -0.15891993263E+03  0.20365273738E+04  0.91858428960E+02 0.  0.
         13    1    3    3    0    0 -0.29783182888E+02  0.25570292721E+03  0.10240980578E+02  0.25763521236E+03  0.00000000000E+00 0. -1.
        -13    1    3    3    0    0 -0.17902097839E+03  0.17617586091E+04 -0.16916091321E+03  0.17788921614E+04  0.00000000000E+00 0.  1.
         22    1    1    2    0    0  0.20880416128E+03 -0.20174615363E+04  0.79304924119E+03  0.21777688875E+04  0.00000000000E+00 0. -1.
<mgrwt>
<rscale>  0 0.41663141E+04</rscale>
<asrwt>0</asrwt>
<pdfrwt beam="1">  1        2 0.37295581E+00 0.41663141E+04</pdfrwt>
<pdfrwt beam="2">  1       -2 0.27539746E+00 0.41663141E+04</pdfrwt>
<totfact> 0.13464335E-01</totfact>
</mgrwt>
</event>
<event>
 6    1  0.1719556E-004  0.3194465E+04  0.7818608E-02  0.8190281E-01
         -2   -1    0    0    0  501 -0.00000000000E+00  0.00000000000E+00  0.10706918284E+04  0.10706918284E+04  0.00000000000E+00 0. -1.
          2   -1    0    0  501    0  0.00000000000E+00 -0.00000000000E+00 -0.23827131587E+04  0.23827131587E+04  0.00000000000E+00 0.  1.
         23    2    1    2    0    0  0.10750096098E+04  0.11468823801E+04 -0.95488883913E+03  0.18414098037E+04  0.89400867794E+02 0.  0.
         11    1    3    3    0    0  0.93322660380E+03  0.95935338742E+03 -0.78840486909E+03  0.15533361045E+04  0.00000000000E+00 0. -1.
        -11    1    3    3    0    0  0.14178300600E+03  0.18752899272E+03 -0.16648397004E+03  0.28807369922E+03  0.00000000000E+00 0.  1.
         22    1    1    2    0    0 -0.10750096098E+04 -0.11468823801E+04 -0.35713249112E+03  0.16119951834E+04  0.00000000000E+00 0. -1.
<mgrwt>
<rscale>  0 0.31944649E+04</rscale>
<asrwt>0</asrwt>
<pdfrwt beam="1">  1        2 0.36657125E+00 0.31944649E+04</pdfrwt>
<pdfrwt beam="2">  1       -2 0.16472182E+00 0.31944649E+04</pdfrwt>
<totfact> 0.79688413E-01</totfact>
</mgrwt>
</event>
<event>
 6    1  0.1719556E-004  0.2109735E+04  0.7818608E-02  0.8556967E-01
         -1   -1    0    0    0  501 -0.00000000000E+00  0.00000000000E+00  0.65345244602E+03  0.65345244602E+03  0.00000000000E+00 0. -1.
          1   -1    0    0  501    0  0.00000000000E+00 -0.00000000000E+00 -0.17028718857E+04  0.17028718857E+04  0.00000000000E+00 0.  1.
         23    2    1    2    0    0 -0.44704014592E+03  0.72341210807E+02 -0.15872370132E+04  0.16532412035E+04  0.93845606922E+02 0.  0.
         13    1    3    3    0    0 -0.18630932825E+03  0.28952987581E+02 -0.83171498394E+03  0.85281841900E+03  0.00000000000E+00 0. -1.
        -13    1    3    3    0    0 -0.26073081767E+03  0.43388223226E+02 -0.75552202927E+03  0.80042278447E+03  0.00000000000E+00 0.  1.
         22    1    1    2    0    0  0.44704014592E+03 -0.72341210807E+02  0.53781757352E+03  0.70308312825E+03  0.00000000000E+00 0. -1.
<mgrwt>
<rscale>  0 0.21097353E+04</rscale>
<asrwt>0</asrwt>
<pdfrwt beam="1">  1        1 0.26198029E+00 0.21097353E+04</pdfrwt>
<pdfrwt beam="2">  1       -1 0.10053115E+00 0.21097353E+04</pdfrwt>
<totfact> 0.41047306E+00</totfact>
</mgrwt>
</event>
<event>
 6    1  0.1719556E-004  0.2572821E+04  0.7818608E-02  0.8377492E-01
         -2   -1    0    0    0  501 -0.00000000000E+00  0.00000000000E+00  0.82155187247E+03  0.82155187247E+03  0.00000000000E+00 0. -1.
          2   -1    0    0  501    0  0.00000000000E+00 -0.00000000000E+00 -0.20142994955E+04  0.20142994955E+04  0.00000000000E+00 0.  1.
         23    2    1    2    0    0  0.12657337255E+02  0.20935763062E+03 -0.19942774353E+04  0.20073340986E+04  0.90867313782E+02 0.  0.
         13    1    3    3    0    0  0.91312141547E+00  0.87884314199E+02 -0.46770043109E+03  0.47588672992E+03  0.00000000000E+00 0.  1.
        -13    1    3    3    0    0  0.11744215840E+02  0.12147331642E+03 -0.15265770042E+04  0.15314473687E+04  0.00000000000E+00 0. -1.
         22    1    1    2    0    0 -0.12657337255E+02 -0.20935763062E+03  0.80152981228E+03  0.82851726937E+03  0.00000000000E+00 0. -1.
<mgrwt>
<rscale>  0 0.25728206E+04</rscale>
<asrwt>0</asrwt>
<pdfrwt beam="1">  1        2 0.30989223E+00 0.25728206E+04</pdfrwt>
<pdfrwt beam="2">  1       -2 0.12639260E+00 0.25728206E+04</pdfrwt>
<totfact> 0.27118808E+00</totfact>
</mgrwt>
</event>
<event>
 6    1  0.1719556E-004  0.1723459E+04  0.7818608E-02  0.8748097E-01
         -4   -1    0    0    0  501 -0.00000000000E+00  0.00000000000E+00  0.40764009188E+03  0.40764009188E+03  0.00000000000E+00 0. -1.
          4   -1    0    0  501    0  0.00000000000E+00 -0.00000000000E+00 -0.18216510616E+04  0.18216510616E+04  0.00000000000E+00 0.  1.
         23    2    1    2    0    0 -0.65211884901E+02  0.49895053297E+03 -0.16100045691E+04  0.16892747508E+04  0.91270185865E+02 0.  0.
         13    1    3    3    0    0 -0.69500057015E+02  0.27869481267E+03 -0.10124758233E+04  0.10524297360E+04  0.00000000000E+00 0.  1.
        -13    1    3    3    0    0  0.42881721140E+01  0.22025572030E+03 -0.59752874576E+03  0.63684501470E+03  0.00000000000E+00 0. -1.
         22    1    1    2    0    0  0.65211884901E+02 -0.49895053297E+03  0.19599359931E+03  0.54001640276E+03  0.00000000000E+00 0. -1.
<mgrwt>
<rscale>  0 0.17234593E+04</rscale>
<asrwt>0</asrwt>
<pdfrwt beam="1">  1        4 0.28025401E+00 0.17234593E+04</pdfrwt>
<pdfrwt beam="2">  1       -4 0.62713861E-01 0.17234593E+04</pdfrwt>
<totfact> 0.18608167E-01</totfact>
</mgrwt>
</event>
<event>
 6    1  0.1719556E-004  0.2861992E+04  0.7818608E-02  0.8284277E-01
         -1   -1    0    0    0  501 -0.00000000000E+00  0.00000000000E+00  0.10674686715E+04  0.10674686715E+04  0.00000000000E+00 0. -1.
          1   -1    0    0  501    0  0.00000000000E+00 -0.00000000000E+00 -0.19183222256E+04  0.19183222256E+04  0.00000000000E+00 0.  1.
         23    2    1    2    0    0 -0.10329704547E+04 -0.67346709528E+03  0.32871365660E+03  0.12793429214E+04  0.89887450995E+02 0.  0.
         11    1    3    3    0    0 -0.73354604279E+03 -0.51276412005E+03  0.26688199759E+03  0.93393942006E+03  0.00000000000E+00 0. -1.
        -11    1    3    3    0    0 -0.29942441194E+03 -0.16070297523E+03  0.61831659011E+02  0.34540350139E+03  0.00000000000E+00 0.  1.
         22    1    1    2    0    0  0.10329704547E+04  0.67346709528E+03 -0.11795672107E+04  0.17064479756E+04  0.00000000000E+00 0.  1.
<mgrwt>
<rscale>  0 0.28619915E+04</rscale>
<asrwt>0</asrwt>
<pdfrwt beam="1">  1        1 0.29512649E+00 0.28619915E+04</pdfrwt>
<pdfrwt beam="2">  1       -1 0.16422595E+00 0.28619915E+04</pdfrwt>
<totfact> 0.79181074E-01</totfact>
</mgrwt>
</event>
<event>
 6    1  0.1719556E-004  0.2898106E+04  0.7818608E-02  0.8273441E-01
          2   -1    0    0  501    0  0.00000000000E+00  0.00000000000E+00  0.22889479448E+04  0.22889479448E+04  0.00000000000E+00 0.  1.
         -2   -1    0    0    0  501 -0.00000000000E+00 -0.00000000000E+00 -0.91734462213E+03  0.91734462213E+03  0.00000000000E+00 0. -1.
         23    2    1    2    0    0 -0.24551998578E+03  0.13270929848E+04  0.10729572485E+03  0.13569874121E+04  0.91905443027E+02 0.  0.
         13    1    3    3    0    0 -0.21708497521E+03  0.11993264736E+04  0.12367728706E+03  0.12250738541E+04  0.00000000000E+00 0. -1.
        -13    1    3    3    0    0 -0.28435010577E+02  0.12776651121E+03 -0.16381562216E+02  0.13191355804E+03  0.00000000000E+00 0.  1.
         22    1    1    2    0    0  0.24551998578E+03 -0.13270929848E+04  0.12643075979E+04  0.18493051548E+04  0.00000000000E+00 0. -1.
<mgrwt>
<rscale>  0 0.28981056E+04</rscale>
<asrwt>0</asrwt>
<pdfrwt beam="1">  1        2 0.35214583E+00 0.28981056E+04</pdfrwt>
<pdfrwt beam="2">  1       -2 0.14112994E+00 0.28981056E+04</pdfrwt>
<totfact> 0.13963214E+00</totfact>
</mgrwt>
</event>
<event>
 6    1  0.1719556E-004  0.1658703E+04  0.7818608E-02  0.8785274E-01
          2   -1    0    0  501    0  0.00000000000E+00  0.00000000000E+00  0.28392172269E+04  0.28392172269E+04  0.00000000000E+00 0.  1.
         -2   -1    0    0    0  501 -0.00000000000E+00 -0.00000000000E+00 -0.24225837587E+03  0.24225837587E+03  0.00000000000E+00 0. -1.
         23    2    1    2    0    0  0.75939701864E+03  0.22883266600E+03  0.17384203362E+04  0.19126571385E+04  0.84284299689E+02 0.  0.
         11    1    3    3    0    0  0.58803580069E+03  0.15216259885E+03  0.12613828944E+04  0.14000094163E+04  0.00000000000E+00 0.  1.
        -11    1    3    3    0    0  0.17136121795E+03  0.76670067149E+02  0.47703744186E+03  0.51264772227E+03  0.00000000000E+00 0. -1.
         22    1    1    2    0    0 -0.75939701864E+03 -0.22883266600E+03  0.85853851477E+03  0.11688184642E+04  0.00000000000E+00 0. -1.
<mgrwt>
<rscale>  0 0.16587033E+04</rscale>
<asrwt>0</asrwt>
<pdfrwt beam="1">  1        2 0.43680263E+00 0.16587033E+04</pdfrwt>
<pdfrwt beam="2">  1       -2 0.37270521E-01 0.16587033E+04</pdfrwt>
<totfact> 0.14239548E+01</totfact>
</mgrwt>
</event>
<event>
 6    1  0.1719556E-004  0.3035567E+04  0.7818608E-02  0.8233647E-01
         -2   -1    0    0    0  501 -0.00000000000E+00  0.00000000000E+00  0.83269843288E+03  0.83269843288E+03  0.00000000000E+00 0. -1.
          2   -1    0    0  501    0  0.00000000000E+00 -0.00000000000E+00 -0.27665084712E+04  0.27665084712E+04  0.00000000000E+00 0.  1.
         23    2    1    2    0    0  0.38814903305E+02 -0.11982945726E+04 -0.20687713513E+04  0.23927115516E+04  0.88527881663E+02 0.  0.
         11    1    3    3    0    0  0.16316451611E+02 -0.73001272564E+03 -0.13434287566E+04  0.15290472950E+04  0.00000000000E+00 0. -1.
        -11    1    3    3    0    0  0.22498451694E+02 -0.46828184699E+03 -0.72534259470E+03  0.86366425666E+03  0.00000000000E+00 0.  1.
         22    1    1    2    0    0 -0.38814903305E+02  0.11982945726E+04  0.13496131297E+03  0.12064953525E+04  0.00000000000E+00 0. -1.
<mgrwt>
<rscale>  0 0.30355673E+04</rscale>
<asrwt>0</asrwt>
<pdfrwt beam="1">  1        2 0.42561670E+00 0.30355673E+04</pdfrwt>
<pdfrwt beam="2">  1       -2 0.12810745E+00 0.30355673E+04</pdfrwt>
<totfact> 0.93159669E-01</totfact>
</mgrwt>
</event>
<event>
 6    1  0.1719556E-004  0.2057500E+04  0.7818608E-02  0.8580199E-01
         -2   -1    0    0    0  501 -0.00000000000E+00  0.00000000000E+00  0.13842964356E+04  0.13842964356E+04  0.00000000000E+00 0. -1.
          2   -1    0    0  501    0  0.00000000000E+00 -0.00000000000E+00 -0.76452339930E+03  0.76452339930E+03  0.00000000000E+00 0.  1.
         23    2    1    2    0    0  0.49784828048E+03 -0.35226871047E+02 -0.62651891240E+03  0.80630820954E+03  0.92266669780E+02 0.  0.
         13    1    3    3    0    0  0.24260353990E+03 -0.13235812566E+02 -0.37823000171E+03  0.44954376706E+03  0.00000000000E+00 0. -1.
        -13    1    3    3    0    0  0.25524474058E+03 -0.21991058481E+02 -0.24828891069E+03  0.35676444248E+03  0.00000000000E+00 0.  1.
         22    1    1    2    0    0 -0.49784828048E+03  0.35226871047E+02  0.12462919487E+04  0.13425116253E+04  0.00000000000E+00 0. -1.
<mgrwt>
<rscale>  0 0.20575004E+04</rscale>
<asrwt>0</asrwt>
<pdfrwt beam="1">  1        2 0.11761898E+00 0.20575004E+04</pdfrwt>
<pdfrwt beam="2">  1       -2 0.21296868E+00 0.20575004E+04</pdfrwt>
<totfact> 0.37043971E+00</totfact>
</mgrwt>
</event>
<event>
 6    1  0.1719556E-004  0.2253175E+04  0.7818608E-02  0.8496616E-01
         -2   -1    0    0    0  501 -0.00000000000E+00  0.00000000000E+00  0.14919412682E+04  0.14919412682E+04  0.00000000000E+00 0. -1.
          2   -1    0    0  501    0  0.00000000000E+00 -0.00000000000E+00 -0.85070308718E+03  0.85070308718E+03  0.00000000000E+00 0.  1.
         23    2    1    2    0    0 -0.71620546732E+03 -0.52991637321E+03  0.10350489586E+04  0.13685557749E+04  0.88639315641E+02 0.  0.
         11    1    3    3    0    0 -0.42412016834E+03 -0.31607872339E+03  0.68005082255E+03  0.86154094378E+03  0.00000000000E+00 0. -1.
        -11    1    3    3    0    0 -0.29208529898E+03 -0.21383764982E+03  0.35499813606E+03  0.50701483111E+03  0.00000000000E+00 0.  1.
         22    1    1    2    0    0  0.71620546732E+03  0.52991637321E+03 -0.39381077761E+03  0.97408858046E+03  0.00000000000E+00 0.  1.
<mgrwt>
<rscale>  0 0.22531747E+04</rscale>
<asrwt>0</asrwt>
<pdfrwt beam="1">  1        2 0.13087740E+00 0.22531747E+04</pdfrwt>
<pdfrwt beam="2">  1       -2 0.22952943E+00 0.22531747E+04</pdfrwt>
<totfact> 0.24828716E+00</totfact>
</mgrwt>
</event>
<event>
 6    1  0.1719556E-004  0.2254594E+04  0.7818608E-02  0.8496042E-01
          2   -1    0    0  501    0  0.00000000000E+00  0.00000000000E+00  0.93392133388E+03  0.93392133388E+03  0.00000000000E+00 0.  1.
         -2   -1    0    0    0  501 -0.00000000000E+00 -0.00000000000E+00 -0.13607130828E+04  0.13607130828E+04  0.00000000000E+00 0. -1.
         23    2    1    2    0    0  0.49956312861E+03 -0.72723305050E+02 -0.12374935986E+04  0.13396006542E+04  0.91035750081E+02 0.  0.
         11    1    3    3    0    0  0.22951061294E+03 -0.71994444150E+02 -0.64765186439E+03  0.69087716628E+03  0.00000000000E+00 0. -1.
        -11    1    3    3    0    0  0.27005251567E+03 -0.72886089969E+00 -0.58984173416E+03  0.64872348795E+03  0.00000000000E+00 0.  1.
         22    1    1    2    0    0 -0.49956312861E+03  0.72723305050E+02  0.81070184960E+03  0.95503376249E+03  0.00000000000E+00 0.  1.
<mgrwt>
<rscale>  0 0.22545944E+04</rscale>
<asrwt>0</asrwt>
<pdfrwt beam="1">  1        2 0.14368021E+00 0.22545944E+04</pdfrwt>
<pdfrwt beam="2">  1       -2 0.20934047E+00 0.22545944E+04</pdfrwt>
<totfact> 0.29268807E+00</totfact>
</mgrwt>
</event>
<event>
 6    1  0.1719556E-004  0.1926723E+04  0.7818608E-02  0.8641668E-01
         -2   -1    0    0    0  501 -0.00000000000E+00  0.00000000000E+00  0.28658992596E+03  0.28658992596E+03  0.00000000000E+00 0. -1.
          2   -1    0    0  501    0  0.00000000000E+00 -0.00000000000E+00 -0.32383036206E+04  0.32383036206E+04  0.00000000000E+00 0.  1.
         23    2    1    2    0    0 -0.84136124014E+03  0.32228775594E+03 -0.20916601930E+04  0.22793213247E+04  0.92223666026E+02 0.  0.
         11    1    3    3    0    0 -0.49214698408E+03  0.23674891760E+03 -0.12547982393E+04  0.13684945471E+04  0.00000000000E+00 0. -1.
        -11    1    3    3    0    0 -0.34921425605E+03  0.85538838341E+02 -0.83686195362E+03  0.91082677767E+03  0.00000000000E+00 0.  1.
         22    1    1    2    0    0  0.84136124014E+03 -0.32228775594E+03 -0.86005350169E+03  0.12455722218E+04  0.00000000000E+00 0. -1.
<mgrwt>
<rscale>  0 0.19267228E+04</rscale>
<asrwt>0</asrwt>
<pdfrwt beam="1">  1        2 0.49820056E+00 0.19267228E+04</pdfrwt>
<pdfrwt beam="2">  1       -2 0.44090757E-01 0.19267228E+04</pdfrwt>
<totfact> 0.56043486E+00</totfact>
</mgrwt>
</event>
<event>
 6    1  0.1719556E-004  0.2937946E+04  0.7818608E-02  0.8261676E-01
          1   -1    0    0  501    0  0.00000000000E+00  0.00000000000E+00  0.25722115632E+04  0.25722115632E+04  0.00000000000E+00 0. -1.
         -1   -1    0    0    0  501 -0.00000000000E+00 -0.00000000000E+00 -0.83892052622E+03  0.83892052622E+03  0.00000000000E+00 0.  1.
         23    2    1    2    0    0 -0.44981339318E+03 -0.13465098756E+04  0.43562498545E+03  0.14877605405E+04  0.90781958699E+02 0.  0.
         11    1    3    3    0    0 -0.35504535039E+03 -0.10316145054E+04  0.37301097855E+03  0.11530060185E+04  0.00000000000E+00 0. -1.
        -11    1    3    3    0    0 -0.94768042785E+02 -0.31489537028E+03  0.62614006904E+02  0.33475452203E+03  0.00000000000E+00 0.  1.
         22    1    1    2    0    0  0.44981339318E+03  0.13465098756E+04  0.12976660515E+04  0.19233715489E+04  0.00000000000E+00 0. -1.
<mgrwt>
<rscale>  0 0.29379456E+04</rscale>
<asrwt>0</asrwt>
<pdfrwt beam="1">  1        1 0.39572485E+00 0.29379456E+04</pdfrwt>
<pdfrwt beam="2">  1       -1 0.12906470E+00 0.29379456E+04</pdfrwt>
<totfact> 0.53294988E-01</totfact>
</mgrwt>
</event>
<event>
 6    1  0.1719556E-004  0.6447429E+03  0.7818608E-02  0.9816694E-01
          1   -1    0    0  501    0  0.00000000000E+00  0.00000000000E+00  0.18593618826E+03  0.18593618826E+03  0.00000000000E+00 0.  1.
         -1   -1    0    0    0  501 -0.00000000000E+00 -0.00000000000E+00 -0.55891939004E+03  0.55891939004E+03  0.00000000000E+00 0. -1.
         23    2    1    2    0    0 -0.61358931704E+02 -0.12910550714E+03 -0.51593192145E+03  0.54269849351E+03  0.88897451116E+02 0.  0.
         11    1    3    3    0    0  0.19637551343E+02 -0.88410084108E+01 -0.97693589527E+02  0.10003916377E+03  0.00000000000E+00 0. -1.
        -11    1    3    3    0    0 -0.80996483047E+02 -0.12026449873E+03 -0.41823833192E+03  0.44265932975E+03  0.00000000000E+00 0.  1.
         22    1    1    2    0    0  0.61358931704E+02  0.12910550714E+03  0.14294871967E+03  0.20215708479E+03  0.00000000000E+00 0.  1.
<mgrwt>
<rscale>  0 0.64474287E+03</rscale>
<asrwt>0</asrwt>
<pdfrwt beam="1">  1        1 0.28605567E-01 0.64474287E+03</pdfrwt>
<pdfrwt beam="2">  1       -1 0.85987599E-01 0.64474287E+03</pdfrwt>
<totfact> 0.22196546E+02</totfact>
</mgrwt>
</event>
<event>
 6    1  0.1719556E-004  0.6032604E+04  0.7818608E-02  0.7686372E-01
          1   -1    0    0  501    0  0.00000000000E+00  0.00000000000E+00  0.45151711576E+04  0.45151711576E+04  0.00000000000E+00 0.  1.
         -1   -1    0    0    0  501 -0.00000000000E+00 -0.00000000000E+00 -0.20150014203E+04  0.20150014203E+04  0.00000000000E+00 0. -1.
         23    2    1    2    0    0  0.18316136496E+04 -0.33839692481E+03 -0.13168451979E+04  0.22829471241E+04  0.91898073276E+02 0.  0.
         13    1    3    3    0    0  0.70840317901E+03 -0.86691812338E+02 -0.49135976185E+03  0.86647847632E+03  0.00000000000E+00 0. -1.
        -13    1    3    3    0    0  0.11232104706E+04 -0.25170511247E+03 -0.82548543603E+03  0.14164686477E+04  0.00000000000E+00 0.  1.
         22    1    1    2    0    0 -0.18316136496E+04  0.33839692481E+03  0.38170149352E+04  0.42472254539E+04  0.00000000000E+00 0.  1.
<mgrwt>
<rscale>  0 0.60326035E+04</rscale>
<asrwt>0</asrwt>
<pdfrwt beam="1">  1        1 0.69464171E+00 0.60326035E+04</pdfrwt>
<pdfrwt beam="2">  1       -1 0.31000022E+00 0.60326035E+04</pdfrwt>
<totfact> 0.58355158E-04</totfact>
</mgrwt>
</event>
<event>
 6    1  0.1719556E-004  0.9835764E+03  0.7818608E-02  0.9326744E-01
         -1   -1    0    0    0  501 -0.00000000000E+00  0.00000000000E+00  0.98825259652E+03  0.98825259652E+03  0.00000000000E+00 0.  1.
          1   -1    0    0  501    0  0.00000000000E+00 -0.00000000000E+00 -0.24473059510E+03  0.24473059510E+03  0.00000000000E+00 0. -1.
         23    2    1    2    0    0 -0.87804779458E+02  0.35738544973E+03 -0.26034001629E+02  0.37995887732E+03  0.90867707329E+02 0.  0.
         13    1    3    3    0    0 -0.86632917561E+02  0.16412984394E+03 -0.63399517331E+01  0.18569885047E+03  0.00000000000E+00 0.  1.
        -13    1    3    3    0    0 -0.11718618968E+01  0.19325560579E+03 -0.19694049896E+02  0.19426002685E+03  0.00000000000E+00 0. -1.
         22    1    1    2    0    0  0.87804779458E+02 -0.35738544973E+03  0.76955600305E+03  0.85302431431E+03  0.00000000000E+00 0.  1.
<mgrwt>
<rscale>  0 0.98357643E+03</rscale>
<asrwt>0</asrwt>
<pdfrwt beam="1">  1        1 0.37650861E-01 0.98357643E+03</pdfrwt>
<pdfrwt beam="2">  1       -1 0.15203886E+00 0.98357643E+03</pdfrwt>
<totfact> 0.38614251E+01</totfact>
</mgrwt>
</event>
<event>
 6    1  0.1719556E-004  0.3989502E+04  0.7818608E-02  0.8006668E-01
          2   -1    0    0  501    0  0.00000000000E+00  0.00000000000E+00  0.21394761802E+04  0.21394761802E+04  0.00000000000E+00 0. -1.
         -2   -1    0    0    0  501 -0.00000000000E+00 -0.00000000000E+00 -0.18598159136E+04  0.18598159136E+04  0.00000000000E+00 0.  1.
         23    2    1    2    0    0  0.42295597738E+03  0.18180728967E+04 -0.56222019942E+03  0.19515998475E+04  0.91485494244E+02 0.  0.
         11    1    3    3    0    0  0.40931238981E+03  0.16951415773E+04 -0.50637045273E+03  0.18158889379E+04  0.00000000000E+00 0. -1.
        -11    1    3    3    0    0  0.13643587570E+02  0.12293131942E+03 -0.55849746688E+02  0.13571090959E+03  0.00000000000E+00 0.  1.
         22    1    1    2    0    0 -0.42295597738E+03 -0.18180728967E+04  0.84188046597E+03  0.20476922463E+04  0.00000000000E+00 0. -1.
<mgrwt>
<rscale>  0 0.39895021E+04</rscale>
<asrwt>0</asrwt>
<pdfrwt beam="1">  1        2 0.32915018E+00 0.39895021E+04</pdfrwt>
<pdfrwt beam="2">  1       -2 0.28612552E+00 0.39895021E+04</pdfrwt>
<totfact> 0.17037392E-01</totfact>
</mgrwt>
</event>
<event>
 6    1  0.1719556E-004  0.3480142E+04  0.7818608E-02  0.8118512E-01
          2   -1    0    0  501    0  0.00000000000E+00  0.00000000000E+00  0.45085744979E+04  0.45085744979E+04  0.00000000000E+00 0.  1.
         -2   -1    0    0    0  501 -0.00000000000E+00 -0.00000000000E+00 -0.67157513613E+03  0.67157513613E+03  0.00000000000E+00 0. -1.
         23    2    1    2    0    0 -0.24266205948E+03 -0.79383247445E+03 -0.35443789715E+03  0.90730501153E+03  0.92310825049E+02 0.  0.
         13    1    3    3    0    0  0.24408186900E+01 -0.85675873640E+02 -0.31641702212E+02  0.91364710029E+02  0.00000000000E+00 0. -1.
        -13    1    3    3    0    0 -0.24510287817E+03 -0.70815660081E+03 -0.32279619494E+03  0.81594030150E+03  0.00000000000E+00 0.  1.
         22    1    1    2    0    0  0.24266205948E+03  0.79383247445E+03  0.41914372589E+04  0.42728446225E+04  0.00000000000E+00 0.  1.
<mgrwt>
<rscale>  0 0.34801417E+04</rscale>
<asrwt>0</asrwt>
<pdfrwt beam="1">  1        2 0.69362683E+00 0.34801417E+04</pdfrwt>
<pdfrwt beam="2">  1       -2 0.10331925E+00 0.34801417E+04</pdfrwt>
<totfact> 0.75557960E-02</totfact>
</mgrwt>
</event>
<event>
 6    1  0.1719556E-004  0.2000087E+04  0.7818608E-02  0.8606580E-01
         -2   -1    0    0    0  501 -0.00000000000E+00  0.00000000000E+00  0.10466062354E+04  0.10466062354E+04  0.00000000000E+00 0. -1.
          2   -1    0    0  501    0  0.00000000000E+00 -0.00000000000E+00 -0.95555236449E+03  0.95555236449E+03  0.00000000000E+00 0.  1.
         23    2    1    2    0    0  0.47305550827E+03  0.86277223087E+03  0.21106434423E+03  0.10109169796E+04  0.96164161119E+02 0.  0.
         11    1    3    3    0    0  0.16912202974E+03  0.28533735701E+03  0.11652958663E+03  0.35156622820E+03  0.00000000000E+00 0. -1.
        -11    1    3    3    0    0  0.30393347854E+03  0.57743487386E+03  0.94534757592E+02  0.65935075136E+03  0.00000000000E+00 0.  1.
         22    1    1    2    0    0 -0.47305550827E+03 -0.86277223087E+03 -0.12001047327E+03  0.99124162038E+03  0.00000000000E+00 0.  1.
<mgrwt>
<rscale>  0 0.20000871E+04</rscale>
<asrwt>0</asrwt>
<pdfrwt beam="1">  1        2 0.14700806E+00 0.20000871E+04</pdfrwt>
<pdfrwt beam="2">  1       -2 0.16101634E+00 0.20000871E+04</pdfrwt>
<totfact> 0.61911322E+00</totfact>
</mgrwt>
</event>
<event>
 6    1  0.1719556E-004  0.2320090E+04  0.7818608E-02  0.8470042E-01
         -1   -1    0    0    0  501 -0.00000000000E+00  0.00000000000E+00  0.11981902941E+04  0.11981902941E+04  0.00000000000E+00 0.  1.
          1   -1    0    0  501    0  0.00000000000E+00 -0.00000000000E+00 -0.11231137808E+04  0.11231137808E+04  0.00000000000E+00 0. -1.
         23    2    1    2    0    0 -0.40113761038E+03 -0.83714721516E+03  0.73041690854E+03  0.11849951927E+04  0.94751802334E+02 0.  0.
         13    1    3    3    0    0 -0.93272604915E+02 -0.26878047764E+03  0.18625829214E+03  0.34005128345E+03  0.00000000000E+00 0. -1.
        -13    1    3    3    0    0 -0.30786500547E+03 -0.56836673752E+03  0.54415861641E+03  0.84494390922E+03  0.00000000000E+00 0.  1.
         22    1    1    2    0    0  0.40113761038E+03  0.83714721516E+03 -0.65534039521E+03  0.11363088823E+04  0.00000000000E+00 0. -1.
<mgrwt>
<rscale>  0 0.23200897E+04</rscale>
<asrwt>0</asrwt>
<pdfrwt beam="1">  1        1 0.17278673E+00 0.23200897E+04</pdfrwt>
<pdfrwt beam="2">  1       -1 0.18433697E+00 0.23200897E+04</pdfrwt>
<totfact> 0.21298996E+00</totfact>
</mgrwt>
</event>
<event>
 6    1  0.1719556E-004  0.1445213E+04  0.7818608E-02  0.8921726E-01
          2   -1    0    0  501    0  0.00000000000E+00  0.00000000000E+00  0.13509367259E+04  0.13509367259E+04  0.00000000000E+00 0. -1.
         -2   -1    0    0    0  501 -0.00000000000E+00 -0.00000000000E+00 -0.38651716617E+03  0.38651716617E+03  0.00000000000E+00 0.  1.
         23    2    1    2    0    0  0.61439368770E+02  0.45000942147E+03 -0.18709927046E+03  0.49960135976E+03  0.91170753144E+02 0.  0.
         13    1    3    3    0    0  0.74811061644E+02  0.27247256062E+03 -0.88549516157E+02  0.29610641339E+03  0.00000000000E+00 0.  1.
        -13    1    3    3    0    0 -0.13371692874E+02  0.17753686084E+03 -0.98549754304E+02  0.20349494638E+03  0.00000000000E+00 0. -1.
         22    1    1    2    0    0 -0.61439368770E+02 -0.45000942147E+03  0.11515188302E+04  0.12378525323E+04  0.00000000000E+00 0. -1.
<mgrwt>
<rscale>  0 0.14452131E+04</rscale>
<asrwt>0</asrwt>
<pdfrwt beam="1">  1        2 0.20783642E+00 0.14452131E+04</pdfrwt>
<pdfrwt beam="2">  1       -2 0.59464180E-01 0.14452131E+04</pdfrwt>
<totfact> 0.39539968E+01</totfact>
</mgrwt>
</event>
<event>
 6    1  0.1719556E-004  0.3864328E+04  0.7818608E-02  0.8032490E-01
          2   -1    0    0  501    0  0.00000000000E+00  0.00000000000E+00  0.25621557329E+04  0.25621557329E+04  0.00000000000E+00 0.  1.
         -2   -1    0    0    0  501 -0.00000000000E+00 -0.00000000000E+00 -0.14570765730E+04  0.14570765730E+04  0.00000000000E+00 0. -1.
         23    2    1    2    0    0  0.10746030998E+04 -0.15644404796E+04  0.92289550561E+03  0.21125501823E+04  0.94267290845E+02 0.  0.
         11    1    3    3    0    0  0.21861561972E+03 -0.38874800577E+03  0.21497329046E+03  0.49510737905E+03  0.00000000000E+00 0.  1.
        -11    1    3    3    0    0  0.85598748009E+03 -0.11756924739E+04  0.70792221514E+03  0.16174428033E+04  0.00000000000E+00 0. -1.
         22    1    1    2    0    0 -0.10746030998E+04  0.15644404796E+04  0.18218365426E+03  0.19066821236E+04  0.00000000000E+00 0. -1.
<mgrwt>
<rscale>  0 0.38643277E+04</rscale>
<asrwt>0</asrwt>
<pdfrwt beam="1">  1        2 0.39417781E+00 0.38643277E+04</pdfrwt>
<pdfrwt beam="2">  1       -2 0.22416563E+00 0.38643277E+04</pdfrwt>
<totfact> 0.23761005E-01</totfact>
</mgrwt>
</event>
<event>
 6    1  0.1719556E-004  0.3348096E+04  0.7818608E-02  0.8150764E-01
         -2   -1    0    0    0  501 -0.00000000000E+00  0.00000000000E+00  0.18513972251E+04  0.18513972251E+04  0.00000000000E+00 0. -1.
          2   -1    0    0  501    0  0.00000000000E+00 -0.00000000000E+00 -0.15136877877E+04  0.15136877877E+04  0.00000000000E+00 0.  1.
         23    2    1    2    0    0 -0.83978900645E+03  0.13930549266E+04 -0.22351294578E+03  0.16443822008E+04  0.90483044672E+02 0.  0.
         11    1    3    3    0    0 -0.50141695119E+03  0.91049790065E+03 -0.15818248537E+03  0.10514024371E+04  0.00000000000E+00 0.  1.
        -11    1    3    3    0    0 -0.33837205526E+03  0.48255702595E+03 -0.65330460418E+02  0.59297976368E+03  0.00000000000E+00 0. -1.
         22    1    1    2    0    0  0.83978900645E+03 -0.13930549266E+04  0.56122238313E+03  0.17207028120E+04  0.00000000000E+00 0. -1.
<mgrwt>
<rscale>  0 0.33480964E+04</rscale>
<asrwt>0</asrwt>
<pdfrwt beam="1">  1        2 0.23287504E+00 0.33480964E+04</pdfrwt>
<pdfrwt beam="2">  1       -2 0.28483034E+00 0.33480964E+04</pdfrwt>
<totfact> 0.40819866E-01</totfact>
</mgrwt>
</event>
<event>
 6    1  0.1719556E-004  0.2276821E+04  0.7818608E-02  0.8487117E-01
         -1   -1    0    0    0  501 -0.00000000000E+00  0.00000000000E+00  0.44879750774E+03  0.44879750774E+03  0.00000000000E+00 0. -1.
          1   -1    0    0  501    0  0.00000000000E+00 -0.00000000000E+00 -0.28876680476E+04  0.28876680476E+04  0.00000000000E+00 0.  1.
         23    2    1    2    0    0  0.92352623652E+03  0.66187183211E+03 -0.12686372632E+04  0.17053858658E+04  0.89024795248E+02 0.  0.
         13    1    3    3    0    0  0.74004452836E+03  0.52204289984E+03 -0.95617123350E+03  0.13169882767E+04  0.00000000000E+00 0. -1.
        -13    1    3    3    0    0  0.18348170816E+03  0.13982893227E+03 -0.31246602968E+03  0.38839758912E+03  0.00000000000E+00 0.  1.
         22    1    1    2    0    0 -0.92352623652E+03 -0.66187183211E+03 -0.11702332767E+04  0.16310796895E+04  0.00000000000E+00 0. -1.
<mgrwt>
<rscale>  0 0.22768208E+04</rscale>
<asrwt>0</asrwt>
<pdfrwt beam="1">  1        1 0.44425662E+00 0.22768208E+04</pdfrwt>
<pdfrwt beam="2">  1       -1 0.69045770E-01 0.22768208E+04</pdfrwt>
<totfact> 0.13865708E+00</totfact>
</mgrwt>
</event>
<event>
 6    1  0.1719556E-004  0.2670861E+04  0.7818608E-02  0.8344522E-01
         -2   -1    0    0    0  501 -0.00000000000E+00  0.00000000000E+00  0.49445677394E+03  0.49445677394E+03  0.00000000000E+00 0. -1.
          2   -1    0    0  501    0  0.00000000000E+00 -0.00000000000E+00 -0.36067342347E+04  0.36067342347E+04  0.00000000000E+00 0.  1.
         23    2    1    2    0    0 -0.91841829631E+03  0.83194634577E+03 -0.80046264180E+03  0.14781937447E+04  0.93217041529E+02 0.  0.
         11    1    3    3    0    0 -0.22751869578E+03  0.15397676535E+03 -0.17764803036E+03  0.32715810228E+03  0.00000000000E+00 0. -1.
        -11    1    3    3    0    0 -0.69089960053E+03  0.67796958042E+03 -0.62281461144E+03  0.11510356425E+04  0.00000000000E+00 0.  1.
         22    1    1    2    0    0  0.91841829631E+03 -0.83194634577E+03 -0.23118148190E+04  0.26229972639E+04  0.00000000000E+00 0.  1.
<mgrwt>
<rscale>  0 0.26708607E+04</rscale>
<asrwt>0</asrwt>
<pdfrwt beam="1">  1        2 0.55488220E+00 0.26708607E+04</pdfrwt>
<pdfrwt beam="2">  1       -2 0.76070271E-01 0.26708607E+04</pdfrwt>
<totfact> 0.92950906E-01</totfact>
</mgrwt>
</event>
<event>
 6    1  0.1719556E-004  0.1389807E+04  0.7818608E-02  0.8961230E-01
         -2   -1    0    0    0  501 -0.00000000000E+00  0.00000000000E+00  0.20661403682E+03  0.20661403682E+03  0.00000000000E+00 0. -1.
          2   -1    0    0  501    0  0.00000000000E+00 -0.00000000000E+00 -0.23371632121E+04  0.23371632121E+04  0.00000000000E+00 0.  1.
         23    2    1    2    0    0 -0.37042507955E+03 -0.11766671334E+03 -0.22085602731E+02  0.39979058112E+03  0.91019448031E+02 0.  0.
         13    1    3    3    0    0 -0.74340701876E+02 -0.46100486304E+02  0.26341007725E+02  0.91354493491E+02  0.00000000000E+00 0. -1.
        -13    1    3    3    0    0 -0.29608437767E+03 -0.71566227031E+02 -0.48426610456E+02  0.30843608763E+03  0.00000000000E+00 0.  1.
         22    1    1    2    0    0  0.37042507955E+03  0.11766671334E+03 -0.21084635725E+04  0.21439866678E+04  0.00000000000E+00 0.  1.
<mgrwt>
<rscale>  0 0.13898068E+04</rscale>
<asrwt>0</asrwt>
<pdfrwt beam="1">  1        2 0.35956358E+00 0.13898068E+04</pdfrwt>
<pdfrwt beam="2">  1       -2 0.31786774E-01 0.13898068E+04</pdfrwt>
<totfact> 0.38789147E+01</totfact>
</mgrwt>
</event>
<event>
 6    1  0.1719556E-004  0.2096547E+04  0.7818608E-02  0.8562766E-01
         -2   -1    0    0    0  501 -0.00000000000E+00  0.00000000000E+00  0.16111896841E+04  0.16111896841E+04  0.00000000000E+00 0. -1.
          2   -1    0    0  501    0  0.00000000000E+00 -0.00000000000E+00 -0.68202884218E+03  0.68202884218E+03  0.00000000000E+00 0.  1.
         23    2    1    2    0    0 -0.71824654171E+03 -0.46322186465E+03 -0.19474135131E+03  0.88126642705E+03  0.90850046538E+02 0.  0.
         13    1    3    3    0    0 -0.29757813579E+03 -0.14237861581E+03 -0.89968438531E+02  0.34193381972E+03  0.00000000000E+00 0. -1.
        -13    1    3    3    0    0 -0.42066840593E+03 -0.32084324884E+03 -0.10477291278E+03  0.53933260732E+03  0.00000000000E+00 0.  1.
         22    1    1    2    0    0  0.71824654171E+03  0.46322186465E+03  0.11239021932E+04  0.14119520992E+04  0.00000000000E+00 0. -1.
<mgrwt>
<rscale>  0 0.20965475E+04</rscale>
<asrwt>0</asrwt>
<pdfrwt beam="1">  1        2 0.10492751E+00 0.20965475E+04</pdfrwt>
<pdfrwt beam="2">  1       -2 0.24787534E+00 0.20965475E+04</pdfrwt>
<totfact> 0.25843313E+00</totfact>
</mgrwt>
</event>
<event>
 6    1  0.1719556E-004  0.2760076E+04  0.7818608E-02  0.8315771E-01
          2   -1    0    0  501    0  0.00000000000E+00  0.00000000000E+00  0.12333920346E+04  0.12333920346E+04  0.00000000000E+00 0. -1.
         -2   -1    0    0    0  501 -0.00000000000E+00 -0.00000000000E+00 -0.15441198448E+04  0.15441198448E+04  0.00000000000E+00 0.  1.
         23    2    1    2    0    0  0.90017926145E+03  0.10430622480E+04 -0.20131797243E+03  0.13953859559E+04  0.90947698623E+02 0.  0.
         11    1    3    3    0    0  0.66820257028E+03  0.74611746017E+03 -0.10960675239E+03  0.10075711287E+04  0.00000000000E+00 0. -1.
        -11    1    3    3    0    0  0.23197669117E+03  0.29694478784E+03 -0.91711220042E+02  0.38781482714E+03  0.00000000000E+00 0.  1.
         22    1    1    2    0    0 -0.90017926145E+03 -0.10430622480E+04 -0.10940983770E+03  0.13821259235E+04  0.00000000000E+00 0.  1.
<mgrwt>
<rscale>  0 0.27600762E+04</rscale>
<asrwt>0</asrwt>
<pdfrwt beam="1">  1        2 0.18975262E+00 0.27600762E+04</pdfrwt>
<pdfrwt beam="2">  1       -2 0.23755690E+00 0.27600762E+04</pdfrwt>
<totfact> 0.12115547E+00</totfact>
</mgrwt>
</event>
<event>
 6    1  0.1719556E-004  0.1567134E+04  0.7818608E-02  0.8840997E-01
          1   -1    0    0  501    0  0.00000000000E+00  0.00000000000E+00  0.13185644934E+04  0.13185644934E+04  0.00000000000E+00 0.  1.
         -1   -1    0    0    0  501 -0.00000000000E+00 -0.00000000000E+00 -0.46564047599E+03  0.46564047599E+03  0.00000000000E+00 0. -1.
         23    2    1    2    0    0 -0.76402023121E+02 -0.59906369054E+02  0.13100929683E+04  0.13168405594E+04  0.91101213772E+02 0.  0.
         13    1    3    3    0    0 -0.72082195747E+02 -0.15022495890E+02  0.48920765145E+03  0.49471774232E+03  0.00000000000E+00 0. -1.
        -13    1    3    3    0    0 -0.43198273739E+01 -0.44883873164E+02  0.82088531680E+03  0.82212281705E+03  0.00000000000E+00 0.  1.
         22    1    1    2    0    0  0.76402023121E+02  0.59906369054E+02 -0.45716895082E+03  0.46736441005E+03  0.00000000000E+00 0. -1.
<mgrwt>
<rscale>  0 0.15671337E+04</rscale>
<asrwt>0</asrwt>
<pdfrwt beam="1">  1        1 0.20285607E+00 0.15671337E+04</pdfrwt>
<pdfrwt beam="2">  1       -1 0.71636997E-01 0.15671337E+04</pdfrwt>
<totfact> 0.16604820E+01</totfact>
</mgrwt>
</event>
<event>
 6    1  0.1719556E-004  0.7132234E+03  0.7818608E-02  0.9694882E-01
          2   -1    0    0  501    0  0.00000000000E+00  0.00000000000E+00  0.16336659740E+04  0.16336659740E+04  0.00000000000E+00 0.  1.
         -2   -1    0    0    0  501 -0.00000000000E+00 -0.00000000000E+00 -0.77844489933E+02  0.77844489933E+02  0.00000000000E+00 0. -1.
         23    2    1    2    0    0  0.13095894921E+03  0.74868642212E+02  0.15505990615E+04  0.15605706293E+04  0.90926782265E+02 0.  0.
         11    1    3    3    0    0  0.21478492610E+02  0.10595771526E+02  0.71329199767E+03  0.71369396099E+03  0.00000000000E+00 0. -1.
        -11    1    3    3    0    0  0.10948045660E+03  0.64272870686E+02  0.83730706380E+03  0.84687666833E+03  0.00000000000E+00 0.  1.
         22    1    1    2    0    0 -0.13095894921E+03 -0.74868642212E+02  0.52224225772E+01  0.15093983458E+03  0.00000000000E+00 0. -1.
<mgrwt>
<rscale>  0 0.71322337E+03</rscale>
<asrwt>0</asrwt>
<pdfrwt beam="1">  1        2 0.25133320E+00 0.71322337E+03</pdfrwt>
<pdfrwt beam="2">  1       -2 0.11976077E-01 0.71322337E+03</pdfrwt>
<totfact> 0.55462278E+02</totfact>
</mgrwt>
</event>
<event>
 6    1  0.1751225E-004  0.2684992E+04  0.7818608E-02  0.8339891E-01
          2   -1    0    0  501    0  0.00000000000E+00  0.00000000000E+00  0.14881732442E+04  0.14881732442E+04  0.00000000000E+00 0.  1.
         -2   -1    0    0    0  501 -0.00000000000E+00 -0.00000000000E+00 -0.12110791236E+04  0.12110791236E+04  0.00000000000E+00 0. -1.
         23    2    1    2    0    0  0.10498822679E+04  0.45031572745E+03  0.84468923413E+03  0.14236343828E+04  0.90542381300E+02 0.  0.
         11    1    3    3    0    0  0.49285291570E+03  0.20763456325E+03  0.33963741719E+03  0.63353743656E+03  0.00000000000E+00 0. -1.
        -11    1    3    3    0    0  0.55702935219E+03  0.24268116420E+03  0.50505181694E+03  0.79009694624E+03  0.00000000000E+00 0.  1.
         22    1    1    2    0    0 -0.10498822679E+04 -0.45031572745E+03 -0.56759511350E+03  0.12756179850E+04  0.00000000000E+00 0. -1.
<mgrwt>
<rscale>  0 0.26849920E+04</rscale>
<asrwt>0</asrwt>
<pdfrwt beam="1">  1        2 0.22894973E+00 0.26849920E+04</pdfrwt>
<pdfrwt beam="2">  1       -2 0.18631986E+00 0.26849920E+04</pdfrwt>
<totfact> 0.18586371E+00</totfact>
</mgrwt>
</event>
<event>
 6    1  0.1719556E-004  0.9144125E+03  0.7818608E-02  0.9407742E-01
         -2   -1    0    0    0  501 -0.00000000000E+00  0.00000000000E+00  0.20964942076E+03  0.20964942076E+03  0.00000000000E+00 0. -1.
          2   -1    0    0  501    0  0.00000000000E+00 -0.00000000000E+00 -0.99708150264E+03  0.99708150264E+03  0.00000000000E+00 0.  1.
         23    2    1    2    0    0  0.19700010486E+03 -0.28672545413E+03 -0.78000756411E+03  0.85877165736E+03  0.89757629479E+02 0.  0.
         11    1    3    3    0    0  0.61840439423E+02 -0.38239694839E+02 -0.11437786583E+03  0.13553158452E+03  0.00000000000E+00 0. -1.
        -11    1    3    3    0    0  0.13515966544E+03 -0.24848575929E+03 -0.66562969828E+03  0.72324007284E+03  0.00000000000E+00 0.  1.
         22    1    1    2    0    0 -0.19700010486E+03  0.28672545413E+03 -0.74245177728E+01  0.34795926605E+03  0.00000000000E+00 0. -1.
<mgrwt>
<rscale>  0 0.91441251E+03</rscale>
<asrwt>0</asrwt>
<pdfrwt beam="1">  1        2 0.15339716E+00 0.91441251E+03</pdfrwt>
<pdfrwt beam="2">  1       -2 0.32253756E-01 0.91441251E+03</pdfrwt>
<totfact> 0.22656921E+02</totfact>
</mgrwt>
</event>
<event>
 6    1  0.1719556E-004  0.4139780E+04  0.7818608E-02  0.7976927E-01
         -2   -1    0    0    0  501 -0.00000000000E+00  0.00000000000E+00  0.23154101364E+04  0.23154101364E+04  0.00000000000E+00 0. -1.
          2   -1    0    0  501    0  0.00000000000E+00 -0.00000000000E+00 -0.18504045576E+04  0.18504045576E+04  0.00000000000E+00 0.  1.
         23    2    1    2    0    0 -0.16355342224E+04  0.84197360107E+03  0.11854321490E+04  0.21902372644E+04  0.89432416796E+02 0.  0.
         11    1    3    3    0    0 -0.64129353780E+03  0.29851092254E+03  0.41632702793E+03  0.82078886852E+03  0.00000000000E+00 0.  1.
        -11    1    3    3    0    0 -0.99424068455E+03  0.54346267853E+03  0.76910512103E+03  0.13694483959E+04  0.00000000000E+00 0. -1.
         22    1    1    2    0    0  0.16355342224E+04 -0.84197360107E+03 -0.72042657013E+03  0.19755774296E+04  0.00000000000E+00 0.  1.
<mgrwt>
<rscale>  0 0.41397804E+04</rscale>
<asrwt>0</asrwt>
<pdfrwt beam="1">  1        2 0.28467762E+00 0.41397804E+04</pdfrwt>
<pdfrwt beam="2">  1       -2 0.35621695E+00 0.41397804E+04</pdfrwt>
<totfact> 0.89671040E-02</totfact>
</mgrwt>
</event>
<event>
 6    1  0.1719556E-004  0.6514398E+03  0.7818608E-02  0.9804081E-01
          2   -1    0    0  501    0  0.00000000000E+00  0.00000000000E+00  0.37390971907E+03  0.37390971907E+03  0.00000000000E+00 0.  1.
         -2   -1    0    0    0  501 -0.00000000000E+00 -0.00000000000E+00 -0.28374085719E+03  0.28374085719E+03  0.00000000000E+00 0. -1.
         23    2    1    2    0    0  0.13986663542E+03  0.76285588112E+02 -0.23382038855E+03  0.29660874897E+03  0.89009040031E+02 0.  0.
         11    1    3    3    0    0  0.81968988910E+02  0.14310794512E+02 -0.58081402816E+02  0.10147493945E+03  0.00000000000E+00 0.  1.
        -11    1    3    3    0    0  0.57897646511E+02  0.61974793601E+02 -0.17573898573E+03  0.19513380952E+03  0.00000000000E+00 0. -1.
         22    1    1    2    0    0 -0.13986663542E+03 -0.76285588112E+02  0.32398925043E+03  0.36104182729E+03  0.00000000000E+00 0.  1.
<mgrwt>
<rscale>  0 0.65143983E+03</rscale>
<asrwt>0</asrwt>
<pdfrwt beam="1">  1        2 0.57524573E-01 0.65143983E+03</pdfrwt>
<pdfrwt beam="2">  1       -2 0.43652439E-01 0.65143983E+03</pdfrwt>
<totfact> 0.43067451E+02</totfact>
</mgrwt>
</event>
<event>
 6    1  0.1719556E-004  0.1361984E+04  0.7818608E-02  0.8981806E-01
          1   -1    0    0  501    0  0.00000000000E+00  0.00000000000E+00  0.86688401682E+03  0.86688401682E+03  0.00000000000E+00 0.  1.
         -1   -1    0    0    0  501 -0.00000000000E+00 -0.00000000000E+00 -0.53496192520E+03  0.53496192520E+03  0.00000000000E+00 0. -1.
         23    2    1    2    0    0  0.22188200394E+03  0.45000082977E+03  0.63582534176E+03  0.81525446926E+03  0.92917242483E+02 0.  0.
         13    1    3    3    0    0  0.21849545223E+03  0.37238190468E+03  0.52154372252E+03  0.67706454646E+03  0.00000000000E+00 0. -1.
        -13    1    3    3    0    0  0.33865517058E+01  0.77618925088E+02  0.11428161925E+03  0.13818992279E+03  0.00000000000E+00 0.  1.
         22    1    1    2    0    0 -0.22188200394E+03 -0.45000082977E+03 -0.30390325014E+03  0.58659147276E+03  0.00000000000E+00 0. -1.
<mgrwt>
<rscale>  0 0.13619838E+04</rscale>
<asrwt>0</asrwt>
<pdfrwt beam="1">  1        1 0.13336677E+00 0.13619838E+04</pdfrwt>
<pdfrwt beam="2">  1       -1 0.82301835E-01 0.13619838E+04</pdfrwt>
<totfact> 0.27836190E+01</totfact>
</mgrwt>
</event>
<event>
 6    1  0.1719556E-004  0.9062563E+03  0.7818608E-02  0.9417794E-01
          2   -1    0    0  501    0  0.00000000000E+00  0.00000000000E+00  0.13982214552E+04  0.13982214552E+04  0.00000000000E+00 0.  1.
         -2   -1    0    0    0  501 -0.00000000000E+00 -0.00000000000E+00 -0.14684735180E+03  0.14684735180E+03  0.00000000000E+00 0. -1.
         23    2    1    2    0    0  0.20901746291E+03  0.28879172421E+02  0.13066674264E+04  0.13269411884E+04  0.94185179313E+02 0.  0.
         13    1    3    3    0    0  0.63164235544E+02  0.46214074803E+02  0.32176235409E+03  0.33114418895E+03  0.00000000000E+00 0.  1.
        -13    1    3    3    0    0  0.14585322737E+03 -0.17334902382E+02  0.98490507228E+03  0.99579699948E+03  0.00000000000E+00 0. -1.
         22    1    1    2    0    0 -0.20901746291E+03 -0.28879172421E+02 -0.55293323009E+02  0.21812761854E+03  0.00000000000E+00 0. -1.
<mgrwt>
<rscale>  0 0.90625629E+03</rscale>
<asrwt>0</asrwt>
<pdfrwt beam="1">  1        2 0.21511098E+00 0.90625629E+03</pdfrwt>
<pdfrwt beam="2">  1       -2 0.22591901E-01 0.90625629E+03</pdfrwt>
<totfact> 0.25015656E+02</totfact>
</mgrwt>
</event>
<event>
 6    1  0.1719556E-004  0.2302629E+04  0.7818608E-02  0.8476885E-01
         -1   -1    0    0    0  501 -0.00000000000E+00  0.00000000000E+00  0.76079577505E+03  0.76079577505E+03  0.00000000000E+00 0.  1.
          1   -1    0    0  501    0  0.00000000000E+00 -0.00000000000E+00 -0.17422870265E+04  0.17422870265E+04  0.00000000000E+00 0. -1.
         23    2    1    2    0    0  0.55564126135E+03 -0.92979519094E+03 -0.90977712100E+03  0.14175418190E+04  0.92054821979E+02 0.  0.
         13    1    3    3    0    0  0.29255147455E+03 -0.41373831725E+03 -0.39271515544E+03  0.64108576161E+03  0.00000000000E+00 0. -1.
        -13    1    3    3    0    0  0.26308978680E+03 -0.51605687369E+03 -0.51706196556E+03  0.77645605737E+03  0.00000000000E+00 0.  1.
         22    1    1    2    0    0 -0.55564126135E+03  0.92979519094E+03 -0.71714130488E+02  0.10855409826E+04  0.00000000000E+00 0.  1.
<mgrwt>
<rscale>  0 0.23026286E+04</rscale>
<asrwt>0</asrwt>
<pdfrwt beam="1">  1        1 0.26804416E+00 0.23026286E+04</pdfrwt>
<pdfrwt beam="2">  1       -1 0.11704550E+00 0.23026286E+04</pdfrwt>
<totfact> 0.26510102E+00</totfact>
</mgrwt>
</event>
<event>
 6    1  0.1719556E-004  0.1450992E+04  0.7818608E-02  0.8917713E-01
         -1   -1    0    0    0  501 -0.00000000000E+00  0.00000000000E+00  0.16041057861E+03  0.16041057861E+03  0.00000000000E+00 0. -1.
          1   -1    0    0  501    0  0.00000000000E+00 -0.00000000000E+00 -0.32812337590E+04  0.32812337590E+04  0.00000000000E+00 0.  1.
         23    2    1    2    0    0 -0.29491615901E+03 -0.35630357623E+03 -0.28837373011E+04  0.29218968091E+04  0.87248850883E+02 0.  0.
         11    1    3    3    0    0 -0.22313807584E+02 -0.76814096757E+01 -0.26301693854E+03  0.26407351253E+03  0.00000000000E+00 0. -1.
        -11    1    3    3    0    0 -0.27260235143E+03 -0.34862216655E+03 -0.26207203625E+04  0.26578232965E+04  0.00000000000E+00 0.  1.
         22    1    1    2    0    0  0.29491615901E+03  0.35630357623E+03 -0.23708587935E+03  0.51974752858E+03  0.00000000000E+00 0. -1.
<mgrwt>
<rscale>  0 0.14509922E+04</rscale>
<asrwt>0</asrwt>
<pdfrwt beam="1">  1        1 0.50480517E+00 0.14509922E+04</pdfrwt>
<pdfrwt beam="2">  1       -1 0.24678552E-01 0.14509922E+04</pdfrwt>
<totfact> 0.51854952E+00</totfact>
</mgrwt>
</event>
<event>
 6    1  0.1719556E-004  0.2530084E+04  0.7818608E-02  0.8392346E-01
          1   -1    0    0  501    0  0.00000000000E+00  0.00000000000E+00  0.81662508120E+03  0.81662508120E+03  0.00000000000E+00 0. -1.
         -1   -1    0    0    0  501 -0.00000000000E+00 -0.00000000000E+00 -0.19596897313E+04  0.19596897313E+04  0.00000000000E+00 0.  1.
         23    2    1    2    0    0  0.66450366096E+03 -0.74184307529E+03  0.28064926744E+03  0.10388288175E+04  0.92222757501E+02 0.  0.
         13    1    3    3    0    0  0.44149365650E+03 -0.49442054362E+03  0.23159302846E+03  0.70214218895E+03  0.00000000000E+00 0. -1.
        -13    1    3    3    0    0  0.22301000447E+03 -0.24742253167E+03  0.49056238986E+02  0.33668662856E+03  0.00000000000E+00 0.  1.
         22    1    1    2    0    0 -0.66450366096E+03  0.74184307529E+03 -0.14237139176E+04  0.17374859950E+04  0.00000000000E+00 0.  1.
<mgrwt>
<rscale>  0 0.25300844E+04</rscale>
<asrwt>0</asrwt>
<pdfrwt beam="1">  1        1 0.12563463E+00 0.25300844E+04</pdfrwt>
<pdfrwt beam="2">  1       -1 0.30149073E+00 0.25300844E+04</pdfrwt>
<totfact> 0.61211165E-01</totfact>
</mgrwt>
</event>
<event>
 6    1  0.1719556E-004  0.8117435E+03  0.7818608E-02  0.9543173E-01
         -2   -1    0    0    0  501 -0.00000000000E+00  0.00000000000E+00  0.11972155817E+03  0.11972155817E+03  0.00000000000E+00 0. -1.
          2   -1    0    0  501    0  0.00000000000E+00 -0.00000000000E+00 -0.13759584026E+04  0.13759584026E+04  0.00000000000E+00 0.  1.
         23    2    1    2    0    0 -0.34848473527E+03 -0.89587532216E+02 -0.31032650358E+03  0.48364542106E+03  0.90237563378E+02 0.  0.
         13    1    3    3    0    0 -0.28777594713E+03 -0.59107381268E+02 -0.28983804619E+03  0.41269210229E+03  0.00000000000E+00 0. -1.
        -13    1    3    3    0    0 -0.60708788139E+02 -0.30480150948E+02 -0.20488457385E+02  0.70953318774E+02  0.00000000000E+00 0.  1.
         22    1    1    2    0    0  0.34848473527E+03  0.89587532216E+02 -0.94591034087E+03  0.10120345397E+04  0.00000000000E+00 0.  1.
<mgrwt>
<rscale>  0 0.81174352E+03</rscale>
<asrwt>0</asrwt>
<pdfrwt beam="1">  1        2 0.21168591E+00 0.81174352E+03</pdfrwt>
<pdfrwt beam="2">  1       -2 0.18418701E-01 0.81174352E+03</pdfrwt>
<totfact> 0.37079999E+02</totfact>
</mgrwt>
</event>
<event>
 6    1  0.1719556E-004  0.1732625E+04  0.7818608E-02  0.8742973E-01
          2   -1    0    0  501    0  0.00000000000E+00  0.00000000000E+00  0.19583504556E+04  0.19583504556E+04  0.00000000000E+00 0.  1.
         -2   -1    0    0    0  501 -0.00000000000E+00 -0.00000000000E+00 -0.38322936111E+03  0.38322936111E+03  0.00000000000E+00 0. -1.
         23    2    1    2    0    0 -0.80461245297E+03 -0.21642957967E+03  0.10978911260E+04  0.13813759814E+04  0.92691505047E+02 0.  0.
         13    1    3    3    0    0 -0.37709142636E+03 -0.59435152896E+02  0.46442180824E+03  0.60118058618E+03  0.00000000000E+00 0. -1.
        -13    1    3    3    0    0 -0.42752102661E+03 -0.15699442678E+03  0.63346931773E+03  0.78019539523E+03  0.00000000000E+00 0.  1.
         22    1    1    2    0    0  0.80461245297E+03  0.21642957967E+03  0.47722996849E+03  0.96020383526E+03  0.00000000000E+00 0. -1.
<mgrwt>
<rscale>  0 0.17326251E+04</rscale>
<asrwt>0</asrwt>
<pdfrwt beam="1">  1        2 0.30128468E+00 0.17326251E+04</pdfrwt>
<pdfrwt beam="2">  1       -2 0.58958365E-01 0.17326251E+04</pdfrwt>
<totfact> 0.17976902E+01</totfact>
</mgrwt>
</event>
<event>
 6    1  0.1719556E-004  0.1559063E+04  0.7818608E-02  0.8846100E-01
          2   -1    0    0  501    0  0.00000000000E+00  0.00000000000E+00  0.78809119690E+03  0.78809119690E+03  0.00000000000E+00 0.  1.
         -2   -1    0    0    0  501 -0.00000000000E+00 -0.00000000000E+00 -0.77106429397E+03  0.77106429397E+03  0.00000000000E+00 0. -1.
         23    2    1    2    0    0 -0.66924665526E+03  0.22353270951E+03  0.33364744989E+03  0.78578201800E+03  0.90965934229E+02 0.  0.
         13    1    3    3    0    0 -0.51359802418E+03  0.13113407957E+03  0.25933070135E+03  0.59011142163E+03  0.00000000000E+00 0.  1.
        -13    1    3    3    0    0 -0.15564863108E+03  0.92398629936E+02  0.74316748534E+02  0.19567059637E+03  0.00000000000E+00 0. -1.
         22    1    1    2    0    0  0.66924665526E+03 -0.22353270951E+03 -0.31662054696E+03  0.77337347288E+03  0.00000000000E+00 0. -1.
<mgrwt>
<rscale>  0 0.15590625E+04</rscale>
<asrwt>0</asrwt>
<pdfrwt beam="1">  1        2 0.12124480E+00 0.15590625E+04</pdfrwt>
<pdfrwt beam="2">  1       -2 0.11862528E+00 0.15590625E+04</pdfrwt>
<totfact> 0.18468980E+01</totfact>
</mgrwt>
</event>
<event>
 6    1  0.1719556E-004  0.4577668E+04  0.7818608E-02  0.7897179E-01
          2   -1    0    0  501    0  0.00000000000E+00  0.00000000000E+00  0.44961271731E+04  0.44961271731E+04  0.00000000000E+00 0.  1.
         -2   -1    0    0    0  501 -0.00000000000E+00 -0.00000000000E+00 -0.11651720476E+04  0.11651720476E+04  0.00000000000E+00 0. -1.
         23    2    1    2    0    0  0.16223010694E+04  0.10404477853E+04  0.31911458725E+04  0.37289589347E+04  0.85617774891E+02 0.  0.
         13    1    3    3    0    0  0.49823120294E+03  0.36664703566E+03  0.10138623009E+04  0.11876788899E+04  0.00000000000E+00 0. -1.
        -13    1    3    3    0    0  0.11240698664E+04  0.67380074961E+03  0.21772835716E+04  0.25412800448E+04  0.00000000000E+00 0.  1.
         22    1    1    2    0    0 -0.16223010694E+04 -0.10404477853E+04  0.13980925302E+03  0.19323402860E+04  0.00000000000E+00 0. -1.
<mgrwt>
<rscale>  0 0.45776683E+04</rscale>
<asrwt>0</asrwt>
<pdfrwt beam="1">  1        2 0.69171187E+00 0.45776683E+04</pdfrwt>
<pdfrwt beam="2">  1       -2 0.17925724E+00 0.45776683E+04</pdfrwt>
<totfact> 0.17003302E-02</totfact>
</mgrwt>
</event>
<event>
 6    1  0.1719556E-004  0.1689854E+04  0.7818608E-02  0.8767172E-01
         -2   -1    0    0    0  501 -0.00000000000E+00  0.00000000000E+00  0.13742801476E+04  0.13742801476E+04  0.00000000000E+00 0. -1.
          2   -1    0    0  501    0  0.00000000000E+00 -0.00000000000E+00 -0.51947303670E+03  0.51947303670E+03  0.00000000000E+00 0.  1.
         23    2    1    2    0    0 -0.19431073520E+03 -0.46621139092E+03 -0.32696235801E+03  0.60857272985E+03  0.91360063084E+02 0.  0.
         13    1    3    3    0    0 -0.49122267908E+02 -0.13369499238E+03 -0.14275314556E+03  0.20165765237E+03  0.00000000000E+00 0. -1.
        -13    1    3    3    0    0 -0.14518846729E+03 -0.33251639853E+03 -0.18420921245E+03  0.40691507748E+03  0.00000000000E+00 0.  1.
         22    1    1    2    0    0  0.19431073520E+03  0.46621139092E+03  0.11817694689E+04  0.12851804544E+04  0.00000000000E+00 0. -1.
<mgrwt>
<rscale>  0 0.16898538E+04</rscale>
<asrwt>0</asrwt>
<pdfrwt beam="1">  1        2 0.79918929E-01 0.16898538E+04</pdfrwt>
<pdfrwt beam="2">  1       -2 0.21142771E+00 0.16898538E+04</pdfrwt>
<totfact> 0.62820644E+00</totfact>
</mgrwt>
</event>
<event>
 6    1  0.1719556E-004  0.2622935E+04  0.7818608E-02  0.8360452E-01
          2   -1    0    0  501    0  0.00000000000E+00  0.00000000000E+00  0.24905062441E+04  0.24905062441E+04  0.00000000000E+00 0. -1.
         -2   -1    0    0    0  501 -0.00000000000E+00 -0.00000000000E+00 -0.69060130907E+03  0.69060130907E+03  0.00000000000E+00 0.  1.
         23    2    1    2    0    0  0.25578300914E+03  0.81715881742E+03  0.21032450517E+04  0.22727085731E+04  0.91602565438E+02 0.  0.
         11    1    3    3    0    0  0.15801172865E+03  0.59754077827E+03  0.14311631432E+04  0.15589261145E+04  0.00000000000E+00 0. -1.
        -11    1    3    3    0    0  0.97771280493E+02  0.21961803915E+03  0.67208190856E+03  0.71378245861E+03  0.00000000000E+00 0.  1.
         22    1    1    2    0    0 -0.25578300914E+03 -0.81715881742E+03 -0.30334011667E+03  0.90839898010E+03  0.00000000000E+00 0.  1.
<mgrwt>
<rscale>  0 0.26229349E+04</rscale>
<asrwt>0</asrwt>
<pdfrwt beam="1">  1        2 0.38315480E+00 0.26229349E+04</pdfrwt>
<pdfrwt beam="2">  1       -2 0.10624636E+00 0.26229349E+04</pdfrwt>
<totfact> 0.22235168E+00</totfact>
</mgrwt>
</event>
<event>
 6    1  0.1719556E-004  0.1484083E+04  0.7818608E-02  0.8895107E-01
          2   -1    0    0  501    0  0.00000000000E+00  0.00000000000E+00  0.13708697395E+04  0.13708697395E+04  0.00000000000E+00 0.  1.
         -2   -1    0    0    0  501 -0.00000000000E+00 -0.00000000000E+00 -0.40166157799E+03  0.40166157799E+03  0.00000000000E+00 0. -1.
         23    2    1    2    0    0 -0.52569399319E+03  0.45871573365E+03  0.77869693917E+03  0.10492963455E+04  0.88767104921E+02 0.  0.
         11    1    3    3    0    0 -0.69850791515E+02  0.10574543684E+03  0.13516861724E+03  0.18528838489E+03  0.00000000000E+00 0. -1.
        -11    1    3    3    0    0 -0.45584320167E+03  0.35297029681E+03  0.64352832194E+03  0.86400796065E+03  0.00000000000E+00 0.  1.
         22    1    1    2    0    0  0.52569399319E+03 -0.45871573365E+03  0.19051122228E+03  0.72323497190E+03  0.00000000000E+00 0. -1.
<mgrwt>
<rscale>  0 0.14840832E+04</rscale>
<asrwt>0</asrwt>
<pdfrwt beam="1">  1        2 0.21090303E+00 0.14840832E+04</pdfrwt>
<pdfrwt beam="2">  1       -2 0.61794090E-01 0.14840832E+04</pdfrwt>
<totfact> 0.35390299E+01</totfact>
</mgrwt>
</event>
<event>
 6    1  0.1719556E-004  0.3215579E+04  0.7818608E-02  0.8184715E-01
         -2   -1    0    0    0  501 -0.00000000000E+00  0.00000000000E+00  0.15132110876E+04  0.15132110876E+04  0.00000000000E+00 0. -1.
          2   -1    0    0  501    0  0.00000000000E+00 -0.00000000000E+00 -0.17082796056E+04  0.17082796056E+04  0.00000000000E+00 0.  1.
         23    2    1    2    0    0 -0.36026528971E+03  0.34128091832E+03  0.14331189204E+04  0.15193573028E+04  0.91394908990E+02 0.  0.
         13    1    3    3    0    0 -0.22381085718E+03  0.18691179034E+03  0.96037569314E+03  0.10036676687E+04  0.00000000000E+00 0.  1.
        -13    1    3    3    0    0 -0.13645443253E+03  0.15436912797E+03  0.47274322722E+03  0.51568963409E+03  0.00000000000E+00 0. -1.
         22    1    1    2    0    0  0.36026528971E+03 -0.34128091832E+03 -0.16281874384E+04  0.17021333904E+04  0.00000000000E+00 0.  1.
<mgrwt>
<rscale>  0 0.32155794E+04</rscale>
<asrwt>0</asrwt>
<pdfrwt beam="1">  1        2 0.26281225E+00 0.32155794E+04</pdfrwt>
<pdfrwt beam="2">  1       -2 0.23280171E+00 0.32155794E+04</pdfrwt>
<totfact> 0.67016161E-01</totfact>
</mgrwt>
</event>
<event>
 6    1  0.1719556E-004  0.2156244E+04  0.7818608E-02  0.8536864E-01
          1   -1    0    0  501    0  0.00000000000E+00  0.00000000000E+00  0.97508427873E+03  0.97508427873E+03  0.00000000000E+00 0.  1.
         -1   -1    0    0    0  501 -0.00000000000E+00 -0.00000000000E+00 -0.11920475672E+04  0.11920475672E+04  0.00000000000E+00 0. -1.
         23    2    1    2    0    0 -0.94121186392E+03 -0.48116452598E+03  0.94112517559E+02  0.10652392782E+04  0.92078661608E+02 0.  0.
         11    1    3    3    0    0 -0.54434181616E+03 -0.32084088187E+03  0.80772726825E+02  0.63700166224E+03  0.00000000000E+00 0. -1.
        -11    1    3    3    0    0 -0.39687004775E+03 -0.16032364412E+03  0.13339790734E+02  0.42823761591E+03  0.00000000000E+00 0.  1.
         22    1    1    2    0    0  0.94121186392E+03  0.48116452598E+03 -0.31107580604E+03  0.11018925678E+04  0.00000000000E+00 0. -1.
<mgrwt>
<rscale>  0 0.21562438E+04</rscale>
<asrwt>0</asrwt>
<pdfrwt beam="1">  1        1 0.15001297E+00 0.21562438E+04</pdfrwt>
<pdfrwt beam="2">  1       -1 0.18339193E+00 0.21562438E+04</pdfrwt>
<totfact> 0.28510095E+00</totfact>
</mgrwt>
</event>
<event>
 6    1  0.1719556E-004  0.2742928E+04  0.7818608E-02  0.8321209E-01
         -2   -1    0    0    0  501 -0.00000000000E+00  0.00000000000E+00  0.20380805844E+04  0.20380805844E+04  0.00000000000E+00 0. -1.
          2   -1    0    0  501    0  0.00000000000E+00 -0.00000000000E+00 -0.92288490650E+03  0.92288490650E+03  0.00000000000E+00 0.  1.
         23    2    1    2    0    0 -0.85644367019E+03 -0.87391663476E+03  0.12232824608E+04  0.17325890025E+04  0.90656647973E+02 0.  0.
         13    1    3    3    0    0 -0.23497666896E+03 -0.25267521078E+03  0.40249946720E+03  0.53015527743E+03  0.00000000000E+00 0. -1.
        -13    1    3    3    0    0 -0.62146700123E+03 -0.62124142398E+03  0.82078299360E+03  0.12024337250E+04  0.00000000000E+00 0.  1.
         22    1    1    2    0    0  0.85644367019E+03  0.87391663476E+03 -0.10808678290E+03  0.12283764884E+04  0.00000000000E+00 0.  1.
<mgrwt>
<rscale>  0 0.27429282E+04</rscale>
<asrwt>0</asrwt>
<pdfrwt beam="1">  1        2 0.14198229E+00 0.27429282E+04</pdfrwt>
<pdfrwt beam="2">  1       -2 0.31355086E+00 0.27429282E+04</pdfrwt>
<totfact> 0.64922605E-01</totfact>
</mgrwt>
</event>
<event>
 6    1  0.1719556E-004  0.1418266E+04  0.7818608E-02  0.8940702E-01
          1   -1    0    0  501    0  0.00000000000E+00  0.00000000000E+00  0.75776114979E+03  0.75776114979E+03  0.00000000000E+00 0.  1.
         -1   -1    0    0    0  501 -0.00000000000E+00 -0.00000000000E+00 -0.66362532510E+03  0.66362532510E+03  0.00000000000E+00 0. -1.
         23    2    1    2    0    0 -0.35515075696E+03 -0.29396328909E+03  0.58355067257E+03  0.74902245977E+03  0.89200797513E+02 0.  0.
         11    1    3    3    0    0 -0.30734383528E+03 -0.20773206832E+03  0.45826670723E+03  0.58959411484E+03  0.00000000000E+00 0. -1.
        -11    1    3    3    0    0 -0.47806921676E+02 -0.86231220772E+02  0.12528396534E+03  0.15942834493E+03  0.00000000000E+00 0.  1.
         22    1    1    2    0    0  0.35515075696E+03  0.29396328909E+03 -0.48941484788E+03  0.67236401512E+03  0.00000000000E+00 0. -1.
<mgrwt>
<rscale>  0 0.14182658E+04</rscale>
<asrwt>0</asrwt>
<pdfrwt beam="1">  1        1 0.11657864E+00 0.14182658E+04</pdfrwt>
<pdfrwt beam="2">  1       -1 0.10209620E+00 0.14182658E+04</pdfrwt>
<totfact> 0.21331313E+01</totfact>
</mgrwt>
</event>
<event>
 6    1  0.1719556E-004  0.3133680E+03  0.7818608E-02  0.1078743E+00
          2   -1    0    0  501    0  0.00000000000E+00  0.00000000000E+00  0.59081214985E+03  0.59081214985E+03  0.00000000000E+00 0.  1.
         -2   -1    0    0    0  501 -0.00000000000E+00 -0.00000000000E+00 -0.41552748707E+02  0.41552748707E+02  0.00000000000E+00 0. -1.
         23    2    1    2    0    0 -0.88912284639E+02  0.41635012902E+02  0.50753130308E+03  0.52568733378E+03  0.95500160364E+02 0.  0.
         13    1    3    3    0    0 -0.38667045830E+02  0.68824979952E+02  0.32346019483E+03  0.33295422499E+03  0.00000000000E+00 0.  1.
        -13    1    3    3    0    0 -0.50245238809E+02 -0.27189967050E+02  0.18407110825E+03  0.19273310879E+03  0.00000000000E+00 0. -1.
         22    1    1    2    0    0  0.88912284639E+02 -0.41635012902E+02  0.41728098061E+02  0.10667756478E+03  0.00000000000E+00 0. -1.
<mgrwt>
<rscale>  0 0.31336795E+03</rscale>
<asrwt>0</asrwt>
<pdfrwt beam="1">  1        2 0.90894171E-01 0.31336795E+03</pdfrwt>
<pdfrwt beam="2">  1       -2 0.63927310E-02 0.31336795E+03</pdfrwt>
<totfact> 0.68997585E+03</totfact>
</mgrwt>
</event>
<event>
 6    1  0.1719556E-004  0.5382249E+03  0.7818608E-02  0.1004257E+00
         -2   -1    0    0    0  501 -0.00000000000E+00  0.00000000000E+00  0.68686099975E+02  0.68686099975E+02  0.00000000000E+00 0. -1.
          2   -1    0    0  501    0  0.00000000000E+00 -0.00000000000E+00 -0.10543836401E+04  0.10543836401E+04  0.00000000000E+00 0.  1.
         23    2    1    2    0    0  0.19571069074E+03 -0.52873963458E+02 -0.16360009601E+03  0.27634514606E+03  0.92213436433E+02 0.  0.
         13    1    3    3    0    0  0.71915299678E+02  0.61364580582E+01 -0.14228095490E+02  0.73565651948E+02  0.00000000000E+00 0. -1.
        -13    1    3    3    0    0  0.12379539106E+03 -0.59010421516E+02 -0.14937200052E+03  0.20277949412E+03  0.00000000000E+00 0.  1.
         22    1    1    2    0    0 -0.19571069074E+03  0.52873963458E+02 -0.82209744411E+03  0.84672459400E+03  0.00000000000E+00 0.  1.
<mgrwt>
<rscale>  0 0.53822486E+03</rscale>
<asrwt>0</asrwt>
<pdfrwt beam="1">  1        2 0.16221285E+00 0.53822486E+03</pdfrwt>
<pdfrwt beam="2">  1       -2 0.10567093E-01 0.53822486E+03</pdfrwt>
<totfact> 0.14716023E+03</totfact>
</mgrwt>
</event>
<event>
 6    1  0.1719556E-004  0.4776428E+04  0.7818608E-02  0.7863952E-01
         -2   -1    0    0    0  501 -0.00000000000E+00  0.00000000000E+00  0.12856144965E+04  0.12856144965E+04  0.00000000000E+00 0.  1.
          2   -1    0    0  501    0  0.00000000000E+00 -0.00000000000E+00 -0.44364516358E+04  0.44364516358E+04  0.00000000000E+00 0. -1.
         23    2    1    2    0    0 -0.22712512490E+03 -0.62582217578E+03 -0.43225199137E+04  0.43744461036E+04  0.91438998512E+02 0.  0.
         11    1    3    3    0    0 -0.10201428129E+03 -0.18748156739E+03 -0.15684252932E+04  0.15828815976E+04  0.00000000000E+00 0. -1.
        -11    1    3    3    0    0 -0.12511084361E+03 -0.43834060838E+03 -0.27540946205E+04  0.27915645060E+04  0.00000000000E+00 0.  1.
         22    1    1    2    0    0  0.22712512490E+03  0.62582217578E+03  0.11716827744E+04  0.13476200287E+04  0.00000000000E+00 0.  1.
<mgrwt>
<rscale>  0 0.47764282E+04</rscale>
<asrwt>0</asrwt>
<pdfrwt beam="1">  1        2 0.68253103E+00 0.47764282E+04</pdfrwt>
<pdfrwt beam="2">  1       -2 0.19778684E+00 0.47764282E+04</pdfrwt>
<totfact> 0.14326299E-02</totfact>
</mgrwt>
</event>
<event>
 6    1  0.1719556E-004  0.1896355E+04  0.7818608E-02  0.8656673E-01
          2   -1    0    0  501    0  0.00000000000E+00  0.00000000000E+00  0.10262080466E+04  0.10262080466E+04  0.00000000000E+00 0.  1.
         -2   -1    0    0    0  501 -0.00000000000E+00 -0.00000000000E+00 -0.87608018830E+03  0.87608018830E+03  0.00000000000E+00 0. -1.
         23    2    1    2    0    0 -0.66047811157E+03  0.27251713151E+03 -0.54675376768E+03  0.90421963835E+03  0.90424272551E+02 0.  0.
         11    1    3    3    0    0 -0.19083030731E+03  0.66620764528E+02 -0.20554644346E+03  0.28827742345E+03  0.00000000000E+00 0. -1.
        -11    1    3    3    0    0 -0.46964780426E+03  0.20589636698E+03 -0.34120732422E+03  0.61594221490E+03  0.00000000000E+00 0.  1.
         22    1    1    2    0    0  0.66047811157E+03 -0.27251713151E+03  0.69688162603E+03  0.99806859660E+03  0.00000000000E+00 0.  1.
<mgrwt>
<rscale>  0 0.18963550E+04</rscale>
<asrwt>0</asrwt>
<pdfrwt beam="1">  1        2 0.15787816E+00 0.18963550E+04</pdfrwt>
<pdfrwt beam="2">  1       -2 0.13478157E+00 0.18963550E+04</pdfrwt>
<totfact> 0.89940856E+00</totfact>
</mgrwt>
</event>
<event>
 6    1  0.1719556E-004  0.2683147E+04  0.7818608E-02  0.8340494E-01
         -1   -1    0    0    0  501 -0.00000000000E+00  0.00000000000E+00  0.59346734601E+03  0.59346734601E+03  0.00000000000E+00 0. -1.
          1   -1    0    0  501    0  0.00000000000E+00 -0.00000000000E+00 -0.30327186280E+04  0.30327186280E+04  0.00000000000E+00 0.  1.
         23    2    1    2    0    0 -0.11435875345E+04 -0.42364165764E+03 -0.19712624447E+04  0.23199401109E+04  0.94772300200E+02 0.  0.
         13    1    3    3    0    0 -0.68959189844E+03 -0.21375880635E+03 -0.12122567946E+04  0.14109558284E+04  0.00000000000E+00 0. -1.
        -13    1    3    3    0    0 -0.45399563604E+03 -0.20988285129E+03 -0.75900565014E+03  0.90898428246E+03  0.00000000000E+00 0.  1.
         22    1    1    2    0    0  0.11435875345E+04  0.42364165764E+03 -0.46798883723E+03  0.13062458631E+04  0.00000000000E+00 0. -1.
<mgrwt>
<rscale>  0 0.26831470E+04</rscale>
<asrwt>0</asrwt>
<pdfrwt beam="1">  1        1 0.46657209E+00 0.26831470E+04</pdfrwt>
<pdfrwt beam="2">  1       -1 0.91302670E-01 0.26831470E+04</pdfrwt>
<totfact> 0.57852392E-01</totfact>
</mgrwt>
</event>
<event>
 6    1  0.1719556E-004  0.8612404E+03  0.7818608E-02  0.9475373E-01
          2   -1    0    0  501    0  0.00000000000E+00  0.00000000000E+00  0.21832535622E+04  0.21832535622E+04  0.00000000000E+00 0.  1.
         -2   -1    0    0    0  501 -0.00000000000E+00 -0.00000000000E+00 -0.84934597530E+02  0.84934597530E+02  0.00000000000E+00 0. -1.
         23    2    1    2    0    0  0.34410660600E+03  0.19822904364E+03  0.14651675528E+04  0.15208028372E+04  0.91767105866E+02 0.  0.
         13    1    3    3    0    0  0.88897624615E+02  0.38230940873E+02  0.23184714478E+03  0.25123194671E+03  0.00000000000E+00 0. -1.
        -13    1    3    3    0    0  0.25520898138E+03  0.15999810277E+03  0.12333204080E+04  0.12695708905E+04  0.00000000000E+00 0.  1.
         22    1    1    2    0    0 -0.34410660600E+03 -0.19822904364E+03  0.63315141187E+03  0.74738532257E+03  0.00000000000E+00 0. -1.
<mgrwt>
<rscale>  0 0.86124041E+03</rscale>
<asrwt>0</asrwt>
<pdfrwt beam="1">  1        2 0.33588512E+00 0.86124041E+03</pdfrwt>
<pdfrwt beam="2">  1       -2 0.13066863E-01 0.86124041E+03</pdfrwt>
<totfact> 0.23754360E+02</totfact>
</mgrwt>
</event>
<event>
 6    1  0.1719556E-004  0.2412422E+04  0.7818608E-02  0.8434868E-01
         -1   -1    0    0    0  501 -0.00000000000E+00  0.00000000000E+00  0.61001433620E+03  0.61001433620E+03  0.00000000000E+00 0. -1.
          1   -1    0    0  501    0  0.00000000000E+00 -0.00000000000E+00 -0.23850987939E+04  0.23850987939E+04  0.00000000000E+00 0.  1.
         23    2    1    2    0    0 -0.46180214816E+03  0.47118813054E+03 -0.21399294328E+04  0.22411958043E+04  0.91548771122E+02 0.  0.
         13    1    3    3    0    0 -0.32112911050E+03  0.33030787074E+03 -0.16277043496E+04  0.16916408144E+04  0.00000000000E+00 0. -1.
        -13    1    3    3    0    0 -0.14067303766E+03  0.14088025980E+03 -0.51222508314E+03  0.54955498990E+03  0.00000000000E+00 0.  1.
         22    1    1    2    0    0  0.46180214816E+03 -0.47118813054E+03  0.36484497504E+03  0.75391732585E+03  0.00000000000E+00 0. -1.
<mgrwt>
<rscale>  0 0.24124216E+04</rscale>
<asrwt>0</asrwt>
<pdfrwt beam="1">  1        1 0.36693829E+00 0.24124216E+04</pdfrwt>
<pdfrwt beam="2">  1       -1 0.93848357E-01 0.24124216E+04</pdfrwt>
<totfact> 0.16020665E+00</totfact>
</mgrwt>
</event>
<event>
 6    1  0.1719556E-004  0.6238438E+04  0.7818608E-02  0.7661521E-01
          2   -1    0    0  501    0  0.00000000000E+00  0.00000000000E+00  0.35884798132E+04  0.35884798132E+04  0.00000000000E+00 0.  1.
         -2   -1    0    0    0  501 -0.00000000000E+00 -0.00000000000E+00 -0.27113224775E+04  0.27113224775E+04  0.00000000000E+00 0. -1.
         23    2    1    2    0    0 -0.23582928457E+04  0.62729578482E+03 -0.15221351943E+04  0.28775735151E+04  0.92133801336E+02 0.  0.
         13    1    3    3    0    0 -0.75257187874E+03  0.23496782684E+03 -0.52344626170E+03  0.94634576197E+03  0.00000000000E+00 0. -1.
        -13    1    3    3    0    0 -0.16057209670E+04  0.39232795799E+03 -0.99868893265E+03  0.19312277532E+04  0.00000000000E+00 0.  1.
         22    1    1    2    0    0  0.23582928457E+04 -0.62729578482E+03  0.23992925301E+04  0.34222287756E+04  0.00000000000E+00 0.  1.
<mgrwt>
<rscale>  0 0.62384376E+04</rscale>
<asrwt>0</asrwt>
<pdfrwt beam="1">  1        2 0.55207382E+00 0.62384376E+04</pdfrwt>
<pdfrwt beam="2">  1       -2 0.41712653E+00 0.62384376E+04</pdfrwt>
<totfact> 0.26628722E-03</totfact>
</mgrwt>
</event>
<event>
 6    1  0.1719556E-004  0.8934370E+03  0.7818608E-02  0.9433823E-01
         -1   -1    0    0    0  501 -0.00000000000E+00  0.00000000000E+00  0.30330471429E+03  0.30330471429E+03  0.00000000000E+00 0. -1.
          1   -1    0    0  501    0  0.00000000000E+00 -0.00000000000E+00 -0.65794363487E+03  0.65794363487E+03  0.00000000000E+00 0.  1.
         23    2    1    2    0    0  0.36911426703E+03  0.17910568385E+03 -0.28781016220E+01  0.42082271888E+03  0.93591074084E+02 0.  0.
         11    1    3    3    0    0  0.59064840529E+02 -0.57827119746E+01  0.65588979694E+01  0.59708578002E+02  0.00000000000E+00 0.  1.
        -11    1    3    3    0    0  0.31004942650E+03  0.18488839582E+03 -0.94369995914E+01  0.36111414088E+03  0.00000000000E+00 0. -1.
         22    1    1    2    0    0 -0.36911426703E+03 -0.17910568385E+03 -0.35176081895E+03  0.54042563028E+03  0.00000000000E+00 0.  1.
<mgrwt>
<rscale>  0 0.89343697E+03</rscale>
<asrwt>0</asrwt>
<pdfrwt beam="1">  1        1 0.10122210E+00 0.89343697E+03</pdfrwt>
<pdfrwt beam="2">  1       -1 0.46662264E-01 0.89343697E+03</pdfrwt>
<totfact> 0.13788746E+02</totfact>
</mgrwt>
</event>
<event>
 6    1  0.1719556E-004  0.2123644E+04  0.7818608E-02  0.8550899E-01
         -2   -1    0    0    0  501 -0.00000000000E+00  0.00000000000E+00  0.53333348356E+03  0.53333348356E+03  0.00000000000E+00 0. -1.
          2   -1    0    0  501    0  0.00000000000E+00 -0.00000000000E+00 -0.21139972151E+04  0.21139972151E+04  0.00000000000E+00 0.  1.
         23    2    1    2    0    0 -0.56971111015E+03  0.55748134817E+03 -0.16626561524E+04  0.18460324023E+04  0.89743782874E+02 0.  0.
         11    1    3    3    0    0 -0.41012969806E+03  0.35928112439E+03 -0.10649206972E+04  0.11963884766E+04  0.00000000000E+00 0.  1.
        -11    1    3    3    0    0 -0.15958141209E+03  0.19820022379E+03 -0.59773545521E+03  0.64964392571E+03  0.00000000000E+00 0. -1.
         22    1    1    2    0    0  0.56971111015E+03 -0.55748134817E+03  0.81992420921E+02  0.80129829631E+03  0.00000000000E+00 0. -1.
<mgrwt>
<rscale>  0 0.21236436E+04</rscale>
<asrwt>0</asrwt>
<pdfrwt beam="1">  1        2 0.32523034E+00 0.21236436E+04</pdfrwt>
<pdfrwt beam="2">  1       -2 0.82051306E-01 0.21236436E+04</pdfrwt>
<totfact> 0.69288341E+00</totfact>
</mgrwt>
</event>
<event>
 6    1  0.1719556E-004  0.1582735E+04  0.7818608E-02  0.8831225E-01
          2   -1    0    0  501    0  0.00000000000E+00  0.00000000000E+00  0.89219437819E+03  0.89219437819E+03  0.00000000000E+00 0.  1.
         -2   -1    0    0    0  501 -0.00000000000E+00 -0.00000000000E+00 -0.70193510750E+03  0.70193510750E+03  0.00000000000E+00 0. -1.
         23    2    1    2    0    0 -0.68712270831E+03 -0.37518970655E+03  0.19146001949E+03  0.81124611380E+03  0.92511544746E+02 0.  0.
         11    1    3    3    0    0 -0.27871419043E+03 -0.18068613973E+03  0.12057799291E+03  0.35336685386E+03  0.00000000000E+00 0.  1.
        -11    1    3    3    0    0 -0.40840851788E+03 -0.19450356683E+03  0.70882026586E+02  0.45787925994E+03  0.00000000000E+00 0. -1.
         22    1    1    2    0    0  0.68712270831E+03  0.37518970655E+03 -0.12007488101E+01  0.78288337189E+03  0.00000000000E+00 0. -1.
<mgrwt>
<rscale>  0 0.15827350E+04</rscale>
<asrwt>0</asrwt>
<pdfrwt beam="1">  1        2 0.13726067E+00 0.15827350E+04</pdfrwt>
<pdfrwt beam="2">  1       -2 0.10799002E+00 0.15827350E+04</pdfrwt>
<totfact> 0.19582290E+01</totfact>
</mgrwt>
</event>
<event>
 6    1  0.1719556E-004  0.3565251E+04  0.7818608E-02  0.8098498E-01
          2   -1    0    0  501    0  0.00000000000E+00  0.00000000000E+00  0.31321947047E+04  0.31321947047E+04  0.00000000000E+00 0.  1.
         -2   -1    0    0    0  501 -0.00000000000E+00 -0.00000000000E+00 -0.10145456020E+04  0.10145456020E+04  0.00000000000E+00 0. -1.
         23    2    1    2    0    0  0.59188221365E+03 -0.80164527610E+03  0.27772935261E+04  0.29517129141E+04  0.79310108425E+02 0.  0.
         13    1    3    3    0    0  0.33645743325E+03 -0.45409448273E+03  0.16899982702E+04  0.17819931417E+04  0.00000000000E+00 0. -1.
        -13    1    3    3    0    0  0.25542478040E+03 -0.34755079338E+03  0.10872952559E+04  0.11697197724E+04  0.00000000000E+00 0.  1.
         22    1    1    2    0    0 -0.59188221365E+03  0.80164527610E+03 -0.65964442345E+03  0.11950273925E+04  0.00000000000E+00 0. -1.
<mgrwt>
<rscale>  0 0.35652514E+04</rscale>
<asrwt>0</asrwt>
<pdfrwt beam="1">  1        2 0.48187610E+00 0.35652514E+04</pdfrwt>
<pdfrwt beam="2">  1       -2 0.15608394E+00 0.35652514E+04</pdfrwt>
<totfact> 0.31568663E-01</totfact>
</mgrwt>
</event>
<event>
 6    1  0.1719556E-004  0.2968107E+04  0.7818608E-02  0.8252897E-01
         -2   -1    0    0    0  501 -0.00000000000E+00  0.00000000000E+00  0.65240463366E+03  0.65240463366E+03  0.00000000000E+00 0. -1.
          2   -1    0    0  501    0  0.00000000000E+00 -0.00000000000E+00 -0.33758420610E+04  0.33758420610E+04  0.00000000000E+00 0.  1.
         23    2    1    2    0    0  0.57433682985E+03 -0.13283573993E+04 -0.18003994108E+04  0.23117399646E+04  0.91145218889E+02 0.  0.
         11    1    3    3    0    0  0.41064895179E+03 -0.90254834785E+03 -0.11714950602E+04  0.15348051205E+04  0.00000000000E+00 0. -1.
        -11    1    3    3    0    0  0.16368787806E+03 -0.42580905148E+03 -0.62890435063E+03  0.77693484411E+03  0.00000000000E+00 0.  1.
         22    1    1    2    0    0 -0.57433682985E+03  0.13283573993E+04 -0.92303801653E+03  0.17165067301E+04  0.00000000000E+00 0. -1.
<mgrwt>
<rscale>  0 0.29681071E+04</rscale>
<asrwt>0</asrwt>
<pdfrwt beam="1">  1        2 0.51936032E+00 0.29681071E+04</pdfrwt>
<pdfrwt beam="2">  1       -2 0.10036994E+00 0.29681071E+04</pdfrwt>
<totfact> 0.69538926E-01</totfact>
</mgrwt>
</event>
<event>
 6    1  0.1719556E-004  0.7752248E+03  0.7818608E-02  0.9596587E-01
         -1   -1    0    0    0  501 -0.00000000000E+00  0.00000000000E+00  0.16672972962E+03  0.16672972962E+03  0.00000000000E+00 0. -1.
          1   -1    0    0  501    0  0.00000000000E+00 -0.00000000000E+00 -0.90111920022E+03  0.90111920022E+03  0.00000000000E+00 0.  1.
         23    2    1    2    0    0  0.29108718205E+03  0.24629139116E+03 -0.40821626752E+03  0.56607193224E+03  0.91682683655E+02 0.  0.
         11    1    3    3    0    0  0.18892036634E+03  0.18948021429E+03 -0.33251325406E+03  0.42680056297E+03  0.00000000000E+00 0.  1.
        -11    1    3    3    0    0  0.10216681571E+03  0.56811176865E+02 -0.75703013461E+02  0.13927136926E+03  0.00000000000E+00 0. -1.
         22    1    1    2    0    0 -0.29108718205E+03 -0.24629139116E+03 -0.32617320308E+03  0.50177699760E+03  0.00000000000E+00 0. -1.
<mgrwt>
<rscale>  0 0.77522477E+03</rscale>
<asrwt>0</asrwt>
<pdfrwt beam="1">  1        1 0.13863372E+00 0.77522477E+03</pdfrwt>
<pdfrwt beam="2">  1       -1 0.25650727E-01 0.77522477E+03</pdfrwt>
<totfact> 0.24582633E+02</totfact>
</mgrwt>
</event>
<event>
 6    1  0.1719556E-004  0.4148120E+04  0.7818608E-02  0.7975315E-01
         -2   -1    0    0    0  501 -0.00000000000E+00  0.00000000000E+00  0.18502531823E+04  0.18502531823E+04  0.00000000000E+00 0. -1.
          2   -1    0    0  501    0  0.00000000000E+00 -0.00000000000E+00 -0.23249389438E+04  0.23249389438E+04  0.00000000000E+00 0.  1.
         23    2    1    2    0    0  0.20189165917E+04 -0.14021311994E+03 -0.68948545959E+03  0.21400452436E+04  0.93378383909E+02 0.  0.
         13    1    3    3    0    0  0.29733303914E+03  0.11550496127E+02 -0.10939337673E+03  0.31702880152E+03  0.00000000000E+00 0. -1.
        -13    1    3    3    0    0  0.17215835525E+04 -0.15176361607E+03 -0.58009208285E+03  0.18230164421E+04  0.00000000000E+00 0.  1.
         22    1    1    2    0    0 -0.20189165917E+04  0.14021311994E+03  0.21479969808E+03  0.20351468825E+04  0.00000000000E+00 0.  1.
<mgrwt>
<rscale>  0 0.41481204E+04</rscale>
<asrwt>0</asrwt>
<pdfrwt beam="1">  1        2 0.35768291E+00 0.41481204E+04</pdfrwt>
<pdfrwt beam="2">  1       -2 0.28465434E+00 0.41481204E+04</pdfrwt>
<totfact> 0.13493676E-01</totfact>
</mgrwt>
</event>
<event>
 6    1  0.1719556E-004  0.3689092E+04  0.7818608E-02  0.8070384E-01
         -2   -1    0    0    0  501 -0.00000000000E+00  0.00000000000E+00  0.18584707258E+04  0.18584707258E+04  0.00000000000E+00 0. -1.
          2   -1    0    0  501    0  0.00000000000E+00 -0.00000000000E+00 -0.18307254062E+04  0.18307254062E+04  0.00000000000E+00 0.  1.
         23    2    1    2    0    0 -0.75241218126E+03  0.12789642903E+03 -0.16640914700E+04  0.18331806930E+04  0.94177734982E+02 0.  0.
         11    1    3    3    0    0 -0.57094185655E+03  0.12822190517E+03 -0.12064230815E+04  0.13408475350E+04  0.00000000000E+00 0.  1.
        -11    1    3    3    0    0 -0.18147032471E+03 -0.32547614384E+00 -0.45766838850E+03  0.49233315805E+03  0.00000000000E+00 0. -1.
         22    1    1    2    0    0  0.75241218126E+03 -0.12789642903E+03  0.16918367896E+04  0.18560154390E+04  0.00000000000E+00 0. -1.
<mgrwt>
<rscale>  0 0.36890918E+04</rscale>
<asrwt>0</asrwt>
<pdfrwt beam="1">  1        2 0.28165006E+00 0.36890918E+04</pdfrwt>
<pdfrwt beam="2">  1       -2 0.28591857E+00 0.36890918E+04</pdfrwt>
<totfact> 0.26013681E-01</totfact>
</mgrwt>
</event>
<event>
 6    1  0.1719556E-004  0.9812829E+03  0.7818608E-02  0.9329315E-01
         -2   -1    0    0    0  501 -0.00000000000E+00  0.00000000000E+00  0.33816367534E+03  0.33816367534E+03  0.00000000000E+00 0. -1.
          2   -1    0    0  501    0  0.00000000000E+00 -0.00000000000E+00 -0.71187137681E+03  0.71187137681E+03  0.00000000000E+00 0.  1.
         23    2    1    2    0    0 -0.26782030208E+03  0.39088832896E+03 -0.30610041499E+03  0.57139933983E+03  0.90985392145E+02 0.  0.
         11    1    3    3    0    0 -0.79589218883E+02  0.52716250205E+02 -0.60692048364E+02  0.11312370014E+03  0.00000000000E+00 0. -1.
        -11    1    3    3    0    0 -0.18823108320E+03  0.33817207875E+03 -0.24540836663E+03  0.45827563970E+03  0.00000000000E+00 0.  1.
         22    1    1    2    0    0  0.26782030208E+03 -0.39088832896E+03 -0.67607286482E+02  0.47863571232E+03  0.00000000000E+00 0. -1.
<mgrwt>
<rscale>  0 0.98128292E+03</rscale>
<asrwt>0</asrwt>
<pdfrwt beam="1">  1        2 0.10951867E+00 0.98128292E+03</pdfrwt>
<pdfrwt beam="2">  1       -2 0.52025182E-01 0.98128292E+03</pdfrwt>
<totfact> 0.13983665E+02</totfact>
</mgrwt>
</event>
<event>
 6    1  0.1719556E-004  0.1166155E+04  0.7818608E-02  0.9143008E-01
          1   -1    0    0  501    0  0.00000000000E+00  0.00000000000E+00  0.90744769034E+03  0.90744769034E+03  0.00000000000E+00 0. -1.
         -1   -1    0    0    0  501 -0.00000000000E+00 -0.00000000000E+00 -0.37465473489E+03  0.37465473489E+03  0.00000000000E+00 0.  1.
         23    2    1    2    0    0 -0.18630787439E+03  0.54191959412E+03  0.19043279052E+03  0.61457118770E+03  0.11421745270E+03 0.  0.
         11    1    3    3    0    0 -0.95317228201E+02  0.40394593440E+03  0.16811736787E+03  0.44779587011E+03  0.00000000000E+00 0. -1.
        -11    1    3    3    0    0 -0.90990646185E+02  0.13797365971E+03  0.22315422655E+02  0.16677531759E+03  0.00000000000E+00 0.  1.
         22    1    1    2    0    0  0.18630787439E+03 -0.54191959412E+03  0.34236016493E+03  0.66753123753E+03  0.00000000000E+00 0. -1.
<mgrwt>
<rscale>  0 0.11661553E+04</rscale>
<asrwt>0</asrwt>
<pdfrwt beam="1">  1        1 0.13960734E+00 0.11661553E+04</pdfrwt>
<pdfrwt beam="2">  1       -1 0.57639190E-01 0.11661553E+04</pdfrwt>
<totfact> 0.54266739E+01</totfact>
</mgrwt>
</event>
<event>
 6    1  0.1719556E-004  0.2246537E+04  0.7818608E-02  0.8499304E-01
         -3   -1    0    0    0  501 -0.00000000000E+00  0.00000000000E+00  0.56285762867E+03  0.56285762867E+03  0.00000000000E+00 0.  1.
          3   -1    0    0  501    0  0.00000000000E+00 -0.00000000000E+00 -0.22416544330E+04  0.22416544330E+04  0.00000000000E+00 0. -1.
         23    2    1    2    0    0 -0.65345296277E+03  0.37427183456E+03  0.19675191296E+03  0.78343235724E+03  0.89301525216E+02 0.  0.
         11    1    3    3    0    0 -0.37160336965E+03  0.26315598356E+03  0.11567649285E+03  0.46980973491E+03  0.00000000000E+00 0. -1.
        -11    1    3    3    0    0 -0.28184959312E+03  0.11111585100E+03  0.81075420115E+02  0.31362262233E+03  0.00000000000E+00 0.  1.
         22    1    1    2    0    0  0.65345296277E+03 -0.37427183456E+03 -0.18755487173E+04  0.20210797044E+04  0.00000000000E+00 0. -1.
<mgrwt>
<rscale>  0 0.22465372E+04</rscale>
<asrwt>0</asrwt>
<pdfrwt beam="1">  1        3 0.34486992E+00 0.22465372E+04</pdfrwt>
<pdfrwt beam="2">  1       -3 0.86593481E-01 0.22465372E+04</pdfrwt>
<totfact> 0.63653070E-02</totfact>
</mgrwt>
</event>
<event>
 6    1  0.1719556E-004  0.7653257E+03  0.7818608E-02  0.9611609E-01
         -1   -1    0    0    0  501 -0.00000000000E+00  0.00000000000E+00  0.67601826578E+03  0.67601826578E+03  0.00000000000E+00 0. -1.
          1   -1    0    0  501    0  0.00000000000E+00 -0.00000000000E+00 -0.21660785235E+03  0.21660785235E+03  0.00000000000E+00 0.  1.
         23    2    1    2    0    0  0.10380821281E+03 -0.35877235289E+03  0.16744980728E+03  0.41856415828E+03  0.87537251467E+02 0.  0.
         11    1    3    3    0    0  0.55189827128E+02 -0.62520373389E+02  0.36467107285E+02  0.91019580425E+02  0.00000000000E+00 0. -1.
        -11    1    3    3    0    0  0.48618385683E+02 -0.29625197950E+03  0.13098269999E+03  0.32754457785E+03  0.00000000000E+00 0.  1.
         22    1    1    2    0    0 -0.10380821281E+03  0.35877235289E+03  0.29196060615E+03  0.47406195986E+03  0.00000000000E+00 0.  1.
<mgrwt>
<rscale>  0 0.76532572E+03</rscale>
<asrwt>0</asrwt>
<pdfrwt beam="1">  1        1 0.33324285E-01 0.76532572E+03</pdfrwt>
<pdfrwt beam="2">  1       -1 0.10400281E+00 0.76532572E+03</pdfrwt>
<totfact> 0.11833462E+02</totfact>
</mgrwt>
</event>
<event>
 6    1  0.1719556E-004  0.1287313E+04  0.7818608E-02  0.9039687E-01
          1   -1    0    0  501    0  0.00000000000E+00  0.00000000000E+00  0.60532586566E+03  0.60532586566E+03  0.00000000000E+00 0.  1.
         -1   -1    0    0    0  501 -0.00000000000E+00 -0.00000000000E+00 -0.68441439795E+03  0.68441439795E+03  0.00000000000E+00 0. -1.
         23    2    1    2    0    0 -0.32216914121E+03  0.18806077803E+03 -0.56113205072E+03  0.68021112941E+03  0.93049397833E+02 0.  0.
         13    1    3    3    0    0 -0.20495911440E+03  0.13310012984E+03 -0.28632412216E+03  0.37643775855E+03  0.00000000000E+00 0.  1.
        -13    1    3    3    0    0 -0.11721002681E+03  0.54960648197E+02 -0.27480792857E+03  0.30377337085E+03  0.00000000000E+00 0. -1.
         22    1    1    2    0    0  0.32216914121E+03 -0.18806077803E+03  0.48204351843E+03  0.60952913420E+03  0.00000000000E+00 0.  1.
<mgrwt>
<rscale>  0 0.12873131E+04</rscale>
<asrwt>0</asrwt>
<pdfrwt beam="1">  1        1 0.93127056E-01 0.12873131E+04</pdfrwt>
<pdfrwt beam="2">  1       -1 0.10529452E+00 0.12873131E+04</pdfrwt>
<totfact> 0.28139916E+01</totfact>
</mgrwt>
</event>
<event>
 6    1  0.1719556E-004  0.1718287E+04  0.7818608E-02  0.8751003E-01
          3   -1    0    0  501    0  0.00000000000E+00  0.00000000000E+00  0.12140243167E+04  0.12140243167E+04  0.00000000000E+00 0.  1.
         -3   -1    0    0    0  501 -0.00000000000E+00 -0.00000000000E+00 -0.60800089557E+03  0.60800089557E+03  0.00000000000E+00 0. -1.
         23    2    1    2    0    0  0.80239100729E+03 -0.36192909239E+02 -0.12327372239E+02  0.80836897916E+03  0.90372490906E+02 0.  0.
         13    1    3    3    0    0  0.74126695801E+03 -0.54777015573E+02 -0.22757418222E+02  0.74363641960E+03  0.00000000000E+00 0. -1.
        -13    1    3    3    0    0  0.61124049276E+02  0.18584106335E+02  0.10430045983E+02  0.64732559562E+02  0.00000000000E+00 0.  1.
         22    1    1    2    0    0 -0.80239100729E+03  0.36192909239E+02  0.61835079337E+03  0.10136562331E+04  0.00000000000E+00 0.  1.
<mgrwt>
<rscale>  0 0.17182874E+04</rscale>
<asrwt>0</asrwt>
<pdfrwt beam="1">  1        3 0.18677297E+00 0.17182874E+04</pdfrwt>
<pdfrwt beam="2">  1       -3 0.93538600E-01 0.17182874E+04</pdfrwt>
<totfact> 0.45447632E-01</totfact>
</mgrwt>
</event>
<event>
 6    1  0.1719556E-004  0.4566892E+04  0.7818608E-02  0.7899030E-01
         -2   -1    0    0    0  501 -0.00000000000E+00  0.00000000000E+00  0.19753175453E+04  0.19753175453E+04  0.00000000000E+00 0. -1.
          2   -1    0    0  501    0  0.00000000000E+00 -0.00000000000E+00 -0.26396392021E+04  0.26396392021E+04  0.00000000000E+00 0.  1.
         23    2    1    2    0    0  0.21040604739E+04 -0.63731245132E+03  0.28801878859E+03  0.22190873933E+04  0.90312779012E+02 0.  0.
         13    1    3    3    0    0  0.67783779319E+03 -0.24844432502E+03  0.84734678829E+02  0.72688969060E+03  0.00000000000E+00 0. -1.
        -13    1    3    3    0    0  0.14262226807E+04 -0.38886812630E+03  0.20328410976E+03  0.14921977027E+04  0.00000000000E+00 0.  1.
         22    1    1    2    0    0 -0.21040604739E+04  0.63731245132E+03 -0.95234044539E+03  0.23958693542E+04  0.00000000000E+00 0.  1.
<mgrwt>
<rscale>  0 0.45668920E+04</rscale>
<asrwt>0</asrwt>
<pdfrwt beam="1">  1        2 0.40609834E+00 0.45668920E+04</pdfrwt>
<pdfrwt beam="2">  1       -2 0.30389501E+00 0.45668920E+04</pdfrwt>
<totfact> 0.65379111E-02</totfact>
</mgrwt>
</event>
<event>
 6    1  0.1719556E-004  0.8891712E+03  0.7818608E-02  0.9439220E-01
          1   -1    0    0  501    0  0.00000000000E+00  0.00000000000E+00  0.48246410891E+03  0.48246410891E+03  0.00000000000E+00 0.  1.
         -1   -1    0    0    0  501 -0.00000000000E+00 -0.00000000000E+00 -0.40968091472E+03  0.40968091472E+03  0.00000000000E+00 0. -1.
         23    2    1    2    0    0  0.31440176525E+02  0.43867956427E+03  0.25986725545E+02  0.44985761223E+03  0.90930284121E+02 0.  0.
         11    1    3    3    0    0 -0.27775219396E+02  0.82727274652E+02  0.16973806694E+02  0.88900927428E+02  0.00000000000E+00 0.  1.
        -11    1    3    3    0    0  0.59215395922E+02  0.35595228961E+03  0.90129188511E+01  0.36095668480E+03  0.00000000000E+00 0. -1.
         22    1    1    2    0    0 -0.31440176525E+02 -0.43867956427E+03  0.46796468639E+02  0.44228741140E+03  0.00000000000E+00 0. -1.
<mgrwt>
<rscale>  0 0.88917116E+03</rscale>
<asrwt>0</asrwt>
<pdfrwt beam="1">  1        1 0.74225248E-01 0.88917116E+03</pdfrwt>
<pdfrwt beam="2">  1       -1 0.63027833E-01 0.88917116E+03</pdfrwt>
<totfact> 0.11990735E+02</totfact>
</mgrwt>
</event>
<event>
 6    1  0.1719556E-004  0.6981459E+03  0.7818608E-02  0.9720408E-01
         -1   -1    0    0    0  501 -0.00000000000E+00  0.00000000000E+00  0.14648375646E+04  0.14648375646E+04  0.00000000000E+00 0. -1.
          1   -1    0    0  501    0  0.00000000000E+00 -0.00000000000E+00 -0.83184606122E+02  0.83184606122E+02  0.00000000000E+00 0.  1.
         23    2    1    2    0    0 -0.16820803632E+03 -0.27006680705E+03  0.42162319394E+03  0.53664332353E+03  0.94815163708E+02 0.  0.
         11    1    3    3    0    0 -0.21633532772E+02  0.31981855173E+01  0.25963131585E+02  0.33945873571E+02  0.00000000000E+00 0. -1.
        -11    1    3    3    0    0 -0.14657450355E+03 -0.27326499256E+03  0.39566006236E+03  0.50269744996E+03  0.00000000000E+00 0.  1.
         22    1    1    2    0    0  0.16820803632E+03  0.27006680705E+03  0.96002976451E+03  0.10113788472E+04  0.00000000000E+00 0.  1.
<mgrwt>
<rscale>  0 0.69814593E+03</rscale>
<asrwt>0</asrwt>
<pdfrwt beam="1">  1        1 0.12797633E-01 0.69814593E+03</pdfrwt>
<pdfrwt beam="2">  1       -1 0.22535961E+00 0.69814593E+03</pdfrwt>
<totfact> 0.49972708E+01</totfact>
</mgrwt>
</event>
<event>
 6    1  0.1719556E-004  0.1371905E+04  0.7818608E-02  0.8974410E-01
          1   -1    0    0  501    0  0.00000000000E+00  0.00000000000E+00  0.11309065988E+04  0.11309065988E+04  0.00000000000E+00 0.  1.
         -1   -1    0    0    0  501 -0.00000000000E+00 -0.00000000000E+00 -0.41606514474E+03  0.41606514474E+03  0.00000000000E+00 0. -1.
         23    2    1    2    0    0  0.15307475349E+03 -0.28944148768E+03  0.10348612868E+04  0.10891279401E+04  0.89741472574E+02 0.  0.
         11    1    3    3    0    0  0.67793553618E+02 -0.19968663890E+03  0.55994992740E+03  0.59834324669E+03  0.00000000000E+00 0.  1.
        -11    1    3    3    0    0  0.85281199871E+02 -0.89754848784E+02  0.47491135944E+03  0.49078469338E+03  0.00000000000E+00 0. -1.
         22    1    1    2    0    0 -0.15307475349E+03  0.28944148768E+03 -0.32001983282E+03  0.45784380344E+03  0.00000000000E+00 0. -1.
<mgrwt>
<rscale>  0 0.13719050E+04</rscale>
<asrwt>0</asrwt>
<pdfrwt beam="1">  1        1 0.17398563E+00 0.13719050E+04</pdfrwt>
<pdfrwt beam="2">  1       -1 0.64010023E-01 0.13719050E+04</pdfrwt>
<totfact> 0.29071486E+01</totfact>
</mgrwt>
</event>
<event>
 6    1  0.1719556E-004  0.2514304E+04  0.7818608E-02  0.8397907E-01
         -2   -1    0    0    0  501 -0.00000000000E+00  0.00000000000E+00  0.10092416819E+04  0.10092416819E+04  0.00000000000E+00 0.  1.
          2   -1    0    0  501    0  0.00000000000E+00 -0.00000000000E+00 -0.15659587142E+04  0.15659587142E+04  0.00000000000E+00 0. -1.
         23    2    1    2    0    0  0.18700295525E+03  0.27518342997E+03 -0.15188774971E+04  0.15571391083E+04  0.83650021349E+02 0.  0.
         13    1    3    3    0    0  0.32443607443E+02  0.11188182527E+03 -0.59481196031E+03  0.60611170474E+03  0.00000000000E+00 0.  1.
        -13    1    3    3    0    0  0.15455934781E+03  0.16330160470E+03 -0.92406553680E+03  0.95102740360E+03  0.00000000000E+00 0. -1.
         22    1    1    2    0    0 -0.18700295525E+03 -0.27518342997E+03  0.96216046482E+03  0.10180612877E+04  0.00000000000E+00 0.  1.
<mgrwt>
<rscale>  0 0.25143037E+04</rscale>
<asrwt>0</asrwt>
<pdfrwt beam="1">  1        2 0.24091672E+00 0.25143037E+04</pdfrwt>
<pdfrwt beam="2">  1       -2 0.15526795E+00 0.25143037E+04</pdfrwt>
<totfact> 0.28370556E+00</totfact>
</mgrwt>
</event>
<event>
 6    1  0.1719556E-004  0.1082919E+04  0.7818608E-02  0.9222001E-01
         -2   -1    0    0    0  501 -0.00000000000E+00  0.00000000000E+00  0.47634337125E+03  0.47634337125E+03  0.00000000000E+00 0. -1.
          2   -1    0    0  501    0  0.00000000000E+00 -0.00000000000E+00 -0.61547756104E+03  0.61547756104E+03  0.00000000000E+00 0.  1.
         23    2    1    2    0    0  0.50165980442E+03 -0.93849934274E+02  0.98419569884E+02  0.52888029753E+03  0.97762916500E+02 0.  0.
         11    1    3    3    0    0  0.13161601154E+03 -0.22352537061E+02 -0.17325080905E+02  0.13462009075E+03  0.00000000000E+00 0.  1.
        -11    1    3    3    0    0  0.37004379288E+03 -0.71497397213E+02  0.11574465079E+03  0.39426020677E+03  0.00000000000E+00 0. -1.
         22    1    1    2    0    0 -0.50165980442E+03  0.93849934274E+02 -0.23755375968E+03  0.56294063477E+03  0.00000000000E+00 0. -1.
<mgrwt>
<rscale>  0 0.10829195E+04</rscale>
<asrwt>0</asrwt>
<pdfrwt beam="1">  1        2 0.94688855E-01 0.10829195E+04</pdfrwt>
<pdfrwt beam="2">  1       -2 0.73283596E-01 0.10829195E+04</pdfrwt>
<totfact> 0.80375266E+01</totfact>
</mgrwt>
</event>
<event>
 6    1  0.1719556E-004  0.2532316E+04  0.7818608E-02  0.8391562E-01
         -1   -1    0    0    0  501 -0.00000000000E+00  0.00000000000E+00  0.10128817378E+04  0.10128817378E+04  0.00000000000E+00 0. -1.
          1   -1    0    0  501    0  0.00000000000E+00 -0.00000000000E+00 -0.15827671967E+04  0.15827671967E+04  0.00000000000E+00 0.  1.
         23    2    1    2    0    0  0.84815244306E+03 -0.81169262781E+03 -0.76684737836E+03  0.14052702189E+04  0.92314667477E+02 0.  0.
         13    1    3    3    0    0  0.30052763998E+03 -0.24833236684E+03 -0.21548617636E+03  0.44544373272E+03  0.00000000000E+00 0.  1.
        -13    1    3    3    0    0  0.54762480308E+03 -0.56336026097E+03 -0.55136120200E+03  0.95982648622E+03  0.00000000000E+00 0. -1.
         22    1    1    2    0    0 -0.84815244306E+03  0.81169262781E+03  0.19696191947E+03  0.11903787155E+04  0.00000000000E+00 0. -1.
<mgrwt>
<rscale>  0 0.25323159E+04</rscale>
<asrwt>0</asrwt>
<pdfrwt beam="1">  1        1 0.24350265E+00 0.25323159E+04</pdfrwt>
<pdfrwt beam="2">  1       -1 0.15582796E+00 0.25323159E+04</pdfrwt>
<totfact> 0.15977099E+00</totfact>
</mgrwt>
</event>
<event>
 6    1  0.1719556E-004  0.1899294E+04  0.7818608E-02  0.8655208E-01
          2   -1    0    0  501    0  0.00000000000E+00  0.00000000000E+00  0.72987417659E+03  0.72987417659E+03  0.00000000000E+00 0.  1.
         -2   -1    0    0    0  501 -0.00000000000E+00 -0.00000000000E+00 -0.12355953728E+04  0.12355953728E+04  0.00000000000E+00 0. -1.
         23    2    1    2    0    0  0.81325434793E+03  0.51247430086E+02  0.24688181352E+03  0.85622646341E+03  0.90355925466E+02 0.  0.
         11    1    3    3    0    0  0.70400771666E+03  0.14309475171E+02  0.22119771828E+03  0.73807862505E+03  0.00000000000E+00 0. -1.
        -11    1    3    3    0    0  0.10924663128E+03  0.36937954915E+02  0.25684095244E+02  0.11814783835E+03  0.00000000000E+00 0.  1.
         22    1    1    2    0    0 -0.81325434793E+03 -0.51247430086E+02 -0.75260300970E+03  0.11092430860E+04  0.00000000000E+00 0. -1.
<mgrwt>
<rscale>  0 0.18992937E+04</rscale>
<asrwt>0</asrwt>
<pdfrwt beam="1">  1        2 0.11228834E+00 0.18992937E+04</pdfrwt>
<pdfrwt beam="2">  1       -2 0.19009159E+00 0.18992937E+04</pdfrwt>
<totfact> 0.56273560E+00</totfact>
</mgrwt>
</event>
<event>
 6    1  0.1719556E-004  0.1820191E+04  0.7818608E-02  0.8695635E-01
         -2   -1    0    0    0  501 -0.00000000000E+00  0.00000000000E+00  0.78331276111E+03  0.78331276111E+03  0.00000000000E+00 0. -1.
          2   -1    0    0  501    0  0.00000000000E+00 -0.00000000000E+00 -0.10573988843E+04  0.10573988843E+04  0.00000000000E+00 0.  1.
         23    2    1    2    0    0  0.81725931102E+03  0.32269454300E+03  0.93883898907E+02  0.88811178885E+03  0.88790841260E+02 0.  0.
         11    1    3    3    0    0  0.42044001624E+03  0.11849713521E+03  0.50668702044E+02  0.43974844590E+03  0.00000000000E+00 0. -1.
        -11    1    3    3    0    0  0.39681929478E+03  0.20419740779E+03  0.43215196863E+02  0.44836334295E+03  0.00000000000E+00 0.  1.
         22    1    1    2    0    0 -0.81725931102E+03 -0.32269454300E+03 -0.36797002205E+03  0.95259985653E+03  0.00000000000E+00 0.  1.
<mgrwt>
<rscale>  0 0.18201912E+04</rscale>
<asrwt>0</asrwt>
<pdfrwt beam="1">  1        2 0.16267675E+00 0.18201912E+04</pdfrwt>
<pdfrwt beam="2">  1       -2 0.12050966E+00 0.18201912E+04</pdfrwt>
<totfact> 0.11470391E+01</totfact>
</mgrwt>
</event>
<event>
 6    1  0.1719556E-004  0.9031539E+03  0.7818608E-02  0.9421647E-01
         -2   -1    0    0    0  501 -0.00000000000E+00  0.00000000000E+00  0.13289774062E+03  0.13289774062E+03  0.00000000000E+00 0. -1.
          2   -1    0    0  501    0  0.00000000000E+00 -0.00000000000E+00 -0.15344259350E+04  0.15344259350E+04  0.00000000000E+00 0.  1.
         23    2    1    2    0    0 -0.21086161963E+03 -0.17616856627E+03 -0.13587948775E+04  0.13892515218E+04  0.90544381957E+02 0.  0.
         11    1    3    3    0    0 -0.51700808098E+02 -0.23298155824E+02 -0.14765364331E+03  0.15816882122E+03  0.00000000000E+00 0. -1.
        -11    1    3    3    0    0 -0.15916081154E+03 -0.15287041044E+03 -0.12111412342E+04  0.12310827005E+04  0.00000000000E+00 0.  1.
         22    1    1    2    0    0  0.21086161963E+03  0.17616856627E+03 -0.42733316817E+02  0.27807215384E+03  0.00000000000E+00 0. -1.
<mgrwt>
<rscale>  0 0.90315390E+03</rscale>
<asrwt>0</asrwt>
<pdfrwt beam="1">  1        2 0.23606553E+00 0.90315390E+03</pdfrwt>
<pdfrwt beam="2">  1       -2 0.20445806E-01 0.90315390E+03</pdfrwt>
<totfact> 0.25026859E+02</totfact>
</mgrwt>
</event>
<event>
 6    1  0.1719556E-004  0.2159939E+04  0.7818608E-02  0.8535290E-01
          2   -1    0    0  501    0  0.00000000000E+00  0.00000000000E+00  0.16692471294E+04  0.16692471294E+04  0.00000000000E+00 0.  1.
         -2   -1    0    0    0  501 -0.00000000000E+00 -0.00000000000E+00 -0.69871841602E+03  0.69871841602E+03  0.00000000000E+00 0. -1.
         23    2    1    2    0    0  0.94272026292E+03  0.33469694143E+03  0.92642278025E+03  0.13666220129E+04  0.93021619611E+02 0.  0.
         13    1    3    3    0    0  0.64740426360E+03  0.27503582141E+03  0.64764257494E+03  0.95614741983E+03  0.00000000000E+00 0. -1.
        -13    1    3    3    0    0  0.29531599931E+03  0.59661120025E+02  0.27878020531E+03  0.41047459308E+03  0.00000000000E+00 0.  1.
         22    1    1    2    0    0 -0.94272026292E+03 -0.33469694143E+03  0.44105933120E+02  0.10013435325E+04  0.00000000000E+00 0. -1.
<mgrwt>
<rscale>  0 0.21599386E+04</rscale>
<asrwt>0</asrwt>
<pdfrwt beam="1">  1        2 0.25680725E+00 0.21599386E+04</pdfrwt>
<pdfrwt beam="2">  1       -2 0.10749514E+00 0.21599386E+04</pdfrwt>
<totfact> 0.64993014E+00</totfact>
</mgrwt>
</event>
<event>
 6    1  0.1719556E-004  0.2704502E+04  0.7818608E-02  0.8333546E-01
          2   -1    0    0  501    0  0.00000000000E+00  0.00000000000E+00  0.10793271833E+04  0.10793271833E+04  0.00000000000E+00 0.  1.
         -2   -1    0    0    0  501 -0.00000000000E+00 -0.00000000000E+00 -0.16941870841E+04  0.16941870841E+04  0.00000000000E+00 0. -1.
         23    2    1    2    0    0  0.71961434235E+03  0.10997125111E+04  0.11367131991E+02  0.13177077194E+04  0.94931623457E+02 0.  0.
         11    1    3    3    0    0  0.46988815529E+03  0.79239016779E+03 -0.74751510014E+01  0.92126702664E+03  0.00000000000E+00 0. -1.
        -11    1    3    3    0    0  0.24972618706E+03  0.30732234334E+03  0.18842282992E+02  0.39644069273E+03  0.00000000000E+00 0.  1.
         22    1    1    2    0    0 -0.71961434235E+03 -0.10997125111E+04 -0.62622703278E+03  0.14558065481E+04  0.00000000000E+00 0. -1.
<mgrwt>
<rscale>  0 0.27045016E+04</rscale>
<asrwt>0</asrwt>
<pdfrwt beam="1">  1        2 0.16605034E+00 0.27045016E+04</pdfrwt>
<pdfrwt beam="2">  1       -2 0.26064417E+00 0.27045016E+04</pdfrwt>
<totfact> 0.10879459E+00</totfact>
</mgrwt>
</event>
<event>
 6    1  0.1719556E-004  0.2402335E+04  0.7818608E-02  0.8438630E-01
         -2   -1    0    0    0  501 -0.00000000000E+00  0.00000000000E+00  0.98374222719E+03  0.98374222719E+03  0.00000000000E+00 0. -1.
          2   -1    0    0  501    0  0.00000000000E+00 -0.00000000000E+00 -0.14666471796E+04  0.14666471796E+04  0.00000000000E+00 0.  1.
         23    2    1    2    0    0 -0.45521766672E+03 -0.11065111024E+04 -0.15606440086E+03  0.12100609462E+04  0.91112307071E+02 0.  0.
         13    1    3    3    0    0 -0.72563679052E+02 -0.26805517436E+03 -0.52387604926E+02  0.28260135379E+03  0.00000000000E+00 0. -1.
        -13    1    3    3    0    0 -0.38265398767E+03 -0.83845592807E+03 -0.10367679593E+03  0.92745959244E+03  0.00000000000E+00 0.  1.
         22    1    1    2    0    0  0.45521766672E+03  0.11065111024E+04 -0.32684055151E+03  0.12403284605E+04  0.00000000000E+00 0.  1.
<mgrwt>
<rscale>  0 0.24023345E+04</rscale>
<asrwt>0</asrwt>
<pdfrwt beam="1">  1        2 0.22563803E+00 0.24023345E+04</pdfrwt>
<pdfrwt beam="2">  1       -2 0.15134496E+00 0.24023345E+04</pdfrwt>
<totfact> 0.34882639E+00</totfact>
</mgrwt>
</event>
<event>
 6    1  0.1719556E-004  0.1591204E+04  0.7818608E-02  0.8825970E-01
          2   -1    0    0  501    0  0.00000000000E+00  0.00000000000E+00  0.37652389142E+03  0.37652389142E+03  0.00000000000E+00 0.  1.
         -2   -1    0    0    0  501 -0.00000000000E+00 -0.00000000000E+00 -0.16811217237E+04  0.16811217237E+04  0.00000000000E+00 0. -1.
         23    2    1    2    0    0 -0.36071564193E+03  0.17871677216E+03  0.22887256006E+03  0.47221605089E+03  0.92465620586E+02 0.  0.
         13    1    3    3    0    0 -0.47509258897E+02  0.63442494058E+02  0.41399224878E+02  0.89420218932E+02  0.00000000000E+00 0. -1.
        -13    1    3    3    0    0 -0.31320638303E+03  0.11527427810E+03  0.18747333518E+03  0.38279583196E+03  0.00000000000E+00 0.  1.
         22    1    1    2    0    0  0.36071564193E+03 -0.17871677216E+03 -0.15334703923E+04  0.15854295642E+04  0.00000000000E+00 0. -1.
<mgrwt>
<rscale>  0 0.15912039E+04</rscale>
<asrwt>0</asrwt>
<pdfrwt beam="1">  1        2 0.57926754E-01 0.15912039E+04</pdfrwt>
<pdfrwt beam="2">  1       -2 0.25863411E+00 0.15912039E+04</pdfrwt>
<totfact> 0.46495299E+00</totfact>
</mgrwt>
</event>
<event>
 6    1  0.3013109E-004  0.3043842E+04  0.7818608E-02  0.8231321E-01
          2   -1    0    0  501    0  0.00000000000E+00  0.00000000000E+00  0.16590100018E+04  0.16590100018E+04  0.00000000000E+00 0.  1.
         -2   -1    0    0    0  501 -0.00000000000E+00 -0.00000000000E+00 -0.13961596862E+04  0.13961596862E+04  0.00000000000E+00 0. -1.
         23    2    1    2    0    0  0.36963691330E+03  0.74323443364E+03  0.14102875033E+04  0.16389631456E+04  0.90887179941E+02 0.  0.
         11    1    3    3    0    0  0.28193178402E+03  0.49665095191E+03  0.91012659529E+03  0.10744664342E+04  0.00000000000E+00 0. -1.
        -11    1    3    3    0    0  0.87705129273E+02  0.24658348173E+03  0.50016090804E+03  0.56449671132E+03  0.00000000000E+00 0.  1.
         22    1    1    2    0    0 -0.36963691330E+03 -0.74323443364E+03 -0.11474371877E+04  0.14162065424E+04  0.00000000000E+00 0. -1.
<mgrwt>
<rscale>  0 0.30438416E+04</rscale>
<asrwt>0</asrwt>
<pdfrwt beam="1">  1        2 0.25523231E+00 0.30438416E+04</pdfrwt>
<pdfrwt beam="2">  1       -2 0.21479380E+00 0.30438416E+04</pdfrwt>
<totfact> 0.94057292E-01</totfact>
</mgrwt>
</event>
<event>
 6    1  0.1719556E-004  0.1842000E+04  0.7818608E-02  0.8684278E-01
          1   -1    0    0  501    0  0.00000000000E+00  0.00000000000E+00  0.98494731775E+03  0.98494731775E+03  0.00000000000E+00 0.  1.
         -1   -1    0    0    0  501 -0.00000000000E+00 -0.00000000000E+00 -0.86120429132E+03  0.86120429132E+03  0.00000000000E+00 0. -1.
         23    2    1    2    0    0 -0.68727465739E+03 -0.51078965815E+03  0.39667399874E+03  0.94740590243E+03  0.83517382084E+02 0.  0.
         11    1    3    3    0    0 -0.63288358678E+02 -0.80198315616E+02  0.50980281014E+02  0.11417607115E+03  0.00000000000E+00 0.  1.
        -11    1    3    3    0    0 -0.62398629872E+03 -0.43059134253E+03  0.34569371773E+03  0.83322983128E+03  0.00000000000E+00 0. -1.
         22    1    1    2    0    0  0.68727465739E+03  0.51078965815E+03 -0.27293097231E+03  0.89874570665E+03  0.00000000000E+00 0. -1.
<mgrwt>
<rscale>  0 0.18419998E+04</rscale>
<asrwt>0</asrwt>
<pdfrwt beam="1">  1        1 0.15153036E+00 0.18419998E+04</pdfrwt>
<pdfrwt beam="2">  1       -1 0.13249297E+00 0.18419998E+04</pdfrwt>
<totfact> 0.70659870E+00</totfact>
</mgrwt>
</event>
<event>
 6    1  0.1719556E-004  0.3247448E+04  0.7818608E-02  0.8176398E-01
         -2   -1    0    0    0  501 -0.00000000000E+00  0.00000000000E+00  0.96411422008E+03  0.96411422008E+03  0.00000000000E+00 0. -1.
          2   -1    0    0  501    0  0.00000000000E+00 -0.00000000000E+00 -0.27346129546E+04  0.27346129546E+04  0.00000000000E+00 0.  1.
         23    2    1    2    0    0  0.11532027174E+04  0.11303396691E+04 -0.10654779768E+04  0.19367400738E+04  0.90413049583E+02 0.  0.
         13    1    3    3    0    0  0.89135461005E+03  0.82472179439E+03 -0.82100064795E+03  0.14658516784E+04  0.00000000000E+00 0.  1.
        -13    1    3    3    0    0  0.26184810736E+03  0.30561787467E+03 -0.24447732884E+03  0.47088839545E+03  0.00000000000E+00 0. -1.
         22    1    1    2    0    0 -0.11532027174E+04 -0.11303396691E+04 -0.70502075778E+03  0.17619871009E+04  0.00000000000E+00 0. -1.
<mgrwt>
<rscale>  0 0.32474478E+04</rscale>
<asrwt>0</asrwt>
<pdfrwt beam="1">  1        2 0.42070969E+00 0.32474478E+04</pdfrwt>
<pdfrwt beam="2">  1       -2 0.14832526E+00 0.32474478E+04</pdfrwt>
<totfact> 0.65526369E-01</totfact>
</mgrwt>
</event>
<event>
 6    1  0.1719556E-004  0.1066230E+04  0.7818608E-02  0.9238746E-01
         -2   -1    0    0    0  501 -0.00000000000E+00  0.00000000000E+00  0.17870930074E+03  0.17870930074E+03  0.00000000000E+00 0. -1.
          2   -1    0    0  501    0  0.00000000000E+00 -0.00000000000E+00 -0.15903582215E+04  0.15903582215E+04  0.00000000000E+00 0.  1.
         23    2    1    2    0    0  0.16980392287E+03 -0.48532840365E+03 -0.50479431586E+03  0.72658859869E+03  0.93470095826E+02 0.  0.
         13    1    3    3    0    0  0.22229155844E+02 -0.10557261329E+03 -0.60190632598E+02  0.12354199407E+03  0.00000000000E+00 0.  1.
        -13    1    3    3    0    0  0.14757476703E+03 -0.37975579035E+03 -0.44460368327E+03  0.60304660462E+03  0.00000000000E+00 0. -1.
         22    1    1    2    0    0 -0.16980392287E+03  0.48532840365E+03 -0.90685460486E+03  0.10424789235E+04  0.00000000000E+00 0.  1.
<mgrwt>
<rscale>  0 0.10662304E+04</rscale>
<asrwt>0</asrwt>
<pdfrwt beam="1">  1        2 0.24467050E+00 0.10662304E+04</pdfrwt>
<pdfrwt beam="2">  1       -2 0.27493739E-01 0.10662304E+04</pdfrwt>
<totfact> 0.13535800E+02</totfact>
</mgrwt>
</event>
<event>
 6    1  0.1719556E-004  0.1374597E+04  0.7818608E-02  0.8972415E-01
         -2   -1    0    0    0  501 -0.00000000000E+00  0.00000000000E+00  0.12387920306E+03  0.12387920306E+03  0.00000000000E+00 0. -1.
          2   -1    0    0  501    0  0.00000000000E+00 -0.00000000000E+00 -0.38132219995E+04  0.38132219995E+04  0.00000000000E+00 0.  1.
         23    2    1    2    0    0  0.50175082569E+03  0.39712070267E+03 -0.11587666695E+04  0.13268762548E+04  0.91660556840E+02 0.  0.
         11    1    3    3    0    0  0.31203291999E+03  0.19032145748E+03 -0.63584472875E+03  0.73340665351E+03  0.00000000000E+00 0.  1.
        -11    1    3    3    0    0  0.18971790569E+03  0.20679924520E+03 -0.52292194071E+03  0.59346960127E+03  0.00000000000E+00 0. -1.
         22    1    1    2    0    0 -0.50175082569E+03 -0.39712070267E+03 -0.25305761270E+04  0.26102249478E+04  0.00000000000E+00 0.  1.
<mgrwt>
<rscale>  0 0.13745965E+04</rscale>
<asrwt>0</asrwt>
<pdfrwt beam="1">  1        2 0.58664948E+00 0.13745965E+04</pdfrwt>
<pdfrwt beam="2">  1       -2 0.19058341E-01 0.13745965E+04</pdfrwt>
<totfact> 0.11157677E+01</totfact>
</mgrwt>
</event>
<event>
 6    1  0.1719556E-004  0.2338036E+04  0.7818608E-02  0.8463073E-01
          1   -1    0    0  501    0  0.00000000000E+00  0.00000000000E+00  0.13473124858E+04  0.13473124858E+04  0.00000000000E+00 0.  1.
         -1   -1    0    0    0  501 -0.00000000000E+00 -0.00000000000E+00 -0.10143182306E+04  0.10143182306E+04  0.00000000000E+00 0. -1.
         23    2    1    2    0    0 -0.54021870214E+03  0.45737224907E+03 -0.77065282014E+03  0.10505004837E+04  0.92843290927E+02 0.  0.
         11    1    3    3    0    0 -0.42250041468E+03  0.34003902230E+03 -0.53228526210E+03  0.75990837431E+03  0.00000000000E+00 0.  1.
        -11    1    3    3    0    0 -0.11771828746E+03  0.11733322678E+03 -0.23836755805E+03  0.29059210939E+03  0.00000000000E+00 0. -1.
         22    1    1    2    0    0  0.54021870214E+03 -0.45737224907E+03  0.11036470753E+04  0.13111302328E+04  0.00000000000E+00 0.  1.
<mgrwt>
<rscale>  0 0.23380365E+04</rscale>
<asrwt>0</asrwt>
<pdfrwt beam="1">  1        1 0.20727884E+00 0.23380365E+04</pdfrwt>
<pdfrwt beam="2">  1       -1 0.15604896E+00 0.23380365E+04</pdfrwt>
<totfact> 0.23623516E+00</totfact>
</mgrwt>
</event>
<event>
 6    1  0.1719556E-004  0.1654676E+04  0.7818608E-02  0.8787645E-01
          1   -1    0    0  501    0  0.00000000000E+00  0.00000000000E+00  0.54026759904E+03  0.54026759904E+03  0.00000000000E+00 0.  1.
         -1   -1    0    0    0  501 -0.00000000000E+00 -0.00000000000E+00 -0.12669424520E+04  0.12669424520E+04  0.00000000000E+00 0. -1.
         23    2    1    2    0    0 -0.36936996904E+03  0.19496981527E+03  0.41229583787E+03  0.59407294525E+03  0.92127104887E+02 0.  0.
         11    1    3    3    0    0 -0.10677197042E+03  0.14873410360E+02  0.83467944780E+02  0.13633917195E+03  0.00000000000E+00 0.  1.
        -11    1    3    3    0    0 -0.26259799862E+03  0.18009640491E+03  0.32882789309E+03  0.45773377330E+03  0.00000000000E+00 0. -1.
         22    1    1    2    0    0  0.36936996904E+03 -0.19496981527E+03 -0.11389706908E+04  0.12131371058E+04  0.00000000000E+00 0. -1.
<mgrwt>
<rscale>  0 0.16546757E+04</rscale>
<asrwt>0</asrwt>
<pdfrwt beam="1">  1        1 0.83118092E-01 0.16546757E+04</pdfrwt>
<pdfrwt beam="2">  1       -1 0.19491422E+00 0.16546757E+04</pdfrwt>
<totfact> 0.62020285E+00</totfact>
</mgrwt>
</event>
<event>
 6    1  0.1719556E-004  0.2070658E+04  0.7818608E-02  0.8574280E-01
          1   -1    0    0  501    0  0.00000000000E+00  0.00000000000E+00  0.22737482925E+04  0.22737482925E+04  0.00000000000E+00 0.  1.
         -1   -1    0    0    0  501 -0.00000000000E+00 -0.00000000000E+00 -0.47142694730E+03  0.47142694730E+03  0.00000000000E+00 0. -1.
         23    2    1    2    0    0  0.99420235524E+02 -0.72625353486E+03 -0.62549146800E+02  0.74141114888E+03  0.91921247740E+02 0.  0.
         11    1    3    3    0    0  0.92992164876E+01 -0.50863454150E+02 -0.28830692500E+02  0.59201142095E+02  0.00000000000E+00 0. -1.
        -11    1    3    3    0    0  0.90121019036E+02 -0.67539008071E+03 -0.33718454300E+02  0.68221000678E+03  0.00000000000E+00 0.  1.
         22    1    1    2    0    0 -0.99420235524E+02  0.72625353486E+03  0.18648704920E+04  0.20037640910E+04  0.00000000000E+00 0.  1.
<mgrwt>
<rscale>  0 0.20706581E+04</rscale>
<asrwt>0</asrwt>
<pdfrwt beam="1">  1        1 0.34980742E+00 0.20706581E+04</pdfrwt>
<pdfrwt beam="2">  1       -1 0.72527224E-01 0.20706581E+04</pdfrwt>
<totfact> 0.34295121E+00</totfact>
</mgrwt>
</event>
<event>
 6    1  0.1719556E-004  0.2170089E+04  0.7818608E-02  0.8530982E-01
          2   -1    0    0  501    0  0.00000000000E+00  0.00000000000E+00  0.11373811419E+04  0.11373811419E+04  0.00000000000E+00 0.  1.
         -2   -1    0    0    0  501 -0.00000000000E+00 -0.00000000000E+00 -0.10351165149E+04  0.10351165149E+04  0.00000000000E+00 0. -1.
         23    2    1    2    0    0  0.77613525829E+03 -0.75381415538E+03  0.18956145226E+01  0.10858994520E+04  0.92478681598E+02 0.  0.
         11    1    3    3    0    0  0.44334431119E+03 -0.36739863741E+03  0.96702893693E+01  0.57587277373E+03  0.00000000000E+00 0. -1.
        -11    1    3    3    0    0  0.33279094710E+03 -0.38641551798E+03 -0.77746748468E+01  0.51002667830E+03  0.00000000000E+00 0.  1.
         22    1    1    2    0    0 -0.77613525829E+03  0.75381415538E+03  0.10036901254E+03  0.10865982048E+04  0.00000000000E+00 0.  1.
<mgrwt>
<rscale>  0 0.21700894E+04</rscale>
<asrwt>0</asrwt>
<pdfrwt beam="1">  1        2 0.17498172E+00 0.21700894E+04</pdfrwt>
<pdfrwt beam="2">  1       -2 0.15924869E+00 0.21700894E+04</pdfrwt>
<totfact> 0.48310812E+00</totfact>
</mgrwt>
</event>
<event>
 6    1  0.1719556E-004  0.2960442E+04  0.7818608E-02  0.8255118E-01
         -1   -1    0    0    0  501 -0.00000000000E+00  0.00000000000E+00  0.19336127358E+04  0.19336127358E+04  0.00000000000E+00 0. -1.
          1   -1    0    0  501    0  0.00000000000E+00 -0.00000000000E+00 -0.11331401014E+04  0.11331401014E+04  0.00000000000E+00 0.  1.
         23    2    1    2    0    0 -0.77774835519E+03  0.11783116325E+04 -0.50246779694E+02  0.14184099334E+04  0.12669330302E+03 0.  0.
         11    1    3    3    0    0 -0.67687642245E+03  0.94137843030E+03 -0.25942722158E+02  0.11597534502E+04  0.00000000000E+00 0. -1.
        -11    1    3    3    0    0 -0.10087193274E+03  0.23693320215E+03 -0.24304057536E+02  0.25865648322E+03  0.00000000000E+00 0.  1.
         22    1    1    2    0    0  0.77774835519E+03 -0.11783116325E+04  0.85071941404E+03  0.16483429038E+04  0.00000000000E+00 0.  1.
<mgrwt>
<rscale>  0 0.29604419E+04</rscale>
<asrwt>0</asrwt>
<pdfrwt beam="1">  1        1 0.17432925E+00 0.29604419E+04</pdfrwt>
<pdfrwt beam="2">  1       -1 0.29747888E+00 0.29604419E+04</pdfrwt>
<totfact> 0.35057895E-01</totfact>
</mgrwt>
</event>
<event>
 6    1  0.1719556E-004  0.1395109E+04  0.7818608E-02  0.8957367E-01
         -2   -1    0    0    0  501 -0.00000000000E+00  0.00000000000E+00  0.32833123961E+03  0.32833123961E+03  0.00000000000E+00 0. -1.
          2   -1    0    0  501    0  0.00000000000E+00 -0.00000000000E+00 -0.14819852389E+04  0.14819852389E+04  0.00000000000E+00 0.  1.
         23    2    1    2    0    0  0.25304155815E+03 -0.63582571423E+02 -0.14145474063E+04  0.14413474509E+04  0.92007260544E+02 0.  0.
         13    1    3    3    0    0  0.15447686983E+03  0.70794477023E+01 -0.74007401914E+03  0.75605738916E+03  0.00000000000E+00 0.  1.
        -13    1    3    3    0    0  0.98564688314E+02 -0.70662019125E+02 -0.67447338714E+03  0.68529006171E+03  0.00000000000E+00 0. -1.
         22    1    1    2    0    0 -0.25304155815E+03  0.63582571423E+02  0.26089340700E+03  0.36896902764E+03  0.00000000000E+00 0. -1.
<mgrwt>
<rscale>  0 0.13951087E+04</rscale>
<asrwt>0</asrwt>
<pdfrwt beam="1">  1        2 0.22799773E+00 0.13951087E+04</pdfrwt>
<pdfrwt beam="2">  1       -2 0.50512498E-01 0.13951087E+04</pdfrwt>
<totfact> 0.46882590E+01</totfact>
</mgrwt>
</event>
<event>
 6    1  0.1719556E-004  0.1810066E+04  0.7818608E-02  0.8700965E-01
          1   -1    0    0  501    0  0.00000000000E+00  0.00000000000E+00  0.36546351723E+04  0.36546351723E+04  0.00000000000E+00 0.  1.
         -1   -1    0    0    0  501 -0.00000000000E+00 -0.00000000000E+00 -0.22412225953E+03  0.22412225953E+03  0.00000000000E+00 0. -1.
         23    2    1    2    0    0  0.79024897852E+03 -0.77411740525E+02  0.80329788138E+03  0.11341727917E+04  0.10283194834E+03 0.  0.
         11    1    3    3    0    0  0.45601719781E+03 -0.80727172699E+02  0.41520845393E+03  0.62198602984E+03  0.00000000000E+00 0.  1.
        -11    1    3    3    0    0  0.33423178072E+03  0.33154321744E+01  0.38808942745E+03  0.51218676186E+03  0.00000000000E+00 0. -1.
         22    1    1    2    0    0 -0.79024897852E+03  0.77411740525E+02  0.26272150314E+04  0.27445846401E+04  0.00000000000E+00 0.  1.
<mgrwt>
<rscale>  0 0.18100664E+04</rscale>
<asrwt>0</asrwt>
<pdfrwt beam="1">  1        1 0.56225152E+00 0.18100664E+04</pdfrwt>
<pdfrwt beam="2">  1       -1 0.34480350E-01 0.18100664E+04</pdfrwt>
<totfact> 0.14230845E+00</totfact>
</mgrwt>
</event>
<event>
 6    1  0.1719556E-004  0.4777145E+04  0.7818608E-02  0.7863835E-01
          2   -1    0    0  501    0  0.00000000000E+00  0.00000000000E+00  0.36083300795E+04  0.36083300795E+04  0.00000000000E+00 0.  1.
         -2   -1    0    0    0  501 -0.00000000000E+00 -0.00000000000E+00 -0.15811406841E+04  0.15811406841E+04  0.00000000000E+00 0. -1.
         23    2    1    2    0    0 -0.12435825533E+04 -0.13488944763E+04 -0.64605857445E+03  0.19472078836E+04  0.90625522232E+02 0.  0.
         11    1    3    3    0    0 -0.70536162377E+03 -0.72908227868E+03 -0.31688842054E+03  0.10627860841E+04  0.00000000000E+00 0.  1.
        -11    1    3    3    0    0 -0.53822092951E+03 -0.61981219760E+03 -0.32917015391E+03  0.88442179953E+03  0.00000000000E+00 0. -1.
         22    1    1    2    0    0  0.12435825533E+04  0.13488944763E+04  0.26732479698E+04  0.32422628800E+04  0.00000000000E+00 0.  1.
<mgrwt>
<rscale>  0 0.47771445E+04</rscale>
<asrwt>0</asrwt>
<pdfrwt beam="1">  1        2 0.55512770E+00 0.47771445E+04</pdfrwt>
<pdfrwt beam="2">  1       -2 0.24325241E+00 0.47771445E+04</pdfrwt>
<totfact> 0.35598710E-02</totfact>
</mgrwt>
</event>
<event>
 6    1  0.1719556E-004  0.1743006E+04  0.7818608E-02  0.8737210E-01
         -2   -1    0    0    0  501 -0.00000000000E+00  0.00000000000E+00  0.13350932804E+04  0.13350932804E+04  0.00000000000E+00 0. -1.
          2   -1    0    0  501    0  0.00000000000E+00 -0.00000000000E+00 -0.56888701855E+03  0.56888701855E+03  0.00000000000E+00 0.  1.
         23    2    1    2    0    0  0.75057827778E+03 -0.36987765113E+03  0.12784978884E+03  0.85151832126E+03  0.92523807956E+02 0.  0.
         11    1    3    3    0    0  0.61961354273E+03 -0.27292866191E+03  0.80472925144E+02  0.68182614244E+03  0.00000000000E+00 0.  1.
        -11    1    3    3    0    0  0.13096473505E+03 -0.96948989221E+02  0.47376863701E+02  0.16969217882E+03  0.00000000000E+00 0. -1.
         22    1    1    2    0    0 -0.75057827778E+03  0.36987765113E+03  0.63835647301E+03  0.10524619777E+04  0.00000000000E+00 0. -1.
<mgrwt>
<rscale>  0 0.17430057E+04</rscale>
<asrwt>0</asrwt>
<pdfrwt beam="1">  1        2 0.87521080E-01 0.17430057E+04</pdfrwt>
<pdfrwt beam="2">  1       -2 0.20539897E+00 0.17430057E+04</pdfrwt>
<totfact> 0.61443144E+00</totfact>
</mgrwt>
</event>
<event>
 6    1  0.1719556E-004  0.5005073E+04  0.7818608E-02  0.7827725E-01
          2   -1    0    0  501    0  0.00000000000E+00  0.00000000000E+00  0.11626188556E+04  0.11626188556E+04  0.00000000000E+00 0.  1.
         -2   -1    0    0    0  501 -0.00000000000E+00 -0.00000000000E+00 -0.53867083655E+04  0.53867083655E+04  0.00000000000E+00 0. -1.
         23    2    1    2    0    0 -0.24617013697E+03 -0.14677031842E+04 -0.47441181496E+04  0.49728811678E+04  0.90209302741E+02 0.  0.
         13    1    3    3    0    0 -0.19989843853E+03 -0.13108368206E+04 -0.41523899938E+04  0.43589672191E+04  0.00000000000E+00 0. -1.
        -13    1    3    3    0    0 -0.46271698438E+02 -0.15686636351E+03 -0.59172815576E+03  0.61391394869E+03  0.00000000000E+00 0.  1.
         22    1    1    2    0    0  0.24617013697E+03  0.14677031842E+04  0.52002863965E+03  0.15764460534E+04  0.00000000000E+00 0.  1.
<mgrwt>
<rscale>  0 0.50050729E+04</rscale>
<asrwt>0</asrwt>
<pdfrwt beam="1">  1        2 0.17886444E+00 0.50050729E+04</pdfrwt>
<pdfrwt beam="2">  1       -2 0.82872435E+00 0.50050729E+04</pdfrwt>
<totfact> 0.71420806E-04</totfact>
</mgrwt>
</event>
<event>
 6    1  0.1719556E-004  0.5771589E+03  0.7818608E-02  0.9953961E-01
          2   -1    0    0  501    0  0.00000000000E+00  0.00000000000E+00  0.12414843048E+04  0.12414843048E+04  0.00000000000E+00 0.  1.
         -2   -1    0    0    0  501 -0.00000000000E+00 -0.00000000000E+00 -0.67079462789E+02  0.67079462789E+02  0.00000000000E+00 0. -1.
         23    2    1    2    0    0  0.78881006528E+01  0.21764974256E+03  0.10060036887E+04  0.10332592435E+04  0.90264112417E+02 0.  0.
         13    1    3    3    0    0  0.17900724919E+02  0.14859374669E+03  0.83930980698E+03  0.85254999243E+03  0.00000000000E+00 0.  1.
        -13    1    3    3    0    0 -0.10012624266E+02  0.69055995868E+02  0.16669388171E+03  0.18070925103E+03  0.00000000000E+00 0. -1.
         22    1    1    2    0    0 -0.78881006528E+01 -0.21764974256E+03  0.16840115336E+03  0.27530452415E+03  0.00000000000E+00 0. -1.
<mgrwt>
<rscale>  0 0.57715890E+03</rscale>
<asrwt>0</asrwt>
<pdfrwt beam="1">  1        2 0.19099757E+00 0.57715890E+03</pdfrwt>
<pdfrwt beam="2">  1       -2 0.10319918E-01 0.57715890E+03</pdfrwt>
<totfact> 0.11817684E+03</totfact>
</mgrwt>
</event>
<event>
 6    1  0.1719556E-004  0.2352352E+04  0.7818608E-02  0.8457561E-01
         -2   -1    0    0    0  501 -0.00000000000E+00  0.00000000000E+00  0.10049237991E+04  0.10049237991E+04  0.00000000000E+00 0. -1.
          2   -1    0    0  501    0  0.00000000000E+00 -0.00000000000E+00 -0.13766118123E+04  0.13766118123E+04  0.00000000000E+00 0.  1.
         23    2    1    2    0    0 -0.69608587816E+03  0.51677454877E+03  0.61563267188E+03  0.10676126230E+04  0.95925190130E+02 0.  0.
         13    1    3    3    0    0 -0.40376599736E+02  0.19474926352E+02  0.10285007144E+02  0.45992650876E+02  0.00000000000E+00 0.  1.
        -13    1    3    3    0    0 -0.65570927843E+03  0.49729962242E+03  0.60534766474E+03  0.10216199721E+04  0.00000000000E+00 0. -1.
         22    1    1    2    0    0  0.69608587816E+03 -0.51677454877E+03 -0.98732068515E+03  0.13139229884E+04  0.00000000000E+00 0.  1.
<mgrwt>
<rscale>  0 0.23523520E+04</rscale>
<asrwt>0</asrwt>
<pdfrwt beam="1">  1        2 0.21178643E+00 0.23523520E+04</pdfrwt>
<pdfrwt beam="2">  1       -2 0.15460366E+00 0.23523520E+04</pdfrwt>
<totfact> 0.37248296E+00</totfact>
</mgrwt>
</event>
<event>
 6    1  0.1719556E-004  0.1561834E+04  0.7818608E-02  0.8844344E-01
          1   -1    0    0  501    0  0.00000000000E+00  0.00000000000E+00  0.16400223143E+04  0.16400223143E+04  0.00000000000E+00 0.  1.
         -1   -1    0    0    0  501 -0.00000000000E+00 -0.00000000000E+00 -0.37184328204E+03  0.37184328204E+03  0.00000000000E+00 0. -1.
         23    2    1    2    0    0  0.16443148026E+03  0.65542232492E+03  0.13986402496E+03  0.69668085974E+03  0.95844348540E+02 0.  0.
         13    1    3    3    0    0  0.60312564038E+02  0.21310324167E+03  0.91772338918E+02  0.23973476841E+03  0.00000000000E+00 0. -1.
        -13    1    3    3    0    0  0.10411891622E+03  0.44231908324E+03  0.48091686044E+02  0.45694609133E+03  0.00000000000E+00 0.  1.
         22    1    1    2    0    0 -0.16443148026E+03 -0.65542232492E+03  0.11283150073E+04  0.13151847366E+04  0.00000000000E+00 0.  1.
<mgrwt>
<rscale>  0 0.15618339E+04</rscale>
<asrwt>0</asrwt>
<pdfrwt beam="1">  1        1 0.25231112E+00 0.15618339E+04</pdfrwt>
<pdfrwt beam="2">  1       -1 0.57206660E-01 0.15618339E+04</pdfrwt>
<totfact> 0.15600181E+01</totfact>
</mgrwt>
</event>
<event>
 6    1  0.1719556E-004  0.1015447E+04  0.7818608E-02  0.9291764E-01
         -2   -1    0    0    0  501 -0.00000000000E+00  0.00000000000E+00  0.15540340841E+04  0.15540340841E+04  0.00000000000E+00 0. -1.
          2   -1    0    0  501    0  0.00000000000E+00 -0.00000000000E+00 -0.16587989627E+03  0.16587989627E+03  0.00000000000E+00 0.  1.
         23    2    1    2    0    0 -0.21586680992E+03  0.45110378844E+03  0.60126238865E+03  0.78755578139E+03  0.92922232124E+02 0.  0.
         11    1    3    3    0    0 -0.11155261974E+03  0.13245800141E+03  0.19456455201E+03  0.26046971802E+03  0.00000000000E+00 0. -1.
        -11    1    3    3    0    0 -0.10431419018E+03  0.31864578703E+03  0.40669783664E+03  0.52708606337E+03  0.00000000000E+00 0.  1.
         22    1    1    2    0    0  0.21586680992E+03 -0.45110378844E+03  0.78689179917E+03  0.93235819897E+03  0.00000000000E+00 0. -1.
<mgrwt>
<rscale>  0 0.10154467E+04</rscale>
<asrwt>0</asrwt>
<pdfrwt beam="1">  1        2 0.25519985E-01 0.10154467E+04</pdfrwt>
<pdfrwt beam="2">  1       -2 0.23908216E+00 0.10154467E+04</pdfrwt>
<totfact> 0.16118404E+01</totfact>
</mgrwt>
</event>
<event>
 6    1  0.1719556E-004  0.2218010E+04  0.7818608E-02  0.8510969E-01
         -2   -1    0    0    0  501 -0.00000000000E+00  0.00000000000E+00  0.19169162978E+04  0.19169162978E+04  0.00000000000E+00 0. -1.
          2   -1    0    0  501    0  0.00000000000E+00 -0.00000000000E+00 -0.64159935940E+03  0.64159935940E+03  0.00000000000E+00 0.  1.
         23    2    1    2    0    0  0.25499791388E+03  0.10242216503E+04  0.10218516242E+04  0.14730210277E+04  0.10750014449E+03 0.  0.
         11    1    3    3    0    0  0.58864993258E+02  0.14640056815E+03  0.11110694552E+03  0.19298437017E+03  0.00000000000E+00 0. -1.
        -11    1    3    3    0    0  0.19613292062E+03  0.87782108218E+03  0.91074467873E+03  0.12800366576E+04  0.00000000000E+00 0.  1.
         22    1    1    2    0    0 -0.25499791388E+03 -0.10242216503E+04  0.25346531414E+03  0.10854946295E+04  0.00000000000E+00 0.  1.
<mgrwt>
<rscale>  0 0.22180102E+04</rscale>
<asrwt>0</asrwt>
<pdfrwt beam="1">  1        2 0.98707594E-01 0.22180102E+04</pdfrwt>
<pdfrwt beam="2">  1       -2 0.29491020E+00 0.22180102E+04</pdfrwt>
<totfact> 0.14246083E+00</totfact>
</mgrwt>
</event>
<event>
 6    1  0.1719556E-004  0.1024822E+04  0.7818608E-02  0.9281732E-01
          4   -1    0    0  501    0  0.00000000000E+00  0.00000000000E+00  0.31888023356E+03  0.31888023356E+03  0.00000000000E+00 0.  1.
         -4   -1    0    0    0  501 -0.00000000000E+00 -0.00000000000E+00 -0.82339718573E+03  0.82339718573E+03  0.00000000000E+00 0. -1.
         23    2    1    2    0    0  0.10029492623E+02 -0.48363790609E+03 -0.80359442857E+02  0.49891452976E+03  0.91933960084E+02 0.  0.
         11    1    3    3    0    0  0.36372032753E+02 -0.29248040636E+03 -0.82057423208E+02  0.30594302341E+03  0.00000000000E+00 0. -1.
        -11    1    3    3    0    0 -0.26342540130E+02 -0.19115749973E+03  0.16979803508E+01  0.19297150635E+03  0.00000000000E+00 0.  1.
         22    1    1    2    0    0 -0.10029492623E+02  0.48363790609E+03 -0.42415750931E+03  0.64336288954E+03  0.00000000000E+00 0.  1.
<mgrwt>
<rscale>  0 0.10248221E+04</rscale>
<asrwt>0</asrwt>
<pdfrwt beam="1">  1        4 0.49058497E-01 0.10248221E+04</pdfrwt>
<pdfrwt beam="2">  1       -4 0.12667649E+00 0.10248221E+04</pdfrwt>
<totfact> 0.36775452E+00</totfact>
</mgrwt>
</event>
<event>
 6    1  0.1719556E-004  0.1282522E+04  0.7818608E-02  0.9043542E-01
          1   -1    0    0  501    0  0.00000000000E+00  0.00000000000E+00  0.34605983741E+03  0.34605983741E+03  0.00000000000E+00 0.  1.
         -1   -1    0    0    0  501 -0.00000000000E+00 -0.00000000000E+00 -0.11882782831E+04  0.11882782831E+04  0.00000000000E+00 0. -1.
         23    2    1    2    0    0 -0.45820774649E+03  0.33276442019E+03 -0.77483421523E+03  0.96405123407E+03  0.91324818831E+02 0.  0.
         11    1    3    3    0    0 -0.18017042370E+03  0.17467344220E+03 -0.38855664468E+03  0.46254562922E+03  0.00000000000E+00 0.  1.
        -11    1    3    3    0    0 -0.27803732279E+03  0.15809097799E+03 -0.38627757056E+03  0.50150560485E+03  0.00000000000E+00 0. -1.
         22    1    1    2    0    0  0.45820774649E+03 -0.33276442019E+03 -0.67384230424E+02  0.57028688640E+03  0.00000000000E+00 0. -1.
<mgrwt>
<rscale>  0 0.12825216E+04</rscale>
<asrwt>0</asrwt>
<pdfrwt beam="1">  1        1 0.53239974E-01 0.12825216E+04</pdfrwt>
<pdfrwt beam="2">  1       -1 0.18281205E+00 0.12825216E+04</pdfrwt>
<totfact> 0.14208121E+01</totfact>
</mgrwt>
</event>
<event>
 6    1  0.1719556E-004  0.1993462E+04  0.7818608E-02  0.8609684E-01
          1   -1    0    0  501    0  0.00000000000E+00  0.00000000000E+00  0.25767731012E+04  0.25767731012E+04  0.00000000000E+00 0.  1.
         -1   -1    0    0    0  501 -0.00000000000E+00 -0.00000000000E+00 -0.38554908718E+03  0.38554908718E+03  0.00000000000E+00 0. -1.
         23    2    1    2    0    0  0.59766513436E+03  0.79040766396E+03  0.96941267076E+03  0.13891817476E+04  0.90095024599E+02 0.  0.
         11    1    3    3    0    0  0.20156722053E+03  0.20676202252E+03  0.30880296631E+03  0.42277553187E+03  0.00000000000E+00 0. -1.
        -11    1    3    3    0    0  0.39609791383E+03  0.58364564144E+03  0.66060970445E+03  0.96640621569E+03  0.00000000000E+00 0.  1.
         22    1    1    2    0    0 -0.59766513436E+03 -0.79040766396E+03  0.12218113433E+04  0.15731404409E+04  0.00000000000E+00 0.  1.
<mgrwt>
<rscale>  0 0.19934618E+04</rscale>
<asrwt>0</asrwt>
<pdfrwt beam="1">  1        1 0.39642662E+00 0.19934618E+04</pdfrwt>
<pdfrwt beam="2">  1       -1 0.59315246E-01 0.19934618E+04</pdfrwt>
<totfact> 0.32054396E+00</totfact>
</mgrwt>
</event>
<event>
 6    1  0.1719556E-004  0.5504926E+04  0.7818608E-02  0.7755012E-01
         -2   -1    0    0    0  501 -0.00000000000E+00  0.00000000000E+00  0.18669437292E+04  0.18669437292E+04  0.00000000000E+00 0. -1.
          2   -1    0    0  501    0  0.00000000000E+00 -0.00000000000E+00 -0.40579973094E+04  0.40579973094E+04  0.00000000000E+00 0.  1.
         23    2    1    2    0    0  0.23026163870E+03 -0.25773214615E+04 -0.88559034992E+02  0.25908610079E+04  0.95455338221E+02 0.  0.
         13    1    3    3    0    0  0.72136914616E+02 -0.10411497959E+04 -0.77702039590E+02  0.10465343945E+04  0.00000000000E+00 0.  1.
        -13    1    3    3    0    0  0.15812472409E+03 -0.15361716656E+04 -0.10856995402E+02  0.15443266134E+04  0.00000000000E+00 0. -1.
         22    1    1    2    0    0 -0.23026163870E+03  0.25773214615E+04 -0.21024945452E+04  0.33340800307E+04  0.00000000000E+00 0.  1.
<mgrwt>
<rscale>  0 0.55049260E+04</rscale>
<asrwt>0</asrwt>
<pdfrwt beam="1">  1        2 0.62430727E+00 0.55049260E+04</pdfrwt>
<pdfrwt beam="2">  1       -2 0.28722212E+00 0.55049260E+04</pdfrwt>
<totfact> 0.81178413E-03</totfact>
</mgrwt>
</event>
<event>
 6    1  0.1719556E-004  0.3325730E+04  0.7818608E-02  0.8156379E-01
          2   -1    0    0  501    0  0.00000000000E+00  0.00000000000E+00  0.24499812828E+04  0.24499812828E+04  0.00000000000E+00 0.  1.
         -2   -1    0    0    0  501 -0.00000000000E+00 -0.00000000000E+00 -0.11286289346E+04  0.11286289346E+04  0.00000000000E+00 0. -1.
         23    2    1    2    0    0  0.10296040134E+04  0.43727845636E+03  0.19832671290E+04  0.22788302169E+04  0.91770254839E+02 0.  0.
         11    1    3    3    0    0  0.64911534114E+03  0.25466685606E+03  0.13154842669E+04  0.14888602319E+04  0.00000000000E+00 0. -1.
        -11    1    3    3    0    0  0.38048867222E+03  0.18261160030E+03  0.66778286210E+03  0.78996998498E+03  0.00000000000E+00 0.  1.
         22    1    1    2    0    0 -0.10296040134E+04 -0.43727845636E+03 -0.66191478084E+03  0.12997800005E+04  0.00000000000E+00 0. -1.
<mgrwt>
<rscale>  0 0.33257299E+04</rscale>
<asrwt>0</asrwt>
<pdfrwt beam="1">  1        2 0.37692020E+00 0.33257299E+04</pdfrwt>
<pdfrwt beam="2">  1       -2 0.17363522E+00 0.33257299E+04</pdfrwt>
<totfact> 0.62288366E-01</totfact>
</mgrwt>
</event>
<event>
 6    1  0.1719556E-004  0.2540085E+04  0.7818608E-02  0.8388843E-01
          2   -1    0    0  501    0  0.00000000000E+00  0.00000000000E+00  0.18651383986E+04  0.18651383986E+04  0.00000000000E+00 0. -1.
         -2   -1    0    0    0  501 -0.00000000000E+00 -0.00000000000E+00 -0.86481960813E+03  0.86481960813E+03  0.00000000000E+00 0.  1.
         23    2    1    2    0    0 -0.11428437773E+03  0.19649362890E+03  0.18419652045E+04  0.18581556487E+04  0.90752053472E+02 0.  0.
         11    1    3    3    0    0 -0.13359600921E+02  0.31699762902E+02  0.10540017388E+03  0.11087177530E+03  0.00000000000E+00 0. -1.
        -11    1    3    3    0    0 -0.10092477681E+03  0.16479386600E+03  0.17365650306E+04  0.17472838734E+04  0.00000000000E+00 0.  1.
         22    1    1    2    0    0  0.11428437773E+03 -0.19649362890E+03 -0.84164641402E+03  0.87180235800E+03  0.00000000000E+00 0.  1.
<mgrwt>
<rscale>  0 0.25400852E+04</rscale>
<asrwt>0</asrwt>
<pdfrwt beam="1">  1        2 0.28694437E+00 0.25400852E+04</pdfrwt>
<pdfrwt beam="2">  1       -2 0.13304917E+00 0.25400852E+04</pdfrwt>
<totfact> 0.28900610E+00</totfact>
</mgrwt>
</event>
<event>
 6    1  0.1719556E-004  0.1782611E+04  0.7818608E-02  0.8715602E-01
         -2   -1    0    0    0  501 -0.00000000000E+00  0.00000000000E+00  0.27773141080E+03  0.27773141080E+03  0.00000000000E+00 0. -1.
          2   -1    0    0  501    0  0.00000000000E+00 -0.00000000000E+00 -0.28604080531E+04  0.28604080531E+04  0.00000000000E+00 0.  1.
         23    2    1    2    0    0  0.49322616664E+03  0.66443503880E+03 -0.72225277466E+03  0.11019855062E+04  0.89314125974E+02 0.  0.
         11    1    3    3    0    0  0.26518437903E+03  0.30852484030E+03 -0.39917427251E+03  0.56995651746E+03  0.00000000000E+00 0. -1.
        -11    1    3    3    0    0  0.22804178761E+03  0.35591019850E+03 -0.32307850216E+03  0.53202898873E+03  0.00000000000E+00 0.  1.
         22    1    1    2    0    0 -0.49322616664E+03 -0.66443503880E+03 -0.18604238677E+04  0.20361539578E+04  0.00000000000E+00 0.  1.
<mgrwt>
<rscale>  0 0.17826106E+04</rscale>
<asrwt>0</asrwt>
<pdfrwt beam="1">  1        2 0.44006278E+00 0.17826106E+04</pdfrwt>
<pdfrwt beam="2">  1       -2 0.42727909E-01 0.17826106E+04</pdfrwt>
<totfact> 0.10462554E+01</totfact>
</mgrwt>
</event>
<event>
 6    1  0.1719556E-004  0.7672891E+03  0.7818608E-02  0.9608610E-01
         -1   -1    0    0    0  501 -0.00000000000E+00  0.00000000000E+00  0.35044497381E+03  0.35044497381E+03  0.00000000000E+00 0. -1.
          1   -1    0    0  501    0  0.00000000000E+00 -0.00000000000E+00 -0.41998929774E+03  0.41998929774E+03  0.00000000000E+00 0.  1.
         23    2    1    2    0    0 -0.21369225222E+03  0.19578928044E+03 -0.27883106443E+03  0.41294474619E+03  0.93695143533E+02 0.  0.
         13    1    3    3    0    0 -0.72318900019E+02  0.42576405365E+02 -0.13748127143E+03  0.16107102032E+03  0.00000000000E+00 0. -1.
        -13    1    3    3    0    0 -0.14137335220E+03  0.15321287508E+03 -0.14134979300E+03  0.25187372587E+03  0.00000000000E+00 0.  1.
         22    1    1    2    0    0  0.21369225222E+03 -0.19578928044E+03  0.20928674050E+03  0.35748952536E+03  0.00000000000E+00 0. -1.
<mgrwt>
<rscale>  0 0.76728909E+03</rscale>
<asrwt>0</asrwt>
<pdfrwt beam="1">  1        1 0.64613738E-01 0.76728909E+03</pdfrwt>
<pdfrwt beam="2">  1       -1 0.53914611E-01 0.76728909E+03</pdfrwt>
<totfact> 0.19766919E+02</totfact>
</mgrwt>
</event>
<event>
 6    1  0.2020788E-004  0.3159090E+04  0.7818608E-02  0.8199706E-01
          2   -1    0    0  501    0  0.00000000000E+00  0.00000000000E+00  0.11330465061E+04  0.11330465061E+04  0.00000000000E+00 0.  1.
         -2   -1    0    0    0  501 -0.00000000000E+00 -0.00000000000E+00 -0.22019945974E+04  0.22019945974E+04  0.00000000000E+00 0. -1.
         23    2    1    2    0    0  0.69002061195E+03  0.26350334090E+03  0.93737663736E+03  0.11970744591E+04  0.93540605505E+02 0.  0.
         13    1    3    3    0    0  0.28180835661E+03  0.10582864153E+03  0.30951431803E+03  0.43175776112E+03  0.00000000000E+00 0.  1.
        -13    1    3    3    0    0  0.40821225534E+03  0.15767469937E+03  0.62786231934E+03  0.76531669802E+03  0.00000000000E+00 0. -1.
         22    1    1    2    0    0 -0.69002061195E+03 -0.26350334090E+03 -0.20063247286E+04  0.21379666443E+04  0.00000000000E+00 0. -1.
<mgrwt>
<rscale>  0 0.31590899E+04</rscale>
<asrwt>0</asrwt>
<pdfrwt beam="1">  1        2 0.17431485E+00 0.31590899E+04</pdfrwt>
<pdfrwt beam="2">  1       -2 0.33876840E+00 0.31590899E+04</pdfrwt>
<totfact> 0.32142137E-01</totfact>
</mgrwt>
</event>
<event>
 6    1  0.1719556E-004  0.2155965E+04  0.7818608E-02  0.8536983E-01
          2   -1    0    0  501    0  0.00000000000E+00  0.00000000000E+00  0.12449620177E+04  0.12449620177E+04  0.00000000000E+00 0.  1.
         -2   -1    0    0    0  501 -0.00000000000E+00 -0.00000000000E+00 -0.93339913814E+03  0.93339913814E+03  0.00000000000E+00 0. -1.
         23    2    1    2    0    0  0.15736012935E+03 -0.92342718179E+03  0.69099783235E+03  0.11676926376E+04  0.92456050199E+02 0.  0.
         11    1    3    3    0    0 -0.11723962744E+02 -0.54722545590E+02  0.48506373581E+02  0.74059952580E+02  0.00000000000E+00 0.  1.
        -11    1    3    3    0    0  0.16908409209E+03 -0.86870463620E+03  0.64249145877E+03  0.10936326850E+04  0.00000000000E+00 0. -1.
         22    1    1    2    0    0 -0.15736012935E+03  0.92342718179E+03 -0.37943495278E+03  0.10106685182E+04  0.00000000000E+00 0. -1.
<mgrwt>
<rscale>  0 0.21559652E+04</rscale>
<asrwt>0</asrwt>
<pdfrwt beam="1">  1        2 0.19153262E+00 0.21559652E+04</pdfrwt>
<pdfrwt beam="2">  1       -2 0.14359987E+00 0.21559652E+04</pdfrwt>
<totfact> 0.54921207E+00</totfact>
</mgrwt>
</event>
<event>
 6    1  0.1719556E-004  0.3357327E+04  0.7818608E-02  0.8148460E-01
         -1   -1    0    0    0  501 -0.00000000000E+00  0.00000000000E+00  0.24714013534E+04  0.24714013534E+04  0.00000000000E+00 0. -1.
          1   -1    0    0  501    0  0.00000000000E+00 -0.00000000000E+00 -0.11402078700E+04  0.11402078700E+04  0.00000000000E+00 0.  1.
         23    2    1    2    0    0  0.60523654425E+03  0.15643360194E+04  0.66952235156E+03  0.18084821778E+04  0.94282300342E+02 0.  0.
         13    1    3    3    0    0  0.21633715402E+03  0.67702309374E+03  0.30380844210E+03  0.77295640444E+03  0.00000000000E+00 0. -1.
        -13    1    3    3    0    0  0.38889939023E+03  0.88731292561E+03  0.36571390946E+03  0.10355257733E+04  0.00000000000E+00 0.  1.
         22    1    1    2    0    0 -0.60523654425E+03 -0.15643360194E+04  0.66167113186E+03  0.18031270456E+04  0.00000000000E+00 0.  1.
<mgrwt>
<rscale>  0 0.33573271E+04</rscale>
<asrwt>0</asrwt>
<pdfrwt beam="1">  1        1 0.17541660E+00 0.33573271E+04</pdfrwt>
<pdfrwt beam="2">  1       -1 0.38021559E+00 0.33573271E+04</pdfrwt>
<totfact> 0.95169645E-02</totfact>
</mgrwt>
</event>
<event>
 6    1  0.1719556E-004  0.7602945E+03  0.7818608E-02  0.9619337E-01
          2   -1    0    0  501    0  0.00000000000E+00  0.00000000000E+00  0.10776171740E+04  0.10776171740E+04  0.00000000000E+00 0.  1.
         -2   -1    0    0    0  501 -0.00000000000E+00 -0.00000000000E+00 -0.13410320495E+03  0.13410320495E+03  0.00000000000E+00 0. -1.
         23    2    1    2    0    0  0.22785871208E+03  0.27717888703E+03  0.64998452923E+03  0.74813946893E+03  0.92114323738E+02 0.  0.
         13    1    3    3    0    0  0.10409325330E+03  0.19714812494E+03  0.38187179483E+03  0.44218644963E+03  0.00000000000E+00 0.  1.
        -13    1    3    3    0    0  0.12376545878E+03  0.80030762090E+02  0.26811273440E+03  0.30595301930E+03  0.00000000000E+00 0. -1.
         22    1    1    2    0    0 -0.22785871208E+03 -0.27717888703E+03  0.29352943977E+03  0.46358090998E+03  0.00000000000E+00 0.  1.
<mgrwt>
<rscale>  0 0.76029446E+03</rscale>
<asrwt>0</asrwt>
<pdfrwt beam="1">  1        2 0.16578725E+00 0.76029446E+03</pdfrwt>
<pdfrwt beam="2">  1       -2 0.20631263E-01 0.76029446E+03</pdfrwt>
<totfact> 0.45732854E+02</totfact>
</mgrwt>
</event>
<event>
 6    1  0.1719556E-004  0.2133066E+04  0.7818608E-02  0.8546816E-01
          2   -1    0    0  501    0  0.00000000000E+00  0.00000000000E+00  0.57105436715E+03  0.57105436715E+03  0.00000000000E+00 0.  1.
         -2   -1    0    0    0  501 -0.00000000000E+00 -0.00000000000E+00 -0.19919166596E+04  0.19919166596E+04  0.00000000000E+00 0. -1.
         23    2    1    2    0    0  0.17493770544E+03  0.19533567166E+03 -0.19514550088E+04  0.19711198158E+04  0.91528418381E+02 0.  0.
         11    1    3    3    0    0  0.10526704827E+03  0.74144366208E+02 -0.11894406423E+04  0.11963893932E+04  0.00000000000E+00 0. -1.
        -11    1    3    3    0    0  0.69670657164E+02  0.12119130546E+03 -0.76201436647E+03  0.77473042259E+03  0.00000000000E+00 0.  1.
         22    1    1    2    0    0 -0.17493770544E+03 -0.19533567166E+03  0.53059271630E+03  0.59185121103E+03  0.00000000000E+00 0.  1.
<mgrwt>
<rscale>  0 0.21330661E+04</rscale>
<asrwt>0</asrwt>
<pdfrwt beam="1">  1        2 0.87854519E-01 0.21330661E+04</pdfrwt>
<pdfrwt beam="2">  1       -2 0.30644871E+00 0.21330661E+04</pdfrwt>
<totfact> 0.14050376E+00</totfact>
</mgrwt>
</event>
<event>
 6    1  0.1719556E-004  0.2616856E+04  0.7818608E-02  0.8362498E-01
         -2   -1    0    0    0  501 -0.00000000000E+00  0.00000000000E+00  0.63101550375E+03  0.63101550375E+03  0.00000000000E+00 0. -1.
          2   -1    0    0  501    0  0.00000000000E+00 -0.00000000000E+00 -0.27130612830E+04  0.27130612830E+04  0.00000000000E+00 0.  1.
         23    2    1    2    0    0  0.40955898290E+03 -0.12173420370E+04 -0.13508604007E+04  0.18661416551E+04  0.89446404086E+02 0.  0.
         11    1    3    3    0    0  0.25923648129E+03 -0.77228435830E+03 -0.79346694014E+03  0.11371967589E+04  0.00000000000E+00 0. -1.
        -11    1    3    3    0    0  0.15032250161E+03 -0.44505767872E+03 -0.55739346051E+03  0.72894489620E+03  0.00000000000E+00 0.  1.
         22    1    1    2    0    0 -0.40955898290E+03  0.12173420370E+04 -0.73118537862E+03  0.14779351317E+04  0.00000000000E+00 0. -1.
<mgrwt>
<rscale>  0 0.26168559E+04</rscale>
<asrwt>0</asrwt>
<pdfrwt beam="1">  1        2 0.41739404E+00 0.26168559E+04</pdfrwt>
<pdfrwt beam="2">  1       -2 0.97079308E-01 0.26168559E+04</pdfrwt>
<totfact> 0.20405218E+00</totfact>
</mgrwt>
</event>
<event>
 6    1  0.1719556E-004  0.2601917E+04  0.7818608E-02  0.8367550E-01
         -2   -1    0    0    0  501 -0.00000000000E+00  0.00000000000E+00  0.65434001582E+03  0.65434001582E+03  0.00000000000E+00 0. -1.
          2   -1    0    0  501    0  0.00000000000E+00 -0.00000000000E+00 -0.25865658640E+04  0.25865658640E+04  0.00000000000E+00 0.  1.
         23    2    1    2    0    0  0.45576486429E+03  0.98854948457E+03 -0.18497492952E+04  0.21492309846E+04  0.11255965279E+03 0.  0.
         13    1    3    3    0    0  0.10532561467E+02  0.14151387310E+02 -0.99495154288E+01  0.20253134846E+02  0.00000000000E+00 0. -1.
        -13    1    3    3    0    0  0.44523230282E+03  0.97439809726E+03 -0.18397997797E+04  0.21289778498E+04  0.00000000000E+00 0.  1.
         22    1    1    2    0    0 -0.45576486429E+03 -0.98854948457E+03 -0.82476553028E+02  0.10916748952E+04  0.00000000000E+00 0. -1.
<mgrwt>
<rscale>  0 0.26019174E+04</rscale>
<asrwt>0</asrwt>
<pdfrwt beam="1">  1        2 0.39793321E+00 0.26019174E+04</pdfrwt>
<pdfrwt beam="2">  1       -2 0.10066769E+00 0.26019174E+04</pdfrwt>
<totfact> 0.22279026E+00</totfact>
</mgrwt>
</event>
<event>
 6    1  0.1719556E-004  0.3256717E+04  0.7818608E-02  0.8173997E-01
         -2   -1    0    0    0  501 -0.00000000000E+00  0.00000000000E+00  0.16236191519E+04  0.16236191519E+04  0.00000000000E+00 0. -1.
          2   -1    0    0  501    0  0.00000000000E+00 -0.00000000000E+00 -0.16331118403E+04  0.16331118403E+04  0.00000000000E+00 0.  1.
         23    2    1    2    0    0 -0.50250492911E+03  0.23137403387E+03 -0.15348175722E+04  0.16341832584E+04  0.94046768455E+02 0.  0.
         11    1    3    3    0    0 -0.43572045579E+03  0.18703058102E+03 -0.13901109205E+04  0.14687549575E+04  0.00000000000E+00 0. -1.
        -11    1    3    3    0    0 -0.66784473318E+02  0.44343452852E+02 -0.14470665170E+03  0.16542830089E+03  0.00000000000E+00 0.  1.
         22    1    1    2    0    0  0.50250492911E+03 -0.23137403387E+03  0.15253248838E+04  0.16225477338E+04  0.00000000000E+00 0. -1.
<mgrwt>
<rscale>  0 0.32567172E+04</rscale>
<asrwt>0</asrwt>
<pdfrwt beam="1">  1        2 0.25124798E+00 0.32567172E+04</pdfrwt>
<pdfrwt beam="2">  1       -2 0.24978756E+00 0.32567172E+04</pdfrwt>
<totfact> 0.57733807E-01</totfact>
</mgrwt>
</event>
<event>
 6    1  0.1719556E-004  0.8319996E+03  0.7818608E-02  0.9514820E-01
         -3   -1    0    0    0  501 -0.00000000000E+00  0.00000000000E+00  0.23302096331E+03  0.23302096331E+03  0.00000000000E+00 0. -1.
          3   -1    0    0  501    0  0.00000000000E+00 -0.00000000000E+00 -0.74266213153E+03  0.74266213153E+03  0.00000000000E+00 0.  1.
         23    2    1    2    0    0  0.58745820329E+02  0.30892261798E+03  0.52218361160E+02  0.33181168993E+03  0.92130261201E+02 0.  0.
         11    1    3    3    0    0  0.69401358336E+02  0.14785064314E+03  0.41457910531E+01  0.16338160484E+03  0.00000000000E+00 0.  1.
        -11    1    3    3    0    0 -0.10655538007E+02  0.16107197484E+03  0.48072570107E+02  0.16843008510E+03  0.00000000000E+00 0. -1.
         22    1    1    2    0    0 -0.58745820329E+02 -0.30892261798E+03 -0.56185952938E+03  0.64387140491E+03  0.00000000000E+00 0.  1.
<mgrwt>
<rscale>  0 0.83199963E+03</rscale>
<asrwt>0</asrwt>
<pdfrwt beam="1">  1        3 0.11425571E+00 0.83199963E+03</pdfrwt>
<pdfrwt beam="2">  1       -3 0.35849379E-01 0.83199963E+03</pdfrwt>
<totfact> 0.12940468E+01</totfact>
</mgrwt>
</event>
<event>
 6    1  0.1719556E-004  0.2967245E+04  0.7818608E-02  0.8253147E-01
          2   -1    0    0  501    0  0.00000000000E+00  0.00000000000E+00  0.12499158246E+04  0.12499158246E+04  0.00000000000E+00 0.  1.
         -2   -1    0    0    0  501 -0.00000000000E+00 -0.00000000000E+00 -0.17610272090E+04  0.17610272090E+04  0.00000000000E+00 0. -1.
         23    2    1    2    0    0  0.46059208176E+03 -0.16086259789E+03  0.11644992552E+04  0.12657516811E+04  0.89704858823E+02 0.  0.
         13    1    3    3    0    0  0.84184512186E+02 -0.19601261659E+02  0.30246464717E+03  0.31457289193E+03  0.00000000000E+00 0.  1.
        -13    1    3    3    0    0  0.37640756957E+03 -0.14126133623E+03  0.86203460807E+03  0.95117878922E+03  0.00000000000E+00 0. -1.
         22    1    1    2    0    0 -0.46059208176E+03  0.16086259789E+03 -0.16756106397E+04  0.17451913525E+04  0.00000000000E+00 0. -1.
<mgrwt>
<rscale>  0 0.29672450E+04</rscale>
<asrwt>0</asrwt>
<pdfrwt beam="1">  1        2 0.19229474E+00 0.29672450E+04</pdfrwt>
<pdfrwt beam="2">  1       -2 0.27092726E+00 0.29672450E+04</pdfrwt>
<totfact> 0.72634379E-01</totfact>
</mgrwt>
</event>
<event>
 6    1  0.1719556E-004  0.3083892E+04  0.7818608E-02  0.8220173E-01
          2   -1    0    0  501    0  0.00000000000E+00  0.00000000000E+00  0.26797987427E+04  0.26797987427E+04  0.00000000000E+00 0.  1.
         -2   -1    0    0    0  501 -0.00000000000E+00 -0.00000000000E+00 -0.88722972892E+03  0.88722972892E+03  0.00000000000E+00 0. -1.
         23    2    1    2    0    0  0.95175542009E+03 -0.12005935670E+04  0.70918305468E+03  0.16905987689E+04  0.88996065974E+02 0.  0.
         11    1    3    3    0    0  0.42611323877E+03 -0.54766042316E+03  0.27299413587E+03  0.74567434552E+03  0.00000000000E+00 0. -1.
        -11    1    3    3    0    0  0.52564218132E+03 -0.65293314381E+03  0.43618891882E+03  0.94492442341E+03  0.00000000000E+00 0.  1.
         22    1    1    2    0    0 -0.95175542009E+03  0.12005935670E+04  0.10833859591E+04  0.18764297027E+04  0.00000000000E+00 0.  1.
<mgrwt>
<rscale>  0 0.30838918E+04</rscale>
<asrwt>0</asrwt>
<pdfrwt beam="1">  1        2 0.41227673E+00 0.30838918E+04</pdfrwt>
<pdfrwt beam="2">  1       -2 0.13649688E+00 0.30838918E+04</pdfrwt>
<totfact> 0.88982903E-01</totfact>
</mgrwt>
</event>
<event>
 6    1  0.1719556E-004  0.9347768E+03  0.7818608E-02  0.9383123E-01
         -2   -1    0    0    0  501 -0.00000000000E+00  0.00000000000E+00  0.19733816149E+03  0.19733816149E+03  0.00000000000E+00 0. -1.
          2   -1    0    0  501    0  0.00000000000E+00 -0.00000000000E+00 -0.11069928445E+04  0.11069928445E+04  0.00000000000E+00 0.  1.
         23    2    1    2    0    0 -0.31627963727E+01  0.34310989233E+03 -0.89243338929E+03  0.96077464313E+03  0.94425415429E+02 0.  0.
         11    1    3    3    0    0  0.27049329711E+02  0.24653483143E+03 -0.71121499981E+03  0.75321833840E+03  0.00000000000E+00 0.  1.
        -11    1    3    3    0    0 -0.30212126084E+02  0.96575060900E+02 -0.18121838947E+03  0.20755630473E+03  0.00000000000E+00 0. -1.
         22    1    1    2    0    0  0.31627963727E+01 -0.34310989233E+03 -0.17221293711E+02  0.34355636285E+03  0.00000000000E+00 0.  1.
<mgrwt>
<rscale>  0 0.93477683E+03</rscale>
<asrwt>0</asrwt>
<pdfrwt beam="1">  1        2 0.17030659E+00 0.93477683E+03</pdfrwt>
<pdfrwt beam="2">  1       -2 0.30359717E-01 0.93477683E+03</pdfrwt>
<totfact> 0.21627267E+02</totfact>
</mgrwt>
</event>
<event>
 6    1  0.1719556E-004  0.3682764E+04  0.7818608E-02  0.8071792E-01
         -2   -1    0    0    0  501 -0.00000000000E+00  0.00000000000E+00  0.30018262181E+04  0.30018262181E+04  0.00000000000E+00 0. -1.
          2   -1    0    0  501    0  0.00000000000E+00 -0.00000000000E+00 -0.11295414958E+04  0.11295414958E+04  0.00000000000E+00 0.  1.
         23    2    1    2    0    0  0.19255812781E+03 -0.85311972642E+03  0.27530751480E+04  0.28901249197E+04  0.92235462628E+02 0.  0.
         11    1    3    3    0    0  0.11533366259E+03 -0.30841394623E+03  0.10355457364E+04  0.10866351679E+04  0.00000000000E+00 0. -1.
        -11    1    3    3    0    0  0.77224465217E+02 -0.54470578019E+03  0.17175294116E+04  0.18034897518E+04  0.00000000000E+00 0.  1.
         22    1    1    2    0    0 -0.19255812781E+03  0.85311972642E+03 -0.88079042565E+03  0.12412427942E+04  0.00000000000E+00 0.  1.
<mgrwt>
<rscale>  0 0.36827638E+04</rscale>
<asrwt>0</asrwt>
<pdfrwt beam="1">  1        2 0.17377562E+00 0.36827638E+04</pdfrwt>
<pdfrwt beam="2">  1       -2 0.46181942E+00 0.36827638E+04</pdfrwt>
<totfact> 0.49029854E-02</totfact>
</mgrwt>
</event>
<event>
 6    1  0.1719556E-004  0.2233414E+04  0.7818608E-02  0.8504648E-01
         -1   -1    0    0    0  501 -0.00000000000E+00  0.00000000000E+00  0.44047532390E+03  0.44047532390E+03  0.00000000000E+00 0. -1.
          1   -1    0    0  501    0  0.00000000000E+00 -0.00000000000E+00 -0.28311111598E+04  0.28311111598E+04  0.00000000000E+00 0.  1.
         23    2    1    2    0    0 -0.95948096212E+03  0.21331736353E+03 -0.19678138253E+04  0.22015928076E+04  0.92798842167E+02 0.  0.
         11    1    3    3    0    0 -0.50889921632E+03  0.75266304527E+02 -0.10892210203E+04  0.12045936493E+04  0.00000000000E+00 0.  1.
        -11    1    3    3    0    0 -0.45058174580E+03  0.13805105900E+03 -0.87859280504E+03  0.99699915828E+03  0.00000000000E+00 0. -1.
         22    1    1    2    0    0  0.95948096212E+03 -0.21331736353E+03 -0.42282201057E+03  0.10699936761E+04  0.00000000000E+00 0. -1.
<mgrwt>
<rscale>  0 0.22334141E+04</rscale>
<asrwt>0</asrwt>
<pdfrwt beam="1">  1        1 0.43555557E+00 0.22334141E+04</pdfrwt>
<pdfrwt beam="2">  1       -1 0.67765434E-01 0.22334141E+04</pdfrwt>
<totfact> 0.15878736E+00</totfact>
</mgrwt>
</event>
<event>
 6    1  0.1719556E-004  0.1651730E+04  0.7818608E-02  0.8789384E-01
          2   -1    0    0  501    0  0.00000000000E+00  0.00000000000E+00  0.26025127491E+04  0.26025127491E+04  0.00000000000E+00 0.  1.
         -2   -1    0    0    0  501 -0.00000000000E+00 -0.00000000000E+00 -0.26207486824E+03  0.26207486824E+03  0.00000000000E+00 0. -1.
         23    2    1    2    0    0 -0.29640079353E+03  0.23743452436E+03  0.24407250189E+04  0.24717949318E+04  0.91667786605E+02 0.  0.
         11    1    3    3    0    0 -0.21338134385E+03  0.20799678147E+03  0.17085671966E+04  0.17343575538E+04  0.00000000000E+00 0. -1.
        -11    1    3    3    0    0 -0.83019449674E+02  0.29437742898E+02  0.73215782230E+03  0.73743737801E+03  0.00000000000E+00 0.  1.
         22    1    1    2    0    0  0.29640079353E+03 -0.23743452436E+03 -0.10028713805E+03  0.39279268555E+03  0.00000000000E+00 0. -1.
<mgrwt>
<rscale>  0 0.16517302E+04</rscale>
<asrwt>0</asrwt>
<pdfrwt beam="1">  1        2 0.40038656E+00 0.16517302E+04</pdfrwt>
<pdfrwt beam="2">  1       -2 0.40319212E-01 0.16517302E+04</pdfrwt>
<totfact> 0.16908644E+01</totfact>
</mgrwt>
</event>
<event>
 6    1  0.1719556E-004  0.4286223E+04  0.7818608E-02  0.7949170E-01
         -2   -1    0    0    0  501 -0.00000000000E+00  0.00000000000E+00  0.28019752496E+04  0.28019752496E+04  0.00000000000E+00 0. -1.
          2   -1    0    0  501    0  0.00000000000E+00 -0.00000000000E+00 -0.16391748486E+04  0.16391748486E+04  0.00000000000E+00 0.  1.
         23    2    1    2    0    0 -0.93421336822E+03 -0.16181028314E+04 -0.50388128322E+03  0.19373850879E+04  0.92483732951E+02 0.  0.
         13    1    3    3    0    0 -0.73966007692E+03 -0.12023389000E+04 -0.37450134103E+03  0.14604681148E+04  0.00000000000E+00 0.  1.
        -13    1    3    3    0    0 -0.19455329130E+03 -0.41576393132E+03 -0.12937994218E+03  0.47691697305E+03  0.00000000000E+00 0. -1.
         22    1    1    2    0    0  0.93421336822E+03  0.16181028314E+04  0.16666816843E+04  0.25037650103E+04  0.00000000000E+00 0. -1.
<mgrwt>
<rscale>  0 0.42862232E+04</rscale>
<asrwt>0</asrwt>
<pdfrwt beam="1">  1        2 0.25218075E+00 0.42862232E+04</pdfrwt>
<pdfrwt beam="2">  1       -2 0.43107311E+00 0.42862232E+04</pdfrwt>
<totfact> 0.37872032E-02</totfact>
</mgrwt>
</event>
<event>
 6    1  0.1719556E-004  0.2388908E+04  0.7818608E-02  0.8443668E-01
         -2   -1    0    0    0  501 -0.00000000000E+00  0.00000000000E+00  0.14847998927E+04  0.14847998927E+04  0.00000000000E+00 0. -1.
          2   -1    0    0  501    0  0.00000000000E+00 -0.00000000000E+00 -0.96088371097E+03  0.96088371097E+03  0.00000000000E+00 0.  1.
         23    2    1    2    0    0 -0.60447652055E+03  0.65365909497E+03 -0.55018815490E+03  0.10505627479E+04  0.91175682442E+02 0.  0.
         13    1    3    3    0    0 -0.43603338714E+03  0.43241478788E+03 -0.41662253752E+03  0.74207951208E+03  0.00000000000E+00 0. -1.
        -13    1    3    3    0    0 -0.16844313341E+03  0.22124430709E+03 -0.13356561738E+03  0.30848323578E+03  0.00000000000E+00 0.  1.
         22    1    1    2    0    0  0.60447652055E+03 -0.65365909497E+03  0.10741043366E+04  0.13951208558E+04  0.00000000000E+00 0. -1.
<mgrwt>
<rscale>  0 0.23889077E+04</rscale>
<asrwt>0</asrwt>
<pdfrwt beam="1">  1        2 0.14782826E+00 0.23889077E+04</pdfrwt>
<pdfrwt beam="2">  1       -2 0.22843075E+00 0.23889077E+04</pdfrwt>
<totfact> 0.21017557E+00</totfact>
</mgrwt>
</event>
<event>
 6    1  0.1719556E-004  0.1511560E+04  0.7818608E-02  0.8876802E-01
          1   -1    0    0  501    0  0.00000000000E+00  0.00000000000E+00  0.18159332790E+04  0.18159332790E+04  0.00000000000E+00 0. -1.
         -1   -1    0    0    0  501 -0.00000000000E+00 -0.00000000000E+00 -0.31455072098E+03  0.31455072098E+03  0.00000000000E+00 0.  1.
         23    2    1    2    0    0 -0.21534186806E+03  0.56966253729E+03  0.13776718291E+04  0.15090406229E+04  0.91303921810E+02 0.  0.
         13    1    3    3    0    0 -0.19388204338E+03  0.46138002979E+03  0.11956134940E+04  0.12961301654E+04  0.00000000000E+00 0.  1.
        -13    1    3    3    0    0 -0.21459824677E+02  0.10828250751E+03  0.18205833518E+03  0.21291045750E+03  0.00000000000E+00 0. -1.
         22    1    1    2    0    0  0.21534186806E+03 -0.56966253729E+03  0.12371072891E+03  0.62144337713E+03  0.00000000000E+00 0.  1.
<mgrwt>
<rscale>  0 0.15115596E+04</rscale>
<asrwt>0</asrwt>
<pdfrwt beam="1">  1        1 0.27937435E+00 0.15115596E+04</pdfrwt>
<pdfrwt beam="2">  1       -1 0.48392419E-01 0.15115596E+04</pdfrwt>
<totfact> 0.16406089E+01</totfact>
</mgrwt>
</event>
<event>
 6    1  0.1719556E-004  0.2455473E+04  0.7818608E-02  0.8419022E-01
          2   -1    0    0  501    0  0.00000000000E+00  0.00000000000E+00  0.15151417317E+04  0.15151417317E+04  0.00000000000E+00 0.  1.
         -2   -1    0    0    0  501 -0.00000000000E+00 -0.00000000000E+00 -0.99484898317E+03  0.99484898317E+03  0.00000000000E+00 0. -1.
         23    2    1    2    0    0  0.20558069002E+03  0.59704700640E+03 -0.81374766208E+03  0.10340529231E+04  0.91387320504E+02 0.  0.
         13    1    3    3    0    0  0.17285529199E+03  0.38059434595E+03 -0.56254664966E+03  0.70084929991E+03  0.00000000000E+00 0. -1.
        -13    1    3    3    0    0  0.32725398030E+02  0.21645266045E+03 -0.25120101241E+03  0.33320362322E+03  0.00000000000E+00 0.  1.
         22    1    1    2    0    0 -0.20558069002E+03 -0.59704700640E+03  0.13340404106E+04  0.14759377917E+04  0.00000000000E+00 0.  1.
<mgrwt>
<rscale>  0 0.24554732E+04</rscale>
<asrwt>0</asrwt>
<pdfrwt beam="1">  1        2 0.23309873E+00 0.24554732E+04</pdfrwt>
<pdfrwt beam="2">  1       -2 0.15305369E+00 0.24554732E+04</pdfrwt>
<totfact> 0.31642876E+00</totfact>
</mgrwt>
</event>
<event>
 6    1  0.1719556E-004  0.2045572E+04  0.7818608E-02  0.8585606E-01
         -2   -1    0    0    0  501 -0.00000000000E+00  0.00000000000E+00  0.10139314490E+04  0.10139314490E+04  0.00000000000E+00 0. -1.
          2   -1    0    0  501    0  0.00000000000E+00 -0.00000000000E+00 -0.10317176031E+04  0.10317176031E+04  0.00000000000E+00 0.  1.
         23    2    1    2    0    0 -0.88772526636E+03  0.48541781615E+03  0.12722190884E+03  0.10235365616E+04  0.88062898396E+02 0.  0.
         13    1    3    3    0    0 -0.57612223716E+03  0.34076284561E+03  0.48632106557E+02  0.67111938647E+03  0.00000000000E+00 0. -1.
        -13    1    3    3    0    0 -0.31160302920E+03  0.14465497054E+03  0.78589802286E+02  0.35241717514E+03  0.00000000000E+00 0.  1.
         22    1    1    2    0    0  0.88772526636E+03 -0.48541781615E+03 -0.14500806294E+03  0.10221124904E+04  0.00000000000E+00 0.  1.
<mgrwt>
<rscale>  0 0.20455717E+04</rscale>
<asrwt>0</asrwt>
<pdfrwt beam="1">  1        2 0.15872578E+00 0.20455717E+04</pdfrwt>
<pdfrwt beam="2">  1       -2 0.15598945E+00 0.20455717E+04</pdfrwt>
<totfact> 0.60042453E+00</totfact>
</mgrwt>
</event>
<event>
 6    1  0.1719556E-004  0.1450334E+04  0.7818608E-02  0.8918169E-01
         -2   -1    0    0    0  501 -0.00000000000E+00  0.00000000000E+00  0.75222773253E+03  0.75222773253E+03  0.00000000000E+00 0. -1.
          2   -1    0    0  501    0  0.00000000000E+00 -0.00000000000E+00 -0.69907992176E+03  0.69907992176E+03  0.00000000000E+00 0.  1.
         23    2    1    2    0    0  0.58161199979E+02  0.19720021868E+03  0.71948378170E+03  0.75397396260E+03  0.92461736480E+02 0.  0.
         11    1    3    3    0    0 -0.29568559146E+01  0.22573714351E+02  0.19574842865E+02  0.30024823891E+02  0.00000000000E+00 0. -1.
        -11    1    3    3    0    0  0.61118055894E+02  0.17462650433E+03  0.69990893883E+03  0.72394913870E+03  0.00000000000E+00 0.  1.
         22    1    1    2    0    0 -0.58161199979E+02 -0.19720021868E+03 -0.66633597093E+03  0.69733369170E+03  0.00000000000E+00 0.  1.
<mgrwt>
<rscale>  0 0.14503342E+04</rscale>
<asrwt>0</asrwt>
<pdfrwt beam="1">  1        2 0.10755076E+00 0.14503342E+04</pdfrwt>
<pdfrwt beam="2">  1       -2 0.11572734E+00 0.14503342E+04</pdfrwt>
<totfact> 0.23107853E+01</totfact>
</mgrwt>
</event>
<event>
 6    1  0.1719556E-004  0.2933016E+04  0.7818608E-02  0.8263122E-01
          2   -1    0    0  501    0  0.00000000000E+00  0.00000000000E+00  0.28721801301E+04  0.28721801301E+04  0.00000000000E+00 0.  1.
         -2   -1    0    0    0  501 -0.00000000000E+00 -0.00000000000E+00 -0.74878491086E+03  0.74878491086E+03  0.00000000000E+00 0. -1.
         23    2    1    2    0    0  0.38388835639E+03  0.12694508887E+04  0.29373437444E+03  0.13612007532E+04  0.87816734161E+02 0.  0.
         11    1    3    3    0    0  0.17985045003E+03  0.72580634090E+03  0.18723542030E+03  0.77084248163E+03  0.00000000000E+00 0.  1.
        -11    1    3    3    0    0  0.20403790636E+03  0.54364454783E+03  0.10649895414E+03  0.59035827161E+03  0.00000000000E+00 0. -1.
         22    1    1    2    0    0 -0.38388835639E+03 -0.12694508887E+04  0.18296608448E+04  0.22597642877E+04  0.00000000000E+00 0.  1.
<mgrwt>
<rscale>  0 0.29330156E+04</rscale>
<asrwt>0</asrwt>
<pdfrwt beam="1">  1        2 0.44187386E+00 0.29330156E+04</pdfrwt>
<pdfrwt beam="2">  1       -2 0.11519768E+00 0.29330156E+04</pdfrwt>
<totfact> 0.10556510E+00</totfact>
</mgrwt>
</event>
<event>
 6    1  0.1719556E-004  0.2121302E+04  0.7818608E-02  0.8551917E-01
         -2   -1    0    0    0  501 -0.00000000000E+00  0.00000000000E+00  0.40426217179E+03  0.40426217179E+03  0.00000000000E+00 0.  1.
          2   -1    0    0  501    0  0.00000000000E+00 -0.00000000000E+00 -0.27827992227E+04  0.27827992227E+04  0.00000000000E+00 0. -1.
         23    2    1    2    0    0  0.88578417362E+03 -0.43475993972E+03 -0.17673597479E+04  0.20263859432E+04  0.95129938363E+02 0.  0.
         11    1    3    3    0    0  0.28945212912E+03 -0.17840069084E+03 -0.54484115230E+03  0.64223144021E+03  0.00000000000E+00 0. -1.
        -11    1    3    3    0    0  0.59633204449E+03 -0.25635924888E+03 -0.12225185956E+04  0.13841545030E+04  0.00000000000E+00 0.  1.
         22    1    1    2    0    0 -0.88578417362E+03  0.43475993972E+03 -0.61117730308E+03  0.11606754513E+04  0.00000000000E+00 0.  1.
<mgrwt>
<rscale>  0 0.21213019E+04</rscale>
<asrwt>0</asrwt>
<pdfrwt beam="1">  1        2 0.42812297E+00 0.21213019E+04</pdfrwt>
<pdfrwt beam="2">  1       -2 0.62194178E-01 0.21213019E+04</pdfrwt>
<totfact> 0.52332637E+00</totfact>
</mgrwt>
</event>
<event>
 6    1  0.1719556E-004  0.2951908E+04  0.7818608E-02  0.8257599E-01
          2   -1    0    0  501    0  0.00000000000E+00  0.00000000000E+00  0.19184555421E+04  0.19184555421E+04  0.00000000000E+00 0.  1.
         -2   -1    0    0    0  501 -0.00000000000E+00 -0.00000000000E+00 -0.11355178910E+04  0.11355178910E+04  0.00000000000E+00 0. -1.
         23    2    1    2    0    0  0.52623440524E+03  0.12132392032E+04  0.10666748644E+04  0.17014281216E+04  0.90500681547E+02 0.  0.
         11    1    3    3    0    0  0.22415824354E+03  0.61005229246E+03  0.49019755617E+03  0.81406655856E+03  0.00000000000E+00 0. -1.
        -11    1    3    3    0    0  0.30207616170E+03  0.60318691073E+03  0.57647730822E+03  0.88736156308E+03  0.00000000000E+00 0.  1.
         22    1    1    2    0    0 -0.52623440524E+03 -0.12132392032E+04 -0.28373721323E+03  0.13525453115E+04  0.00000000000E+00 0.  1.
<mgrwt>
<rscale>  0 0.29519083E+04</rscale>
<asrwt>0</asrwt>
<pdfrwt beam="1">  1        2 0.29514701E+00 0.29519083E+04</pdfrwt>
<pdfrwt beam="2">  1       -2 0.17469506E+00 0.29519083E+04</pdfrwt>
<totfact> 0.12586144E+00</totfact>
</mgrwt>
</event>
<event>
 6    1  0.1719556E-004  0.2247093E+04  0.7818608E-02  0.8499079E-01
         -1   -1    0    0    0  501 -0.00000000000E+00  0.00000000000E+00  0.98831902700E+03  0.98831902700E+03  0.00000000000E+00 0.  1.
          1   -1    0    0  501    0  0.00000000000E+00 -0.00000000000E+00 -0.12772767882E+04  0.12772767882E+04  0.00000000000E+00 0. -1.
         23    2    1    2    0    0  0.57156037204E+03 -0.83781170775E+03 -0.62773652939E+03  0.11963059713E+04  0.92114657974E+02 0.  0.
         11    1    3    3    0    0  0.31337879774E+03 -0.40323101845E+03 -0.35479170859E+03  0.62183493115E+03  0.00000000000E+00 0. -1.
        -11    1    3    3    0    0  0.25818157430E+03 -0.43458068930E+03 -0.27294482079E+03  0.57447104019E+03  0.00000000000E+00 0.  1.
         22    1    1    2    0    0 -0.57156037204E+03  0.83781170775E+03  0.33877876814E+03  0.10692898439E+04  0.00000000000E+00 0. -1.
<mgrwt>
<rscale>  0 0.22470932E+04</rscale>
<asrwt>0</asrwt>
<pdfrwt beam="1">  1        1 0.19650412E+00 0.22470932E+04</pdfrwt>
<pdfrwt beam="2">  1       -1 0.15204908E+00 0.22470932E+04</pdfrwt>
<totfact> 0.28681967E+00</totfact>
</mgrwt>
</event>
<event>
 6    1  0.1719556E-004  0.2737749E+04  0.7818608E-02  0.8322860E-01
          1   -1    0    0  501    0  0.00000000000E+00  0.00000000000E+00  0.40353136161E+04  0.40353136161E+04  0.00000000000E+00 0.  1.
         -1   -1    0    0    0  501 -0.00000000000E+00 -0.00000000000E+00 -0.46435497395E+03  0.46435497395E+03  0.00000000000E+00 0. -1.
         23    2    1    2    0    0  0.88231089401E+03  0.86282795530E+03  0.27551469775E+04  0.30203128971E+04  0.92252557301E+02 0.  0.
         13    1    3    3    0    0  0.71485186538E+03  0.69823163869E+03  0.21376691074E+04  0.23596969770E+04  0.00000000000E+00 0.  1.
        -13    1    3    3    0    0  0.16745902863E+03  0.16459631661E+03  0.61747787014E+03  0.66061592005E+03  0.00000000000E+00 0. -1.
         22    1    1    2    0    0 -0.88231089401E+03 -0.86282795530E+03  0.81581166458E+03  0.14793556929E+04  0.00000000000E+00 0. -1.
<mgrwt>
<rscale>  0 0.27377494E+04</rscale>
<asrwt>0</asrwt>
<pdfrwt beam="1">  1        1 0.62081746E+00 0.27377494E+04</pdfrwt>
<pdfrwt beam="2">  1       -1 0.71439229E-01 0.27377494E+04</pdfrwt>
<totfact> 0.15387410E-01</totfact>
</mgrwt>
</event>
<event>
 6    1  0.1719556E-004  0.4842098E+04  0.7818608E-02  0.7853338E-01
         -2   -1    0    0    0  501 -0.00000000000E+00  0.00000000000E+00  0.18834706967E+04  0.18834706967E+04  0.00000000000E+00 0. -1.
          2   -1    0    0  501    0  0.00000000000E+00 -0.00000000000E+00 -0.31120627367E+04  0.31120627367E+04  0.00000000000E+00 0.  1.
         23    2    1    2    0    0 -0.35622073083E+03 -0.15273191216E+04  0.12872019845E+04  0.20309396194E+04  0.90718687135E+02 0.  0.
         11    1    3    3    0    0 -0.15246730103E+03 -0.82274419093E+03  0.65491770075E+03  0.10625777507E+04  0.00000000000E+00 0.  1.
        -11    1    3    3    0    0 -0.20375342980E+03 -0.70457493069E+03  0.63228428379E+03  0.96836186864E+03  0.00000000000E+00 0. -1.
         22    1    1    2    0    0  0.35622073083E+03  0.15273191216E+04 -0.25157940246E+04  0.29645938141E+04  0.00000000000E+00 0.  1.
<mgrwt>
<rscale>  0 0.48420983E+04</rscale>
<asrwt>0</asrwt>
<pdfrwt beam="1">  1        2 0.47877888E+00 0.48420983E+04</pdfrwt>
<pdfrwt beam="2">  1       -2 0.28976472E+00 0.48420983E+04</pdfrwt>
<totfact> 0.39978415E-02</totfact>
</mgrwt>
</event>
<event>
 6    1  0.1719556E-004  0.2865174E+04  0.7818608E-02  0.8283315E-01
         -2   -1    0    0    0  501 -0.00000000000E+00  0.00000000000E+00  0.93063226800E+03  0.93063226800E+03  0.00000000000E+00 0. -1.
          2   -1    0    0  501    0  0.00000000000E+00 -0.00000000000E+00 -0.22052808475E+04  0.22052808475E+04  0.00000000000E+00 0.  1.
         23    2    1    2    0    0 -0.91875120286E+03 -0.26362994281E+03 -0.18037767256E+04  0.20434017359E+04  0.90970647750E+02 0.  0.
         11    1    3    3    0    0 -0.54128083777E+03 -0.19825299897E+03 -0.10477134797E+04  0.11958230356E+04  0.00000000000E+00 0. -1.
        -11    1    3    3    0    0 -0.37747036510E+03 -0.65376943835E+02 -0.75606324588E+03  0.84757870023E+03  0.00000000000E+00 0.  1.
         22    1    1    2    0    0  0.91875120286E+03  0.26362994281E+03  0.52912814615E+03  0.10925113796E+04  0.00000000000E+00 0. -1.
<mgrwt>
<rscale>  0 0.28651740E+04</rscale>
<asrwt>0</asrwt>
<pdfrwt beam="1">  1        2 0.33927397E+00 0.28651740E+04</pdfrwt>
<pdfrwt beam="2">  1       -2 0.14317420E+00 0.28651740E+04</pdfrwt>
<totfact> 0.15036293E+00</totfact>
</mgrwt>
</event>
<event>
 6    1  0.1719556E-004  0.1104391E+04  0.7818608E-02  0.9200923E-01
          1   -1    0    0  501    0  0.00000000000E+00  0.00000000000E+00  0.15854786655E+03  0.15854786655E+03  0.00000000000E+00 0.  1.
         -1   -1    0    0    0  501 -0.00000000000E+00 -0.00000000000E+00 -0.19232035628E+04  0.19232035628E+04  0.00000000000E+00 0. -1.
         23    2    1    2    0    0 -0.25420004531E+03 -0.36504720085E+03 -0.14930021340E+04  0.15605290394E+04  0.91205202000E+02 0.  0.
         11    1    3    3    0    0 -0.20128899395E+03 -0.24676842229E+03 -0.11684109595E+04  0.12110310002E+04  0.00000000000E+00 0. -1.
        -11    1    3    3    0    0 -0.52911051353E+02 -0.11827877855E+03 -0.32459117455E+03  0.34949803921E+03  0.00000000000E+00 0.  1.
         22    1    1    2    0    0  0.25420004531E+03  0.36504720085E+03 -0.27165356225E+03  0.52122238993E+03  0.00000000000E+00 0.  1.
<mgrwt>
<rscale>  0 0.11043909E+04</rscale>
<asrwt>0</asrwt>
<pdfrwt beam="1">  1        1 0.24391978E-01 0.11043909E+04</pdfrwt>
<pdfrwt beam="2">  1       -1 0.29587749E+00 0.11043909E+04</pdfrwt>
<totfact> 0.71192186E+00</totfact>
</mgrwt>
</event>
<event>
 6    1  0.1719556E-004  0.3756821E+04  0.7818608E-02  0.8055485E-01
          2   -1    0    0  501    0  0.00000000000E+00  0.00000000000E+00  0.27398473351E+04  0.27398473351E+04  0.00000000000E+00 0.  1.
         -2   -1    0    0    0  501 -0.00000000000E+00 -0.00000000000E+00 -0.12878183925E+04  0.12878183925E+04  0.00000000000E+00 0. -1.
         23    2    1    2    0    0  0.38748445956E+03 -0.12911553022E+04 -0.67416312322E+03  0.15101433501E+04  0.93865863725E+02 0.  0.
         11    1    3    3    0    0  0.29051132006E+03 -0.10612413434E+04 -0.57665468065E+03  0.12422401687E+04  0.00000000000E+00 0. -1.
        -11    1    3    3    0    0  0.96973139498E+02 -0.22991395877E+03 -0.97508442566E+02  0.26790318138E+03  0.00000000000E+00 0.  1.
         22    1    1    2    0    0 -0.38748445956E+03  0.12911553022E+04  0.21261920657E+04  0.25175223775E+04  0.00000000000E+00 0.  1.
<mgrwt>
<rscale>  0 0.37568209E+04</rscale>
<asrwt>0</asrwt>
<pdfrwt beam="1">  1        2 0.42151497E+00 0.37568209E+04</pdfrwt>
<pdfrwt beam="2">  1       -2 0.19812591E+00 0.37568209E+04</pdfrwt>
<totfact> 0.27669717E-01</totfact>
</mgrwt>
</event>
<event>
 6    1  0.1719556E-004  0.6949318E+03  0.7818608E-02  0.9725939E-01
         -1   -1    0    0    0  501 -0.00000000000E+00  0.00000000000E+00  0.46526250478E+02  0.46526250478E+02  0.00000000000E+00 0.  1.
          1   -1    0    0  501    0  0.00000000000E+00 -0.00000000000E+00 -0.25949340772E+04  0.25949340772E+04  0.00000000000E+00 0. -1.
         23    2    1    2    0    0 -0.15755324137E+03 -0.24754291915E+03 -0.19604531692E+04  0.19843521175E+04  0.90422212865E+02 0.  0.
         13    1    3    3    0    0 -0.13079929918E+03 -0.13788997369E+03 -0.10666043421E+04  0.10834052447E+04  0.00000000000E+00 0.  1.
        -13    1    3    3    0    0 -0.26753942192E+02 -0.10965294546E+03 -0.89384882711E+03  0.90094687279E+03  0.00000000000E+00 0. -1.
         22    1    1    2    0    0  0.15755324137E+03  0.24754291915E+03 -0.58795465750E+03  0.65710821024E+03  0.00000000000E+00 0.  1.
<mgrwt>
<rscale>  0 0.69493180E+03</rscale>
<asrwt>0</asrwt>
<pdfrwt beam="1">  1        1 0.39922072E+00 0.69493180E+03</pdfrwt>
<pdfrwt beam="2">  1       -1 0.71578830E-02 0.69493180E+03</pdfrwt>
<totfact> 0.13046853E+02</totfact>
</mgrwt>
</event>
<event>
 6    1  0.1719556E-004  0.2445317E+04  0.7818608E-02  0.8422730E-01
         -2   -1    0    0    0  501 -0.00000000000E+00  0.00000000000E+00  0.84444428707E+03  0.84444428707E+03  0.00000000000E+00 0. -1.
          2   -1    0    0  501    0  0.00000000000E+00 -0.00000000000E+00 -0.17702699767E+04  0.17702699767E+04  0.00000000000E+00 0.  1.
         23    2    1    2    0    0  0.30162761192E+03  0.95621074193E+03 -0.12084107427E+04  0.15729981261E+04  0.93532788477E+02 0.  0.
         11    1    3    3    0    0  0.81506945953E+02  0.37857229803E+03 -0.50906535756E+03  0.63961543550E+03  0.00000000000E+00 0.  1.
        -11    1    3    3    0    0  0.22012066596E+03  0.57763844390E+03 -0.69934538514E+03  0.93338269063E+03  0.00000000000E+00 0. -1.
         22    1    1    2    0    0 -0.30162761192E+03 -0.95621074193E+03  0.28258505303E+03  0.10417161377E+04  0.00000000000E+00 0. -1.
<mgrwt>
<rscale>  0 0.24453175E+04</rscale>
<asrwt>0</asrwt>
<pdfrwt beam="1">  1        2 0.27234922E+00 0.24453175E+04</pdfrwt>
<pdfrwt beam="2">  1       -2 0.12991451E+00 0.24453175E+04</pdfrwt>
<totfact> 0.34936795E+00</totfact>
</mgrwt>
</event>
<event>
 6    1  0.1719556E-004  0.1955540E+04  0.7818608E-02  0.8627694E-01
         -1   -1    0    0    0  501 -0.00000000000E+00  0.00000000000E+00  0.51959416506E+03  0.51959416506E+03  0.00000000000E+00 0. -1.
          1   -1    0    0  501    0  0.00000000000E+00 -0.00000000000E+00 -0.18399630437E+04  0.18399630437E+04  0.00000000000E+00 0.  1.
         23    2    1    2    0    0 -0.46967965384E+03 -0.28752735191E+03 -0.16334414469E+04  0.17260863031E+04  0.89286112060E+02 0.  0.
         11    1    3    3    0    0 -0.27699089350E+03 -0.21474011151E+03 -0.10874109838E+04  0.11424972290E+04  0.00000000000E+00 0.  1.
        -11    1    3    3    0    0 -0.19268876033E+03 -0.72787240401E+02 -0.54603046312E+03  0.58358907408E+03  0.00000000000E+00 0. -1.
         22    1    1    2    0    0  0.46967965384E+03  0.28752735191E+03  0.31307256829E+03  0.63347090568E+03  0.00000000000E+00 0. -1.
<mgrwt>
<rscale>  0 0.19555399E+04</rscale>
<asrwt>0</asrwt>
<pdfrwt beam="1">  1        1 0.28307124E+00 0.19555399E+04</pdfrwt>
<pdfrwt beam="2">  1       -1 0.79937564E-01 0.19555399E+04</pdfrwt>
<totfact> 0.55677217E+00</totfact>
</mgrwt>
</event>
<event>
 6    1  0.1719556E-004  0.1206548E+04  0.7818608E-02  0.9107144E-01
         -2   -1    0    0    0  501 -0.00000000000E+00  0.00000000000E+00  0.77810638598E+03  0.77810638598E+03  0.00000000000E+00 0. -1.
          2   -1    0    0  501    0  0.00000000000E+00 -0.00000000000E+00 -0.46772447266E+03  0.46772447266E+03  0.00000000000E+00 0.  1.
         23    2    1    2    0    0  0.36151771697E+03  0.47629626763E+03  0.20411042410E+03  0.63850325045E+03  0.92044235978E+02 0.  0.
         11    1    3    3    0    0  0.81638623964E+02  0.11697032926E+03  0.87536830971E+01  0.14291098565E+03  0.00000000000E+00 0. -1.
        -11    1    3    3    0    0  0.27987909301E+03  0.35932593836E+03  0.19535674100E+03  0.49559226481E+03  0.00000000000E+00 0.  1.
         22    1    1    2    0    0 -0.36151771697E+03 -0.47629626763E+03  0.10627148922E+03  0.60732760818E+03  0.00000000000E+00 0.  1.
<mgrwt>
<rscale>  0 0.12065478E+04</rscale>
<asrwt>0</asrwt>
<pdfrwt beam="1">  1        2 0.71957611E-01 0.12065478E+04</pdfrwt>
<pdfrwt beam="2">  1       -2 0.11970867E+00 0.12065478E+04</pdfrwt>
<totfact> 0.35043668E+01</totfact>
</mgrwt>
</event>
<event>
 6    1  0.1719556E-004  0.2209678E+04  0.7818608E-02  0.8514411E-01
         -1   -1    0    0    0  501 -0.00000000000E+00  0.00000000000E+00  0.14132203836E+04  0.14132203836E+04  0.00000000000E+00 0. -1.
          1   -1    0    0  501    0  0.00000000000E+00 -0.00000000000E+00 -0.86374999395E+03  0.86374999395E+03  0.00000000000E+00 0.  1.
         23    2    1    2    0    0 -0.60729143671E+03 -0.58939065039E+03 -0.45372436179E+03  0.96449792558E+03  0.90588211662E+02 0.  0.
         11    1    3    3    0    0 -0.15048363736E+03 -0.11308274649E+03 -0.13476842911E+03  0.23150715356E+03  0.00000000000E+00 0. -1.
        -11    1    3    3    0    0 -0.45680779936E+03 -0.47630790390E+03 -0.31895593269E+03  0.73299077202E+03  0.00000000000E+00 0.  1.
         22    1    1    2    0    0  0.60729143671E+03  0.58939065039E+03  0.10031947515E+04  0.13124724520E+04  0.00000000000E+00 0. -1.
<mgrwt>
<rscale>  0 0.22096779E+04</rscale>
<asrwt>0</asrwt>
<pdfrwt beam="1">  1        1 0.13288461E+00 0.22096779E+04</pdfrwt>
<pdfrwt beam="2">  1       -1 0.21741852E+00 0.22096779E+04</pdfrwt>
<totfact> 0.20344721E+00</totfact>
</mgrwt>
</event>
<event>
 6    1  0.1719556E-004  0.2553615E+04  0.7818608E-02  0.8384130E-01
         -2   -1    0    0    0  501 -0.00000000000E+00  0.00000000000E+00  0.21298021878E+04  0.21298021878E+04  0.00000000000E+00 0. -1.
          2   -1    0    0  501    0  0.00000000000E+00 -0.00000000000E+00 -0.76544071676E+03  0.76544071676E+03  0.00000000000E+00 0.  1.
         23    2    1    2    0    0 -0.77821758224E+03 -0.73177899631E+03  0.14725339633E+04  0.18215463027E+04  0.92474617064E+02 0.  0.
         11    1    3    3    0    0 -0.58293065891E+03 -0.54043093753E+03  0.10250914627E+04  0.12971839724E+04  0.00000000000E+00 0.  1.
        -11    1    3    3    0    0 -0.19528692333E+03 -0.19134805878E+03  0.44744250066E+03  0.52436233028E+03  0.00000000000E+00 0. -1.
         22    1    1    2    0    0  0.77821758224E+03  0.73177899631E+03 -0.10817249234E+03  0.10736966019E+04  0.00000000000E+00 0.  1.
<mgrwt>
<rscale>  0 0.25536149E+04</rscale>
<asrwt>0</asrwt>
<pdfrwt beam="1">  1        2 0.11776011E+00 0.25536149E+04</pdfrwt>
<pdfrwt beam="2">  1       -2 0.32766187E+00 0.25536149E+04</pdfrwt>
<totfact> 0.69619331E-01</totfact>
</mgrwt>
</event>
<event>
 6    1  0.1719556E-004  0.5365850E+03  0.7818608E-02  0.1004648E+00
         -1   -1    0    0    0  501 -0.00000000000E+00  0.00000000000E+00  0.97544140748E+03  0.97544140748E+03  0.00000000000E+00 0. -1.
          1   -1    0    0  501    0  0.00000000000E+00 -0.00000000000E+00 -0.73793113139E+02  0.73793113139E+02  0.00000000000E+00 0.  1.
         23    2    1    2    0    0 -0.16751212863E+03  0.83902778916E+01  0.85383307415E+03  0.87482980370E+03  0.90363471236E+02 0.  0.
         13    1    3    3    0    0 -0.34102438844E+02 -0.16196198052E+02  0.38263365684E+03  0.38449162347E+03  0.00000000000E+00 0. -1.
        -13    1    3    3    0    0 -0.13340968979E+03  0.24586475943E+02  0.47119941731E+03  0.49033818024E+03  0.00000000000E+00 0.  1.
         22    1    1    2    0    0  0.16751212863E+03 -0.83902778916E+01  0.47815220192E+02  0.17440471692E+03  0.00000000000E+00 0.  1.
<mgrwt>
<rscale>  0 0.53658497E+03</rscale>
<asrwt>0</asrwt>
<pdfrwt beam="1">  1        1 0.11352787E-01 0.53658497E+03</pdfrwt>
<pdfrwt beam="2">  1       -1 0.15006790E+00 0.53658497E+03</pdfrwt>
<totfact> 0.20135154E+02</totfact>
</mgrwt>
</event>
<event>
 6    1  0.1719556E-004  0.1711745E+04  0.7818608E-02  0.8754694E-01
          2   -1    0    0  501    0  0.00000000000E+00  0.00000000000E+00  0.19040362547E+04  0.19040362547E+04  0.00000000000E+00 0.  1.
         -2   -1    0    0    0  501 -0.00000000000E+00 -0.00000000000E+00 -0.38471835675E+03  0.38471835675E+03  0.00000000000E+00 0. -1.
         23    2    1    2    0    0 -0.11797876491E+03  0.11447633861E+03  0.18816674539E+04  0.18908588692E+04  0.87470194227E+02 0.  0.
         13    1    3    3    0    0 -0.76214917791E+02  0.12188654974E+03  0.14696257776E+04  0.14766397566E+04  0.00000000000E+00 0. -1.
        -13    1    3    3    0    0 -0.41763847118E+02 -0.74102111293E+01  0.41204167633E+03  0.41421911253E+03  0.00000000000E+00 0.  1.
         22    1    1    2    0    0  0.11797876491E+03 -0.11447633861E+03 -0.36234955594E+03  0.39789574233E+03  0.00000000000E+00 0. -1.
<mgrwt>
<rscale>  0 0.17117450E+04</rscale>
<asrwt>0</asrwt>
<pdfrwt beam="1">  1        2 0.29292865E+00 0.17117450E+04</pdfrwt>
<pdfrwt beam="2">  1       -2 0.59187440E-01 0.17117450E+04</pdfrwt>
<totfact> 0.19143942E+01</totfact>
</mgrwt>
</event>
<event>
 6    1  0.1719556E-004  0.2112468E+04  0.7818608E-02  0.8555771E-01
          2   -1    0    0  501    0  0.00000000000E+00  0.00000000000E+00  0.15695228797E+04  0.15695228797E+04  0.00000000000E+00 0.  1.
         -2   -1    0    0    0  501 -0.00000000000E+00 -0.00000000000E+00 -0.71080861543E+03  0.71080861543E+03  0.00000000000E+00 0. -1.
         23    2    1    2    0    0  0.82779989759E+03 -0.61437456732E+03  0.66910540958E+03  0.12321615198E+04  0.88380893925E+02 0.  0.
         13    1    3    3    0    0  0.36739014428E+03 -0.31275693513E+03  0.27674065381E+03  0.55621741079E+03  0.00000000000E+00 0. -1.
        -13    1    3    3    0    0  0.46040975331E+03 -0.30161763218E+03  0.39236475577E+03  0.67594410905E+03  0.00000000000E+00 0.  1.
         22    1    1    2    0    0 -0.82779989759E+03  0.61437456732E+03  0.18960885474E+03  0.10481699753E+04  0.00000000000E+00 0. -1.
<mgrwt>
<rscale>  0 0.21124681E+04</rscale>
<asrwt>0</asrwt>
<pdfrwt beam="1">  1        2 0.24146506E+00 0.21124681E+04</pdfrwt>
<pdfrwt beam="2">  1       -2 0.10935517E+00 0.21124681E+04</pdfrwt>
<totfact> 0.71175293E+00</totfact>
</mgrwt>
</event>
<event>
 6    1  0.1719556E-004  0.1634055E+04  0.7818608E-02  0.8799895E-01
         -2   -1    0    0    0  501 -0.00000000000E+00  0.00000000000E+00  0.76885817216E+03  0.76885817216E+03  0.00000000000E+00 0. -1.
          2   -1    0    0  501    0  0.00000000000E+00 -0.00000000000E+00 -0.86821489695E+03  0.86821489695E+03  0.00000000000E+00 0.  1.
         23    2    1    2    0    0  0.12971749182E+03 -0.13897188859E+03 -0.84328208760E+03  0.86924186439E+03  0.91197182135E+02 0.  0.
         13    1    3    3    0    0  0.98446063698E+02 -0.39708746480E+02 -0.39241929378E+03  0.40652344844E+03  0.00000000000E+00 0. -1.
        -13    1    3    3    0    0  0.31271428122E+02 -0.99263142114E+02 -0.45086279383E+03  0.46271841595E+03  0.00000000000E+00 0.  1.
         22    1    1    2    0    0 -0.12971749182E+03  0.13897188859E+03  0.74392536282E+03  0.76783120472E+03  0.00000000000E+00 0. -1.
<mgrwt>
<rscale>  0 0.16340552E+04</rscale>
<asrwt>0</asrwt>
<pdfrwt beam="1">  1        2 0.13357152E+00 0.16340552E+04</pdfrwt>
<pdfrwt beam="2">  1       -2 0.11828587E+00 0.16340552E+04</pdfrwt>
<totfact> 0.16225388E+01</totfact>
</mgrwt>
</event>
<event>
 6    1  0.1719556E-004  0.2553069E+04  0.7818608E-02  0.8384320E-01
         -2   -1    0    0    0  501 -0.00000000000E+00  0.00000000000E+00  0.60617644507E+03  0.60617644507E+03  0.00000000000E+00 0. -1.
          2   -1    0    0  501    0  0.00000000000E+00 -0.00000000000E+00 -0.26882267338E+04  0.26882267338E+04  0.00000000000E+00 0.  1.
         23    2    1    2    0    0 -0.11158533038E+04 -0.40882720220E+03 -0.16383582304E+04  0.20258879368E+04  0.87954331891E+02 0.  0.
         11    1    3    3    0    0 -0.15055844052E+03 -0.69589771565E+02 -0.18461437676E+03  0.24817946818E+03  0.00000000000E+00 0.  1.
        -11    1    3    3    0    0 -0.96529486323E+03 -0.33923743063E+03 -0.14537438537E+04  0.17777084686E+04  0.00000000000E+00 0. -1.
         22    1    1    2    0    0  0.11158533038E+04  0.40882720220E+03 -0.44369205829E+03  0.12685152421E+04  0.00000000000E+00 0.  1.
<mgrwt>
<rscale>  0 0.25530685E+04</rscale>
<asrwt>0</asrwt>
<pdfrwt beam="1">  1        2 0.41357335E+00 0.25530685E+04</pdfrwt>
<pdfrwt beam="2">  1       -2 0.93257913E-01 0.25530685E+04</pdfrwt>
<totfact> 0.23316960E+00</totfact>
</mgrwt>
</event>
<event>
 6    1  0.1719556E-004  0.1954860E+04  0.7818608E-02  0.8628021E-01
          2   -1    0    0  501    0  0.00000000000E+00  0.00000000000E+00  0.13074642231E+04  0.13074642231E+04  0.00000000000E+00 0.  1.
         -2   -1    0    0    0  501 -0.00000000000E+00 -0.00000000000E+00 -0.73070420707E+03  0.73070420707E+03  0.00000000000E+00 0. -1.
         23    2    1    2    0    0  0.89185504371E+03  0.41934970765E+02 -0.12016930422E+03  0.90552795846E+03  0.91521916093E+02 0.  0.
         11    1    3    3    0    0  0.13038643056E+03 -0.74714899657E+01 -0.47643985478E+02  0.13901940077E+03  0.00000000000E+00 0.  1.
        -11    1    3    3    0    0  0.76146861315E+03  0.49406460731E+02 -0.72525318741E+02  0.76650855770E+03  0.00000000000E+00 0. -1.
         22    1    1    2    0    0 -0.89185504371E+03 -0.41934970765E+02  0.69692932028E+03  0.11326404717E+04  0.00000000000E+00 0.  1.
<mgrwt>
<rscale>  0 0.19548602E+04</rscale>
<asrwt>0</asrwt>
<pdfrwt beam="1">  1        2 0.20114834E+00 0.19548602E+04</pdfrwt>
<pdfrwt beam="2">  1       -2 0.11241603E+00 0.19548602E+04</pdfrwt>
<totfact> 0.95130442E+00</totfact>
</mgrwt>
</event>
<event>
 6    1  0.1719556E-004  0.3595639E+04  0.7818608E-02  0.8091491E-01
          1   -1    0    0  501    0  0.00000000000E+00  0.00000000000E+00  0.11718083781E+04  0.11718083781E+04  0.00000000000E+00 0.  1.
         -1   -1    0    0    0  501 -0.00000000000E+00 -0.00000000000E+00 -0.27582623202E+04  0.27582623202E+04  0.00000000000E+00 0. -1.
         23    2    1    2    0    0 -0.23000487219E+03 -0.14862031165E+04 -0.18681623870E+04  0.24000178912E+04  0.91396000550E+02 0.  0.
         11    1    3    3    0    0 -0.93456385781E+02 -0.86701979473E+03 -0.11140715666E+04  0.14147836852E+04  0.00000000000E+00 0. -1.
        -11    1    3    3    0    0 -0.13654848641E+03 -0.61918332175E+03 -0.75409082044E+03  0.98523420594E+03  0.00000000000E+00 0.  1.
         22    1    1    2    0    0  0.23000487219E+03  0.14862031165E+04  0.28170844487E+03  0.15300528071E+04  0.00000000000E+00 0.  1.
<mgrwt>
<rscale>  0 0.35956390E+04</rscale>
<asrwt>0</asrwt>
<pdfrwt beam="1">  1        1 0.18027821E+00 0.35956390E+04</pdfrwt>
<pdfrwt beam="2">  1       -1 0.42434804E+00 0.35956390E+04</pdfrwt>
<totfact> 0.44099844E-02</totfact>
</mgrwt>
</event>
<event>
 6    1  0.1719556E-004  0.6008965E+03  0.7818608E-02  0.9903548E-01
          1   -1    0    0  501    0  0.00000000000E+00  0.00000000000E+00  0.23237425365E+03  0.23237425365E+03  0.00000000000E+00 0.  1.
         -1   -1    0    0    0  501 -0.00000000000E+00 -0.00000000000E+00 -0.38846449737E+03  0.38846449737E+03  0.00000000000E+00 0. -1.
         23    2    1    2    0    0  0.21736660002E+03 -0.19712369828E+03 -0.89242526453E+02  0.31988259386E+03  0.90855126958E+02 0.  0.
         11    1    3    3    0    0  0.17529524267E+03 -0.19360785225E+03 -0.93598936948E+02  0.27744041442E+03  0.00000000000E+00 0. -1.
        -11    1    3    3    0    0  0.42071357354E+02 -0.35158460308E+01  0.43564104949E+01  0.42442179436E+02  0.00000000000E+00 0.  1.
         22    1    1    2    0    0 -0.21736660002E+03  0.19712369828E+03 -0.66847717273E+02  0.30095615716E+03  0.00000000000E+00 0.  1.
<mgrwt>
<rscale>  0 0.60089649E+03</rscale>
<asrwt>0</asrwt>
<pdfrwt beam="1">  1        1 0.35749886E-01 0.60089649E+03</pdfrwt>
<pdfrwt beam="2">  1       -1 0.59763768E-01 0.60089649E+03</pdfrwt>
<totfact> 0.35205366E+02</totfact>
</mgrwt>
</event>
<event>
 6    1  0.1719556E-004  0.1904444E+04  0.7818608E-02  0.8652647E-01
          1   -1    0    0  501    0  0.00000000000E+00  0.00000000000E+00  0.32631996188E+04  0.32631996188E+04  0.00000000000E+00 0. -1.
         -1   -1    0    0    0  501 -0.00000000000E+00 -0.00000000000E+00 -0.27786441211E+03  0.27786441211E+03  0.00000000000E+00 0.  1.
         23    2    1    2    0    0  0.68464799295E+03 -0.62611258200E+03  0.18761773055E+04  0.20950380667E+04  0.91560796390E+02 0.  0.
         11    1    3    3    0    0  0.19862294140E+03 -0.15336671665E+03  0.58835794145E+03  0.63963856192E+03  0.00000000000E+00 0.  1.
        -11    1    3    3    0    0  0.48602505155E+03 -0.47274586535E+03  0.12878193641E+04  0.14553995047E+04  0.00000000000E+00 0. -1.
         22    1    1    2    0    0 -0.68464799295E+03  0.62611258200E+03  0.11091579012E+04  0.14460259643E+04  0.00000000000E+00 0.  1.
<mgrwt>
<rscale>  0 0.19044443E+04</rscale>
<asrwt>0</asrwt>
<pdfrwt beam="1">  1        1 0.50203068E+00 0.19044443E+04</pdfrwt>
<pdfrwt beam="2">  1       -1 0.42748373E-01 0.19044443E+04</pdfrwt>
<totfact> 0.19269093E+00</totfact>
</mgrwt>
</event>
<event>
 6    1  0.1719556E-004  0.9087236E+03  0.7818608E-02  0.9414742E-01
         -3   -1    0    0    0  501 -0.00000000000E+00  0.00000000000E+00  0.25791905580E+03  0.25791905580E+03  0.00000000000E+00 0. -1.
          3   -1    0    0  501    0  0.00000000000E+00 -0.00000000000E+00 -0.80042408672E+03  0.80042408672E+03  0.00000000000E+00 0.  1.
         23    2    1    2    0    0 -0.33004573242E+03 -0.42951709070E+02 -0.62640031633E+03  0.71510349778E+03  0.90667642735E+02 0.  0.
         11    1    3    3    0    0 -0.41376517457E+01  0.12957505071E+01 -0.59841056524E+02  0.59997926441E+02  0.00000000000E+00 0.  1.
        -11    1    3    3    0    0 -0.32590808068E+03 -0.44247459577E+02 -0.56655925981E+03  0.65510557134E+03  0.00000000000E+00 0. -1.
         22    1    1    2    0    0  0.33004573242E+03  0.42951709070E+02  0.83895285410E+02  0.34323964473E+03  0.00000000000E+00 0. -1.
<mgrwt>
<rscale>  0 0.90872355E+03</rscale>
<asrwt>0</asrwt>
<pdfrwt beam="1">  1        3 0.12314217E+00 0.90872355E+03</pdfrwt>
<pdfrwt beam="2">  1       -3 0.39679854E-01 0.90872355E+03</pdfrwt>
<totfact> 0.88226530E+00</totfact>
</mgrwt>
</event>
<event>
 6    1  0.1726805E-004  0.4203026E+04  0.7818608E-02  0.7964797E-01
         -2   -1    0    0    0  501 -0.00000000000E+00  0.00000000000E+00  0.16922907950E+04  0.16922907950E+04  0.00000000000E+00 0. -1.
          2   -1    0    0  501    0  0.00000000000E+00 -0.00000000000E+00 -0.26096915874E+04  0.26096915874E+04  0.00000000000E+00 0.  1.
         23    2    1    2    0    0 -0.15827575613E+04 -0.10587379784E+04  0.44861739320E+03  0.19584693596E+04  0.91088210236E+02 0.  0.
         13    1    3    3    0    0 -0.93710738273E+03 -0.63336626396E+03  0.31198952965E+03  0.11733117820E+04  0.00000000000E+00 0. -1.
        -13    1    3    3    0    0 -0.64565017858E+03 -0.42537171447E+03  0.13662786354E+03  0.78515757760E+03  0.00000000000E+00 0.  1.
         22    1    1    2    0    0  0.15827575613E+04  0.10587379784E+04 -0.13660181856E+04  0.23435130228E+04  0.00000000000E+00 0.  1.
<mgrwt>
<rscale>  0 0.42030261E+04</rscale>
<asrwt>0</asrwt>
<pdfrwt beam="1">  1        2 0.40149101E+00 0.42030261E+04</pdfrwt>
<pdfrwt beam="2">  1       -2 0.26035243E+00 0.42030261E+04</pdfrwt>
<totfact> 0.12940111E-01</totfact>
</mgrwt>
</event>
<event>
 6    1  0.1719556E-004  0.4246767E+04  0.7818608E-02  0.7956535E-01
         -1   -1    0    0    0  501 -0.00000000000E+00  0.00000000000E+00  0.19247014203E+04  0.19247014203E+04  0.00000000000E+00 0. -1.
          1   -1    0    0  501    0  0.00000000000E+00 -0.00000000000E+00 -0.23425747332E+04  0.23425747332E+04  0.00000000000E+00 0.  1.
         23    2    1    2    0    0  0.13678654242E+04 -0.15501267288E+04  0.27357894320E+03  0.20873553025E+04  0.90873685371E+02 0.  0.
         11    1    3    3    0    0  0.99667908632E+03 -0.10893079068E+04  0.16365930737E+03  0.14855117926E+04  0.00000000000E+00 0. -1.
        -11    1    3    3    0    0  0.37118633792E+03 -0.46081882201E+03  0.10991963583E+03  0.60184350999E+03  0.00000000000E+00 0.  1.
         22    1    1    2    0    0 -0.13678654242E+04  0.15501267288E+04 -0.69145225611E+03  0.21799208510E+04  0.00000000000E+00 0.  1.
<mgrwt>
<rscale>  0 0.42467667E+04</rscale>
<asrwt>0</asrwt>
<pdfrwt beam="1">  1        1 0.36039611E+00 0.42467667E+04</pdfrwt>
<pdfrwt beam="2">  1       -1 0.29610791E+00 0.42467667E+04</pdfrwt>
<totfact> 0.46718774E-02</totfact>
</mgrwt>
</event>
<event>
 6    1  0.1719556E-004  0.4401059E+04  0.7818608E-02  0.7928191E-01
          2   -1    0    0  501    0  0.00000000000E+00  0.00000000000E+00  0.22204038745E+04  0.22204038745E+04  0.00000000000E+00 0.  1.
         -2   -1    0    0    0  501 -0.00000000000E+00 -0.00000000000E+00 -0.21808328424E+04  0.21808328424E+04  0.00000000000E+00 0. -1.
         23    2    1    2    0    0  0.22688182230E+03  0.85432201565E+03 -0.19944682326E+04  0.21834321273E+04  0.90171259117E+02 0.  0.
         11    1    3    3    0    0  0.23274627462E+03  0.79069377039E+03 -0.18335575985E+04  0.20102987176E+04  0.00000000000E+00 0.  1.
        -11    1    3    3    0    0 -0.58644523199E+01  0.63628245264E+02 -0.16091063411E+03  0.17313340973E+03  0.00000000000E+00 0. -1.
         22    1    1    2    0    0 -0.22688182230E+03 -0.85432201565E+03  0.20340392647E+04  0.22178045897E+04  0.00000000000E+00 0.  1.
<mgrwt>
<rscale>  0 0.44010588E+04</rscale>
<asrwt>0</asrwt>
<pdfrwt beam="1">  1        2 0.34160060E+00 0.44010588E+04</pdfrwt>
<pdfrwt beam="2">  1       -2 0.33551274E+00 0.44010588E+04</pdfrwt>
<totfact> 0.73670261E-02</totfact>
</mgrwt>
</event>
<event>
 6    1  0.1719556E-004  0.1039805E+04  0.7818608E-02  0.9265934E-01
          2   -1    0    0  501    0  0.00000000000E+00  0.00000000000E+00  0.20193760915E+04  0.20193760915E+04  0.00000000000E+00 0.  1.
         -2   -1    0    0    0  501 -0.00000000000E+00 -0.00000000000E+00 -0.13385248178E+03  0.13385248178E+03  0.00000000000E+00 0. -1.
         23    2    1    2    0    0 -0.45684940629E+03 -0.23975241591E+03  0.95146278910E+03  0.10861474060E+04  0.90786273975E+02 0.  0.
         13    1    3    3    0    0 -0.11084108430E+03 -0.26264428652E+02  0.26280287609E+03  0.28642785804E+03  0.00000000000E+00 0.  1.
        -13    1    3    3    0    0 -0.34600832199E+03 -0.21348798725E+03  0.68865991301E+03  0.79971954795E+03  0.00000000000E+00 0. -1.
         22    1    1    2    0    0  0.45684940629E+03  0.23975241591E+03  0.93406082064E+03  0.10670811673E+04  0.00000000000E+00 0.  1.
<mgrwt>
<rscale>  0 0.10398048E+04</rscale>
<asrwt>0</asrwt>
<pdfrwt beam="1">  1        2 0.31067322E+00 0.10398048E+04</pdfrwt>
<pdfrwt beam="2">  1       -2 0.20592691E-01 0.10398048E+04</pdfrwt>
<totfact> 0.13224571E+02</totfact>
</mgrwt>
</event>
<event>
 6    1  0.1719556E-004  0.1089814E+04  0.7818608E-02  0.9215177E-01
         -2   -1    0    0    0  501 -0.00000000000E+00  0.00000000000E+00  0.64881779525E+03  0.64881779525E+03  0.00000000000E+00 0. -1.
          2   -1    0    0  501    0  0.00000000000E+00 -0.00000000000E+00 -0.45763799010E+03  0.45763799010E+03  0.00000000000E+00 0.  1.
         23    2    1    2    0    0  0.47906018756E+03  0.21350840062E+03 -0.42927066801E+02  0.53209481180E+03  0.78725188115E+02 0.  0.
         13    1    3    3    0    0  0.24917981718E+03  0.70888438770E+02 -0.67169788290E+01  0.25915414302E+03  0.00000000000E+00 0.  1.
        -13    1    3    3    0    0  0.22988037039E+03  0.14261996185E+03 -0.36210087972E+02  0.27294066879E+03  0.00000000000E+00 0. -1.
         22    1    1    2    0    0 -0.47906018756E+03 -0.21350840062E+03  0.23410687195E+03  0.57436097355E+03  0.00000000000E+00 0. -1.
<mgrwt>
<rscale>  0 0.10898141E+04</rscale>
<asrwt>0</asrwt>
<pdfrwt beam="1">  1        2 0.70405845E-01 0.10898141E+04</pdfrwt>
<pdfrwt beam="2">  1       -2 0.99818122E-01 0.10898141E+04</pdfrwt>
<totfact> 0.56236821E+01</totfact>
</mgrwt>
</event>
<event>
 6    1  0.2498012E-004  0.2404823E+04  0.7818608E-02  0.8437700E-01
          2   -1    0    0  501    0  0.00000000000E+00  0.00000000000E+00  0.19719300279E+04  0.19719300279E+04  0.00000000000E+00 0.  1.
         -2   -1    0    0    0  501 -0.00000000000E+00 -0.00000000000E+00 -0.73318683957E+03  0.73318683957E+03  0.00000000000E+00 0. -1.
         23    2    1    2    0    0 -0.31349940797E+03 -0.58052870377E+03  0.17486686475E+04  0.18712587088E+04  0.92041631126E+02 0.  0.
         13    1    3    3    0    0 -0.15307833942E+03 -0.20824787792E+03  0.75839785760E+03  0.80122872332E+03  0.00000000000E+00 0. -1.
        -13    1    3    3    0    0 -0.16042106855E+03 -0.37228082585E+03  0.99027078993E+03  0.10700299855E+04  0.00000000000E+00 0.  1.
         22    1    1    2    0    0  0.31349940797E+03  0.58052870377E+03 -0.50992545922E+03  0.83385815860E+03  0.00000000000E+00 0. -1.
<mgrwt>
<rscale>  0 0.24048228E+04</rscale>
<asrwt>0</asrwt>
<pdfrwt beam="1">  1        2 0.30337385E+00 0.24048228E+04</pdfrwt>
<pdfrwt beam="2">  1       -2 0.11279798E+00 0.24048228E+04</pdfrwt>
<totfact> 0.38480638E+00</totfact>
</mgrwt>
</event>
<event>
 6    1  0.1719556E-004  0.4560378E+04  0.7818608E-02  0.7900151E-01
         -2   -1    0    0    0  501 -0.00000000000E+00  0.00000000000E+00  0.19378058054E+04  0.19378058054E+04  0.00000000000E+00 0. -1.
          2   -1    0    0  501    0  0.00000000000E+00 -0.00000000000E+00 -0.26830665659E+04  0.26830665659E+04  0.00000000000E+00 0.  1.
         23    2    1    2    0    0 -0.18548390008E+03  0.22398403012E+04  0.11180250907E+02  0.22494820922E+04  0.93572607818E+02 0.  0.
         11    1    3    3    0    0 -0.13020188075E+03  0.11052643988E+04  0.32052493660E+02  0.11133684400E+04  0.00000000000E+00 0.  1.
        -11    1    3    3    0    0 -0.55282019332E+02  0.11345759024E+04 -0.20872242753E+02  0.11361136521E+04  0.00000000000E+00 0. -1.
         22    1    1    2    0    0  0.18548390008E+03 -0.22398403012E+04 -0.75644101139E+03  0.23713902791E+04  0.00000000000E+00 0. -1.
<mgrwt>
<rscale>  0 0.45603780E+04</rscale>
<asrwt>0</asrwt>
<pdfrwt beam="1">  1        2 0.41277947E+00 0.45603780E+04</pdfrwt>
<pdfrwt beam="2">  1       -2 0.29812397E+00 0.45603780E+04</pdfrwt>
<totfact> 0.66874830E-02</totfact>
</mgrwt>
</event>
<event>
 6    1  0.1719556E-004  0.1230308E+04  0.7818608E-02  0.9086734E-01
          1   -1    0    0  501    0  0.00000000000E+00  0.00000000000E+00  0.72407056632E+03  0.72407056632E+03  0.00000000000E+00 0.  1.
         -1   -1    0    0    0  501 -0.00000000000E+00 -0.00000000000E+00 -0.52262112096E+03  0.52262112096E+03  0.00000000000E+00 0. -1.
         23    2    1    2    0    0  0.18856427221E+03  0.47567973674E+03  0.44108412109E+03  0.68166737407E+03  0.91035763833E+02 0.  0.
         13    1    3    3    0    0  0.97858587586E+02  0.13606015350E+03  0.12720115311E+03  0.21040152539E+03  0.00000000000E+00 0.  1.
        -13    1    3    3    0    0  0.90705684621E+02  0.33961958324E+03  0.31388296798E+03  0.47126584868E+03  0.00000000000E+00 0. -1.
         22    1    1    2    0    0 -0.18856427221E+03 -0.47567973674E+03 -0.23963467573E+03  0.56502431320E+03  0.00000000000E+00 0. -1.
<mgrwt>
<rscale>  0 0.12303082E+04</rscale>
<asrwt>0</asrwt>
<pdfrwt beam="1">  1        1 0.11139547E+00 0.12303082E+04</pdfrwt>
<pdfrwt beam="2">  1       -1 0.80403249E-01 0.12303082E+04</pdfrwt>
<totfact> 0.39443389E+01</totfact>
</mgrwt>
</event>
<event>
 6    1  0.1719556E-004  0.5286021E+04  0.7818608E-02  0.7785839E-01
         -2   -1    0    0    0  501 -0.00000000000E+00  0.00000000000E+00  0.18336496234E+04  0.18336496234E+04  0.00000000000E+00 0. -1.
          2   -1    0    0  501    0  0.00000000000E+00 -0.00000000000E+00 -0.38096180182E+04  0.38096180182E+04  0.00000000000E+00 0.  1.
         23    2    1    2    0    0 -0.43336301329E+03  0.24230717214E+03 -0.37588338127E+04  0.37925582195E+04  0.90277072824E+02 0.  0.
         11    1    3    3    0    0 -0.17154624730E+03  0.14169017088E+03 -0.15113032525E+04  0.15275934474E+04  0.00000000000E+00 0.  1.
        -11    1    3    3    0    0 -0.26181676599E+03  0.10061700126E+03 -0.22475305601E+04  0.22649647720E+04  0.00000000000E+00 0. -1.
         22    1    1    2    0    0  0.43336301329E+03 -0.24230717214E+03  0.17828654178E+04  0.18507094221E+04  0.00000000000E+00 0. -1.
<mgrwt>
<rscale>  0 0.52860211E+04</rscale>
<asrwt>0</asrwt>
<pdfrwt beam="1">  1        2 0.58609508E+00 0.52860211E+04</pdfrwt>
<pdfrwt beam="2">  1       -2 0.28209994E+00 0.52860211E+04</pdfrwt>
<totfact> 0.14002368E-02</totfact>
</mgrwt>
</event>
<event>
 6    1  0.1719556E-004  0.2192685E+04  0.7818608E-02  0.8521479E-01
         -2   -1    0    0    0  501 -0.00000000000E+00  0.00000000000E+00  0.10776109763E+04  0.10776109763E+04  0.00000000000E+00 0. -1.
          2   -1    0    0  501    0  0.00000000000E+00 -0.00000000000E+00 -0.11153996641E+04  0.11153996641E+04  0.00000000000E+00 0.  1.
         23    2    1    2    0    0  0.43887430242E+03 -0.65102975504E+03  0.74365144894E+03  0.10852655964E+04  0.91288235399E+02 0.  0.
         11    1    3    3    0    0  0.28848556256E+03 -0.47224333000E+03  0.56769795293E+03  0.79279168026E+03  0.00000000000E+00 0.  1.
        -11    1    3    3    0    0  0.15038873986E+03 -0.17878642505E+03  0.17595349601E+03  0.29247391613E+03  0.00000000000E+00 0. -1.
         22    1    1    2    0    0 -0.43887430242E+03  0.65102975504E+03 -0.78144013667E+03  0.11077450440E+04  0.00000000000E+00 0.  1.
<mgrwt>
<rscale>  0 0.21926850E+04</rscale>
<asrwt>0</asrwt>
<pdfrwt beam="1">  1        2 0.17159995E+00 0.21926850E+04</pdfrwt>
<pdfrwt beam="2">  1       -2 0.16578630E+00 0.21926850E+04</pdfrwt>
<totfact> 0.44544110E+00</totfact>
</mgrwt>
</event>
<event>
 6    1  0.1719556E-004  0.2147840E+04  0.7818608E-02  0.8540457E-01
         -1   -1    0    0    0  501 -0.00000000000E+00  0.00000000000E+00  0.47977985578E+03  0.47977985578E+03  0.00000000000E+00 0. -1.
          1   -1    0    0  501    0  0.00000000000E+00 -0.00000000000E+00 -0.24038199862E+04  0.24038199862E+04  0.00000000000E+00 0.  1.
         23    2    1    2    0    0 -0.52621875027E+03 -0.62142511916E+03 -0.18997618700E+04  0.20689436042E+04  0.91417298839E+02 0.  0.
         11    1    3    3    0    0 -0.14623228214E+03 -0.20442980092E+03 -0.49576679603E+03  0.55584182992E+03  0.00000000000E+00 0. -1.
        -11    1    3    3    0    0 -0.37998646813E+03 -0.41699531824E+03 -0.14039950740E+04  0.15131017743E+04  0.00000000000E+00 0.  1.
         22    1    1    2    0    0  0.52621875027E+03  0.62142511916E+03 -0.24278260372E+02  0.81465623780E+03  0.00000000000E+00 0. -1.
<mgrwt>
<rscale>  0 0.21478402E+04</rscale>
<asrwt>0</asrwt>
<pdfrwt beam="1">  1        1 0.36981845E+00 0.21478402E+04</pdfrwt>
<pdfrwt beam="2">  1       -1 0.73812287E-01 0.21478402E+04</pdfrwt>
<totfact> 0.26735765E+00</totfact>
</mgrwt>
</event>
<event>
 6    1  0.1719556E-004  0.3601022E+04  0.7818608E-02  0.8090258E-01
          3   -1    0    0  501    0  0.00000000000E+00  0.00000000000E+00  0.32378268519E+04  0.32378268519E+04  0.00000000000E+00 0. -1.
         -3   -1    0    0    0  501 -0.00000000000E+00 -0.00000000000E+00 -0.10012396667E+04  0.10012396667E+04  0.00000000000E+00 0.  1.
         23    2    1    2    0    0  0.12532261286E+04 -0.20488406808E+03  0.26199733094E+04  0.29125906873E+04  0.79819538865E+02 0.  0.
         11    1    3    3    0    0  0.74913509322E+03 -0.16077058276E+03  0.15552292533E+04  0.17337210267E+04  0.00000000000E+00 0. -1.
        -11    1    3    3    0    0  0.50409103538E+03 -0.44113485320E+02  0.10647440561E+04  0.11788696606E+04  0.00000000000E+00 0.  1.
         22    1    1    2    0    0 -0.12532261286E+04  0.20488406808E+03 -0.38338612423E+03  0.13264758313E+04  0.00000000000E+00 0.  1.
<mgrwt>
<rscale>  0 0.36010225E+04</rscale>
<asrwt>0</asrwt>
<pdfrwt beam="1">  1        3 0.49812720E+00 0.36010225E+04</pdfrwt>
<pdfrwt beam="2">  1       -3 0.15403687E+00 0.36010225E+04</pdfrwt>
<totfact> 0.22202628E-03</totfact>
</mgrwt>
</event>
<event>
 6    1  0.1719556E-004  0.3702950E+04  0.7818608E-02  0.8067308E-01
         -2   -1    0    0    0  501 -0.00000000000E+00  0.00000000000E+00  0.17940182801E+04  0.17940182801E+04  0.00000000000E+00 0. -1.
          2   -1    0    0  501    0  0.00000000000E+00 -0.00000000000E+00 -0.19107719956E+04  0.19107719956E+04  0.00000000000E+00 0.  1.
         23    2    1    2    0    0  0.11662817442E+04 -0.18691108096E+03 -0.14834106637E+04  0.18984403447E+04  0.91758848324E+02 0.  0.
         13    1    3    3    0    0  0.33823316095E+03 -0.25970453126E+02 -0.47575926139E+03  0.58431413675E+03  0.00000000000E+00 0.  1.
        -13    1    3    3    0    0  0.82804858328E+03 -0.16094062783E+03 -0.10076514023E+04  0.13141262080E+04  0.00000000000E+00 0. -1.
         22    1    1    2    0    0 -0.11662817442E+04  0.18691108096E+03  0.13666569482E+04  0.18063499310E+04  0.00000000000E+00 0. -1.
<mgrwt>
<rscale>  0 0.37029501E+04</rscale>
<asrwt>0</asrwt>
<pdfrwt beam="1">  1        2 0.29396492E+00 0.37029501E+04</pdfrwt>
<pdfrwt beam="2">  1       -2 0.27600281E+00 0.37029501E+04</pdfrwt>
<totfact> 0.26964586E-01</totfact>
</mgrwt>
</event>
<event>
 6    1  0.1719556E-004  0.2403411E+04  0.7818608E-02  0.8438228E-01
          1   -1    0    0  501    0  0.00000000000E+00  0.00000000000E+00  0.85767883978E+03  0.85767883978E+03  0.00000000000E+00 0. -1.
         -1   -1    0    0    0  501 -0.00000000000E+00 -0.00000000000E+00 -0.16837263167E+04  0.16837263167E+04  0.00000000000E+00 0.  1.
         23    2    1    2    0    0 -0.10332638640E+04  0.61014226958E+03 -0.41994565624E+03  0.12745876911E+04  0.91168120850E+02 0.  0.
         11    1    3    3    0    0 -0.24759616675E+03  0.19257449878E+03 -0.11178599236E+03  0.33299385499E+03  0.00000000000E+00 0. -1.
        -11    1    3    3    0    0 -0.78566769729E+03  0.41756777081E+03 -0.30815966388E+03  0.94159383612E+03  0.00000000000E+00 0.  1.
         22    1    1    2    0    0  0.10332638640E+04 -0.61014226958E+03 -0.40610182070E+03  0.12668174654E+04  0.00000000000E+00 0.  1.
<mgrwt>
<rscale>  0 0.24034113E+04</rscale>
<asrwt>0</asrwt>
<pdfrwt beam="1">  1        1 0.13195059E+00 0.24034113E+04</pdfrwt>
<pdfrwt beam="2">  1       -1 0.25903482E+00 0.24034113E+04</pdfrwt>
<totfact> 0.10760289E+00</totfact>
</mgrwt>
</event>
<event>
 6    1  0.1719556E-004  0.5001895E+04  0.7818608E-02  0.7828215E-01
          1   -1    0    0  501    0  0.00000000000E+00  0.00000000000E+00  0.36433316237E+04  0.36433316237E+04  0.00000000000E+00 0.  1.
         -1   -1    0    0    0  501 -0.00000000000E+00 -0.00000000000E+00 -0.17167634174E+04  0.17167634174E+04  0.00000000000E+00 0. -1.
         23    2    1    2    0    0 -0.64472696858E+03  0.22983779117E+04  0.16711573324E+03  0.23946461890E+04  0.90492060849E+02 0.  0.
         11    1    3    3    0    0 -0.53401201334E+03  0.18261320673E+04  0.10326122154E+03  0.19054107267E+04  0.00000000000E+00 0. -1.
        -11    1    3    3    0    0 -0.11071495524E+03  0.47224584445E+03  0.63854511707E+02  0.48923546230E+03  0.00000000000E+00 0.  1.
         22    1    1    2    0    0  0.64472696858E+03 -0.22983779117E+04  0.17594524731E+04  0.29654488520E+04  0.00000000000E+00 0.  1.
<mgrwt>
<rscale>  0 0.50018950E+04</rscale>
<asrwt>0</asrwt>
<pdfrwt beam="1">  1        1 0.56051256E+00 0.50018950E+04</pdfrwt>
<pdfrwt beam="2">  1       -1 0.26411745E+00 0.50018950E+04</pdfrwt>
<totfact> 0.78027423E-03</totfact>
</mgrwt>
</event>
<event>
 6    1  0.1719556E-004  0.2640003E+04  0.7818608E-02  0.8354739E-01
         -2   -1    0    0    0  501 -0.00000000000E+00  0.00000000000E+00  0.15831480421E+04  0.15831480421E+04  0.00000000000E+00 0. -1.
          2   -1    0    0  501    0  0.00000000000E+00 -0.00000000000E+00 -0.11005940945E+04  0.11005940945E+04  0.00000000000E+00 0.  1.
         23    2    1    2    0    0 -0.97986969432E+03  0.19744287302E+03  0.11155547878E+04  0.15006029353E+04  0.90655274916E+02 0.  0.
         11    1    3    3    0    0 -0.59759643243E+03  0.78763552249E+02  0.69627467831E+03  0.92093627406E+03  0.00000000000E+00 0. -1.
        -11    1    3    3    0    0 -0.38227326189E+03  0.11867932077E+03  0.41928010947E+03  0.57966666122E+03  0.00000000000E+00 0.  1.
         22    1    1    2    0    0  0.97986969432E+03 -0.19744287302E+03 -0.63300084016E+03  0.11831392013E+04  0.00000000000E+00 0.  1.
<mgrwt>
<rscale>  0 0.26400026E+04</rscale>
<asrwt>0</asrwt>
<pdfrwt beam="1">  1        2 0.16932217E+00 0.26400026E+04</pdfrwt>
<pdfrwt beam="2">  1       -2 0.24356124E+00 0.26400026E+04</pdfrwt>
<totfact> 0.13512110E+00</totfact>
</mgrwt>
</event>
<event>
 6    1  0.1719556E-004  0.4456908E+04  0.7818608E-02  0.7918225E-01
          2   -1    0    0  501    0  0.00000000000E+00  0.00000000000E+00  0.21813652923E+04  0.21813652923E+04  0.00000000000E+00 0.  1.
         -2   -1    0    0    0  501 -0.00000000000E+00 -0.00000000000E+00 -0.22765597032E+04  0.22765597032E+04  0.00000000000E+00 0. -1.
         23    2    1    2    0    0 -0.71771985959E+03  0.20876254884E+04 -0.34527879768E+03  0.22362490117E+04  0.91050631426E+02 0.  0.
         11    1    3    3    0    0 -0.30261891621E+03  0.75346055320E+03 -0.11161698404E+03  0.81959707467E+03  0.00000000000E+00 0. -1.
        -11    1    3    3    0    0 -0.41510094337E+03  0.13341649352E+04 -0.23366181364E+03  0.14166519370E+04  0.00000000000E+00 0.  1.
         22    1    1    2    0    0  0.71771985959E+03 -0.20876254884E+04  0.25008438683E+03  0.22216759838E+04  0.00000000000E+00 0.  1.
<mgrwt>
<rscale>  0 0.44569085E+04</rscale>
<asrwt>0</asrwt>
<pdfrwt beam="1">  1        2 0.33559466E+00 0.44569085E+04</pdfrwt>
<pdfrwt beam="2">  1       -2 0.35023995E+00 0.44569085E+04</pdfrwt>
<totfact> 0.62358488E-02</totfact>
</mgrwt>
</event>
<event>
 6    1  0.1719556E-004  0.1132674E+04  0.7818608E-02  0.9173918E-01
          2   -1    0    0  501    0  0.00000000000E+00  0.00000000000E+00  0.15757870675E+04  0.15757870675E+04  0.00000000000E+00 0.  1.
         -2   -1    0    0    0  501 -0.00000000000E+00 -0.00000000000E+00 -0.20354120055E+03  0.20354120055E+03  0.00000000000E+00 0. -1.
         23    2    1    2    0    0  0.38339540772E+03  0.30083447476E+03  0.11324630636E+04  0.12361991741E+04  0.90677383410E+02 0.  0.
         13    1    3    3    0    0  0.14071921944E+03  0.16349003973E+03  0.45270787347E+03  0.50147314037E+03  0.00000000000E+00 0.  1.
        -13    1    3    3    0    0  0.24267618828E+03  0.13734443503E+03  0.67975519013E+03  0.73472603377E+03  0.00000000000E+00 0. -1.
         22    1    1    2    0    0 -0.38339540772E+03 -0.30083447476E+03  0.23978280335E+03  0.54312909391E+03  0.00000000000E+00 0. -1.
<mgrwt>
<rscale>  0 0.11326740E+04</rscale>
<asrwt>0</asrwt>
<pdfrwt beam="1">  1        2 0.24242877E+00 0.11326740E+04</pdfrwt>
<pdfrwt beam="2">  1       -2 0.31314032E-01 0.11326740E+04</pdfrwt>
<totfact> 0.10783055E+02</totfact>
</mgrwt>
</event>
<event>
 6    1  0.1719556E-004  0.4382826E+04  0.7818608E-02  0.7931478E-01
          1   -1    0    0  501    0  0.00000000000E+00  0.00000000000E+00  0.29740641585E+04  0.29740641585E+04  0.00000000000E+00 0.  1.
         -1   -1    0    0    0  501 -0.00000000000E+00 -0.00000000000E+00 -0.16147230832E+04  0.16147230832E+04  0.00000000000E+00 0. -1.
         23    2    1    2    0    0 -0.16569294380E+04 -0.14254833070E+04  0.53006457730E+03  0.22510282013E+04  0.93496984025E+02 0.  0.
         13    1    3    3    0    0 -0.19435208228E+03 -0.13134593863E+03  0.66969018840E+02  0.24394535652E+03  0.00000000000E+00 0. -1.
        -13    1    3    3    0    0 -0.14625773557E+04 -0.12941373684E+04  0.46309555846E+03  0.20070828448E+04  0.00000000000E+00 0.  1.
         22    1    1    2    0    0  0.16569294380E+04  0.14254833070E+04  0.82927649800E+03  0.23377590404E+04  0.00000000000E+00 0.  1.
<mgrwt>
<rscale>  0 0.43828256E+04</rscale>
<asrwt>0</asrwt>
<pdfrwt beam="1">  1        1 0.45754833E+00 0.43828256E+04</pdfrwt>
<pdfrwt beam="2">  1       -1 0.24841894E+00 0.43828256E+04</pdfrwt>
<totfact> 0.33808040E-02</totfact>
</mgrwt>
</event>
<event>
 6    1  0.1719556E-004  0.8772015E+03  0.7818608E-02  0.9454538E-01
          1   -1    0    0  501    0  0.00000000000E+00  0.00000000000E+00  0.49422148152E+03  0.49422148152E+03  0.00000000000E+00 0.  1.
         -1   -1    0    0    0  501 -0.00000000000E+00 -0.00000000000E+00 -0.38923966920E+03  0.38923966920E+03  0.00000000000E+00 0. -1.
         23    2    1    2    0    0  0.40907021005E+03  0.87056873664E+02  0.16869468733E+03  0.46040481115E+03  0.92721931584E+02 0.  0.
         11    1    3    3    0    0  0.75943694594E+02 -0.19742165441E+02  0.27261989118E+02  0.83068729950E+02  0.00000000000E+00 0.  1.
        -11    1    3    3    0    0  0.33312651546E+03  0.10679903910E+03  0.14143269822E+03  0.37733608120E+03  0.00000000000E+00 0. -1.
         22    1    1    2    0    0 -0.40907021005E+03 -0.87056873664E+02 -0.63712875019E+02  0.42305633956E+03  0.00000000000E+00 0. -1.
<mgrwt>
<rscale>  0 0.87720147E+03</rscale>
<asrwt>0</asrwt>
<pdfrwt beam="1">  1        1 0.76034074E-01 0.87720147E+03</pdfrwt>
<pdfrwt beam="2">  1       -1 0.59883026E-01 0.87720147E+03</pdfrwt>
<totfact> 0.12850975E+02</totfact>
</mgrwt>
</event>
<event>
 6    1  0.1719556E-004  0.7718583E+03  0.7818608E-02  0.9601669E-01
         -2   -1    0    0    0  501 -0.00000000000E+00  0.00000000000E+00  0.70855633291E+03  0.70855633291E+03  0.00000000000E+00 0.  1.
          2   -1    0    0  501    0  0.00000000000E+00 -0.00000000000E+00 -0.21020388207E+03  0.21020388207E+03  0.00000000000E+00 0. -1.
         23    2    1    2    0    0  0.22263015010E+03 -0.10003807831E+03  0.60017982525E+03  0.65429733473E+03  0.91199664198E+02 0.  0.
         11    1    3    3    0    0  0.10728661596E+03 -0.81241325170E+02  0.23419861963E+03  0.27011028177E+03  0.00000000000E+00 0. -1.
        -11    1    3    3    0    0  0.11534353415E+03 -0.18796753138E+02  0.36598120562E+03  0.38418705297E+03  0.00000000000E+00 0.  1.
         22    1    1    2    0    0 -0.22263015010E+03  0.10003807831E+03 -0.10182737442E+03  0.26446288025E+03  0.00000000000E+00 0. -1.
<mgrwt>
<rscale>  0 0.77185826E+03</rscale>
<asrwt>0</asrwt>
<pdfrwt beam="1">  1        2 0.32339059E-01 0.77185826E+03</pdfrwt>
<pdfrwt beam="2">  1       -2 0.10900867E+00 0.77185826E+03</pdfrwt>
<totfact> 0.11070597E+02</totfact>
</mgrwt>
</event>
<event>
 6    1  0.1719556E-004  0.8377271E+03  0.7818608E-02  0.9506959E-01
         -1   -1    0    0    0  501 -0.00000000000E+00  0.00000000000E+00  0.13778921348E+03  0.13778921348E+03  0.00000000000E+00 0. -1.
          1   -1    0    0  501    0  0.00000000000E+00 -0.00000000000E+00 -0.12732976262E+04  0.12732976262E+04  0.00000000000E+00 0.  1.
         23    2    1    2    0    0 -0.20329122385E+03 -0.19401554272E+03 -0.10863443737E+04  0.11258037255E+04  0.91217199713E+02 0.  0.
         11    1    3    3    0    0 -0.15590877082E+03 -0.12546144911E+03 -0.60333777161E+03  0.63566074810E+03  0.00000000000E+00 0. -1.
        -11    1    3    3    0    0 -0.47382453022E+02 -0.68554093615E+02 -0.48300660209E+03  0.49014297737E+03  0.00000000000E+00 0.  1.
         22    1    1    2    0    0  0.20329122385E+03  0.19401554272E+03 -0.49164039002E+02  0.28528311419E+03  0.00000000000E+00 0. -1.
<mgrwt>
<rscale>  0 0.83772711E+03</rscale>
<asrwt>0</asrwt>
<pdfrwt beam="1">  1        1 0.19589195E+00 0.83772711E+03</pdfrwt>
<pdfrwt beam="2">  1       -1 0.21198340E-01 0.83772711E+03</pdfrwt>
<totfact> 0.17710312E+02</totfact>
</mgrwt>
</event>
<event>
 6    1  0.1719556E-004  0.4034157E+04  0.7818608E-02  0.7997691E-01
          2   -1    0    0  501    0  0.00000000000E+00  0.00000000000E+00  0.41683412874E+04  0.41683412874E+04  0.00000000000E+00 0.  1.
         -2   -1    0    0    0  501 -0.00000000000E+00 -0.00000000000E+00 -0.97607298184E+03  0.97607298184E+03  0.00000000000E+00 0. -1.
         23    2    1    2    0    0 -0.18345273223E+04  0.31774252134E+03  0.61079949078E+03  0.19615803044E+04  0.90942104812E+02 0.  0.
         13    1    3    3    0    0 -0.14240659611E+04  0.28063514626E+03  0.49393088185E+03  0.15331952462E+04  0.00000000000E+00 0.  1.
        -13    1    3    3    0    0 -0.41046136122E+03  0.37107375084E+02  0.11686860893E+03  0.42838505821E+03  0.00000000000E+00 0. -1.
         22    1    1    2    0    0  0.18345273223E+04 -0.31774252134E+03  0.25814688148E+04  0.31828339649E+04  0.00000000000E+00 0.  1.
<mgrwt>
<rscale>  0 0.40341568E+04</rscale>
<asrwt>0</asrwt>
<pdfrwt beam="1">  1        2 0.64128327E+00 0.40341568E+04</pdfrwt>
<pdfrwt beam="2">  1       -2 0.15016508E+00 0.40341568E+04</pdfrwt>
<totfact> 0.57929440E-02</totfact>
</mgrwt>
</event>
<event>
 6    1  0.1719556E-004  0.1988958E+04  0.7818608E-02  0.8611801E-01
          2   -1    0    0  501    0  0.00000000000E+00  0.00000000000E+00  0.10050573580E+04  0.10050573580E+04  0.00000000000E+00 0.  1.
         -2   -1    0    0    0  501 -0.00000000000E+00 -0.00000000000E+00 -0.98401196300E+03  0.98401196300E+03  0.00000000000E+00 0. -1.
         23    2    1    2    0    0 -0.34403664989E+03  0.36521478842E+03  0.86675285746E+03  0.10057259576E+04  0.92093038688E+02 0.  0.
         13    1    3    3    0    0 -0.26969710212E+03  0.32984160915E+03  0.75498276395E+03  0.86690886942E+03  0.00000000000E+00 0.  1.
        -13    1    3    3    0    0 -0.74339547767E+02  0.35373179277E+02  0.11177009351E+03  0.13881708820E+03  0.00000000000E+00 0. -1.
         22    1    1    2    0    0  0.34403664989E+03 -0.36521478842E+03 -0.84570746248E+03  0.98334336335E+03  0.00000000000E+00 0. -1.
<mgrwt>
<rscale>  0 0.19889580E+04</rscale>
<asrwt>0</asrwt>
<pdfrwt beam="1">  1        2 0.15462421E+00 0.19889580E+04</pdfrwt>
<pdfrwt beam="2">  1       -2 0.15138646E+00 0.19889580E+04</pdfrwt>
<totfact> 0.67964734E+00</totfact>
</mgrwt>
</event>
<event>
 6    1  0.1719556E-004  0.1141716E+04  0.7818608E-02  0.9165460E-01
          2   -1    0    0  501    0  0.00000000000E+00  0.00000000000E+00  0.72139229815E+03  0.72139229815E+03  0.00000000000E+00 0.  1.
         -2   -1    0    0    0  501 -0.00000000000E+00 -0.00000000000E+00 -0.45173601797E+03  0.45173601797E+03  0.00000000000E+00 0. -1.
         23    2    1    2    0    0  0.70513130110E+02  0.34813414008E+03  0.59012381523E+03  0.69472584746E+03  0.90710555212E+02 0.  0.
         11    1    3    3    0    0  0.35948747212E+02  0.21752231925E+03  0.27948862428E+03  0.35598056534E+03  0.00000000000E+00 0.  1.
        -11    1    3    3    0    0  0.34564382898E+02  0.13061182083E+03  0.31063519095E+03  0.33874528212E+03  0.00000000000E+00 0. -1.
         22    1    1    2    0    0 -0.70513130110E+02 -0.34813414008E+03 -0.32046753505E+03  0.47840246866E+03  0.00000000000E+00 0. -1.
<mgrwt>
<rscale>  0 0.11417160E+04</rscale>
<asrwt>0</asrwt>
<pdfrwt beam="1">  1        2 0.11098343E+00 0.11417160E+04</pdfrwt>
<pdfrwt beam="2">  1       -2 0.69497849E-01 0.11417160E+04</pdfrwt>
<totfact> 0.73782539E+01</totfact>
</mgrwt>
</event>
<event>
 6    1  0.1719556E-004  0.2323909E+04  0.7818608E-02  0.8468553E-01
         -2   -1    0    0    0  501 -0.00000000000E+00  0.00000000000E+00  0.61792471878E+03  0.61792471878E+03  0.00000000000E+00 0. -1.
          2   -1    0    0  501    0  0.00000000000E+00 -0.00000000000E+00 -0.21849555289E+04  0.21849555289E+04  0.00000000000E+00 0.  1.
         23    2    1    2    0    0 -0.36247581507E+03  0.11009904198E+04 -0.84374164936E+03  0.14366021533E+04  0.91417476200E+02 0.  0.
         13    1    3    3    0    0 -0.94670784151E+02  0.42415593486E+03 -0.30134450752E+03  0.52884716759E+03  0.00000000000E+00 0. -1.
        -13    1    3    3    0    0 -0.26780503092E+03  0.67683448497E+03 -0.54239714184E+03  0.90775498572E+03  0.00000000000E+00 0.  1.
         22    1    1    2    0    0  0.36247581507E+03 -0.11009904198E+04 -0.72328916076E+03  0.13662780944E+04  0.00000000000E+00 0. -1.
<mgrwt>
<rscale>  0 0.23239088E+04</rscale>
<asrwt>0</asrwt>
<pdfrwt beam="1">  1        2 0.33614701E+00 0.23239088E+04</pdfrwt>
<pdfrwt beam="2">  1       -2 0.95065341E-01 0.23239088E+04</pdfrwt>
<totfact> 0.44327797E+00</totfact>
</mgrwt>
</event>
<event>
 6    1  0.1719556E-004  0.2206348E+04  0.7818608E-02  0.8515791E-01
          2   -1    0    0  501    0  0.00000000000E+00  0.00000000000E+00  0.15932760869E+04  0.15932760869E+04  0.00000000000E+00 0.  1.
         -2   -1    0    0    0  501 -0.00000000000E+00 -0.00000000000E+00 -0.76383035539E+03  0.76383035539E+03  0.00000000000E+00 0. -1.
         23    2    1    2    0    0 -0.34127753229E+03 -0.53280632472E+02  0.15326085545E+04  0.15736862897E+04  0.91051508010E+02 0.  0.
         13    1    3    3    0    0 -0.91209803207E+02  0.14655501006E+02  0.53809558888E+03  0.54596783302E+03  0.00000000000E+00 0.  1.
        -13    1    3    3    0    0 -0.25006772908E+03 -0.67936133478E+02  0.99451296561E+03  0.10277184566E+04  0.00000000000E+00 0. -1.
         22    1    1    2    0    0  0.34127753229E+03  0.53280632472E+02 -0.70316282301E+03  0.78342015260E+03  0.00000000000E+00 0. -1.
<mgrwt>
<rscale>  0 0.22063478E+04</rscale>
<asrwt>0</asrwt>
<pdfrwt beam="1">  1        2 0.24511940E+00 0.22063478E+04</pdfrwt>
<pdfrwt beam="2">  1       -2 0.11751236E+00 0.22063478E+04</pdfrwt>
<totfact> 0.57480709E+00</totfact>
</mgrwt>
</event>
<event>
 6    1  0.1719556E-004  0.1525806E+04  0.7818608E-02  0.8867471E-01
         -1   -1    0    0    0  501 -0.00000000000E+00  0.00000000000E+00  0.19300935042E+03  0.19300935042E+03  0.00000000000E+00 0. -1.
          1   -1    0    0  501    0  0.00000000000E+00 -0.00000000000E+00 -0.30155063276E+04  0.30155063276E+04  0.00000000000E+00 0.  1.
         23    2    1    2    0    0  0.40243618780E+03  0.19933507875E+03 -0.27062121701E+04  0.27446067265E+04  0.87134465869E+02 0.  0.
         11    1    3    3    0    0  0.12899758306E+03  0.69976131628E+02 -0.65717293293E+03  0.67335971012E+03  0.00000000000E+00 0. -1.
        -11    1    3    3    0    0  0.27343860474E+03  0.12935894712E+03 -0.20490392371E+04  0.20712470164E+04  0.00000000000E+00 0.  1.
         22    1    1    2    0    0 -0.40243618780E+03 -0.19933507875E+03 -0.11628480707E+03  0.46390895144E+03  0.00000000000E+00 0. -1.
<mgrwt>
<rscale>  0 0.15258059E+04</rscale>
<asrwt>0</asrwt>
<pdfrwt beam="1">  1        1 0.46392403E+00 0.15258059E+04</pdfrwt>
<pdfrwt beam="2">  1       -1 0.29693747E-01 0.15258059E+04</pdfrwt>
<totfact> 0.58755412E+00</totfact>
</mgrwt>
</event>
<event>
 6    1  0.1719556E-004  0.6613019E+03  0.7818608E-02  0.9785800E-01
          2   -1    0    0  501    0  0.00000000000E+00  0.00000000000E+00  0.19936949119E+04  0.19936949119E+04  0.00000000000E+00 0.  1.
         -2   -1    0    0    0  501 -0.00000000000E+00 -0.00000000000E+00 -0.54837909078E+02  0.54837909078E+02  0.00000000000E+00 0. -1.
         23    2    1    2    0    0  0.71205449794E+02  0.40220736346E+02  0.19601706339E+04  0.19640213153E+04  0.91776300500E+02 0.  0.
         13    1    3    3    0    0  0.54969101717E+02  0.44329628108E+02  0.66436564354E+03  0.66810809484E+03  0.00000000000E+00 0. -1.
        -13    1    3    3    0    0  0.16236348077E+02 -0.41088917619E+01  0.12958049904E+04  0.12959132205E+04  0.00000000000E+00 0.  1.
         22    1    1    2    0    0 -0.71205449794E+02 -0.40220736346E+02 -0.21313631103E+02  0.84511505628E+02  0.00000000000E+00 0. -1.
<mgrwt>
<rscale>  0 0.66130193E+03</rscale>
<asrwt>0</asrwt>
<pdfrwt beam="1">  1        2 0.30672224E+00 0.66130193E+03</pdfrwt>
<pdfrwt beam="2">  1       -2 0.84366029E-02 0.66130193E+03</pdfrwt>
<totfact> 0.62659719E+02</totfact>
</mgrwt>
</event>
<event>
 6    1  0.1719556E-004  0.3257507E+04  0.7818608E-02  0.8173793E-01
         -2   -1    0    0    0  501 -0.00000000000E+00  0.00000000000E+00  0.92154820829E+03  0.92154820829E+03  0.00000000000E+00 0. -1.
          2   -1    0    0  501    0  0.00000000000E+00 -0.00000000000E+00 -0.28786747070E+04  0.28786747070E+04  0.00000000000E+00 0.  1.
         23    2    1    2    0    0 -0.10886295835E+04 -0.92748260164E+03 -0.18858916923E+04  0.23682966797E+04  0.83086349514E+02 0.  0.
         11    1    3    3    0    0 -0.28097769780E+03 -0.22927549511E+03 -0.53808748310E+03  0.64888663015E+03  0.00000000000E+00 0. -1.
        -11    1    3    3    0    0 -0.80765188571E+03 -0.69820710653E+03 -0.13478042092E+04  0.17194100496E+04  0.00000000000E+00 0.  1.
         22    1    1    2    0    0  0.10886295835E+04  0.92748260164E+03 -0.71234806363E+02  0.14319262356E+04  0.00000000000E+00 0. -1.
<mgrwt>
<rscale>  0 0.32575067E+04</rscale>
<asrwt>0</asrwt>
<pdfrwt beam="1">  1        2 0.44287302E+00 0.32575067E+04</pdfrwt>
<pdfrwt beam="2">  1       -2 0.14177665E+00 0.32575067E+04</pdfrwt>
<totfact> 0.60279264E-01</totfact>
</mgrwt>
</event>
<event>
 6    1  0.1719556E-004  0.2617809E+04  0.7818608E-02  0.8362177E-01
          1   -1    0    0  501    0  0.00000000000E+00  0.00000000000E+00  0.19619052616E+04  0.19619052616E+04  0.00000000000E+00 0.  1.
         -1   -1    0    0    0  501 -0.00000000000E+00 -0.00000000000E+00 -0.87324888415E+03  0.87324888415E+03  0.00000000000E+00 0. -1.
         23    2    1    2    0    0 -0.12870187471E+04 -0.10683929291E+03  0.32431340783E+03  0.13344702799E+04  0.88316767684E+02 0.  0.
         13    1    3    3    0    0 -0.93181191607E+03 -0.11676374467E+03  0.23836563018E+03  0.96887841995E+03  0.00000000000E+00 0. -1.
        -13    1    3    3    0    0 -0.35520683106E+03  0.99244517519E+01  0.85947777644E+02  0.36559185995E+03  0.00000000000E+00 0.  1.
         22    1    1    2    0    0  0.12870187471E+04  0.10683929291E+03  0.76434296961E+03  0.15006838658E+04  0.00000000000E+00 0.  1.
<mgrwt>
<rscale>  0 0.26178095E+04</rscale>
<asrwt>0</asrwt>
<pdfrwt beam="1">  1        1 0.30183158E+00 0.26178095E+04</pdfrwt>
<pdfrwt beam="2">  1       -1 0.13434598E+00 0.26178095E+04</pdfrwt>
<totfact> 0.12970833E+00</totfact>
</mgrwt>
</event>
<event>
 6    1  0.1719556E-004  0.1102055E+04  0.7818608E-02  0.9203191E-01
         -2   -1    0    0    0  501 -0.00000000000E+00  0.00000000000E+00  0.17356274421E+03  0.17356274421E+03  0.00000000000E+00 0. -1.
          2   -1    0    0  501    0  0.00000000000E+00 -0.00000000000E+00 -0.17494034143E+04  0.17494034143E+04  0.00000000000E+00 0.  1.
         23    2    1    2    0    0  0.31066781962E+03 -0.44650974027E+03 -0.68632901861E+03  0.88031740633E+03  0.89586672044E+02 0.  0.
         11    1    3    3    0    0  0.21192508753E+03 -0.27052520505E+03 -0.36880497515E+03  0.50409645802E+03  0.00000000000E+00 0. -1.
        -11    1    3    3    0    0  0.98742732094E+02 -0.17598453522E+03 -0.31752404346E+03  0.37622094832E+03  0.00000000000E+00 0.  1.
         22    1    1    2    0    0 -0.31066781962E+03  0.44650974027E+03 -0.88951165153E+03  0.10426487522E+04  0.00000000000E+00 0.  1.
<mgrwt>
<rscale>  0 0.11020549E+04</rscale>
<asrwt>0</asrwt>
<pdfrwt beam="1">  1        2 0.26913900E+00 0.11020549E+04</pdfrwt>
<pdfrwt beam="2">  1       -2 0.26701959E-01 0.11020549E+04</pdfrwt>
<totfact> 0.11628815E+02</totfact>
</mgrwt>
</event>
<event>
 6    1  0.1719556E-004  0.1780920E+04  0.7818608E-02  0.8716512E-01
          2   -1    0    0  501    0  0.00000000000E+00  0.00000000000E+00  0.50499768660E+03  0.50499768660E+03  0.00000000000E+00 0.  1.
         -2   -1    0    0    0  501 -0.00000000000E+00 -0.00000000000E+00 -0.15701432572E+04  0.15701432572E+04  0.00000000000E+00 0. -1.
         23    2    1    2    0    0  0.44772510603E+03 -0.28412789850E+03  0.29621401629E+03  0.61415279939E+03  0.90854192367E+02 0.  0.
         11    1    3    3    0    0  0.28345842221E+03 -0.19067467027E+03  0.14092484345E+03  0.36954745096E+03  0.00000000000E+00 0. -1.
        -11    1    3    3    0    0  0.16426668382E+03 -0.93453228228E+02  0.15528917284E+03  0.24460534843E+03  0.00000000000E+00 0.  1.
         22    1    1    2    0    0 -0.44772510603E+03  0.28412789850E+03 -0.13613595869E+04  0.14609881444E+04  0.00000000000E+00 0. -1.
<mgrwt>
<rscale>  0 0.17809197E+04</rscale>
<asrwt>0</asrwt>
<pdfrwt beam="1">  1        2 0.77691951E-01 0.17809197E+04</pdfrwt>
<pdfrwt beam="2">  1       -2 0.24156050E+00 0.17809197E+04</pdfrwt>
<totfact> 0.41682930E+00</totfact>
</mgrwt>
</event>
<event>
 6    1  0.1719556E-004  0.3402039E+04  0.7818608E-02  0.8137406E-01
         -2   -1    0    0    0  501 -0.00000000000E+00  0.00000000000E+00  0.19788912376E+04  0.19788912376E+04  0.00000000000E+00 0. -1.
          2   -1    0    0  501    0  0.00000000000E+00 -0.00000000000E+00 -0.14621659992E+04  0.14621659992E+04  0.00000000000E+00 0.  1.
         23    2    1    2    0    0  0.16737151396E+04  0.89542711801E+02  0.54433247412E+03  0.17647212248E+04  0.92751782474E+02 0.  0.
         11    1    3    3    0    0  0.98895021875E+03  0.92348389691E+02  0.34629116796E+03  0.10518879851E+04  0.00000000000E+00 0.  1.
        -11    1    3    3    0    0  0.68476492083E+03 -0.28056778892E+01  0.19804130617E+03  0.71283323967E+03  0.00000000000E+00 0. -1.
         22    1    1    2    0    0 -0.16737151396E+04 -0.89542711801E+02 -0.27607235778E+02  0.16763360120E+04  0.00000000000E+00 0. -1.
<mgrwt>
<rscale>  0 0.34020391E+04</rscale>
<asrwt>0</asrwt>
<pdfrwt beam="1">  1        2 0.22494862E+00 0.34020391E+04</pdfrwt>
<pdfrwt beam="2">  1       -2 0.30444481E+00 0.34020391E+04</pdfrwt>
<totfact> 0.32969914E-01</totfact>
</mgrwt>
</event>
<event>
 6    1  0.1719556E-004  0.2155581E+04  0.7818608E-02  0.8537147E-01
         -2   -1    0    0    0  501 -0.00000000000E+00  0.00000000000E+00  0.93196785076E+03  0.93196785076E+03  0.00000000000E+00 0. -1.
          2   -1    0    0  501    0  0.00000000000E+00 -0.00000000000E+00 -0.12464298769E+04  0.12464298769E+04  0.00000000000E+00 0.  1.
         23    2    1    2    0    0  0.33335477754E+03 -0.48509455619E+03  0.75254829055E+03  0.95981118906E+03  0.92013329891E+02 0.  0.
         11    1    3    3    0    0  0.94272334246E+02 -0.16414811223E+03  0.30924578673E+03  0.36258079426E+03  0.00000000000E+00 0.  1.
        -11    1    3    3    0    0  0.23908244329E+03 -0.32094644396E+03  0.44330250382E+03  0.59723039480E+03  0.00000000000E+00 0. -1.
         22    1    1    2    0    0 -0.33335477754E+03  0.48509455619E+03 -0.10670103167E+04  0.12185865386E+04  0.00000000000E+00 0.  1.
<mgrwt>
<rscale>  0 0.21555812E+04</rscale>
<asrwt>0</asrwt>
<pdfrwt beam="1">  1        2 0.19175844E+00 0.21555812E+04</pdfrwt>
<pdfrwt beam="2">  1       -2 0.14337967E+00 0.21555812E+04</pdfrwt>
<totfact> 0.55034132E+00</totfact>
</mgrwt>
</event>
<event>
 6    1  0.1719556E-004  0.2104934E+04  0.7818608E-02  0.8559073E-01
          2   -1    0    0  501    0  0.00000000000E+00  0.00000000000E+00  0.22856790255E+04  0.22856790255E+04  0.00000000000E+00 0.  1.
         -2   -1    0    0    0  501 -0.00000000000E+00 -0.00000000000E+00 -0.48462031532E+03  0.48462031532E+03  0.00000000000E+00 0. -1.
         23    2    1    2    0    0 -0.64605872098E+03  0.65298990925E+03  0.23145201249E+03  0.95165894811E+03  0.91088017241E+02 0.  0.
         13    1    3    3    0    0 -0.39333977185E+03  0.33402531403E+03  0.13656087317E+03  0.53379580236E+03  0.00000000000E+00 0.  1.
        -13    1    3    3    0    0 -0.25271894913E+03  0.31896459522E+03  0.94891139313E+02  0.41786314575E+03  0.00000000000E+00 0. -1.
         22    1    1    2    0    0  0.64605872098E+03 -0.65298990925E+03  0.15696066977E+04  0.18186403927E+04  0.00000000000E+00 0.  1.
<mgrwt>
<rscale>  0 0.21049337E+04</rscale>
<asrwt>0</asrwt>
<pdfrwt beam="1">  1        2 0.35164292E+00 0.21049337E+04</pdfrwt>
<pdfrwt beam="2">  1       -2 0.74556973E-01 0.21049337E+04</pdfrwt>
<totfact> 0.68845176E+00</totfact>
</mgrwt>
</event>
<event>
 6    1  0.1719556E-004  0.1736935E+04  0.7818608E-02  0.8740575E-01
         -2   -1    0    0    0  501 -0.00000000000E+00  0.00000000000E+00  0.35961074978E+03  0.35961074978E+03  0.00000000000E+00 0. -1.
          2   -1    0    0  501    0  0.00000000000E+00 -0.00000000000E+00 -0.20973677680E+04  0.20973677680E+04  0.00000000000E+00 0.  1.
         23    2    1    2    0    0  0.72541828068E+03  0.11390002346E+03 -0.22185458362E+03  0.77258987839E+03  0.92036767765E+02 0.  0.
         13    1    3    3    0    0  0.59432218169E+02 -0.69023805122E+00  0.52728635707E+01  0.59669657912E+02  0.00000000000E+00 0.  1.
        -13    1    3    3    0    0  0.66598606251E+03  0.11459026151E+03 -0.22712744719E+03  0.71292022048E+03  0.00000000000E+00 0. -1.
         22    1    1    2    0    0 -0.72541828068E+03 -0.11390002346E+03 -0.15159024346E+04  0.16843886394E+04  0.00000000000E+00 0.  1.
<mgrwt>
<rscale>  0 0.17369352E+04</rscale>
<asrwt>0</asrwt>
<pdfrwt beam="1">  1        2 0.32267196E+00 0.17369352E+04</pdfrwt>
<pdfrwt beam="2">  1       -2 0.55324732E-01 0.17369352E+04</pdfrwt>
<totfact> 0.17183100E+01</totfact>
</mgrwt>
</event>
<event>
 6    1  0.1719556E-004  0.1334305E+04  0.7818608E-02  0.9002795E-01
         -2   -1    0    0    0  501 -0.00000000000E+00  0.00000000000E+00  0.10347576362E+04  0.10347576362E+04  0.00000000000E+00 0. -1.
          2   -1    0    0  501    0  0.00000000000E+00 -0.00000000000E+00 -0.43014158196E+03  0.43014158196E+03  0.00000000000E+00 0.  1.
         23    2    1    2    0    0 -0.18533861748E+03 -0.41694570671E+03 -0.22604644576E+03  0.51716807781E+03  0.90397453436E+02 0.  0.
         11    1    3    3    0    0 -0.80465363859E+02 -0.28718165950E+03 -0.14078759606E+03  0.32980164878E+03  0.00000000000E+00 0.  1.
        -11    1    3    3    0    0 -0.10487325362E+03 -0.12976404721E+03 -0.85258849701E+02  0.18736642902E+03  0.00000000000E+00 0. -1.
         22    1    1    2    0    0  0.18533861748E+03  0.41694570671E+03  0.83066250000E+03  0.94773114034E+03  0.00000000000E+00 0.  1.
<mgrwt>
<rscale>  0 0.13343047E+04</rscale>
<asrwt>0</asrwt>
<pdfrwt beam="1">  1        2 0.66175628E-01 0.13343047E+04</pdfrwt>
<pdfrwt beam="2">  1       -2 0.15919348E+00 0.13343047E+04</pdfrwt>
<totfact> 0.18266756E+01</totfact>
</mgrwt>
</event>
<event>
 6    1  0.1719556E-004  0.8831458E+03  0.7818608E-02  0.9446899E-01
         -1   -1    0    0    0  501 -0.00000000000E+00  0.00000000000E+00  0.56643773056E+03  0.56643773056E+03  0.00000000000E+00 0. -1.
          1   -1    0    0  501    0  0.00000000000E+00 -0.00000000000E+00 -0.34423312134E+03  0.34423312134E+03  0.00000000000E+00 0.  1.
         23    2    1    2    0    0 -0.33097885689E+03  0.25443009782E+03 -0.20570514891E+02  0.42774079560E+03  0.90870037715E+02 0.  0.
         13    1    3    3    0    0 -0.71111077329E+02  0.10349058989E+03  0.82582598555E+01  0.12583833426E+03  0.00000000000E+00 0.  1.
        -13    1    3    3    0    0 -0.25986777956E+03  0.15093950793E+03 -0.28828774746E+02  0.30190246134E+03  0.00000000000E+00 0. -1.
         22    1    1    2    0    0  0.33097885689E+03 -0.25443009782E+03  0.24277512411E+03  0.48293005629E+03  0.00000000000E+00 0. -1.
<mgrwt>
<rscale>  0 0.88314580E+03</rscale>
<asrwt>0</asrwt>
<pdfrwt beam="1">  1        1 0.52958942E-01 0.88314580E+03</pdfrwt>
<pdfrwt beam="2">  1       -1 0.87144266E-01 0.88314580E+03</pdfrwt>
<totfact> 0.95809290E+01</totfact>
</mgrwt>
</event>
<event>
 6    1  0.1719556E-004  0.3046548E+04  0.7818608E-02  0.8230562E-01
          2   -1    0    0  501    0  0.00000000000E+00  0.00000000000E+00  0.33711965588E+04  0.33711965588E+04  0.00000000000E+00 0.  1.
         -2   -1    0    0    0  501 -0.00000000000E+00 -0.00000000000E+00 -0.68829067224E+03  0.68829067224E+03  0.00000000000E+00 0. -1.
         23    2    1    2    0    0 -0.49091862197E+03  0.13586501367E+04  0.19805881726E+04  0.24531929060E+04  0.92166356484E+02 0.  0.
         13    1    3    3    0    0 -0.22302956203E+03  0.73740586382E+03  0.10903206917E+04  0.13350313870E+04  0.00000000000E+00 0. -1.
        -13    1    3    3    0    0 -0.26788905994E+03  0.62124427286E+03  0.89026748089E+03  0.11181615190E+04  0.00000000000E+00 0.  1.
         22    1    1    2    0    0  0.49091862197E+03 -0.13586501367E+04  0.70231771395E+03  0.16062943250E+04  0.00000000000E+00 0.  1.
<mgrwt>
<rscale>  0 0.30465476E+04</rscale>
<asrwt>0</asrwt>
<pdfrwt beam="1">  1        2 0.51864561E+00 0.30465476E+04</pdfrwt>
<pdfrwt beam="2">  1       -2 0.10589088E+00 0.30465476E+04</pdfrwt>
<totfact> 0.61214013E-01</totfact>
</mgrwt>
</event>
<event>
 6    1  0.1719556E-004  0.8209727E+03  0.7818608E-02  0.9530146E-01
          1   -1    0    0  501    0  0.00000000000E+00  0.00000000000E+00  0.38492203572E+03  0.38492203572E+03  0.00000000000E+00 0.  1.
         -1   -1    0    0    0  501 -0.00000000000E+00 -0.00000000000E+00 -0.43774854333E+03  0.43774854333E+03  0.00000000000E+00 0. -1.
         23    2    1    2    0    0  0.29174652816E+03  0.13946618524E+03  0.21817262770E+03  0.40076136506E+03  0.91888643103E+02 0.  0.
         11    1    3    3    0    0  0.10315482663E+03  0.27483334176E+01  0.69980228655E+02  0.12468241254E+03  0.00000000000E+00 0.  1.
        -11    1    3    3    0    0  0.18859170152E+03  0.13671785182E+03  0.14819239904E+03  0.27607895252E+03  0.00000000000E+00 0. -1.
         22    1    1    2    0    0 -0.29174652816E+03 -0.13946618524E+03 -0.27099913530E+03  0.42190921399E+03  0.00000000000E+00 0. -1.
<mgrwt>
<rscale>  0 0.82097274E+03</rscale>
<asrwt>0</asrwt>
<pdfrwt beam="1">  1        1 0.59218775E-01 0.82097274E+03</pdfrwt>
<pdfrwt beam="2">  1       -1 0.67345930E-01 0.82097274E+03</pdfrwt>
<totfact> 0.14265664E+02</totfact>
</mgrwt>
</event>
<event>
 6    1  0.1719556E-004  0.5124324E+04  0.7818608E-02  0.7809610E-01
          1   -1    0    0  501    0  0.00000000000E+00  0.00000000000E+00  0.15175862461E+04  0.15175862461E+04  0.00000000000E+00 0. -1.
         -1   -1    0    0    0  501 -0.00000000000E+00 -0.00000000000E+00 -0.43257329916E+04  0.43257329916E+04  0.00000000000E+00 0.  1.
         23    2    1    2    0    0  0.86470556597E+03 -0.18950637284E+04  0.29522772576E+03  0.21056842422E+04  0.88116213077E+02 0.  0.
         13    1    3    3    0    0  0.49601019534E+03 -0.11400866465E+04  0.21370470292E+03  0.12615440442E+04  0.00000000000E+00 0. -1.
        -13    1    3    3    0    0  0.36869537063E+03 -0.75497708198E+03  0.81523022837E+02  0.84414019801E+03  0.00000000000E+00 0.  1.
         22    1    1    2    0    0 -0.86470556597E+03  0.18950637284E+04 -0.31033744713E+04  0.37376349955E+04  0.00000000000E+00 0.  1.
<mgrwt>
<rscale>  0 0.51243235E+04</rscale>
<asrwt>0</asrwt>
<pdfrwt beam="1">  1        1 0.23347481E+00 0.51243235E+04</pdfrwt>
<pdfrwt beam="2">  1       -1 0.66549736E+00 0.51243235E+04</pdfrwt>
<totfact> 0.11994229E-03</totfact>
</mgrwt>
</event>
<event>
 6    1  0.1719556E-004  0.2302273E+04  0.7818608E-02  0.8477025E-01
         -2   -1    0    0    0  501 -0.00000000000E+00  0.00000000000E+00  0.80436073144E+03  0.80436073144E+03  0.00000000000E+00 0. -1.
          2   -1    0    0  501    0  0.00000000000E+00 -0.00000000000E+00 -0.16474142506E+04  0.16474142506E+04  0.00000000000E+00 0.  1.
         23    2    1    2    0    0  0.73805086754E+03 -0.53673605810E+03  0.32144254465E+03  0.97229677614E+03  0.96078261058E+02 0.  0.
         13    1    3    3    0    0  0.23489750037E+03 -0.21016322602E+03  0.76307616084E+02  0.32429657649E+03  0.00000000000E+00 0.  1.
        -13    1    3    3    0    0  0.50315336717E+03 -0.32657283207E+03  0.24513492856E+03  0.64800019965E+03  0.00000000000E+00 0. -1.
         22    1    1    2    0    0 -0.73805086754E+03  0.53673605810E+03 -0.11644960638E+04  0.14794782059E+04  0.00000000000E+00 0.  1.
<mgrwt>
<rscale>  0 0.23022731E+04</rscale>
<asrwt>0</asrwt>
<pdfrwt beam="1">  1        2 0.25344834E+00 0.23022731E+04</pdfrwt>
<pdfrwt beam="2">  1       -2 0.12374781E+00 0.23022731E+04</pdfrwt>
<totfact> 0.46772253E+00</totfact>
</mgrwt>
</event>
<event>
 6    1  0.1719556E-004  0.2488402E+04  0.7818608E-02  0.8407129E-01
         -2   -1    0    0    0  501 -0.00000000000E+00  0.00000000000E+00  0.14787030580E+04  0.14787030580E+04  0.00000000000E+00 0.  1.
          2   -1    0    0  501    0  0.00000000000E+00 -0.00000000000E+00 -0.10468875400E+04  0.10468875400E+04  0.00000000000E+00 0. -1.
         23    2    1    2    0    0  0.12089163598E+04  0.12717584902E+03  0.47761947033E+03  0.13091406551E+04  0.89868986386E+02 0.  0.
         13    1    3    3    0    0  0.24036370208E+03  0.24367856939E+02  0.57142534351E+02  0.24826149714E+03  0.00000000000E+00 0. -1.
        -13    1    3    3    0    0  0.96855265772E+03  0.10280799208E+03  0.42047693597E+03  0.10608791579E+04  0.00000000000E+00 0.  1.
         22    1    1    2    0    0 -0.12089163598E+04 -0.12717584902E+03 -0.45803952365E+02  0.12164499429E+04  0.00000000000E+00 0.  1.
<mgrwt>
<rscale>  0 0.24884017E+04</rscale>
<asrwt>0</asrwt>
<pdfrwt beam="1">  1        2 0.16105962E+00 0.24884017E+04</pdfrwt>
<pdfrwt beam="2">  1       -2 0.22749278E+00 0.24884017E+04</pdfrwt>
<totfact> 0.18606616E+00</totfact>
</mgrwt>
</event>
<event>
 6    1  0.1719556E-004  0.1892684E+04  0.7818608E-02  0.8658507E-01
         -2   -1    0    0    0  501 -0.00000000000E+00  0.00000000000E+00  0.31805057946E+03  0.31805057946E+03  0.00000000000E+00 0. -1.
          2   -1    0    0  501    0  0.00000000000E+00 -0.00000000000E+00 -0.28157878788E+04  0.28157878788E+04  0.00000000000E+00 0.  1.
         23    2    1    2    0    0  0.86511548279E+03  0.30447595359E+03 -0.87919539587E+03  0.12735136753E+04  0.87875662696E+02 0.  0.
         11    1    3    3    0    0  0.51753042826E+03  0.15041275196E+03 -0.55836763011E+03  0.77603875578E+03  0.00000000000E+00 0.  1.
        -11    1    3    3    0    0  0.34758505454E+03  0.15406320164E+03 -0.32082776576E+03  0.49747491949E+03  0.00000000000E+00 0. -1.
         22    1    1    2    0    0 -0.86511548279E+03 -0.30447595359E+03 -0.16185419035E+04  0.18603247830E+04  0.00000000000E+00 0.  1.
<mgrwt>
<rscale>  0 0.18926838E+04</rscale>
<asrwt>0</asrwt>
<pdfrwt beam="1">  1        2 0.43319812E+00 0.18926838E+04</pdfrwt>
<pdfrwt beam="2">  1       -2 0.48930860E-01 0.18926838E+04</pdfrwt>
<totfact> 0.84008233E+00</totfact>
</mgrwt>
</event>
<event>
 6    1  0.1719556E-004  0.2416667E+04  0.7818608E-02  0.8433290E-01
         -2   -1    0    0    0  501 -0.00000000000E+00  0.00000000000E+00  0.91135691063E+03  0.91135691063E+03  0.00000000000E+00 0. -1.
          2   -1    0    0  501    0  0.00000000000E+00 -0.00000000000E+00 -0.16020834714E+04  0.16020834714E+04  0.00000000000E+00 0.  1.
         23    2    1    2    0    0  0.50119305827E+03  0.10341922654E+04 -0.72801579187E+03  0.13635975188E+04  0.92968147606E+02 0.  0.
         13    1    3    3    0    0  0.21185264282E+03  0.54369258553E+03 -0.36989142682E+03  0.69087107152E+03  0.00000000000E+00 0. -1.
        -13    1    3    3    0    0  0.28934041545E+03  0.49049967989E+03 -0.35812436505E+03  0.67272644725E+03  0.00000000000E+00 0.  1.
         22    1    1    2    0    0 -0.50119305827E+03 -0.10341922654E+04  0.37289231071E+02  0.11498428633E+04  0.00000000000E+00 0. -1.
<mgrwt>
<rscale>  0 0.24166670E+04</rscale>
<asrwt>0</asrwt>
<pdfrwt beam="1">  1        2 0.24647438E+00 0.24166670E+04</pdfrwt>
<pdfrwt beam="2">  1       -2 0.14020876E+00 0.24166670E+04</pdfrwt>
<totfact> 0.35738666E+00</totfact>
</mgrwt>
</event>
<event>
 6    1  0.1719556E-004  0.3707587E+04  0.7818608E-02  0.8066283E-01
         -2   -1    0    0    0  501 -0.00000000000E+00  0.00000000000E+00  0.87954813408E+03  0.87954813408E+03  0.00000000000E+00 0. -1.
          2   -1    0    0  501    0  0.00000000000E+00 -0.00000000000E+00 -0.39071769671E+04  0.39071769671E+04  0.00000000000E+00 0.  1.
         23    2    1    2    0    0  0.64105535753E+03  0.16370382425E+04 -0.76013750021E+03  0.19175156067E+04  0.90614039435E+02 0.  0.
         11    1    3    3    0    0  0.28621948701E+03  0.80926374697E+03 -0.40924007366E+03  0.95095049545E+03  0.00000000000E+00 0.  1.
        -11    1    3    3    0    0  0.35483587052E+03  0.82777449549E+03 -0.35089742655E+03  0.96656511128E+03  0.00000000000E+00 0. -1.
         22    1    1    2    0    0 -0.64105535753E+03 -0.16370382425E+04 -0.22674913328E+04  0.28692094945E+04  0.00000000000E+00 0.  1.
<mgrwt>
<rscale>  0 0.37075869E+04</rscale>
<asrwt>0</asrwt>
<pdfrwt beam="1">  1        2 0.60110416E+00 0.37075869E+04</pdfrwt>
<pdfrwt beam="2">  1       -2 0.13531510E+00 0.37075869E+04</pdfrwt>
<totfact> 0.12819304E-01</totfact>
</mgrwt>
</event>
<event>
 6    1  0.1719556E-004  0.1427929E+04  0.7818608E-02  0.8933846E-01
         -2   -1    0    0    0  501 -0.00000000000E+00  0.00000000000E+00  0.11661116956E+04  0.11661116956E+04  0.00000000000E+00 0. -1.
          2   -1    0    0  501    0  0.00000000000E+00 -0.00000000000E+00 -0.43713259825E+03  0.43713259825E+03  0.00000000000E+00 0.  1.
         23    2    1    2    0    0  0.49647146740E+03 -0.39805144740E+03  0.72169344678E+03  0.96686236967E+03  0.95144826656E+02 0.  0.
         13    1    3    3    0    0  0.27462636551E+02 -0.39423742120E+02  0.91243676371E+02  0.10312049421E+03  0.00000000000E+00 0.  1.
        -13    1    3    3    0    0  0.46900883085E+03 -0.35862770528E+03  0.63044977040E+03  0.86374187545E+03  0.00000000000E+00 0. -1.
         22    1    1    2    0    0 -0.49647146740E+03  0.39805144740E+03  0.72856505806E+01  0.63638192418E+03  0.00000000000E+00 0.  1.
<mgrwt>
<rscale>  0 0.14279292E+04</rscale>
<asrwt>0</asrwt>
<pdfrwt beam="1">  1        2 0.67251169E-01 0.14279292E+04</pdfrwt>
<pdfrwt beam="2">  1       -2 0.17940180E+00 0.14279292E+04</pdfrwt>
<totfact> 0.12769293E+01</totfact>
</mgrwt>
</event>
<event>
 6    1  0.1719556E-004  0.2644013E+04  0.7818608E-02  0.8353403E-01
          2   -1    0    0  501    0  0.00000000000E+00  0.00000000000E+00  0.11860703246E+04  0.11860703246E+04  0.00000000000E+00 0.  1.
         -2   -1    0    0    0  501 -0.00000000000E+00 -0.00000000000E+00 -0.14735226537E+04  0.14735226537E+04  0.00000000000E+00 0. -1.
         23    2    1    2    0    0 -0.10247262890E+04 -0.82821111831E+03 -0.21843037950E+03  0.13402137100E+04  0.11163930276E+03 0.  0.
         11    1    3    3    0    0 -0.32604059362E+03 -0.22824122342E+03 -0.11001903624E+03  0.41291731992E+03  0.00000000000E+00 0. -1.
        -11    1    3    3    0    0 -0.69868569543E+03 -0.59996989489E+03 -0.10841134326E+03  0.92729639012E+03  0.00000000000E+00 0.  1.
         22    1    1    2    0    0  0.10247262890E+04  0.82821111831E+03 -0.69021949591E+02  0.13193792682E+04  0.00000000000E+00 0.  1.
<mgrwt>
<rscale>  0 0.26440132E+04</rscale>
<asrwt>0</asrwt>
<pdfrwt beam="1">  1        2 0.18247236E+00 0.26440132E+04</pdfrwt>
<pdfrwt beam="2">  1       -2 0.22669579E+00 0.26440132E+04</pdfrwt>
<totfact> 0.15260293E+00</totfact>
</mgrwt>
</event>
<event>
 6    1  0.1719556E-004  0.4961710E+04  0.7818608E-02  0.7834441E-01
         -2   -1    0    0    0  501 -0.00000000000E+00  0.00000000000E+00  0.17436836954E+04  0.17436836954E+04  0.00000000000E+00 0. -1.
          2   -1    0    0  501    0  0.00000000000E+00 -0.00000000000E+00 -0.35296782449E+04  0.35296782449E+04  0.00000000000E+00 0.  1.
         23    2    1    2    0    0  0.50139723537E+03  0.19410496941E+04 -0.24456345073E+04  0.31628648480E+04  0.59268886386E+02 0.  0.
         13    1    3    3    0    0  0.34081136207E+03  0.13923880923E+04 -0.17172886169E+04  0.22369571248E+04  0.00000000000E+00 0.  1.
        -13    1    3    3    0    0  0.16058587329E+03  0.54866160177E+03 -0.72834589034E+03  0.92590772323E+03  0.00000000000E+00 0. -1.
         22    1    1    2    0    0 -0.50139723537E+03 -0.19410496941E+04  0.65963995778E+03  0.21104970923E+04  0.00000000000E+00 0. -1.
<mgrwt>
<rscale>  0 0.49617104E+04</rscale>
<asrwt>0</asrwt>
<pdfrwt beam="1">  1        2 0.54302741E+00 0.49617104E+04</pdfrwt>
<pdfrwt beam="2">  1       -2 0.26825903E+00 0.49617104E+04</pdfrwt>
<totfact> 0.28043966E-02</totfact>
</mgrwt>
</event>
<event>
 6    1  0.1719556E-004  0.8540942E+03  0.7818608E-02  0.9484858E-01
          1   -1    0    0  501    0  0.00000000000E+00  0.00000000000E+00  0.91167644795E+02  0.91167644795E+02  0.00000000000E+00 0.  1.
         -1   -1    0    0    0  501 -0.00000000000E+00 -0.00000000000E+00 -0.20003721458E+04  0.20003721458E+04  0.00000000000E+00 0. -1.
         23    2    1    2    0    0  0.37700795543E+03  0.15552784918E+03 -0.12369955537E+04  0.13052899708E+04  0.85440023618E+02 0.  0.
         11    1    3    3    0    0  0.35883234403E+03  0.12691298068E+03 -0.10935853993E+04  0.11579277099E+04  0.00000000000E+00 0. -1.
        -11    1    3    3    0    0  0.18175611395E+02  0.28614868500E+02 -0.14341015441E+03  0.14736226090E+03  0.00000000000E+00 0.  1.
         22    1    1    2    0    0 -0.37700795543E+03 -0.15552784918E+03 -0.67220894736E+03  0.78624981986E+03  0.00000000000E+00 0.  1.
<mgrwt>
<rscale>  0 0.85409418E+03</rscale>
<asrwt>0</asrwt>
<pdfrwt beam="1">  1        1 0.14025793E-01 0.85409418E+03</pdfrwt>
<pdfrwt beam="2">  1       -1 0.30774953E+00 0.85409418E+03</pdfrwt>
<totfact> 0.12823110E+01</totfact>
</mgrwt>
</event>
<event>
 6    1  0.1719556E-004  0.1916891E+04  0.7818608E-02  0.8646494E-01
         -2   -1    0    0    0  501 -0.00000000000E+00  0.00000000000E+00  0.75113746977E+03  0.75113746977E+03  0.00000000000E+00 0. -1.
          2   -1    0    0  501    0  0.00000000000E+00 -0.00000000000E+00 -0.12229683855E+04  0.12229683855E+04  0.00000000000E+00 0.  1.
         23    2    1    2    0    0 -0.77652743111E+03 -0.73873362533E+02 -0.80666281129E+03  0.11252451345E+04  0.83783033228E+02 0.  0.
         11    1    3    3    0    0 -0.13627392842E+03 -0.45213509908E+02 -0.14292186460E+03  0.20258702926E+03  0.00000000000E+00 0.  1.
        -11    1    3    3    0    0 -0.64025350268E+03 -0.28659852625E+02 -0.66374094669E+03  0.92265810524E+03  0.00000000000E+00 0. -1.
         22    1    1    2    0    0  0.77652743111E+03  0.73873362533E+02  0.33483189557E+03  0.84886072076E+03  0.00000000000E+00 0. -1.
<mgrwt>
<rscale>  0 0.19168906E+04</rscale>
<asrwt>0</asrwt>
<pdfrwt beam="1">  1        2 0.18814898E+00 0.19168906E+04</pdfrwt>
<pdfrwt beam="2">  1       -2 0.11555961E+00 0.19168906E+04</pdfrwt>
<totfact> 0.10003635E+01</totfact>
</mgrwt>
</event>
<event>
 6    1  0.1719556E-004  0.2887390E+04  0.7818608E-02  0.8276639E-01
          1   -1    0    0  501    0  0.00000000000E+00  0.00000000000E+00  0.12417431677E+04  0.12417431677E+04  0.00000000000E+00 0. -1.
         -1   -1    0    0    0  501 -0.00000000000E+00 -0.00000000000E+00 -0.16784918477E+04  0.16784918477E+04  0.00000000000E+00 0.  1.
         23    2    1    2    0    0  0.71961807648E+03  0.56702967006E+03  0.90794493537E+03  0.12930983456E+04  0.91468590199E+02 0.  0.
         13    1    3    3    0    0  0.43653622535E+03  0.30268102440E+03  0.48059439216E+03  0.71634534154E+03  0.00000000000E+00 0. -1.
        -13    1    3    3    0    0  0.28308185112E+03  0.26434864567E+03  0.42735054320E+03  0.57675300405E+03  0.00000000000E+00 0.  1.
         22    1    1    2    0    0 -0.71961807648E+03 -0.56702967006E+03 -0.13446936154E+04  0.16271366697E+04  0.00000000000E+00 0.  1.
<mgrwt>
<rscale>  0 0.28873904E+04</rscale>
<asrwt>0</asrwt>
<pdfrwt beam="1">  1        1 0.19103741E+00 0.28873904E+04</pdfrwt>
<pdfrwt beam="2">  1       -1 0.25822951E+00 0.28873904E+04</pdfrwt>
<totfact> 0.52746046E-01</totfact>
</mgrwt>
</event>
<event>
 6    1  0.1719556E-004  0.1353264E+04  0.7818608E-02  0.8988361E-01
         -1   -1    0    0    0  501 -0.00000000000E+00  0.00000000000E+00  0.25324324840E+03  0.25324324840E+03  0.00000000000E+00 0. -1.
          1   -1    0    0  501    0  0.00000000000E+00 -0.00000000000E+00 -0.18078701484E+04  0.18078701484E+04  0.00000000000E+00 0.  1.
         23    2    1    2    0    0 -0.32851199043E+03 -0.44738213087E+03 -0.20021667701E+03  0.59738597989E+03  0.93340196828E+02 0.  0.
         13    1    3    3    0    0 -0.26841416714E+03 -0.38706882371E+03 -0.13457444046E+03  0.48987622869E+03  0.00000000000E+00 0.  1.
        -13    1    3    3    0    0 -0.60097823291E+02 -0.60313307158E+02 -0.65642236551E+02  0.10750975120E+03  0.00000000000E+00 0. -1.
         22    1    1    2    0    0  0.32851199043E+03  0.44738213087E+03 -0.13544102230E+04  0.14637274170E+04  0.00000000000E+00 0.  1.
<mgrwt>
<rscale>  0 0.13532641E+04</rscale>
<asrwt>0</asrwt>
<pdfrwt beam="1">  1        1 0.27813387E+00 0.13532641E+04</pdfrwt>
<pdfrwt beam="2">  1       -1 0.38960500E-01 0.13532641E+04</pdfrwt>
<totfact> 0.25179823E+01</totfact>
</mgrwt>
</event>
<event>
 6    1  0.1719556E-004  0.2745598E+04  0.7818608E-02  0.8320360E-01
         -2   -1    0    0    0  501 -0.00000000000E+00  0.00000000000E+00  0.83643221506E+03  0.83643221506E+03  0.00000000000E+00 0. -1.
          2   -1    0    0  501    0  0.00000000000E+00 -0.00000000000E+00 -0.22531144869E+04  0.22531144869E+04  0.00000000000E+00 0.  1.
         23    2    1    2    0    0 -0.11531531594E+04  0.38894767500E+03 -0.14202209425E+04  0.18725606605E+04  0.91724582735E+02 0.  0.
         11    1    3    3    0    0 -0.93457015314E+03  0.31974797248E+03 -0.10954698280E+04  0.14750302645E+04  0.00000000000E+00 0. -1.
        -11    1    3    3    0    0 -0.21858300622E+03  0.69199702522E+02 -0.32475111446E+03  0.39753039605E+03  0.00000000000E+00 0.  1.
         22    1    1    2    0    0  0.11531531594E+04 -0.38894767500E+03  0.35386706449E+01  0.12169860414E+04  0.00000000000E+00 0. -1.
<mgrwt>
<rscale>  0 0.27455983E+04</rscale>
<asrwt>0</asrwt>
<pdfrwt beam="1">  1        2 0.34663300E+00 0.27455983E+04</pdfrwt>
<pdfrwt beam="2">  1       -2 0.12868188E+00 0.27455983E+04</pdfrwt>
<totfact> 0.18771096E+00</totfact>
</mgrwt>
</event>
<event>
 6    1  0.1719556E-004  0.5053275E+03  0.7818608E-02  0.1012398E+00
         -2   -1    0    0    0  501 -0.00000000000E+00  0.00000000000E+00  0.10047074558E+03  0.10047074558E+03  0.00000000000E+00 0. -1.
          2   -1    0    0  501    0  0.00000000000E+00 -0.00000000000E+00 -0.63539868174E+03  0.63539868174E+03  0.00000000000E+00 0.  1.
         23    2    1    2    0    0 -0.11720713232E+03 -0.46733106597E+02  0.28045859180E+02  0.15892836503E+03  0.92467074550E+02 0.  0.
         13    1    3    3    0    0 -0.66463405384E+02 -0.52343327405E+02  0.55285688792E+02  0.10106292873E+03  0.00000000000E+00 0.  1.
        -13    1    3    3    0    0 -0.50743726931E+02  0.56102208079E+01 -0.27239829612E+02  0.57865436295E+02  0.00000000000E+00 0. -1.
         22    1    1    2    0    0  0.11720713232E+03  0.46733106597E+02 -0.56297379534E+03  0.57694106229E+03  0.00000000000E+00 0.  1.
<mgrwt>
<rscale>  0 0.50532753E+03</rscale>
<asrwt>0</asrwt>
<pdfrwt beam="1">  1        2 0.97753642E-01 0.50532753E+03</pdfrwt>
<pdfrwt beam="2">  1       -2 0.15457038E-01 0.50532753E+03</pdfrwt>
<totfact> 0.15404150E+03</totfact>
</mgrwt>
</event>
<event>
 6    1  0.1719556E-004  0.4196143E+04  0.7818608E-02  0.7966106E-01
          2   -1    0    0  501    0  0.00000000000E+00  0.00000000000E+00  0.26355445481E+04  0.26355445481E+04  0.00000000000E+00 0.  1.
         -2   -1    0    0    0  501 -0.00000000000E+00 -0.00000000000E+00 -0.16702067819E+04  0.16702067819E+04  0.00000000000E+00 0. -1.
         23    2    1    2    0    0 -0.96255901240E+03  0.18442198352E+04  0.21092314432E+03  0.20928780678E+04  0.89349767867E+02 0.  0.
         13    1    3    3    0    0 -0.34429723957E+03  0.57711105780E+03  0.85092078565E+02  0.67737613188E+03  0.00000000000E+00 0.  1.
        -13    1    3    3    0    0 -0.61826177283E+03  0.12671087774E+04  0.12583106576E+03  0.14155019359E+04  0.00000000000E+00 0. -1.
         22    1    1    2    0    0  0.96255901240E+03 -0.18442198352E+04  0.75441462189E+03  0.22128732622E+04  0.00000000000E+00 0. -1.
<mgrwt>
<rscale>  0 0.41961432E+04</rscale>
<asrwt>0</asrwt>
<pdfrwt beam="1">  1        2 0.40546839E+00 0.41961432E+04</pdfrwt>
<pdfrwt beam="2">  1       -2 0.25695489E+00 0.41961432E+04</pdfrwt>
<totfact> 0.13114092E-01</totfact>
</mgrwt>
</event>
<event>
 6    1  0.1719556E-004  0.1772292E+04  0.7818608E-02  0.8721174E-01
          1   -1    0    0  501    0  0.00000000000E+00  0.00000000000E+00  0.16624066873E+04  0.16624066873E+04  0.00000000000E+00 0.  1.
         -1   -1    0    0    0  501 -0.00000000000E+00 -0.00000000000E+00 -0.47236037080E+03  0.47236037080E+03  0.00000000000E+00 0. -1.
         23    2    1    2    0    0  0.16189630570E+03 -0.26619124294E+03 -0.39971799455E+03  0.51476126912E+03  0.90202535435E+02 0.  0.
         11    1    3    3    0    0  0.18159277988E+02 -0.10909676655E+03 -0.11955213925E+03  0.16286367873E+03  0.00000000000E+00 0. -1.
        -11    1    3    3    0    0  0.14373702771E+03 -0.15709447639E+03 -0.28016585530E+03  0.35189759039E+03  0.00000000000E+00 0.  1.
         22    1    1    2    0    0 -0.16189630570E+03  0.26619124294E+03  0.15897643110E+04  0.16200057889E+04  0.00000000000E+00 0.  1.
<mgrwt>
<rscale>  0 0.17722923E+04</rscale>
<asrwt>0</asrwt>
<pdfrwt beam="1">  1        1 0.25575487E+00 0.17722923E+04</pdfrwt>
<pdfrwt beam="2">  1       -1 0.72670827E-01 0.17722923E+04</pdfrwt>
<totfact> 0.91319865E+00</totfact>
</mgrwt>
</event>
<event>
 6    1  0.1719556E-004  0.1852414E+04  0.7818608E-02  0.8678912E-01
         -2   -1    0    0    0  501 -0.00000000000E+00  0.00000000000E+00  0.38058192152E+03  0.38058192152E+03  0.00000000000E+00 0. -1.
          2   -1    0    0  501    0  0.00000000000E+00 -0.00000000000E+00 -0.22540731807E+04  0.22540731807E+04  0.00000000000E+00 0.  1.
         23    2    1    2    0    0 -0.77585401552E+03  0.42498444313E+03 -0.55971918741E+03  0.10508122164E+04  0.91430384139E+02 0.  0.
         11    1    3    3    0    0 -0.33570585230E+03  0.16121140713E+03 -0.28364214952E+03  0.46812434891E+03  0.00000000000E+00 0.  1.
        -11    1    3    3    0    0 -0.44014816322E+03  0.26377303600E+03 -0.27607703789E+03  0.58268786752E+03  0.00000000000E+00 0. -1.
         22    1    1    2    0    0  0.77585401552E+03 -0.42498444313E+03 -0.13137720718E+04  0.15838428858E+04  0.00000000000E+00 0.  1.
<mgrwt>
<rscale>  0 0.18524141E+04</rscale>
<asrwt>0</asrwt>
<pdfrwt beam="1">  1        2 0.34678048E+00 0.18524141E+04</pdfrwt>
<pdfrwt beam="2">  1       -2 0.58551066E-01 0.18524141E+04</pdfrwt>
<totfact> 0.12345010E+01</totfact>
</mgrwt>
</event>
<event>
 6    1  0.1719556E-004  0.2735901E+04  0.7818608E-02  0.8323449E-01
         -4   -1    0    0    0  501 -0.00000000000E+00  0.00000000000E+00  0.10301899408E+04  0.10301899408E+04  0.00000000000E+00 0. -1.
          4   -1    0    0  501    0  0.00000000000E+00 -0.00000000000E+00 -0.18164502714E+04  0.18164502714E+04  0.00000000000E+00 0.  1.
         23    2    1    2    0    0 -0.25888585787E+03 -0.53334085878E+03 -0.16745854806E+04  0.17786533531E+04  0.88864277686E+02 0.  0.
         13    1    3    3    0    0 -0.21534930281E+03 -0.39419887537E+03 -0.11641044995E+04  0.12477609391E+04  0.00000000000E+00 0. -1.
        -13    1    3    3    0    0 -0.43536555057E+02 -0.13914198341E+03 -0.51048098111E+03  0.53089241400E+03  0.00000000000E+00 0.  1.
         22    1    1    2    0    0  0.25888585787E+03  0.53334085878E+03  0.88832514997E+03  0.10679868591E+04  0.00000000000E+00 0. -1.
<mgrwt>
<rscale>  0 0.27359012E+04</rscale>
<asrwt>0</asrwt>
<pdfrwt beam="1">  1        4 0.27945389E+00 0.27359012E+04</pdfrwt>
<pdfrwt beam="2">  1       -4 0.15849076E+00 0.27359012E+04</pdfrwt>
<totfact> 0.18536658E-02</totfact>
</mgrwt>
</event>
<event>
 6    1  0.1719556E-004  0.3157624E+04  0.7818608E-02  0.8200099E-01
         -2   -1    0    0    0  501 -0.00000000000E+00  0.00000000000E+00  0.10654413741E+04  0.10654413741E+04  0.00000000000E+00 0. -1.
          2   -1    0    0  501    0  0.00000000000E+00 -0.00000000000E+00 -0.23395444434E+04  0.23395444434E+04  0.00000000000E+00 0.  1.
         23    2    1    2    0    0  0.49422385232E+03  0.11009443010E+04  0.45791833252E+03  0.12940064934E+04  0.91804333152E+02 0.  0.
         13    1    3    3    0    0  0.15101615204E+03  0.27092510979E+03  0.14977987161E+03  0.34444201722E+03  0.00000000000E+00 0. -1.
        -13    1    3    3    0    0  0.34320770028E+03  0.83001919125E+03  0.30813846091E+03  0.94956447620E+03  0.00000000000E+00 0.  1.
         22    1    1    2    0    0 -0.49422385232E+03 -0.11009443010E+04 -0.17320214018E+04  0.21109793240E+04  0.00000000000E+00 0.  1.
<mgrwt>
<rscale>  0 0.31576241E+04</rscale>
<asrwt>0</asrwt>
<pdfrwt beam="1">  1        2 0.35992991E+00 0.31576241E+04</pdfrwt>
<pdfrwt beam="2">  1       -2 0.16391406E+00 0.31576241E+04</pdfrwt>
<totfact> 0.85753607E-01</totfact>
</mgrwt>
</event>
<event>
 6    1  0.1719556E-004  0.1367391E+04  0.7818608E-02  0.8977767E-01
         -2   -1    0    0    0  501 -0.00000000000E+00  0.00000000000E+00  0.17544162278E+03  0.17544162278E+03  0.00000000000E+00 0. -1.
          2   -1    0    0  501    0  0.00000000000E+00 -0.00000000000E+00 -0.26643588172E+04  0.26643588172E+04  0.00000000000E+00 0.  1.
         23    2    1    2    0    0 -0.37517009668E+02 -0.64821701246E+03 -0.16750275262E+04  0.17986428086E+04  0.88351107934E+02 0.  0.
         11    1    3    3    0    0 -0.65054161819E+02 -0.36739908345E+03 -0.94985354525E+03  0.10205076619E+04  0.00000000000E+00 0. -1.
        -11    1    3    3    0    0  0.27537152151E+02 -0.28081792901E+03 -0.72517398093E+03  0.77813514676E+03  0.00000000000E+00 0.  1.
         22    1    1    2    0    0  0.37517009668E+02  0.64821701246E+03 -0.81388966822E+03  0.10411576313E+04  0.00000000000E+00 0. -1.
<mgrwt>
<rscale>  0 0.13673909E+04</rscale>
<asrwt>0</asrwt>
<pdfrwt beam="1">  1        2 0.40990135E+00 0.13673909E+04</pdfrwt>
<pdfrwt beam="2">  1       -2 0.26991020E-01 0.13673909E+04</pdfrwt>
<totfact> 0.34120211E+01</totfact>
</mgrwt>
</event>
<event>
 6    1  0.1719556E-004  0.3090294E+04  0.7818608E-02  0.8218407E-01
          1   -1    0    0  501    0  0.00000000000E+00  0.00000000000E+00  0.10210442925E+04  0.10210442925E+04  0.00000000000E+00 0.  1.
         -1   -1    0    0    0  501 -0.00000000000E+00 -0.00000000000E+00 -0.23382715586E+04  0.23382715586E+04  0.00000000000E+00 0. -1.
         23    2    1    2    0    0 -0.21717985427E+03  0.12417197239E+04 -0.16280142863E+04  0.20610001985E+04  0.90864404068E+02 0.  0.
         13    1    3    3    0    0 -0.49493610491E+02  0.36139779723E+03 -0.53605372833E+03  0.64839153679E+03  0.00000000000E+00 0. -1.
        -13    1    3    3    0    0 -0.16768624378E+03  0.88032192672E+03 -0.10919605579E+04  0.14126086617E+04  0.00000000000E+00 0.  1.
         22    1    1    2    0    0  0.21717985427E+03 -0.12417197239E+04  0.31078702014E+03  0.12983156526E+04  0.00000000000E+00 0.  1.
<mgrwt>
<rscale>  0 0.30902937E+04</rscale>
<asrwt>0</asrwt>
<pdfrwt beam="1">  1        1 0.15708374E+00 0.30902937E+04</pdfrwt>
<pdfrwt beam="2">  1       -1 0.35973408E+00 0.30902937E+04</pdfrwt>
<totfact> 0.16463801E-01</totfact>
</mgrwt>
</event>
<event>
 6    1  0.1719556E-004  0.3440958E+04  0.7818608E-02  0.8127926E-01
         -2   -1    0    0    0  501 -0.00000000000E+00  0.00000000000E+00  0.17217999835E+04  0.17217999835E+04  0.00000000000E+00 0. -1.
          2   -1    0    0  501    0  0.00000000000E+00 -0.00000000000E+00 -0.17191588905E+04  0.17191588905E+04  0.00000000000E+00 0.  1.
         23    2    1    2    0    0 -0.15420902439E+04 -0.60665525472E+03  0.45954426139E+03  0.17219959820E+04  0.89533879216E+02 0.  0.
         13    1    3    3    0    0 -0.12601300173E+04 -0.47372121586E+03  0.40230719749E+03  0.14050589070E+04  0.00000000000E+00 0.  1.
        -13    1    3    3    0    0 -0.28196022659E+03 -0.13293403886E+03  0.57237063897E+02  0.31693707506E+03  0.00000000000E+00 0. -1.
         22    1    1    2    0    0  0.15420902439E+04  0.60665525472E+03 -0.45690316842E+03  0.17189628919E+04  0.00000000000E+00 0. -1.
<mgrwt>
<rscale>  0 0.34409579E+04</rscale>
<asrwt>0</asrwt>
<pdfrwt beam="1">  1        2 0.26448598E+00 0.34409579E+04</pdfrwt>
<pdfrwt beam="2">  1       -2 0.26489231E+00 0.34409579E+04</pdfrwt>
<totfact> 0.41148360E-01</totfact>
</mgrwt>
</event>
<event>
 6    1  0.1719556E-004  0.1779582E+04  0.7818608E-02  0.8717234E-01
          2   -1    0    0  501    0  0.00000000000E+00  0.00000000000E+00  0.20815749238E+04  0.20815749238E+04  0.00000000000E+00 0.  1.
         -2   -1    0    0    0  501 -0.00000000000E+00 -0.00000000000E+00 -0.38035028383E+03  0.38035028383E+03  0.00000000000E+00 0. -1.
         23    2    1    2    0    0  0.84396402519E+03  0.16023092341E+03  0.11608294150E+04  0.14470477649E+04  0.92049326089E+02 0.  0.
         13    1    3    3    0    0  0.46428084006E+03  0.63697915975E+02  0.69723900914E+03  0.84009306557E+03  0.00000000000E+00 0.  1.
        -13    1    3    3    0    0  0.37968318513E+03  0.96533007431E+02  0.46359040590E+03  0.60695469933E+03  0.00000000000E+00 0. -1.
         22    1    1    2    0    0 -0.84396402519E+03 -0.16023092341E+03  0.54039522492E+03  0.10148774427E+04  0.00000000000E+00 0. -1.
<mgrwt>
<rscale>  0 0.17795815E+04</rscale>
<asrwt>0</asrwt>
<pdfrwt beam="1">  1        2 0.32024229E+00 0.17795815E+04</pdfrwt>
<pdfrwt beam="2">  1       -2 0.58515430E-01 0.17795815E+04</pdfrwt>
<totfact> 0.15538168E+01</totfact>
</mgrwt>
</event>
<event>
 6    1  0.1719556E-004  0.3562897E+04  0.7818608E-02  0.8099044E-01
          1   -1    0    0  501    0  0.00000000000E+00  0.00000000000E+00  0.11323525864E+04  0.11323525864E+04  0.00000000000E+00 0. -1.
         -1   -1    0    0    0  501 -0.00000000000E+00 -0.00000000000E+00 -0.28026236887E+04  0.28026236887E+04  0.00000000000E+00 0.  1.
         23    2    1    2    0    0  0.12296550960E+04 -0.12022114811E+04 -0.13441915491E+04  0.21846357438E+04  0.91751360979E+02 0.  0.
         11    1    3    3    0    0  0.79854827244E+03 -0.78872219902E+03 -0.82176754974E+03  0.13910657628E+04  0.00000000000E+00 0.  1.
        -11    1    3    3    0    0  0.43110682360E+03 -0.41348928205E+03 -0.52242399932E+03  0.79356998103E+03  0.00000000000E+00 0. -1.
         22    1    1    2    0    0 -0.12296550960E+04  0.12022114811E+04 -0.32607955327E+03  0.17503405313E+04  0.00000000000E+00 0. -1.
<mgrwt>
<rscale>  0 0.35628967E+04</rscale>
<asrwt>0</asrwt>
<pdfrwt beam="1">  1        1 0.17420809E+00 0.35628967E+04</pdfrwt>
<pdfrwt beam="2">  1       -1 0.43117287E+00 0.35628967E+04</pdfrwt>
<totfact> 0.42440988E-02</totfact>
</mgrwt>
</event>
<event>
 6    1  0.1719556E-004  0.3749421E+04  0.7818608E-02  0.8057097E-01
          2   -1    0    0  501    0  0.00000000000E+00  0.00000000000E+00  0.98983719692E+03  0.98983719692E+03  0.00000000000E+00 0.  1.
         -2   -1    0    0    0  501 -0.00000000000E+00 -0.00000000000E+00 -0.35506237466E+04  0.35506237466E+04  0.00000000000E+00 0. -1.
         23    2    1    2    0    0  0.15492191615E+04 -0.80962721887E+02 -0.25533603339E+04  0.29891098803E+04  0.92162405107E+02 0.  0.
         13    1    3    3    0    0  0.95759915312E+03 -0.59799296527E+02 -0.14939942808E+04  0.17755537178E+04  0.00000000000E+00 0.  1.
        -13    1    3    3    0    0  0.59162000843E+03 -0.21163425360E+02 -0.10593660531E+04  0.12135561624E+04  0.00000000000E+00 0. -1.
         22    1    1    2    0    0 -0.15492191615E+04  0.80962721887E+02 -0.74262158389E+01  0.15513510633E+04  0.00000000000E+00 0.  1.
<mgrwt>
<rscale>  0 0.37494210E+04</rscale>
<asrwt>0</asrwt>
<pdfrwt beam="1">  1        2 0.15228265E+00 0.37494210E+04</pdfrwt>
<pdfrwt beam="2">  1       -2 0.54624980E+00 0.37494210E+04</pdfrwt>
<totfact> 0.18360150E-02</totfact>
</mgrwt>
</event>
<event>
 6    1  0.1719556E-004  0.4477116E+04  0.7818608E-02  0.7914655E-01
         -2   -1    0    0    0  501 -0.00000000000E+00  0.00000000000E+00  0.37262246972E+04  0.37262246972E+04  0.00000000000E+00 0. -1.
          2   -1    0    0  501    0  0.00000000000E+00 -0.00000000000E+00 -0.13448311338E+04  0.13448311338E+04  0.00000000000E+00 0.  1.
         23    2    1    2    0    0 -0.14255426110E+04  0.12266749397E+03 -0.75718359340E+03  0.16217246467E+04  0.97184288776E+02 0.  0.
         11    1    3    3    0    0 -0.69954613725E+03  0.44100671835E+02 -0.31901386543E+03  0.77011655854E+03  0.00000000000E+00 0.  1.
        -11    1    3    3    0    0 -0.72599647371E+03  0.78566822139E+02 -0.43816972796E+03  0.85160808820E+03  0.00000000000E+00 0. -1.
         22    1    1    2    0    0  0.14255426110E+04 -0.12266749397E+03  0.31385771568E+04  0.34493311843E+04  0.00000000000E+00 0.  1.
<mgrwt>
<rscale>  0 0.44771165E+04</rscale>
<asrwt>0</asrwt>
<pdfrwt beam="1">  1        2 0.20689710E+00 0.44771165E+04</pdfrwt>
<pdfrwt beam="2">  1       -2 0.57326533E+00 0.44771165E+04</pdfrwt>
<totfact> 0.78225958E-03</totfact>
</mgrwt>
</event>
<event>
 6    1  0.1719556E-004  0.1404184E+04  0.7818608E-02  0.8950795E-01
          1   -1    0    0  501    0  0.00000000000E+00  0.00000000000E+00  0.37873891485E+03  0.37873891485E+03  0.00000000000E+00 0.  1.
         -1   -1    0    0    0  501 -0.00000000000E+00 -0.00000000000E+00 -0.13015121351E+04  0.13015121351E+04  0.00000000000E+00 0. -1.
         23    2    1    2    0    0  0.18175072741E+03  0.52433536260E+03  0.45494695129E+02  0.56422969919E+03  0.91238625460E+02 0.  0.
         11    1    3    3    0    0  0.17700825065E+03  0.42272934250E+03  0.17045093851E+02  0.45860936867E+03  0.00000000000E+00 0. -1.
        -11    1    3    3    0    0  0.47424767664E+01  0.10160602010E+03  0.28449601278E+02  0.10562033052E+03  0.00000000000E+00 0.  1.
         22    1    1    2    0    0 -0.18175072741E+03 -0.52433536260E+03 -0.96826791538E+03  0.11160213508E+04  0.00000000000E+00 0.  1.
<mgrwt>
<rscale>  0 0.14041842E+04</rscale>
<asrwt>0</asrwt>
<pdfrwt beam="1">  1        1 0.58267525E-01 0.14041842E+04</pdfrwt>
<pdfrwt beam="2">  1       -1 0.20023264E+00 0.14041842E+04</pdfrwt>
<totfact> 0.94296377E+00</totfact>
</mgrwt>
</event>
<event>
 6    1  0.1719556E-004  0.1217191E+04  0.7818608E-02  0.9097941E-01
         -2   -1    0    0    0  501 -0.00000000000E+00  0.00000000000E+00  0.24950497794E+03  0.24950497794E+03  0.00000000000E+00 0.  1.
          2   -1    0    0  501    0  0.00000000000E+00 -0.00000000000E+00 -0.14844925340E+04  0.14844925340E+04  0.00000000000E+00 0. -1.
         23    2    1    2    0    0 -0.36011234426E+03 -0.29020922999E+02  0.70536965616E+02  0.37940628534E+03  0.91926880639E+02 0.  0.
         11    1    3    3    0    0 -0.33998344388E+03 -0.36951981609E+01  0.69529293868E+02  0.34703993907E+03  0.00000000000E+00 0. -1.
        -11    1    3    3    0    0 -0.20128900372E+02 -0.25325724839E+02  0.10076717483E+01  0.32366346274E+02  0.00000000000E+00 0.  1.
         22    1    1    2    0    0  0.36011234426E+03  0.29020922999E+02 -0.13055245217E+04  0.13545912266E+04  0.00000000000E+00 0. -1.
<mgrwt>
<rscale>  0 0.12171907E+04</rscale>
<asrwt>0</asrwt>
<pdfrwt beam="1">  1        2 0.22838347E+00 0.12171907E+04</pdfrwt>
<pdfrwt beam="2">  1       -2 0.38385381E-01 0.12171907E+04</pdfrwt>
<totfact> 0.81790213E+01</totfact>
</mgrwt>
</event>
<event>
 6    1  0.1719556E-004  0.3822298E+04  0.7818608E-02  0.8041387E-01
          1   -1    0    0  501    0  0.00000000000E+00  0.00000000000E+00  0.20543960774E+04  0.20543960774E+04  0.00000000000E+00 0.  1.
         -1   -1    0    0    0  501 -0.00000000000E+00 -0.00000000000E+00 -0.17778902999E+04  0.17778902999E+04  0.00000000000E+00 0. -1.
         23    2    1    2    0    0  0.32777224737E+03  0.17421238687E+04 -0.57485360466E+03  0.18657556713E+04  0.90317983437E+02 0.  0.
         13    1    3    3    0    0  0.16887481283E+03  0.10872967838E+04 -0.38408667813E+03  0.11654422228E+04  0.00000000000E+00 0. -1.
        -13    1    3    3    0    0  0.15889743453E+03  0.65482708492E+03 -0.19076692653E+03  0.70031344847E+03  0.00000000000E+00 0.  1.
         22    1    1    2    0    0 -0.32777224737E+03 -0.17421238687E+04  0.85135938208E+03  0.19665307060E+04  0.00000000000E+00 0.  1.
<mgrwt>
<rscale>  0 0.38222982E+04</rscale>
<asrwt>0</asrwt>
<pdfrwt beam="1">  1        1 0.31606093E+00 0.38222982E+04</pdfrwt>
<pdfrwt beam="2">  1       -1 0.27352159E+00 0.38222982E+04</pdfrwt>
<totfact> 0.10656546E-01</totfact>
</mgrwt>
</event>
<event>
 6    1  0.1719556E-004  0.3606507E+04  0.7818608E-02  0.8089003E-01
         -2   -1    0    0    0  501 -0.00000000000E+00  0.00000000000E+00  0.14362545916E+04  0.14362545916E+04  0.00000000000E+00 0. -1.
          2   -1    0    0  501    0  0.00000000000E+00 -0.00000000000E+00 -0.22640301340E+04  0.22640301340E+04  0.00000000000E+00 0.  1.
         23    2    1    2    0    0 -0.54135863908E+02 -0.39938619786E+03  0.13879590559E+04  0.14481924015E+04  0.91601659694E+02 0.  0.
         13    1    3    3    0    0 -0.10202238495E+02 -0.18865354214E+03  0.49974057437E+03  0.53426106568E+03  0.00000000000E+00 0.  1.
        -13    1    3    3    0    0 -0.43933625413E+02 -0.21073265572E+03  0.88821848151E+03  0.91393133579E+03  0.00000000000E+00 0. -1.
         22    1    1    2    0    0  0.54135863908E+02  0.39938619786E+03 -0.22157345983E+04  0.22520923242E+04  0.00000000000E+00 0.  1.
<mgrwt>
<rscale>  0 0.36065073E+04</rscale>
<asrwt>0</asrwt>
<pdfrwt beam="1">  1        2 0.34831233E+00 0.36065073E+04</pdfrwt>
<pdfrwt beam="2">  1       -2 0.22096225E+00 0.36065073E+04</pdfrwt>
<totfact> 0.37722850E-01</totfact>
</mgrwt>
</event>
<event>
 6    1  0.1719556E-004  0.4281046E+04  0.7818608E-02  0.7950132E-01
          2   -1    0    0  501    0  0.00000000000E+00  0.00000000000E+00  0.45096344121E+04  0.45096344121E+04  0.00000000000E+00 0.  1.
         -2   -1    0    0    0  501 -0.00000000000E+00 -0.00000000000E+00 -0.10160109572E+04  0.10160109572E+04  0.00000000000E+00 0. -1.
         23    2    1    2    0    0  0.13645906986E+04 -0.33338093964E+03 -0.33555203842E+03  0.14469402336E+04  0.88262357012E+02 0.  0.
         13    1    3    3    0    0  0.35474864443E+03 -0.50957828056E+02 -0.10255989248E+03  0.37277584754E+03  0.00000000000E+00 0.  1.
        -13    1    3    3    0    0  0.10098420541E+04 -0.28242311159E+03 -0.23299214595E+03  0.10741643861E+04  0.00000000000E+00 0. -1.
         22    1    1    2    0    0 -0.13645906986E+04  0.33338093964E+03  0.38291754933E+04  0.40787051357E+04  0.00000000000E+00 0.  1.
<mgrwt>
<rscale>  0 0.42810457E+04</rscale>
<asrwt>0</asrwt>
<pdfrwt beam="1">  1        2 0.69378990E+00 0.42810457E+04</pdfrwt>
<pdfrwt beam="2">  1       -2 0.15630938E+00 0.42810457E+04</pdfrwt>
<totfact> 0.24722457E-02</totfact>
</mgrwt>
</event>
<event>
 6    1  0.1719556E-004  0.1902974E+04  0.7818608E-02  0.8653378E-01
          2   -1    0    0  501    0  0.00000000000E+00  0.00000000000E+00  0.53240569736E+03  0.53240569736E+03  0.00000000000E+00 0. -1.
         -2   -1    0    0    0  501 -0.00000000000E+00 -0.00000000000E+00 -0.17004459876E+04  0.17004459876E+04  0.00000000000E+00 0.  1.
         23    2    1    2    0    0 -0.39270626410E+03 -0.44633412851E+03  0.28200841641E+03  0.66566515625E+03  0.10074219174E+03 0.  0.
         11    1    3    3    0    0 -0.21696433323E+03 -0.27627051324E+03  0.11540173218E+03  0.36975191435E+03  0.00000000000E+00 0. -1.
        -11    1    3    3    0    0 -0.17574193086E+03 -0.17006361527E+03  0.16660668423E+03  0.29591324190E+03  0.00000000000E+00 0.  1.
         22    1    1    2    0    0  0.39270626410E+03  0.44633412851E+03 -0.14500487066E+04  0.15671865287E+04  0.00000000000E+00 0.  1.
<mgrwt>
<rscale>  0 0.19029736E+04</rscale>
<asrwt>0</asrwt>
<pdfrwt beam="1">  1        2 0.81908568E-01 0.19029736E+04</pdfrwt>
<pdfrwt beam="2">  1       -2 0.26160708E+00 0.19029736E+04</pdfrwt>
<totfact> 0.29222199E+00</totfact>
</mgrwt>
</event>
<event>
 6    1  0.1719556E-004  0.2646004E+04  0.7818608E-02  0.8352741E-01
          2   -1    0    0  501    0  0.00000000000E+00  0.00000000000E+00  0.13163126020E+04  0.13163126020E+04  0.00000000000E+00 0.  1.
         -2   -1    0    0    0  501 -0.00000000000E+00 -0.00000000000E+00 -0.13297250473E+04  0.13297250473E+04  0.00000000000E+00 0. -1.
         23    2    1    2    0    0 -0.12366966444E+04 -0.16128282740E+02 -0.47175902185E+03  0.13270379163E+04  0.93778168603E+02 0.  0.
         13    1    3    3    0    0 -0.90442229002E+03  0.11667313281E+02 -0.30749517707E+03  0.95533715975E+03  0.00000000000E+00 0. -1.
        -13    1    3    3    0    0 -0.33227435433E+03 -0.27795596020E+02 -0.16426384478E+03  0.37170075653E+03  0.00000000000E+00 0.  1.
         22    1    1    2    0    0  0.12366966444E+04  0.16128282740E+02  0.45834657654E+03  0.13189997331E+04  0.00000000000E+00 0.  1.
<mgrwt>
<rscale>  0 0.26460037E+04</rscale>
<asrwt>0</asrwt>
<pdfrwt beam="1">  1        2 0.20250963E+00 0.26460037E+04</pdfrwt>
<pdfrwt beam="2">  1       -2 0.20457308E+00 0.26460037E+04</pdfrwt>
<totfact> 0.17694909E+00</totfact>
</mgrwt>
</event>
<event>
 6    1  0.1719556E-004  0.8497398E+03  0.7818608E-02  0.9490686E-01
          1   -1    0    0  501    0  0.00000000000E+00  0.00000000000E+00  0.34733198493E+03  0.34733198493E+03  0.00000000000E+00 0.  1.
         -1   -1    0    0    0  501 -0.00000000000E+00 -0.00000000000E+00 -0.51971727652E+03  0.51971727652E+03  0.00000000000E+00 0. -1.
         23    2    1    2    0    0  0.11533086243E+03  0.18471570230E+03 -0.45356222799E+03  0.51140678919E+03  0.91635750984E+02 0.  0.
         11    1    3    3    0    0  0.37920080674E+02  0.12389009339E+03 -0.18922029177E+03  0.22932729139E+03  0.00000000000E+00 0. -1.
        -11    1    3    3    0    0  0.77410781757E+02  0.60825608913E+02 -0.26434193622E+03  0.28207949779E+03  0.00000000000E+00 0.  1.
         22    1    1    2    0    0 -0.11533086243E+03 -0.18471570230E+03  0.28117693640E+03  0.35564247226E+03  0.00000000000E+00 0.  1.
<mgrwt>
<rscale>  0 0.84973980E+03</rscale>
<asrwt>0</asrwt>
<pdfrwt beam="1">  1        1 0.53435690E-01 0.84973980E+03</pdfrwt>
<pdfrwt beam="2">  1       -1 0.79956504E-01 0.84973980E+03</pdfrwt>
<totfact> 0.11419357E+02</totfact>
</mgrwt>
</event>
<event>
 6    1  0.1719556E-004  0.2446126E+04  0.7818608E-02  0.8422434E-01
          2   -1    0    0  501    0  0.00000000000E+00  0.00000000000E+00  0.21093896948E+04  0.21093896948E+04  0.00000000000E+00 0.  1.
         -2   -1    0    0    0  501 -0.00000000000E+00 -0.00000000000E+00 -0.70915434773E+03  0.70915434773E+03  0.00000000000E+00 0. -1.
         23    2    1    2    0    0 -0.10716864457E+04  0.12387647080E+02  0.26146163867E+02  0.10759062790E+04  0.90694032683E+02 0.  0.
         13    1    3    3    0    0 -0.57235053810E+03  0.86110980688E+01  0.59169589226E+02  0.57546531587E+03  0.00000000000E+00 0. -1.
        -13    1    3    3    0    0 -0.49933590758E+03  0.37765490111E+01 -0.33023425358E+02  0.50044096309E+03  0.00000000000E+00 0.  1.
         22    1    1    2    0    0  0.10716864457E+04 -0.12387647080E+02  0.13740891832E+04  0.17426377636E+04  0.00000000000E+00 0. -1.
<mgrwt>
<rscale>  0 0.24461258E+04</rscale>
<asrwt>0</asrwt>
<pdfrwt beam="1">  1        2 0.32452149E+00 0.24461258E+04</pdfrwt>
<pdfrwt beam="2">  1       -2 0.10910067E+00 0.24461258E+04</pdfrwt>
<totfact> 0.34851760E+00</totfact>
</mgrwt>
</event>
<event>
 6    1  0.1719556E-004  0.1332819E+04  0.7818608E-02  0.9003937E-01
         -2   -1    0    0    0  501 -0.00000000000E+00  0.00000000000E+00  0.83794234836E+03  0.83794234836E+03  0.00000000000E+00 0.  1.
          2   -1    0    0  501    0  0.00000000000E+00 -0.00000000000E+00 -0.52999055963E+03  0.52999055963E+03  0.00000000000E+00 0. -1.
         23    2    1    2    0    0 -0.17556061906E+03  0.32904230630E+03 -0.40833717264E+03  0.56036851645E+03  0.90461358400E+02 0.  0.
         11    1    3    3    0    0 -0.12737614719E+03  0.19147722010E+03 -0.30365627108E+03  0.38091382182E+03  0.00000000000E+00 0.  1.
        -11    1    3    3    0    0 -0.48184471873E+02  0.13756508620E+03 -0.10468090156E+03  0.17945469462E+03  0.00000000000E+00 0. -1.
         22    1    1    2    0    0  0.17556061906E+03 -0.32904230630E+03  0.71628896137E+03  0.80756439154E+03  0.00000000000E+00 0.  1.
<mgrwt>
<rscale>  0 0.13328189E+04</rscale>
<asrwt>0</asrwt>
<pdfrwt beam="1">  1        2 0.81537009E-01 0.13328189E+04</pdfrwt>
<pdfrwt beam="2">  1       -2 0.12891421E+00 0.13328189E+04</pdfrwt>
<totfact> 0.24942070E+01</totfact>
</mgrwt>
</event>
<event>
 6    1  0.1719556E-004  0.9863497E+03  0.7818608E-02  0.9323644E-01
         -1   -1    0    0    0  501 -0.00000000000E+00  0.00000000000E+00  0.37479914951E+03  0.37479914951E+03  0.00000000000E+00 0. -1.
          1   -1    0    0  501    0  0.00000000000E+00 -0.00000000000E+00 -0.64893803243E+03  0.64893803243E+03  0.00000000000E+00 0.  1.
         23    2    1    2    0    0 -0.41777308090E+03 -0.17590893906E+03  0.51962998948E+02  0.46532806729E+03  0.91387936790E+02 0.  0.
         11    1    3    3    0    0 -0.21531112102E+03 -0.12226588910E+03  0.63320306014E+02  0.25557247040E+03  0.00000000000E+00 0. -1.
        -11    1    3    3    0    0 -0.20246195987E+03 -0.53643049963E+02 -0.11357307066E+02  0.20975559690E+03  0.00000000000E+00 0.  1.
         22    1    1    2    0    0  0.41777308090E+03  0.17590893906E+03 -0.32610188186E+03  0.55840911464E+03  0.00000000000E+00 0.  1.
<mgrwt>
<rscale>  0 0.98634968E+03</rscale>
<asrwt>0</asrwt>
<pdfrwt beam="1">  1        1 0.99836619E-01 0.98634968E+03</pdfrwt>
<pdfrwt beam="2">  1       -1 0.57661408E-01 0.98634968E+03</pdfrwt>
<totfact> 0.93331068E+01</totfact>
</mgrwt>
</event>
<event>
 6    1  0.1719556E-004  0.3392604E+04  0.7818608E-02  0.8139724E-01
         -1   -1    0    0    0  501 -0.00000000000E+00  0.00000000000E+00  0.70236611216E+03  0.70236611216E+03  0.00000000000E+00 0. -1.
          1   -1    0    0  501    0  0.00000000000E+00 -0.00000000000E+00 -0.40967803843E+04  0.40967803843E+04  0.00000000000E+00 0.  1.
         23    2    1    2    0    0 -0.59749195061E+03 -0.59340517181E+02 -0.39409073589E+04  0.39872520317E+04  0.83126559181E+02 0.  0.
         11    1    3    3    0    0 -0.11378404469E+03 -0.40926083442E+02 -0.69275176294E+03  0.70322596524E+03  0.00000000000E+00 0. -1.
        -11    1    3    3    0    0 -0.48370790592E+03 -0.18414433738E+02 -0.32481555960E+04  0.32840260665E+04  0.00000000000E+00 0.  1.
         22    1    1    2    0    0  0.59749195061E+03  0.59340517181E+02  0.54649308676E+03  0.81189446476E+03  0.00000000000E+00 0. -1.
<mgrwt>
<rscale>  0 0.33926035E+04</rscale>
<asrwt>0</asrwt>
<pdfrwt beam="1">  1        1 0.63027391E+00 0.33926035E+04</pdfrwt>
<pdfrwt beam="2">  1       -1 0.10805632E+00 0.33926035E+04</pdfrwt>
<totfact> 0.51413559E-02</totfact>
</mgrwt>
</event>
<event>
 6    1  0.1719556E-004  0.1458942E+04  0.7818608E-02  0.8912225E-01
         -2   -1    0    0    0  501 -0.00000000000E+00  0.00000000000E+00  0.44877624594E+03  0.44877624594E+03  0.00000000000E+00 0. -1.
          2   -1    0    0  501    0  0.00000000000E+00 -0.00000000000E+00 -0.11857306540E+04  0.11857306540E+04  0.00000000000E+00 0.  1.
         23    2    1    2    0    0  0.41462824361E+03  0.26011790415E+02 -0.10377981485E+04  0.11215740098E+04  0.91159578437E+02 0.  0.
         13    1    3    3    0    0  0.30507632012E+03  0.32526104971E+02 -0.85478702695E+03  0.90817970141E+03  0.00000000000E+00 0. -1.
        -13    1    3    3    0    0  0.10955192349E+03 -0.65143145557E+01 -0.18301112153E+03  0.21339430836E+03  0.00000000000E+00 0.  1.
         22    1    1    2    0    0 -0.41462824361E+03 -0.26011790415E+02  0.30084374044E+03  0.51293289015E+03  0.00000000000E+00 0. -1.
<mgrwt>
<rscale>  0 0.14589417E+04</rscale>
<asrwt>0</asrwt>
<pdfrwt beam="1">  1        2 0.18242010E+00 0.14589417E+04</pdfrwt>
<pdfrwt beam="2">  1       -2 0.69042501E-01 0.14589417E+04</pdfrwt>
<totfact> 0.35867752E+01</totfact>
</mgrwt>
</event>
<event>
 6    1  0.1719556E-004  0.2573437E+04  0.7818608E-02  0.8377280E-01
         -1   -1    0    0    0  501 -0.00000000000E+00  0.00000000000E+00  0.87930554825E+03  0.87930554825E+03  0.00000000000E+00 0. -1.
          1   -1    0    0  501    0  0.00000000000E+00 -0.00000000000E+00 -0.18829004805E+04  0.18829004805E+04  0.00000000000E+00 0.  1.
         23    2    1    2    0    0 -0.13747873016E+03  0.49483250393E+03 -0.17667991683E+04  0.18422928187E+04  0.93294802807E+02 0.  0.
         11    1    3    3    0    0 -0.94348875512E+02  0.33101441684E+03 -0.10195562290E+04  0.10760888247E+04  0.00000000000E+00 0. -1.
        -11    1    3    3    0    0 -0.43129854645E+02  0.16381808709E+03 -0.74724293935E+03  0.76620399400E+03  0.00000000000E+00 0.  1.
         22    1    1    2    0    0  0.13747873016E+03 -0.49483250393E+03  0.76320423607E+03  0.91991321011E+03  0.00000000000E+00 0. -1.
<mgrwt>
<rscale>  0 0.25734373E+04</rscale>
<asrwt>0</asrwt>
<pdfrwt beam="1">  1        1 0.28967699E+00 0.25734373E+04</pdfrwt>
<pdfrwt beam="2">  1       -1 0.13527778E+00 0.25734373E+04</pdfrwt>
<totfact> 0.14473586E+00</totfact>
</mgrwt>
</event>
<event>
 6    1  0.1719556E-004  0.2536131E+04  0.7818608E-02  0.8390226E-01
         -2   -1    0    0    0  501 -0.00000000000E+00  0.00000000000E+00  0.19165945793E+04  0.19165945793E+04  0.00000000000E+00 0. -1.
          2   -1    0    0  501    0  0.00000000000E+00 -0.00000000000E+00 -0.83898272683E+03  0.83898272683E+03  0.00000000000E+00 0.  1.
         23    2    1    2    0    0 -0.43678990988E+03  0.95941608582E+03  0.13020624412E+04  0.16777820018E+04  0.91220577584E+02 0.  0.
         13    1    3    3    0    0 -0.20906454273E+03  0.40708838028E+03  0.50228602407E+03  0.67949995023E+03  0.00000000000E+00 0. -1.
        -13    1    3    3    0    0 -0.22772536715E+03  0.55232770555E+03  0.79977641711E+03  0.99828205159E+03  0.00000000000E+00 0.  1.
         22    1    1    2    0    0  0.43678990988E+03 -0.95941608582E+03 -0.22445058875E+03  0.10777953043E+04  0.00000000000E+00 0.  1.
<mgrwt>
<rscale>  0 0.25361307E+04</rscale>
<asrwt>0</asrwt>
<pdfrwt beam="1">  1        2 0.12907427E+00 0.25361307E+04</pdfrwt>
<pdfrwt beam="2">  1       -2 0.29486070E+00 0.25361307E+04</pdfrwt>
<totfact> 0.98181491E-01</totfact>
</mgrwt>
</event>
<event>
 6    1  0.1719556E-004  0.9574358E+03  0.7818608E-02  0.9356501E-01
          1   -1    0    0  501    0  0.00000000000E+00  0.00000000000E+00  0.18080435732E+04  0.18080435732E+04  0.00000000000E+00 0. -1.
         -1   -1    0    0    0  501 -0.00000000000E+00 -0.00000000000E+00 -0.12675071302E+03  0.12675071302E+03  0.00000000000E+00 0.  1.
         23    2    1    2    0    0  0.24240274344E+02  0.47249963623E+03  0.91466972696E+03  0.10339310749E+04  0.92462214215E+02 0.  0.
         11    1    3    3    0    0  0.55452149744E+02  0.19378359191E+03  0.37502992498E+03  0.42576339208E+03  0.00000000000E+00 0.  1.
        -11    1    3    3    0    0 -0.31211875400E+02  0.27871604432E+03  0.53963980198E+03  0.60816768280E+03  0.00000000000E+00 0. -1.
         22    1    1    2    0    0 -0.24240274344E+02 -0.47249963623E+03  0.76662313322E+03  0.90086321132E+03  0.00000000000E+00 0.  1.
<mgrwt>
<rscale>  0 0.95743577E+03</rscale>
<asrwt>0</asrwt>
<pdfrwt beam="1">  1        1 0.27816053E+00 0.95743577E+03</pdfrwt>
<pdfrwt beam="2">  1       -1 0.19500111E-01 0.95743577E+03</pdfrwt>
<totfact> 0.86568976E+01</totfact>
</mgrwt>
</event>
<event>
 6    1  0.1719556E-004  0.3005940E+04  0.7818608E-02  0.8242037E-01
          2   -1    0    0  501    0  0.00000000000E+00  0.00000000000E+00  0.11370069185E+04  0.11370069185E+04  0.00000000000E+00 0.  1.
         -2   -1    0    0    0  501 -0.00000000000E+00 -0.00000000000E+00 -0.19867235200E+04  0.19867235200E+04  0.00000000000E+00 0. -1.
         23    2    1    2    0    0  0.74412059124E+03  0.12250515408E+04  0.39860338051E+02  0.14367764191E+04  0.90944489294E+02 0.  0.
         13    1    3    3    0    0  0.34814736694E+03  0.55048318709E+03 -0.25625498588E+02  0.65183970005E+03  0.00000000000E+00 0.  1.
        -13    1    3    3    0    0  0.39597322430E+03  0.67456835370E+03  0.65485836639E+02  0.78493671909E+03  0.00000000000E+00 0. -1.
         22    1    1    2    0    0 -0.74412059124E+03 -0.12250515408E+04 -0.88957693958E+03  0.16869540193E+04  0.00000000000E+00 0. -1.
<mgrwt>
<rscale>  0 0.30059397E+04</rscale>
<asrwt>0</asrwt>
<pdfrwt beam="1">  1        2 0.17492414E+00 0.30059397E+04</pdfrwt>
<pdfrwt beam="2">  1       -2 0.30564977E+00 0.30059397E+04</pdfrwt>
<totfact> 0.51910429E-01</totfact>
</mgrwt>
</event>
<event>
 6    1  0.1719556E-004  0.1635989E+04  0.7818608E-02  0.8798739E-01
         -2   -1    0    0    0  501 -0.00000000000E+00  0.00000000000E+00  0.23675830754E+03  0.23675830754E+03  0.00000000000E+00 0. -1.
          2   -1    0    0  501    0  0.00000000000E+00 -0.00000000000E+00 -0.28261521917E+04  0.28261521917E+04  0.00000000000E+00 0.  1.
         23    2    1    2    0    0 -0.50733063479E+03  0.29347941728E+03 -0.23835329302E+03  0.63991516236E+03  0.95731820009E+02 0.  0.
         11    1    3    3    0    0 -0.25376620127E+03  0.12844087895E+03 -0.16420861003E+03  0.32841865340E+03  0.00000000000E+00 0.  1.
        -11    1    3    3    0    0 -0.25356443351E+03  0.16503853832E+03 -0.74144682994E+02  0.31149650896E+03  0.00000000000E+00 0. -1.
         22    1    1    2    0    0  0.50733063479E+03 -0.29347941728E+03 -0.23510405912E+04  0.24229953369E+04  0.00000000000E+00 0.  1.
<mgrwt>
<rscale>  0 0.16359890E+04</rscale>
<asrwt>0</asrwt>
<pdfrwt beam="1">  1        2 0.43479267E+00 0.16359890E+04</pdfrwt>
<pdfrwt beam="2">  1       -2 0.36424353E-01 0.16359890E+04</pdfrwt>
<totfact> 0.15189113E+01</totfact>
</mgrwt>
</event>
<event>
 6    1  0.1719556E-004  0.3580795E+04  0.7818608E-02  0.8094905E-01
          1   -1    0    0  501    0  0.00000000000E+00  0.00000000000E+00  0.22929101412E+04  0.22929101412E+04  0.00000000000E+00 0.  1.
         -1   -1    0    0    0  501 -0.00000000000E+00 -0.00000000000E+00 -0.13980150009E+04  0.13980150009E+04  0.00000000000E+00 0. -1.
         23    2    1    2    0    0  0.60509819758E+03 -0.11104845070E+04 -0.85692645061E+03  0.15303237083E+04  0.90818728908E+02 0.  0.
         11    1    3    3    0    0  0.26685094323E+03 -0.40269481035E+03 -0.34417209603E+03  0.59315003824E+03  0.00000000000E+00 0. -1.
        -11    1    3    3    0    0  0.33824725435E+03 -0.70778969664E+03 -0.51275435458E+03  0.93717367008E+03  0.00000000000E+00 0.  1.
         22    1    1    2    0    0 -0.60509819758E+03  0.11104845070E+04  0.17518215910E+04  0.21606014338E+04  0.00000000000E+00 0.  1.
<mgrwt>
<rscale>  0 0.35807948E+04</rscale>
<asrwt>0</asrwt>
<pdfrwt beam="1">  1        1 0.35275540E+00 0.35807948E+04</pdfrwt>
<pdfrwt beam="2">  1       -1 0.21507923E+00 0.35807948E+04</pdfrwt>
<totfact> 0.18114215E-01</totfact>
</mgrwt>
</event>
<event>
 6    1  0.1719556E-004  0.3542812E+04  0.7818608E-02  0.8103718E-01
          2   -1    0    0  501    0  0.00000000000E+00  0.00000000000E+00  0.19966974775E+04  0.19966974775E+04  0.00000000000E+00 0. -1.
         -2   -1    0    0    0  501 -0.00000000000E+00 -0.00000000000E+00 -0.15715345857E+04  0.15715345857E+04  0.00000000000E+00 0.  1.
         23    2    1    2    0    0  0.51523777648E+03 -0.74800857732E+03 -0.13177531497E+04  0.16028458096E+04  0.87490158525E+02 0.  0.
         11    1    3    3    0    0  0.18017885646E+03 -0.19396989204E+03 -0.40044533865E+03  0.48004708997E+03  0.00000000000E+00 0. -1.
        -11    1    3    3    0    0  0.33505892002E+03 -0.55403868527E+03 -0.91730781107E+03  0.11227987197E+04  0.00000000000E+00 0.  1.
         22    1    1    2    0    0 -0.51523777648E+03  0.74800857732E+03  0.17429160415E+04  0.19653862536E+04  0.00000000000E+00 0. -1.
<mgrwt>
<rscale>  0 0.35428120E+04</rscale>
<asrwt>0</asrwt>
<pdfrwt beam="1">  1        2 0.30718423E+00 0.35428120E+04</pdfrwt>
<pdfrwt beam="2">  1       -2 0.24177455E+00 0.35428120E+04</pdfrwt>
<totfact> 0.39683864E-01</totfact>
</mgrwt>
</event>
<event>
 6    1  0.1719556E-004  0.3281524E+04  0.7818608E-02  0.8167613E-01
          1   -1    0    0  501    0  0.00000000000E+00  0.00000000000E+00  0.98968974764E+03  0.98968974764E+03  0.00000000000E+00 0.  1.
         -1   -1    0    0    0  501 -0.00000000000E+00 -0.00000000000E+00 -0.27201456470E+04  0.27201456470E+04  0.00000000000E+00 0. -1.
         23    2    1    2    0    0 -0.53255030824E+03  0.99533684523E+03 -0.22100963568E+04  0.24833117566E+04  0.89476856876E+02 0.  0.
         11    1    3    3    0    0 -0.42604755913E+03  0.77730280760E+03 -0.18096892950E+04  0.20151157589E+04  0.00000000000E+00 0. -1.
        -11    1    3    3    0    0 -0.10650274912E+03  0.21803403764E+03 -0.40040706183E+03  0.46819599774E+03  0.00000000000E+00 0.  1.
         22    1    1    2    0    0  0.53255030824E+03 -0.99533684523E+03  0.47964045742E+03  0.12265236380E+04  0.00000000000E+00 0.  1.
<mgrwt>
<rscale>  0 0.32815242E+04</rscale>
<asrwt>0</asrwt>
<pdfrwt beam="1">  1        1 0.15225996E+00 0.32815242E+04</pdfrwt>
<pdfrwt beam="2">  1       -1 0.41848394E+00 0.32815242E+04</pdfrwt>
<totfact> 0.68342868E-02</totfact>
</mgrwt>
</event>
<event>
 6    1  0.1719556E-004  0.2805174E+04  0.7818608E-02  0.8301664E-01
         -1   -1    0    0    0  501 -0.00000000000E+00  0.00000000000E+00  0.97985742941E+03  0.97985742941E+03  0.00000000000E+00 0. -1.
          1   -1    0    0  501    0  0.00000000000E+00 -0.00000000000E+00 -0.20076910194E+04  0.20076910194E+04  0.00000000000E+00 0.  1.
         23    2    1    2    0    0  0.88669792311E+03  0.94930324660E+03  0.45346908730E+02  0.13025777536E+04  0.85103473479E+02 0.  0.
         11    1    3    3    0    0  0.67626176554E+03  0.69294255083E+03  0.64216196985E+02  0.97037264710E+03  0.00000000000E+00 0. -1.
        -11    1    3    3    0    0  0.21043615757E+03  0.25636069577E+03 -0.18869288255E+02  0.33220510650E+03  0.00000000000E+00 0.  1.
         22    1    1    2    0    0 -0.88669792311E+03 -0.94930324660E+03 -0.10731804987E+04  0.16849706952E+04  0.00000000000E+00 0. -1.
<mgrwt>
<rscale>  0 0.28051745E+04</rscale>
<asrwt>0</asrwt>
<pdfrwt beam="1">  1        1 0.30887554E+00 0.28051745E+04</pdfrwt>
<pdfrwt beam="2">  1       -1 0.15074730E+00 0.28051745E+04</pdfrwt>
<totfact> 0.87701725E-01</totfact>
</mgrwt>
</event>
<event>
 6    1  0.1719556E-004  0.2300089E+04  0.7818608E-02  0.8477886E-01
         -2   -1    0    0    0  501 -0.00000000000E+00  0.00000000000E+00  0.68054639651E+03  0.68054639651E+03  0.00000000000E+00 0. -1.
          2   -1    0    0  501    0  0.00000000000E+00 -0.00000000000E+00 -0.19434413967E+04  0.19434413967E+04  0.00000000000E+00 0.  1.
         23    2    1    2    0    0  0.11224806831E+04  0.23740222420E+03 -0.68584126789E+03  0.13397317012E+04  0.90443829941E+02 0.  0.
         13    1    3    3    0    0  0.10355449673E+04  0.24234037365E+03 -0.62610548187E+03  0.12341354506E+04  0.00000000000E+00 0. -1.
        -13    1    3    3    0    0  0.86935715826E+02 -0.49381494507E+01 -0.59735786020E+02  0.10559625058E+03  0.00000000000E+00 0.  1.
         22    1    1    2    0    0 -0.11224806831E+04 -0.23740222420E+03 -0.57705373229E+03  0.12842560920E+04  0.00000000000E+00 0. -1.
<mgrwt>
<rscale>  0 0.23000887E+04</rscale>
<asrwt>0</asrwt>
<pdfrwt beam="1">  1        2 0.29899098E+00 0.23000887E+04</pdfrwt>
<pdfrwt beam="2">  1       -2 0.10469945E+00 0.23000887E+04</pdfrwt>
<totfact> 0.48199397E+00</totfact>
</mgrwt>
</event>
<event>
 6    1  0.1719556E-004  0.3099870E+04  0.7818608E-02  0.8215773E-01
         -1   -1    0    0    0  501 -0.00000000000E+00  0.00000000000E+00  0.16004362464E+04  0.16004362464E+04  0.00000000000E+00 0.  1.
          1   -1    0    0  501    0  0.00000000000E+00 -0.00000000000E+00 -0.15010276703E+04  0.15010276703E+04  0.00000000000E+00 0. -1.
         23    2    1    2    0    0 -0.12106488710E+04  0.94286764791E+03 -0.15911444484E+03  0.15453455912E+04  0.90030546996E+02 0.  0.
         11    1    3    3    0    0 -0.78711818202E+03  0.59063367601E+03 -0.14157173171E+03  0.99420607870E+03  0.00000000000E+00 0. -1.
        -11    1    3    3    0    0 -0.42353068899E+03  0.35223397190E+03 -0.17542713127E+02  0.55113951252E+03  0.00000000000E+00 0.  1.
         22    1    1    2    0    0  0.12106488710E+04 -0.94286764791E+03  0.25852302097E+03  0.15561183254E+04  0.00000000000E+00 0.  1.
<mgrwt>
<rscale>  0 0.30998704E+04</rscale>
<asrwt>0</asrwt>
<pdfrwt beam="1">  1        1 0.23092733E+00 0.30998704E+04</pdfrwt>
<pdfrwt beam="2">  1       -1 0.24622096E+00 0.30998704E+04</pdfrwt>
<totfact> 0.40673557E-01</totfact>
</mgrwt>
</event>
<event>
 6    1  0.1719556E-004  0.3283617E+04  0.7818608E-02  0.8167076E-01
          1   -1    0    0  501    0  0.00000000000E+00  0.00000000000E+00  0.19312282139E+04  0.19312282139E+04  0.00000000000E+00 0.  1.
         -1   -1    0    0    0  501 -0.00000000000E+00 -0.00000000000E+00 -0.13957624470E+04  0.13957624470E+04  0.00000000000E+00 0. -1.
         23    2    1    2    0    0  0.16230012065E+04 -0.17782760224E+03  0.43015916010E+03  0.16908839853E+04  0.91083346366E+02 0.  0.
         11    1    3    3    0    0  0.13782411832E+04 -0.11798243886E+03  0.36323043584E+03  0.14301765501E+04  0.00000000000E+00 0.  1.
        -11    1    3    3    0    0  0.24476002335E+03 -0.59845163385E+02  0.66928724261E+02  0.26070743515E+03  0.00000000000E+00 0. -1.
         22    1    1    2    0    0 -0.16230012065E+04  0.17782760224E+03  0.10530660673E+03  0.16361066756E+04  0.00000000000E+00 0.  1.
<mgrwt>
<rscale>  0 0.32836174E+04</rscale>
<asrwt>0</asrwt>
<pdfrwt beam="1">  1        1 0.29711203E+00 0.32836174E+04</pdfrwt>
<pdfrwt beam="2">  1       -1 0.21473269E+00 0.32836174E+04</pdfrwt>
<totfact> 0.32918168E-01</totfact>
</mgrwt>
</event>
<event>
 6    1  0.1719556E-004  0.2463845E+04  0.7818608E-02  0.8415980E-01
          2   -1    0    0  501    0  0.00000000000E+00  0.00000000000E+00  0.35133681544E+04  0.35133681544E+04  0.00000000000E+00 0.  1.
         -2   -1    0    0    0  501 -0.00000000000E+00 -0.00000000000E+00 -0.43195972965E+03  0.43195972965E+03  0.00000000000E+00 0. -1.
         23    2    1    2    0    0 -0.10930628186E+03 -0.10070438338E+04  0.42493769602E+03  0.11022798931E+04  0.91453653592E+02 0.  0.
         11    1    3    3    0    0 -0.10089326787E+03 -0.54452665411E+03  0.21129055962E+03  0.59273301673E+03  0.00000000000E+00 0. -1.
        -11    1    3    3    0    0 -0.84130139933E+01 -0.46251717967E+03  0.21364713640E+03  0.50954687634E+03  0.00000000000E+00 0.  1.
         22    1    1    2    0    0  0.10930628186E+03  0.10070438338E+04  0.26564707287E+04  0.28430479910E+04  0.00000000000E+00 0.  1.
<mgrwt>
<rscale>  0 0.24638454E+04</rscale>
<asrwt>0</asrwt>
<pdfrwt beam="1">  1        2 0.54051816E+00 0.24638454E+04</pdfrwt>
<pdfrwt beam="2">  1       -2 0.66455345E-01 0.24638454E+04</pdfrwt>
<totfact> 0.14835952E+00</totfact>
</mgrwt>
</event>
<event>
 6    1  0.1719556E-004  0.1578468E+04  0.7818608E-02  0.8833886E-01
          2   -1    0    0  501    0  0.00000000000E+00  0.00000000000E+00  0.10502130053E+04  0.10502130053E+04  0.00000000000E+00 0.  1.
         -2   -1    0    0    0  501 -0.00000000000E+00 -0.00000000000E+00 -0.59310871132E+03  0.59310871132E+03  0.00000000000E+00 0. -1.
         23    2    1    2    0    0 -0.41061999875E+02 -0.44005166509E+03 -0.44859725337E+03  0.63553858089E+03  0.85663506216E+02 0.  0.
         11    1    3    3    0    0  0.16007603473E+02 -0.27502872755E+03 -0.28046192002E+03  0.39313602344E+03  0.00000000000E+00 0. -1.
        -11    1    3    3    0    0 -0.57069603347E+02 -0.16502293754E+03 -0.16813533334E+03  0.24240255745E+03  0.00000000000E+00 0.  1.
         22    1    1    2    0    0  0.41061999875E+02  0.44005166509E+03  0.90570154731E+03  0.10077831357E+04  0.00000000000E+00 0.  1.
<mgrwt>
<rscale>  0 0.15784682E+04</rscale>
<asrwt>0</asrwt>
<pdfrwt beam="1">  1        2 0.16157123E+00 0.15784682E+04</pdfrwt>
<pdfrwt beam="2">  1       -2 0.91247494E-01 0.15784682E+04</pdfrwt>
<totfact> 0.23014189E+01</totfact>
</mgrwt>
</event>
<event>
 6    1  0.1719556E-004  0.2175441E+04  0.7818608E-02  0.8528720E-01
          2   -1    0    0  501    0  0.00000000000E+00  0.00000000000E+00  0.99706267700E+03  0.99706267700E+03  0.00000000000E+00 0.  1.
         -2   -1    0    0    0  501 -0.00000000000E+00 -0.00000000000E+00 -0.11866210079E+04  0.11866210079E+04  0.00000000000E+00 0. -1.
         23    2    1    2    0    0 -0.49029557535E+03 -0.88828234952E+03 -0.48303538593E+03  0.11274810218E+04  0.91951002124E+02 0.  0.
         11    1    3    3    0    0 -0.19370265013E+03 -0.44021987691E+03 -0.24550684450E+03  0.53998876599E+03  0.00000000000E+00 0. -1.
        -11    1    3    3    0    0 -0.29659292523E+03 -0.44806247260E+03 -0.23752854142E+03  0.58749225581E+03  0.00000000000E+00 0.  1.
         22    1    1    2    0    0  0.49029557535E+03  0.88828234952E+03  0.29347705503E+03  0.10562026631E+04  0.00000000000E+00 0.  1.
<mgrwt>
<rscale>  0 0.21754407E+04</rscale>
<asrwt>0</asrwt>
<pdfrwt beam="1">  1        2 0.15339426E+00 0.21754407E+04</pdfrwt>
<pdfrwt beam="2">  1       -2 0.18255708E+00 0.21754407E+04</pdfrwt>
<totfact> 0.40335747E+00</totfact>
</mgrwt>
</event>
<event>
 6    1  0.1719556E-004  0.3547636E+04  0.7818608E-02  0.8102593E-01
          2   -1    0    0  501    0  0.00000000000E+00  0.00000000000E+00  0.14930824694E+04  0.14930824694E+04  0.00000000000E+00 0.  1.
         -2   -1    0    0    0  501 -0.00000000000E+00 -0.00000000000E+00 -0.21073388120E+04  0.21073388120E+04  0.00000000000E+00 0. -1.
         23    2    1    2    0    0  0.16741817463E+04 -0.31621300550E+03  0.18941845238E+03  0.17166037847E+04  0.89297362810E+02 0.  0.
         13    1    3    3    0    0  0.13932400354E+04 -0.22975866049E+03  0.16446984077E+03  0.14216037305E+04  0.00000000000E+00 0.  1.
        -13    1    3    3    0    0  0.28094171095E+03 -0.86454345013E+02  0.24948611608E+02  0.29500005414E+03  0.00000000000E+00 0. -1.
         22    1    1    2    0    0 -0.16741817463E+04  0.31621300550E+03 -0.80367479498E+03  0.18838174966E+04  0.00000000000E+00 0.  1.
<mgrwt>
<rscale>  0 0.35476362E+04</rscale>
<asrwt>0</asrwt>
<pdfrwt beam="1">  1        2 0.22970500E+00 0.35476362E+04</pdfrwt>
<pdfrwt beam="2">  1       -2 0.32420597E+00 0.35476362E+04</pdfrwt>
<totfact> 0.23637603E-01</totfact>
</mgrwt>
</event>
<event>
 6    1  0.1719556E-004  0.8811257E+03  0.7818608E-02  0.9449488E-01
          2   -1    0    0  501    0  0.00000000000E+00  0.00000000000E+00  0.38857878072E+03  0.38857878072E+03  0.00000000000E+00 0.  1.
         -2   -1    0    0    0  501 -0.00000000000E+00 -0.00000000000E+00 -0.49950139795E+03  0.49950139795E+03  0.00000000000E+00 0. -1.
         23    2    1    2    0    0  0.39956871495E+03  0.48446646877E+02  0.11157236665E+03  0.42818208842E+03  0.94282937383E+02 0.  0.
         13    1    3    3    0    0  0.15740259882E+03  0.13035267112E+02  0.91707848715E+02  0.18263577365E+03  0.00000000000E+00 0.  1.
        -13    1    3    3    0    0  0.24216611614E+03  0.35411379765E+02  0.19864517933E+02  0.24554631477E+03  0.00000000000E+00 0. -1.
         22    1    1    2    0    0 -0.39956871495E+03 -0.48446646877E+02 -0.22249498387E+03  0.45989809025E+03  0.00000000000E+00 0. -1.
<mgrwt>
<rscale>  0 0.88112574E+03</rscale>
<asrwt>0</asrwt>
<pdfrwt beam="1">  1        2 0.59781351E-01 0.88112574E+03</pdfrwt>
<pdfrwt beam="2">  1       -2 0.76846368E-01 0.88112574E+03</pdfrwt>
<totfact> 0.12488088E+02</totfact>
</mgrwt>
</event>
<event>
 6    1  0.1719556E-004  0.4135280E+04  0.7818608E-02  0.7977799E-01
          2   -1    0    0  501    0  0.00000000000E+00  0.00000000000E+00  0.34102097938E+04  0.34102097938E+04  0.00000000000E+00 0.  1.
         -2   -1    0    0    0  501 -0.00000000000E+00 -0.00000000000E+00 -0.12536285042E+04  0.12536285042E+04  0.00000000000E+00 0. -1.
         23    2    1    2    0    0 -0.77195896448E+03  0.17871873965E+04  0.29657509313E+03  0.19713334263E+04  0.90770361628E+02 0.  0.
         11    1    3    3    0    0 -0.42213012423E+03  0.97354075898E+03  0.11592658388E+03  0.10674335689E+04  0.00000000000E+00 0.  1.
        -11    1    3    3    0    0 -0.34982884025E+03  0.81364663757E+03  0.18064850926E+03  0.90389985739E+03  0.00000000000E+00 0. -1.
         22    1    1    2    0    0  0.77195896448E+03 -0.17871873965E+04  0.18600061965E+04  0.26925048717E+04  0.00000000000E+00 0. -1.
<mgrwt>
<rscale>  0 0.41352805E+04</rscale>
<asrwt>0</asrwt>
<pdfrwt beam="1">  1        2 0.52464766E+00 0.41352805E+04</pdfrwt>
<pdfrwt beam="2">  1       -2 0.19286593E+00 0.41352805E+04</pdfrwt>
<totfact> 0.10839872E-01</totfact>
</mgrwt>
</event>
<event>
 6    1  0.1719556E-004  0.1856846E+04  0.7818608E-02  0.8676640E-01
         -2   -1    0    0    0  501 -0.00000000000E+00  0.00000000000E+00  0.36024747745E+03  0.36024747745E+03  0.00000000000E+00 0. -1.
          2   -1    0    0  501    0  0.00000000000E+00 -0.00000000000E+00 -0.23927151547E+04  0.23927151547E+04  0.00000000000E+00 0.  1.
         23    2    1    2    0    0 -0.56700807115E+03 -0.72646947169E+03 -0.11651643466E+04  0.14874701931E+04  0.75522014075E+02 0.  0.
         13    1    3    3    0    0 -0.26310376162E+03 -0.38444413403E+03 -0.62646359438E+03  0.78069041024E+03  0.00000000000E+00 0.  1.
        -13    1    3    3    0    0 -0.30390430953E+03 -0.34202533766E+03 -0.53870075226E+03  0.70677978285E+03  0.00000000000E+00 0. -1.
         22    1    1    2    0    0  0.56700807115E+03  0.72646947169E+03 -0.86730333064E+03  0.12654924391E+04  0.00000000000E+00 0. -1.
<mgrwt>
<rscale>  0 0.18568464E+04</rscale>
<asrwt>0</asrwt>
<pdfrwt beam="1">  1        2 0.36811002E+00 0.18568464E+04</pdfrwt>
<pdfrwt beam="2">  1       -2 0.55422689E-01 0.18568464E+04</pdfrwt>
<totfact> 0.11549507E+01</totfact>
</mgrwt>
</event>
<event>
 6    1  0.1719556E-004  0.2239929E+04  0.7818608E-02  0.8501990E-01
         -1   -1    0    0    0  501 -0.00000000000E+00  0.00000000000E+00  0.64110949643E+03  0.64110949643E+03  0.00000000000E+00 0. -1.
          1   -1    0    0  501    0  0.00000000000E+00 -0.00000000000E+00 -0.19564848361E+04  0.19564848361E+04  0.00000000000E+00 0.  1.
         23    2    1    2    0    0 -0.64552303110E+03  0.87774727380E+03 -0.36790169918E+03  0.11536945577E+04  0.92299576694E+02 0.  0.
         13    1    3    3    0    0 -0.48185389753E+03  0.70318075990E+03 -0.26004895648E+03  0.89121928807E+03  0.00000000000E+00 0. -1.
        -13    1    3    3    0    0 -0.16366913357E+03  0.17456651389E+03 -0.10785274270E+03  0.26247526962E+03  0.00000000000E+00 0.  1.
         22    1    1    2    0    0  0.64552303110E+03 -0.87774727380E+03 -0.94747364052E+03  0.14438997749E+04  0.00000000000E+00 0. -1.
<mgrwt>
<rscale>  0 0.22399295E+04</rscale>
<asrwt>0</asrwt>
<pdfrwt beam="1">  1        1 0.30099766E+00 0.22399295E+04</pdfrwt>
<pdfrwt beam="2">  1       -1 0.98632232E-01 0.22399295E+04</pdfrwt>
<totfact> 0.28500014E+00</totfact>
</mgrwt>
</event>
<event>
 6    1  0.1719556E-004  0.4326344E+04  0.7818608E-02  0.7941765E-01
         -2   -1    0    0    0  501 -0.00000000000E+00  0.00000000000E+00  0.17505380097E+04  0.17505380097E+04  0.00000000000E+00 0. -1.
          2   -1    0    0  501    0  0.00000000000E+00 -0.00000000000E+00 -0.26730711484E+04  0.26730711484E+04  0.00000000000E+00 0.  1.
         23    2    1    2    0    0  0.60475283266E+03  0.15956143803E+04  0.89631799930E+03  0.19296302685E+04  0.91519278275E+02 0.  0.
         13    1    3    3    0    0  0.20762504356E+03  0.66540035149E+03  0.38482056952E+03  0.79621144001E+03  0.00000000000E+00 0.  1.
        -13    1    3    3    0    0  0.39712778911E+03  0.93021402877E+03  0.51149742978E+03  0.11334188285E+04  0.00000000000E+00 0. -1.
         22    1    1    2    0    0 -0.60475283266E+03 -0.15956143803E+04 -0.18188511380E+04  0.24939788895E+04  0.00000000000E+00 0. -1.
<mgrwt>
<rscale>  0 0.43263438E+04</rscale>
<asrwt>0</asrwt>
<pdfrwt beam="1">  1        2 0.41124172E+00 0.43263438E+04</pdfrwt>
<pdfrwt beam="2">  1       -2 0.26931354E+00 0.43263438E+04</pdfrwt>
<totfact> 0.10359837E-01</totfact>
</mgrwt>
</event>
<event>
 6    1  0.1719556E-004  0.1896453E+04  0.7818608E-02  0.8656624E-01
          2   -1    0    0  501    0  0.00000000000E+00  0.00000000000E+00  0.32254099920E+04  0.32254099920E+04  0.00000000000E+00 0.  1.
         -2   -1    0    0    0  501 -0.00000000000E+00 -0.00000000000E+00 -0.27876557640E+03  0.27876557640E+03  0.00000000000E+00 0. -1.
         23    2    1    2    0    0 -0.47918683537E+03 -0.28406231392E+03  0.28895252426E+04  0.29441987642E+04  0.92945219432E+02 0.  0.
         13    1    3    3    0    0 -0.24049272044E+03 -0.90026093811E+02  0.13667704090E+04  0.13906842910E+04  0.00000000000E+00 0. -1.
        -13    1    3    3    0    0 -0.23869411492E+03 -0.19403622011E+03  0.15227548336E+04  0.15535144732E+04  0.00000000000E+00 0.  1.
         22    1    1    2    0    0  0.47918683537E+03  0.28406231392E+03  0.57119173008E+02  0.55997680425E+03  0.00000000000E+00 0. -1.
<mgrwt>
<rscale>  0 0.18964528E+04</rscale>
<asrwt>0</asrwt>
<pdfrwt beam="1">  1        2 0.49621690E+00 0.18964528E+04</pdfrwt>
<pdfrwt beam="2">  1       -2 0.42887014E-01 0.18964528E+04</pdfrwt>
<totfact> 0.60543323E+00</totfact>
</mgrwt>
</event>
<event>
 6    1  0.1719556E-004  0.2828421E+04  0.7818608E-02  0.8294499E-01
          2   -1    0    0  501    0  0.00000000000E+00  0.00000000000E+00  0.26219073868E+04  0.26219073868E+04  0.00000000000E+00 0.  1.
         -2   -1    0    0    0  501 -0.00000000000E+00 -0.00000000000E+00 -0.76280003454E+03  0.76280003454E+03  0.00000000000E+00 0. -1.
         23    2    1    2    0    0  0.14004907068E+04 -0.11607797448E+03  0.75746823493E+03  0.15990823037E+04  0.91966141293E+02 0.  0.
         13    1    3    3    0    0  0.11258869381E+04 -0.81197108414E+02  0.56818734545E+03  0.12637449218E+04  0.00000000000E+00 0. -1.
        -13    1    3    3    0    0  0.27460376869E+03 -0.34880866065E+02  0.18928088948E+03  0.33533738193E+03  0.00000000000E+00 0.  1.
         22    1    1    2    0    0 -0.14004907068E+04  0.11607797448E+03  0.11016391173E+04  0.17856251176E+04  0.00000000000E+00 0. -1.
<mgrwt>
<rscale>  0 0.28284208E+04</rscale>
<asrwt>0</asrwt>
<pdfrwt beam="1">  1        2 0.40337037E+00 0.28284208E+04</pdfrwt>
<pdfrwt beam="2">  1       -2 0.11735385E+00 0.28284208E+04</pdfrwt>
<totfact> 0.14386172E+00</totfact>
</mgrwt>
</event>
<event>
 6    1  0.1719556E-004  0.4067073E+04  0.7818608E-02  0.7991151E-01
         -2   -1    0    0    0  501 -0.00000000000E+00  0.00000000000E+00  0.16549908175E+04  0.16549908175E+04  0.00000000000E+00 0. -1.
          2   -1    0    0  501    0  0.00000000000E+00 -0.00000000000E+00 -0.24986665604E+04  0.24986665604E+04  0.00000000000E+00 0.  1.
         23    2    1    2    0    0  0.11187039230E+04  0.16329095261E+04 -0.89368716435E+03  0.21736591128E+04  0.90692906643E+02 0.  0.
         13    1    3    3    0    0  0.99530342501E+03  0.14004322065E+04 -0.76574634432E+03  0.18810121575E+04  0.00000000000E+00 0.  1.
        -13    1    3    3    0    0  0.12340049797E+03  0.23247731958E+03 -0.12794082003E+03  0.29264695530E+03  0.00000000000E+00 0. -1.
         22    1    1    2    0    0 -0.11187039230E+04 -0.16329095261E+04  0.50011421505E+02  0.19799982651E+04  0.00000000000E+00 0.  1.
<mgrwt>
<rscale>  0 0.40670728E+04</rscale>
<asrwt>0</asrwt>
<pdfrwt beam="1">  1        2 0.38441024E+00 0.40670728E+04</pdfrwt>
<pdfrwt beam="2">  1       -2 0.25461397E+00 0.40670728E+04</pdfrwt>
<totfact> 0.16472172E-01</totfact>
</mgrwt>
</event>
<event>
 6    1  0.1719556E-004  0.2509182E+04  0.7818608E-02  0.8399722E-01
          2   -1    0    0  501    0  0.00000000000E+00  0.00000000000E+00  0.22392225230E+04  0.22392225230E+04  0.00000000000E+00 0.  1.
         -2   -1    0    0    0  501 -0.00000000000E+00 -0.00000000000E+00 -0.70292191779E+03  0.70292191779E+03  0.00000000000E+00 0. -1.
         23    2    1    2    0    0  0.48488647417E+03 -0.73230773564E+03 -0.27863617279E+03  0.92586444519E+03  0.90539171367E+02 0.  0.
         11    1    3    3    0    0  0.38583175136E+03 -0.52865441482E+03 -0.23392988238E+03  0.69502864728E+03  0.00000000000E+00 0. -1.
        -11    1    3    3    0    0  0.99054722816E+02 -0.20365332082E+03 -0.44706290416E+02  0.23083579791E+03  0.00000000000E+00 0.  1.
         22    1    1    2    0    0 -0.48488647417E+03  0.73230773564E+03  0.18149367780E+04  0.20162799956E+04  0.00000000000E+00 0.  1.
<mgrwt>
<rscale>  0 0.25091820E+04</rscale>
<asrwt>0</asrwt>
<pdfrwt beam="1">  1        2 0.34449577E+00 0.25091820E+04</pdfrwt>
<pdfrwt beam="2">  1       -2 0.10814183E+00 0.25091820E+04</pdfrwt>
<totfact> 0.29940479E+00</totfact>
</mgrwt>
</event>
<event>
 6    1  0.1769660E-004  0.4085799E+04  0.7818608E-02  0.7987458E-01
          2   -1    0    0  501    0  0.00000000000E+00  0.00000000000E+00  0.23013185009E+04  0.23013185009E+04  0.00000000000E+00 0.  1.
         -2   -1    0    0    0  501 -0.00000000000E+00 -0.00000000000E+00 -0.18134986865E+04  0.18134986865E+04  0.00000000000E+00 0. -1.
         23    2    1    2    0    0 -0.40779284554E+03 -0.25987906639E+03 -0.17538395430E+04  0.18215948238E+04  0.91773773128E+02 0.  0.
         11    1    3    3    0    0 -0.11866086860E+03 -0.10504133803E+03 -0.70861831159E+03  0.72612257639E+03  0.00000000000E+00 0. -1.
        -11    1    3    3    0    0 -0.28913197694E+03 -0.15483772836E+03 -0.10452212314E+04  0.10954722474E+04  0.00000000000E+00 0.  1.
         22    1    1    2    0    0  0.40779284554E+03  0.25987906639E+03  0.22416593575E+04  0.22932223636E+04  0.00000000000E+00 0.  1.
<mgrwt>
<rscale>  0 0.40857989E+04</rscale>
<asrwt>0</asrwt>
<pdfrwt beam="1">  1        2 0.35404900E+00 0.40857989E+04</pdfrwt>
<pdfrwt beam="2">  1       -2 0.27899980E+00 0.40857989E+04</pdfrwt>
<totfact> 0.15144025E-01</totfact>
</mgrwt>
</event>
<event>
 6    1  0.1719556E-004  0.5740939E+04  0.7818608E-02  0.7723379E-01
         -2   -1    0    0    0  501 -0.00000000000E+00  0.00000000000E+00  0.29251950975E+04  0.29251950975E+04  0.00000000000E+00 0. -1.
          2   -1    0    0  501    0  0.00000000000E+00 -0.00000000000E+00 -0.28167679403E+04  0.28167679403E+04  0.00000000000E+00 0.  1.
         23    2    1    2    0    0 -0.14151985853E+04  0.19275606286E+04 -0.15326451463E+04  0.28417224758E+04  0.90047053974E+02 0.  0.
         13    1    3    3    0    0 -0.11253854418E+04  0.14748093308E+04 -0.11700805392E+04  0.21933179028E+04  0.00000000000E+00 0.  1.
        -13    1    3    3    0    0 -0.28981314349E+03  0.45275129788E+03 -0.36256460712E+03  0.64840457294E+03  0.00000000000E+00 0. -1.
         22    1    1    2    0    0  0.14151985853E+04 -0.19275606286E+04  0.16410723035E+04  0.29002405621E+04  0.00000000000E+00 0. -1.
<mgrwt>
<rscale>  0 0.57409392E+04</rscale>
<asrwt>0</asrwt>
<pdfrwt beam="1">  1        2 0.43334891E+00 0.57409392E+04</pdfrwt>
<pdfrwt beam="2">  1       -2 0.45003001E+00 0.57409392E+04</pdfrwt>
<totfact> 0.54041193E-03</totfact>
</mgrwt>
</event>
<event>
 6    1  0.1719556E-004  0.3250518E+04  0.7818608E-02  0.8175601E-01
          2   -1    0    0  501    0  0.00000000000E+00  0.00000000000E+00  0.18140212124E+04  0.18140212124E+04  0.00000000000E+00 0.  1.
         -2   -1    0    0    0  501 -0.00000000000E+00 -0.00000000000E+00 -0.14561393184E+04  0.14561393184E+04  0.00000000000E+00 0. -1.
         23    2    1    2    0    0  0.10440731440E+04  0.91994269062E+03  0.10213369635E+04  0.17285523078E+04  0.91545638448E+02 0.  0.
         11    1    3    3    0    0  0.87796494324E+03  0.79062007996E+03  0.82807464118E+03  0.14427786260E+04  0.00000000000E+00 0. -1.
        -11    1    3    3    0    0  0.16610820076E+03  0.12932261066E+03  0.19326232231E+03  0.28577368181E+03  0.00000000000E+00 0.  1.
         22    1    1    2    0    0 -0.10440731440E+04 -0.91994269062E+03 -0.66345506949E+03  0.15416082230E+04  0.00000000000E+00 0. -1.
<mgrwt>
<rscale>  0 0.32505185E+04</rscale>
<asrwt>0</asrwt>
<pdfrwt beam="1">  1        2 0.27908019E+00 0.32505185E+04</pdfrwt>
<pdfrwt beam="2">  1       -2 0.22402143E+00 0.32505185E+04</pdfrwt>
<totfact> 0.66258099E-01</totfact>
</mgrwt>
</event>
<event>
 6    1  0.1719556E-004  0.2714972E+04  0.7818608E-02  0.8330163E-01
          2   -1    0    0  501    0  0.00000000000E+00  0.00000000000E+00  0.23006243348E+04  0.23006243348E+04  0.00000000000E+00 0.  1.
         -2   -1    0    0    0  501 -0.00000000000E+00 -0.00000000000E+00 -0.80098604609E+03  0.80098604609E+03  0.00000000000E+00 0. -1.
         23    2    1    2    0    0 -0.10182256065E+04  0.48785897028E+03 -0.10656195938E+03  0.11382792836E+04  0.97644843933E+02 0.  0.
         13    1    3    3    0    0 -0.52737032376E+03  0.30199954900E+03 -0.37280077994E+02  0.60886204529E+03  0.00000000000E+00 0.  1.
        -13    1    3    3    0    0 -0.49085528277E+03  0.18585942127E+03 -0.69281881387E+02  0.52941723828E+03  0.00000000000E+00 0. -1.
         22    1    1    2    0    0  0.10182256065E+04 -0.48785897028E+03  0.16062002481E+04  0.19633310973E+04  0.00000000000E+00 0.  1.
<mgrwt>
<rscale>  0 0.27149718E+04</rscale>
<asrwt>0</asrwt>
<pdfrwt beam="1">  1        2 0.35394220E+00 0.27149718E+04</pdfrwt>
<pdfrwt beam="2">  1       -2 0.12322862E+00 0.27149718E+04</pdfrwt>
<totfact> 0.19722619E+00</totfact>
</mgrwt>
</event>
<event>
 6    1  0.1719556E-004  0.3364296E+04  0.7818608E-02  0.8146725E-01
          2   -1    0    0  501    0  0.00000000000E+00  0.00000000000E+00  0.14943310942E+04  0.14943310942E+04  0.00000000000E+00 0.  1.
         -2   -1    0    0    0  501 -0.00000000000E+00 -0.00000000000E+00 -0.18935710290E+04  0.18935710290E+04  0.00000000000E+00 0. -1.
         23    2    1    2    0    0 -0.11194613528E+04 -0.47238315058E+03 -0.13694463636E+04  0.18330258979E+04  0.90890253526E+02 0.  0.
         11    1    3    3    0    0 -0.88352269838E+03 -0.36109100058E+03 -0.11273037904E+04  0.14770961056E+04  0.00000000000E+00 0. -1.
        -11    1    3    3    0    0 -0.23593865442E+03 -0.11129215000E+03 -0.24214257321E+03  0.35592979232E+03  0.00000000000E+00 0.  1.
         22    1    1    2    0    0  0.11194613528E+04  0.47238315058E+03  0.97020642882E+03  0.15548762253E+04  0.00000000000E+00 0.  1.
<mgrwt>
<rscale>  0 0.33642961E+04</rscale>
<asrwt>0</asrwt>
<pdfrwt beam="1">  1        2 0.22989709E+00 0.33642961E+04</pdfrwt>
<pdfrwt beam="2">  1       -2 0.29131862E+00 0.33642961E+04</pdfrwt>
<totfact> 0.38158336E-01</totfact>
</mgrwt>
</event>
<event>
 6    1  0.1719556E-004  0.2488331E+04  0.7818608E-02  0.8407155E-01
          1   -1    0    0  501    0  0.00000000000E+00  0.00000000000E+00  0.14248237898E+04  0.14248237898E+04  0.00000000000E+00 0. -1.
         -1   -1    0    0    0  501 -0.00000000000E+00 -0.00000000000E+00 -0.10864134387E+04  0.10864134387E+04  0.00000000000E+00 0.  1.
         23    2    1    2    0    0 -0.73629067104E+03  0.73984322015E+03  0.84957308866E+03  0.13490069213E+04  0.92484042327E+02 0.  0.
         11    1    3    3    0    0 -0.60563454106E+03  0.63088180069E+03  0.67036008007E+03  0.11019018471E+04  0.00000000000E+00 0. -1.
        -11    1    3    3    0    0 -0.13065612997E+03  0.10896141946E+03  0.17921300858E+03  0.24710507416E+03  0.00000000000E+00 0.  1.
         22    1    1    2    0    0  0.73629067104E+03 -0.73984322015E+03 -0.51116273762E+03  0.11622303072E+04  0.00000000000E+00 0.  1.
<mgrwt>
<rscale>  0 0.24883309E+04</rscale>
<asrwt>0</asrwt>
<pdfrwt beam="1">  1        1 0.21920366E+00 0.24883309E+04</pdfrwt>
<pdfrwt beam="2">  1       -1 0.16714053E+00 0.24883309E+04</pdfrwt>
<totfact> 0.16957112E+00</totfact>
</mgrwt>
</event>
<event>
 6    1  0.1719556E-004  0.1899640E+04  0.7818608E-02  0.8655036E-01
          2   -1    0    0  501    0  0.00000000000E+00  0.00000000000E+00  0.28344105263E+04  0.28344105263E+04  0.00000000000E+00 0.  1.
         -2   -1    0    0    0  501 -0.00000000000E+00 -0.00000000000E+00 -0.31828776654E+03  0.31828776654E+03  0.00000000000E+00 0. -1.
         23    2    1    2    0    0  0.33166243933E+03 -0.25671636585E+03  0.26712502084E+04  0.27055207090E+04  0.91440500387E+02 0.  0.
         11    1    3    3    0    0  0.18807099582E+03 -0.97348787065E+02  0.14861012928E+04  0.15011144321E+04  0.00000000000E+00 0. -1.
        -11    1    3    3    0    0  0.14359144351E+03 -0.15936757878E+03  0.11851489155E+04  0.12044062769E+04  0.00000000000E+00 0.  1.
         22    1    1    2    0    0 -0.33166243933E+03  0.25671636585E+03 -0.15512744860E+03  0.44717758381E+03  0.00000000000E+00 0. -1.
<mgrwt>
<rscale>  0 0.18996402E+04</rscale>
<asrwt>0</asrwt>
<pdfrwt beam="1">  1        2 0.43606314E+00 0.18996402E+04</pdfrwt>
<pdfrwt beam="2">  1       -2 0.48967351E-01 0.18996402E+04</pdfrwt>
<totfact> 0.81680818E+00</totfact>
</mgrwt>
</event>
<event>
 6    1  0.1719556E-004  0.6194452E+04  0.7818608E-02  0.7666749E-01
         -2   -1    0    0    0  501 -0.00000000000E+00  0.00000000000E+00  0.26573599482E+04  0.26573599482E+04  0.00000000000E+00 0. -1.
          2   -1    0    0  501    0  0.00000000000E+00 -0.00000000000E+00 -0.36099019034E+04  0.36099019034E+04  0.00000000000E+00 0.  1.
         23    2    1    2    0    0  0.35338849436E+03  0.18824095626E+04  0.19853727942E+04  0.27601701413E+04  0.92113450396E+02 0.  0.
         11    1    3    3    0    0  0.14445753745E+03  0.10160700775E+04  0.10534443993E+04  0.14707180168E+04  0.00000000000E+00 0. -1.
        -11    1    3    3    0    0  0.20893095691E+03  0.86633948505E+03  0.93192839495E+03  0.12894521245E+04  0.00000000000E+00 0.  1.
         22    1    1    2    0    0 -0.35338849436E+03 -0.18824095626E+04 -0.29379147494E+04  0.35070917102E+04  0.00000000000E+00 0.  1.
<mgrwt>
<rscale>  0 0.61944519E+04</rscale>
<asrwt>0</asrwt>
<pdfrwt beam="1">  1        2 0.55536952E+00 0.61944519E+04</pdfrwt>
<pdfrwt beam="2">  1       -2 0.40882461E+00 0.61944519E+04</pdfrwt>
<totfact> 0.29229643E-03</totfact>
</mgrwt>
</event>
<event>
 6    1  0.1719556E-004  0.1160887E+04  0.7818608E-02  0.9147798E-01
         -1   -1    0    0    0  501 -0.00000000000E+00  0.00000000000E+00  0.53315997416E+03  0.53315997416E+03  0.00000000000E+00 0. -1.
          1   -1    0    0  501    0  0.00000000000E+00 -0.00000000000E+00 -0.63192043226E+03  0.63192043226E+03  0.00000000000E+00 0.  1.
         23    2    1    2    0    0 -0.27109561633E+03  0.22731653114E+03 -0.50718930071E+03  0.62472889306E+03  0.88766911313E+02 0.  0.
         11    1    3    3    0    0 -0.98678251830E+02  0.13967879141E+03 -0.25115053908E+03  0.30384890231E+03  0.00000000000E+00 0. -1.
        -11    1    3    3    0    0 -0.17241736450E+03  0.87637739731E+02 -0.25603876163E+03  0.32087999075E+03  0.00000000000E+00 0.  1.
         22    1    1    2    0    0  0.27109561633E+03 -0.22731653114E+03  0.40842884260E+03  0.54035151336E+03  0.00000000000E+00 0. -1.
<mgrwt>
<rscale>  0 0.11608870E+04</rscale>
<asrwt>0</asrwt>
<pdfrwt beam="1">  1        1 0.97218528E-01 0.11608870E+04</pdfrwt>
<pdfrwt beam="2">  1       -1 0.82024611E-01 0.11608870E+04</pdfrwt>
<totfact> 0.46620580E+01</totfact>
</mgrwt>
</event>
<event>
 6    1  0.1719556E-004  0.1914666E+04  0.7818608E-02  0.8647590E-01
         -2   -1    0    0    0  501 -0.00000000000E+00  0.00000000000E+00  0.35015605800E+03  0.35015605800E+03  0.00000000000E+00 0.  1.
          2   -1    0    0  501    0  0.00000000000E+00 -0.00000000000E+00 -0.26173667159E+04  0.26173667159E+04  0.00000000000E+00 0. -1.
         23    2    1    2    0    0 -0.30871304511E+03  0.68108232109E+03 -0.20572723260E+04  0.21908304439E+04  0.90508220113E+02 0.  0.
         11    1    3    3    0    0 -0.27504485388E+03  0.57685803350E+03 -0.18336565642E+04  0.19418319335E+04  0.00000000000E+00 0. -1.
        -11    1    3    3    0    0 -0.33668191233E+02  0.10422428759E+03 -0.22361576185E+03  0.24899851038E+03  0.00000000000E+00 0.  1.
         22    1    1    2    0    0  0.30871304511E+03 -0.68108232109E+03 -0.20993833183E+03  0.77669233001E+03  0.00000000000E+00 0.  1.
<mgrwt>
<rscale>  0 0.19146664E+04</rscale>
<asrwt>0</asrwt>
<pdfrwt beam="1">  1        2 0.40267180E+00 0.19146664E+04</pdfrwt>
<pdfrwt beam="2">  1       -2 0.53870163E-01 0.19146664E+04</pdfrwt>
<totfact> 0.90364584E+00</totfact>
</mgrwt>
</event>
<event>
 6    1  0.2121073E-004  0.3085675E+04  0.7818608E-02  0.8219680E-01
          1   -1    0    0  501    0  0.00000000000E+00  0.00000000000E+00  0.12612519269E+04  0.12612519269E+04  0.00000000000E+00 0.  1.
         -1   -1    0    0    0  501 -0.00000000000E+00 -0.00000000000E+00 -0.18872895782E+04  0.18872895782E+04  0.00000000000E+00 0. -1.
         23    2    1    2    0    0  0.88948204622E+03 -0.16879410675E+03 -0.15863293999E+04  0.18287574305E+04  0.90791042873E+02 0.  0.
         11    1    3    3    0    0  0.22025016242E+03 -0.30082640189E+02 -0.46816007709E+03  0.51825568696E+03  0.00000000000E+00 0.  1.
        -11    1    3    3    0    0  0.66923188379E+03 -0.13871146656E+03 -0.11181693228E+04  0.13105017435E+04  0.00000000000E+00 0. -1.
         22    1    1    2    0    0 -0.88948204622E+03  0.16879410675E+03  0.96029174865E+03  0.13197840746E+04  0.00000000000E+00 0.  1.
<mgrwt>
<rscale>  0 0.30856750E+04</rscale>
<asrwt>0</asrwt>
<pdfrwt beam="1">  1        1 0.19403876E+00 0.30856750E+04</pdfrwt>
<pdfrwt beam="2">  1       -1 0.29035224E+00 0.30856750E+04</pdfrwt>
<totfact> 0.31073740E-01</totfact>
</mgrwt>
</event>
<event>
 6    1  0.1719556E-004  0.3402172E+04  0.7818608E-02  0.8137373E-01
         -2   -1    0    0    0  501 -0.00000000000E+00  0.00000000000E+00  0.29103500912E+04  0.29103500912E+04  0.00000000000E+00 0. -1.
          2   -1    0    0  501    0  0.00000000000E+00 -0.00000000000E+00 -0.99427685206E+03  0.99427685206E+03  0.00000000000E+00 0.  1.
         23    2    1    2    0    0 -0.70068298627E+03  0.28311124343E+03 -0.78872480621E+03  0.10962393116E+04  0.92440169955E+02 0.  0.
         11    1    3    3    0    0 -0.27212462204E+03  0.13030276254E+03 -0.37470778730E+03  0.48107852344E+03  0.00000000000E+00 0.  1.
        -11    1    3    3    0    0 -0.42855836423E+03  0.15280848089E+03 -0.41401701891E+03  0.61516078819E+03  0.00000000000E+00 0. -1.
         22    1    1    2    0    0  0.70068298627E+03 -0.28311124343E+03  0.27047980454E+04  0.28083876316E+04  0.00000000000E+00 0. -1.
<mgrwt>
<rscale>  0 0.34021721E+04</rscale>
<asrwt>0</asrwt>
<pdfrwt beam="1">  1        2 0.15296567E+00 0.34021721E+04</pdfrwt>
<pdfrwt beam="2">  1       -2 0.44774616E+00 0.34021721E+04</pdfrwt>
<totfact> 0.75489036E-02</totfact>
</mgrwt>
</event>
<event>
 6    1  0.1719556E-004  0.2641302E+04  0.7818608E-02  0.8354306E-01
         -2   -1    0    0    0  501 -0.00000000000E+00  0.00000000000E+00  0.12253755222E+04  0.12253755222E+04  0.00000000000E+00 0. -1.
          2   -1    0    0  501    0  0.00000000000E+00 -0.00000000000E+00 -0.14233339620E+04  0.14233339620E+04  0.00000000000E+00 0.  1.
         23    2    1    2    0    0  0.22882600294E+03 -0.12704474153E+04 -0.37179286546E+03  0.13461672077E+04  0.86823048309E+02 0.  0.
         13    1    3    3    0    0  0.93462338653E+02 -0.75933231869E+03 -0.22219034405E+03  0.79667391569E+03  0.00000000000E+00 0.  1.
        -13    1    3    3    0    0  0.13536366429E+03 -0.51111509659E+03 -0.14960252141E+03  0.54949329203E+03  0.00000000000E+00 0. -1.
         22    1    1    2    0    0 -0.22882600294E+03  0.12704474153E+04  0.17383442563E+03  0.13025422765E+04  0.00000000000E+00 0. -1.
<mgrwt>
<rscale>  0 0.26413016E+04</rscale>
<asrwt>0</asrwt>
<pdfrwt beam="1">  1        2 0.21897446E+00 0.26413016E+04</pdfrwt>
<pdfrwt beam="2">  1       -2 0.18851931E+00 0.26413016E+04</pdfrwt>
<totfact> 0.19621525E+00</totfact>
</mgrwt>
</event>
<event>
 6    1  0.1719556E-004  0.2039151E+04  0.7818608E-02  0.8588532E-01
         -1   -1    0    0    0  501 -0.00000000000E+00  0.00000000000E+00  0.83885590987E+03  0.83885590987E+03  0.00000000000E+00 0. -1.
          1   -1    0    0  501    0  0.00000000000E+00 -0.00000000000E+00 -0.12392279772E+04  0.12392279772E+04  0.00000000000E+00 0.  1.
         23    2    1    2    0    0 -0.93267364332E+02  0.29620207361E+03 -0.11880163878E+04  0.12314328105E+04  0.92786634124E+02 0.  0.
         13    1    3    3    0    0 -0.11887054213E+02  0.15282386460E+03 -0.45576178389E+03  0.48084845773E+03  0.00000000000E+00 0. -1.
        -13    1    3    3    0    0 -0.81380310120E+02  0.14337820901E+03 -0.73225460394E+03  0.75058435281E+03  0.00000000000E+00 0.  1.
         22    1    1    2    0    0  0.93267364332E+02 -0.29620207361E+03  0.78764432053E+03  0.84665107649E+03  0.00000000000E+00 0. -1.
<mgrwt>
<rscale>  0 0.20391505E+04</rscale>
<asrwt>0</asrwt>
<pdfrwt beam="1">  1        1 0.19065046E+00 0.20391505E+04</pdfrwt>
<pdfrwt beam="2">  1       -1 0.12905476E+00 0.20391505E+04</pdfrwt>
<totfact> 0.47786916E+00</totfact>
</mgrwt>
</event>
<event>
 6    1  0.1719556E-004  0.8569891E+03  0.7818608E-02  0.9481004E-01
         -2   -1    0    0    0  501 -0.00000000000E+00  0.00000000000E+00  0.21125501509E+03  0.21125501509E+03  0.00000000000E+00 0. -1.
          2   -1    0    0  501    0  0.00000000000E+00 -0.00000000000E+00 -0.86912775698E+03  0.86912775698E+03  0.00000000000E+00 0.  1.
         23    2    1    2    0    0  0.17245411544E+03  0.11371395362E+02 -0.82027875961E+03  0.84322155020E+03  0.91080232118E+02 0.  0.
         13    1    3    3    0    0  0.85178796926E+02 -0.29437385573E+02 -0.27197914799E+03  0.28652162930E+03  0.00000000000E+00 0. -1.
        -13    1    3    3    0    0  0.87275318517E+02  0.40808780935E+02 -0.54829961163E+03  0.55669992090E+03  0.00000000000E+00 0.  1.
         22    1    1    2    0    0 -0.17245411544E+03 -0.11371395362E+02  0.16240601773E+03  0.23716122187E+03  0.00000000000E+00 0. -1.
<mgrwt>
<rscale>  0 0.85698914E+03</rscale>
<asrwt>0</asrwt>
<pdfrwt beam="1">  1        2 0.13371196E+00 0.85698914E+03</pdfrwt>
<pdfrwt beam="2">  1       -2 0.32500771E-01 0.85698914E+03</pdfrwt>
<totfact> 0.27233898E+02</totfact>
</mgrwt>
</event>
<event>
 6    1  0.1719556E-004  0.1320797E+04  0.7818608E-02  0.9013234E-01
         -2   -1    0    0    0  501 -0.00000000000E+00  0.00000000000E+00  0.19031909587E+03  0.19031909587E+03  0.00000000000E+00 0. -1.
          2   -1    0    0  501    0  0.00000000000E+00 -0.00000000000E+00 -0.22915508630E+04  0.22915508630E+04  0.00000000000E+00 0.  1.
         23    2    1    2    0    0 -0.35231589863E+03 -0.21634401702E+03 -0.95317099794E+02  0.43379162082E+03  0.90324939232E+02 0.  0.
         11    1    3    3    0    0 -0.27740133375E+03 -0.20996191812E+03 -0.74712600857E+02  0.35583350004E+03  0.00000000000E+00 0.  1.
        -11    1    3    3    0    0 -0.74914564887E+02 -0.63820989034E+01 -0.20604498937E+02  0.77958120776E+02  0.00000000000E+00 0. -1.
         22    1    1    2    0    0  0.35231589863E+03  0.21634401702E+03 -0.20059146673E+04  0.20480783380E+04  0.00000000000E+00 0.  1.
<mgrwt>
<rscale>  0 0.13207966E+04</rscale>
<asrwt>0</asrwt>
<pdfrwt beam="1">  1        2 0.35254626E+00 0.13207966E+04</pdfrwt>
<pdfrwt beam="2">  1       -2 0.29279863E-01 0.13207966E+04</pdfrwt>
<totfact> 0.48268299E+01</totfact>
</mgrwt>
</event>
<event>
 6    1  0.1719556E-004  0.2230024E+04  0.7818608E-02  0.8506034E-01
         -2   -1    0    0    0  501 -0.00000000000E+00  0.00000000000E+00  0.10581851438E+04  0.10581851438E+04  0.00000000000E+00 0. -1.
          2   -1    0    0  501    0  0.00000000000E+00 -0.00000000000E+00 -0.11748906220E+04  0.11748906220E+04  0.00000000000E+00 0.  1.
         23    2    1    2    0    0 -0.43237480909E+03 -0.97513587215E+03  0.26011240119E+03  0.11017801992E+04  0.91778001060E+02 0.  0.
         13    1    3    3    0    0 -0.17263716722E+03 -0.50255659835E+03  0.12919997256E+03  0.54686319950E+03  0.00000000000E+00 0. -1.
        -13    1    3    3    0    0 -0.25973764187E+03 -0.47257927380E+03  0.13091242863E+03  0.55491699974E+03  0.00000000000E+00 0.  1.
         22    1    1    2    0    0  0.43237480909E+03  0.97513587215E+03 -0.37681787938E+03  0.11312955666E+04  0.00000000000E+00 0.  1.
<mgrwt>
<rscale>  0 0.22300240E+04</rscale>
<asrwt>0</asrwt>
<pdfrwt beam="1">  1        2 0.18075240E+00 0.22300240E+04</pdfrwt>
<pdfrwt beam="2">  1       -2 0.16279771E+00 0.22300240E+04</pdfrwt>
<totfact> 0.42955856E+00</totfact>
</mgrwt>
</event>
<event>
 6    1  0.1719556E-004  0.1905294E+04  0.7818608E-02  0.8652226E-01
         -2   -1    0    0    0  501 -0.00000000000E+00  0.00000000000E+00  0.40959505470E+03  0.40959505470E+03  0.00000000000E+00 0. -1.
          2   -1    0    0  501    0  0.00000000000E+00 -0.00000000000E+00 -0.22156910700E+04  0.22156910700E+04  0.00000000000E+00 0.  1.
         23    2    1    2    0    0  0.13672575033E+03 -0.55343480491E+02 -0.21988905936E+04  0.22057096568E+04  0.90985799990E+02 0.  0.
         13    1    3    3    0    0  0.94603981295E+02  0.10053093378E+02 -0.11364176456E+04  0.11403929337E+04  0.00000000000E+00 0.  1.
        -13    1    3    3    0    0  0.42121769039E+02 -0.65396573869E+02 -0.10624729480E+04  0.10653167231E+04  0.00000000000E+00 0. -1.
         22    1    1    2    0    0 -0.13672575033E+03  0.55343480491E+02  0.39279457833E+03  0.41957646788E+03  0.00000000000E+00 0. -1.
<mgrwt>
<rscale>  0 0.19052938E+04</rscale>
<asrwt>0</asrwt>
<pdfrwt beam="1">  1        2 0.34087555E+00 0.19052938E+04</pdfrwt>
<pdfrwt beam="2">  1       -2 0.63014623E-01 0.19052938E+04</pdfrwt>
<totfact> 0.11054525E+01</totfact>
</mgrwt>
</event>
<event>
 6    1  0.1719556E-004  0.1448700E+04  0.7818608E-02  0.8919302E-01
          1   -1    0    0  501    0  0.00000000000E+00  0.00000000000E+00  0.10599653013E+04  0.10599653013E+04  0.00000000000E+00 0.  1.
         -1   -1    0    0    0  501 -0.00000000000E+00 -0.00000000000E+00 -0.49500025413E+03  0.49500025413E+03  0.00000000000E+00 0. -1.
         23    2    1    2    0    0 -0.12193571016E+03 -0.69341420575E+03  0.11431192139E+03  0.71903504518E+03  0.90843836746E+02 0.  0.
         13    1    3    3    0    0 -0.13364769860E+03 -0.61418595915E+03  0.11473541912E+03  0.63894468944E+03  0.00000000000E+00 0.  1.
        -13    1    3    3    0    0  0.11711988439E+02 -0.79228246599E+02 -0.42349773542E+00  0.80090355740E+02  0.00000000000E+00 0. -1.
         22    1    1    2    0    0  0.12193571016E+03  0.69341420575E+03  0.45065312576E+03  0.83593051021E+03  0.00000000000E+00 0.  1.
<mgrwt>
<rscale>  0 0.14487002E+04</rscale>
<asrwt>0</asrwt>
<pdfrwt beam="1">  1        1 0.16307158E+00 0.14487002E+04</pdfrwt>
<pdfrwt beam="2">  1       -1 0.76153885E-01 0.14487002E+04</pdfrwt>
<totfact> 0.22874004E+01</totfact>
</mgrwt>
</event>
<event>
 6    1  0.1719556E-004  0.1910289E+04  0.7818608E-02  0.8649752E-01
         -1   -1    0    0    0  501 -0.00000000000E+00  0.00000000000E+00  0.83100266790E+03  0.83100266790E+03  0.00000000000E+00 0.  1.
          1   -1    0    0  501    0  0.00000000000E+00 -0.00000000000E+00 -0.10978313523E+04  0.10978313523E+04  0.00000000000E+00 0. -1.
         23    2    1    2    0    0 -0.42862755207E+03 -0.74910086302E+03  0.27429569867E+03  0.91016367148E+03  0.91028002268E+02 0.  0.
         13    1    3    3    0    0 -0.25148174521E+03 -0.51995815293E+03  0.16620706513E+03  0.60101941522E+03  0.00000000000E+00 0. -1.
        -13    1    3    3    0    0 -0.17714580687E+03 -0.22914271009E+03  0.10808863354E+03  0.30914425626E+03  0.00000000000E+00 0.  1.
         22    1    1    2    0    0  0.42862755207E+03  0.74910086302E+03 -0.54112438304E+03  0.10186703487E+04  0.00000000000E+00 0. -1.
<mgrwt>
<rscale>  0 0.19102888E+04</rscale>
<asrwt>0</asrwt>
<pdfrwt beam="1">  1        1 0.16889713E+00 0.19102888E+04</pdfrwt>
<pdfrwt beam="2">  1       -1 0.12784657E+00 0.19102888E+04</pdfrwt>
<totfact> 0.62937091E+00</totfact>
</mgrwt>
</event>
<event>
 6    1  0.1719556E-004  0.2654185E+04  0.7818608E-02  0.8350025E-01
          2   -1    0    0  501    0  0.00000000000E+00  0.00000000000E+00  0.38914613289E+04  0.38914613289E+04  0.00000000000E+00 0.  1.
         -2   -1    0    0    0  501 -0.00000000000E+00 -0.00000000000E+00 -0.45257420024E+03  0.45257420024E+03  0.00000000000E+00 0. -1.
         23    2    1    2    0    0 -0.62794417162E+03  0.51944586724E+03  0.34324877329E+04  0.35290638462E+04  0.90452764799E+02 0.  0.
         13    1    3    3    0    0 -0.11257471525E+03  0.13183491906E+03  0.63772504249E+03  0.66086817310E+03  0.00000000000E+00 0. -1.
        -13    1    3    3    0    0 -0.51536945636E+03  0.38761094818E+03  0.27947626904E+04  0.28681956731E+04  0.00000000000E+00 0.  1.
         22    1    1    2    0    0  0.62794417162E+03 -0.51944586724E+03  0.63993957515E+01  0.81497168290E+03  0.00000000000E+00 0. -1.
<mgrwt>
<rscale>  0 0.26541854E+04</rscale>
<asrwt>0</asrwt>
<pdfrwt beam="1">  1        2 0.59868634E+00 0.26541854E+04</pdfrwt>
<pdfrwt beam="2">  1       -2 0.69626803E-01 0.26541854E+04</pdfrwt>
<totfact> 0.69242786E-01</totfact>
</mgrwt>
</event>
<event>
 6    1  0.1719556E-004  0.2607801E+04  0.7818608E-02  0.8365556E-01
         -1   -1    0    0    0  501 -0.00000000000E+00  0.00000000000E+00  0.38412774594E+03  0.38412774594E+03  0.00000000000E+00 0. -1.
          1   -1    0    0  501    0  0.00000000000E+00 -0.00000000000E+00 -0.44260197654E+04  0.44260197654E+04  0.00000000000E+00 0.  1.
         23    2    1    2    0    0  0.51981522957E+03 -0.69964008908E+03 -0.38082563047E+04  0.39077674504E+04  0.90145643006E+02 0.  0.
         13    1    3    3    0    0  0.19142783745E+03 -0.22207923092E+03 -0.11196084006E+04  0.11573619885E+04  0.00000000000E+00 0. -1.
        -13    1    3    3    0    0  0.32838739213E+03 -0.47756085816E+03 -0.26886479041E+04  0.27504054619E+04  0.00000000000E+00 0.  1.
         22    1    1    2    0    0 -0.51981522957E+03  0.69964008908E+03 -0.23363571474E+03  0.90238006092E+03  0.00000000000E+00 0. -1.
<mgrwt>
<rscale>  0 0.26078014E+04</rscale>
<asrwt>0</asrwt>
<pdfrwt beam="1">  1        1 0.68092615E+00 0.26078014E+04</pdfrwt>
<pdfrwt beam="2">  1       -1 0.59096574E-01 0.26078014E+04</pdfrwt>
<totfact> 0.98128688E-02</totfact>
</mgrwt>
</event>
<event>
 6    1  0.1719556E-004  0.2974617E+04  0.7818608E-02  0.8251016E-01
         -2   -1    0    0    0  501 -0.00000000000E+00  0.00000000000E+00  0.11199133369E+04  0.11199133369E+04  0.00000000000E+00 0.  1.
          2   -1    0    0  501    0  0.00000000000E+00 -0.00000000000E+00 -0.19752304490E+04  0.19752304490E+04  0.00000000000E+00 0. -1.
         23    2    1    2    0    0  0.13718898584E+04  0.30965305775E+03 -0.92592820310E+03  0.16869702434E+04  0.10275585134E+03 0.  0.
         13    1    3    3    0    0  0.62862048837E+03  0.15858844426E+03 -0.48498151352E+03  0.80964256404E+03  0.00000000000E+00 0. -1.
        -13    1    3    3    0    0  0.74326937005E+03  0.15106461349E+03 -0.44094668958E+03  0.87732767936E+03  0.00000000000E+00 0.  1.
         22    1    1    2    0    0 -0.13718898584E+04 -0.30965305775E+03  0.70611090974E+02  0.14081735426E+04  0.00000000000E+00 0.  1.
<mgrwt>
<rscale>  0 0.29746172E+04</rscale>
<asrwt>0</asrwt>
<pdfrwt beam="1">  1        2 0.30388160E+00 0.29746172E+04</pdfrwt>
<pdfrwt beam="2">  1       -2 0.17229436E+00 0.29746172E+04</pdfrwt>
<totfact> 0.12146289E+00</totfact>
</mgrwt>
</event>
<event>
 6    1  0.1719556E-004  0.3704361E+04  0.7818608E-02  0.8066996E-01
         -2   -1    0    0    0  501 -0.00000000000E+00  0.00000000000E+00  0.76391842472E+03  0.76391842472E+03  0.00000000000E+00 0.  1.
          2   -1    0    0  501    0  0.00000000000E+00 -0.00000000000E+00 -0.44907581191E+04  0.44907581191E+04  0.00000000000E+00 0. -1.
         23    2    1    2    0    0  0.15775615295E+04 -0.71126183415E+03 -0.93250333191E+03  0.19678985649E+04  0.92024569680E+02 0.  0.
         11    1    3    3    0    0  0.15305192947E+04 -0.67412740706E+03 -0.89048050076E+03  0.18947011888E+04  0.00000000000E+00 0. -1.
        -11    1    3    3    0    0  0.47042234805E+02 -0.37134427095E+02 -0.42022831146E+02  0.73197376105E+02  0.00000000000E+00 0.  1.
         22    1    1    2    0    0 -0.15775615295E+04  0.71126183415E+03 -0.27943363625E+04  0.32867779790E+04  0.00000000000E+00 0. -1.
<mgrwt>
<rscale>  0 0.37043611E+04</rscale>
<asrwt>0</asrwt>
<pdfrwt beam="1">  1        2 0.69088586E+00 0.37043611E+04</pdfrwt>
<pdfrwt beam="2">  1       -2 0.11752591E+00 0.37043611E+04</pdfrwt>
<totfact> 0.56445876E-02</totfact>
</mgrwt>
</event>
<event>
 6    1  0.1719556E-004  0.3158937E+04  0.7818608E-02  0.8199747E-01
          1   -1    0    0  501    0  0.00000000000E+00  0.00000000000E+00  0.17097830466E+04  0.17097830466E+04  0.00000000000E+00 0. -1.
         -1   -1    0    0    0  501 -0.00000000000E+00 -0.00000000000E+00 -0.14590858724E+04  0.14590858724E+04  0.00000000000E+00 0.  1.
         23    2    1    2    0    0  0.98669653793E+03 -0.51215440628E+03 -0.99831061736E+03  0.14967766198E+04  0.88566173262E+02 0.  0.
         13    1    3    3    0    0  0.40406159425E+03 -0.22504142379E+03 -0.35999989254E+03  0.58609669595E+03  0.00000000000E+00 0.  1.
        -13    1    3    3    0    0  0.58263494367E+03 -0.28711298249E+03 -0.63831072482E+03  0.91067992386E+03  0.00000000000E+00 0. -1.
         22    1    1    2    0    0 -0.98669653793E+03  0.51215440628E+03  0.12490077915E+04  0.16720922992E+04  0.00000000000E+00 0. -1.
<mgrwt>
<rscale>  0 0.31589367E+04</rscale>
<asrwt>0</asrwt>
<pdfrwt beam="1">  1        1 0.26304354E+00 0.31589367E+04</pdfrwt>
<pdfrwt beam="2">  1       -1 0.22447475E+00 0.31589367E+04</pdfrwt>
<totfact> 0.40480088E-01</totfact>
</mgrwt>
</event>
<event>
 6    1  0.1719556E-004  0.1169685E+04  0.7818608E-02  0.9139813E-01
          1   -1    0    0  501    0  0.00000000000E+00  0.00000000000E+00  0.17255516262E+04  0.17255516262E+04  0.00000000000E+00 0.  1.
         -1   -1    0    0    0  501 -0.00000000000E+00 -0.00000000000E+00 -0.19822095262E+03  0.19822095262E+03  0.00000000000E+00 0. -1.
         23    2    1    2    0    0  0.41201525106E+03 -0.65549106339E+02  0.14340538779E+04  0.14962754290E+04  0.90974625545E+02 0.  0.
         13    1    3    3    0    0  0.98585194179E+02 -0.55673575790E+02  0.36071046670E+03  0.37806167267E+03  0.00000000000E+00 0.  1.
        -13    1    3    3    0    0  0.31343005688E+03 -0.98755305490E+01  0.10733434112E+04  0.11182137564E+04  0.00000000000E+00 0. -1.
         22    1    1    2    0    0 -0.41201525106E+03  0.65549106339E+02  0.93276795720E+02  0.42749714978E+03  0.00000000000E+00 0. -1.
<mgrwt>
<rscale>  0 0.11696846E+04</rscale>
<asrwt>0</asrwt>
<pdfrwt beam="1">  1        1 0.26546947E+00 0.11696846E+04</pdfrwt>
<pdfrwt beam="2">  1       -1 0.30495532E-01 0.11696846E+04</pdfrwt>
<totfact> 0.45042816E+01</totfact>
</mgrwt>
</event>
<event>
 6    1  0.1719556E-004  0.2268367E+04  0.7818608E-02  0.8490499E-01
         -2   -1    0    0    0  501 -0.00000000000E+00  0.00000000000E+00  0.52437528611E+03  0.52437528611E+03  0.00000000000E+00 0. -1.
          2   -1    0    0  501    0  0.00000000000E+00 -0.00000000000E+00 -0.24531512716E+04  0.24531512716E+04  0.00000000000E+00 0.  1.
         23    2    1    2    0    0  0.92461799750E+03  0.50294885054E+02 -0.11075337852E+03  0.93726818776E+03  0.93580597126E+02 0.  0.
         11    1    3    3    0    0  0.34627794504E+03 -0.26361924058E+02 -0.44539715898E+02  0.35012448151E+03  0.00000000000E+00 0.  1.
        -11    1    3    3    0    0  0.57834005247E+03  0.76656809112E+02 -0.66213662626E+02  0.58714370625E+03  0.00000000000E+00 0. -1.
         22    1    1    2    0    0 -0.92461799750E+03 -0.50294885054E+02 -0.18180226070E+04  0.20402583700E+04  0.00000000000E+00 0.  1.
<mgrwt>
<rscale>  0 0.22683667E+04</rscale>
<asrwt>0</asrwt>
<pdfrwt beam="1">  1        2 0.37740789E+00 0.22683667E+04</pdfrwt>
<pdfrwt beam="2">  1       -2 0.80673121E-01 0.22683667E+04</pdfrwt>
<totfact> 0.45682532E+00</totfact>
</mgrwt>
</event>
<event>
 6    1  0.1719556E-004  0.1677507E+04  0.7818608E-02  0.8774298E-01
         -1   -1    0    0    0  501 -0.00000000000E+00  0.00000000000E+00  0.63415396978E+03  0.63415396978E+03  0.00000000000E+00 0. -1.
          1   -1    0    0  501    0  0.00000000000E+00 -0.00000000000E+00 -0.11093639725E+04  0.11093639725E+04  0.00000000000E+00 0.  1.
         23    2    1    2    0    0  0.71096368900E+03 -0.41105253880E+03 -0.40116501145E+03  0.91894761935E+03  0.95382409087E+02 0.  0.
         11    1    3    3    0    0  0.37388208617E+03 -0.22898648329E+03 -0.16248905098E+03  0.46757386109E+03  0.00000000000E+00 0. -1.
        -11    1    3    3    0    0  0.33708160283E+03 -0.18206605552E+03 -0.23867596047E+03  0.45137375826E+03  0.00000000000E+00 0.  1.
         22    1    1    2    0    0 -0.71096368900E+03  0.41105253880E+03 -0.74044991285E+02  0.82457032294E+03  0.00000000000E+00 0.  1.
<mgrwt>
<rscale>  0 0.16775072E+04</rscale>
<asrwt>0</asrwt>
<pdfrwt beam="1">  1        1 0.17067138E+00 0.16775072E+04</pdfrwt>
<pdfrwt beam="2">  1       -1 0.97562149E-01 0.16775072E+04</pdfrwt>
<totfact> 0.11993650E+01</totfact>
</mgrwt>
</event>
<event>
 6    1  0.1719556E-004  0.8588107E+03  0.7818608E-02  0.9478587E-01
         -1   -1    0    0    0  501 -0.00000000000E+00  0.00000000000E+00  0.24772015572E+03  0.24772015572E+03  0.00000000000E+00 0. -1.
          1   -1    0    0  501    0  0.00000000000E+00 -0.00000000000E+00 -0.74434379971E+03  0.74434379971E+03  0.00000000000E+00 0.  1.
         23    2    1    2    0    0 -0.45114165241E+01  0.15794620357E+03  0.20425620978E+03  0.27359340939E+03  0.90362593633E+02 0.  0.
         11    1    3    3    0    0 -0.42525886525E+02  0.41574317503E+02  0.62002972114E+02  0.85914163277E+02  0.00000000000E+00 0.  1.
        -11    1    3    3    0    0  0.38014470001E+02  0.11637188606E+03  0.14225323766E+03  0.18767924611E+03  0.00000000000E+00 0. -1.
         22    1    1    2    0    0  0.45114165241E+01 -0.15794620357E+03 -0.70087985377E+03  0.71847054603E+03  0.00000000000E+00 0.  1.
<mgrwt>
<rscale>  0 0.85881072E+03</rscale>
<asrwt>0</asrwt>
<pdfrwt beam="1">  1        1 0.11451443E+00 0.85881072E+03</pdfrwt>
<pdfrwt beam="2">  1       -1 0.38110793E-01 0.85881072E+03</pdfrwt>
<totfact> 0.16627195E+02</totfact>
</mgrwt>
</event>
<event>
 6    1  0.1719556E-004  0.1366733E+04  0.7818608E-02  0.8978257E-01
          3   -1    0    0  501    0  0.00000000000E+00  0.00000000000E+00  0.56174242165E+03  0.56174242165E+03  0.00000000000E+00 0.  1.
         -3   -1    0    0    0  501 -0.00000000000E+00 -0.00000000000E+00 -0.83132330211E+03  0.83132330211E+03  0.00000000000E+00 0. -1.
         23    2    1    2    0    0 -0.51500730765E+03 -0.79445592814E+02  0.31061308232E+03  0.61321370985E+03  0.89478700693E+02 0.  0.
         13    1    3    3    0    0 -0.20379506482E+03 -0.26425068146E+02  0.72976567291E+02  0.21807405175E+03  0.00000000000E+00 0. -1.
        -13    1    3    3    0    0 -0.31121224283E+03 -0.53020524668E+02  0.23763651503E+03  0.39513965810E+03  0.00000000000E+00 0.  1.
         22    1    1    2    0    0  0.51500730765E+03  0.79445592814E+02 -0.58019396279E+03  0.77985201391E+03  0.00000000000E+00 0. -1.
<mgrwt>
<rscale>  0 0.13667327E+04</rscale>
<asrwt>0</asrwt>
<pdfrwt beam="1">  1        3 0.86421911E-01 0.13667327E+04</pdfrwt>
<pdfrwt beam="2">  1       -3 0.12789589E+00 0.13667327E+04</pdfrwt>
<totfact> 0.15113997E+00</totfact>
</mgrwt>
</event>
<event>
 6    1  0.1719556E-004  0.1275864E+04  0.7818608E-02  0.9048927E-01
         -4   -1    0    0    0  501 -0.00000000000E+00  0.00000000000E+00  0.51661866614E+03  0.51661866614E+03  0.00000000000E+00 0. -1.
          4   -1    0    0  501    0  0.00000000000E+00 -0.00000000000E+00 -0.78773222747E+03  0.78773222747E+03  0.00000000000E+00 0.  1.
         23    2    1    2    0    0  0.10270947204E+03  0.24870461100E+03  0.45144754278E+03  0.53331407973E+03  0.90641075524E+02 0.  0.
         13    1    3    3    0    0  0.73974378057E+02  0.12592654434E+03  0.16506399206E+03  0.22039923923E+03  0.00000000000E+00 0.  1.
        -13    1    3    3    0    0  0.28735093979E+02  0.12277806666E+03  0.28638355073E+03  0.31291484050E+03  0.00000000000E+00 0. -1.
         22    1    1    2    0    0 -0.10270947204E+03 -0.24870461100E+03 -0.72256110412E+03  0.77103681388E+03  0.00000000000E+00 0.  1.
<mgrwt>
<rscale>  0 0.12758639E+04</rscale>
<asrwt>0</asrwt>
<pdfrwt beam="1">  1        4 0.12118957E+00 0.12758639E+04</pdfrwt>
<pdfrwt beam="2">  1       -4 0.79479795E-01 0.12758639E+04</pdfrwt>
<totfact> 0.14254571E+00</totfact>
</mgrwt>
</event>
<event>
 6    1  0.1719556E-004  0.2355888E+04  0.7818608E-02  0.8456206E-01
          2   -1    0    0  501    0  0.00000000000E+00  0.00000000000E+00  0.77062705325E+03  0.77062705325E+03  0.00000000000E+00 0.  1.
         -2   -1    0    0    0  501 -0.00000000000E+00 -0.00000000000E+00 -0.18005492391E+04  0.18005492391E+04  0.00000000000E+00 0. -1.
         23    2    1    2    0    0 -0.43543049983E+02 -0.13522017945E+03 -0.17898456431E+04  0.17980888749E+04  0.96931324781E+02 0.  0.
         13    1    3    3    0    0 -0.67101038491E+02 -0.59182144846E+02 -0.78119964362E+03  0.78630652982E+03  0.00000000000E+00 0.  1.
        -13    1    3    3    0    0  0.23557988507E+02 -0.76038034609E+02 -0.10086459995E+04  0.10117823450E+04  0.00000000000E+00 0. -1.
         22    1    1    2    0    0  0.43543049983E+02  0.13522017945E+03  0.75992345726E+03  0.77308741746E+03  0.00000000000E+00 0.  1.
<mgrwt>
<rscale>  0 0.23558879E+04</rscale>
<asrwt>0</asrwt>
<pdfrwt beam="1">  1        2 0.11855801E+00 0.23558879E+04</pdfrwt>
<pdfrwt beam="2">  1       -2 0.27700757E+00 0.23558879E+04</pdfrwt>
<totfact> 0.14347308E+00</totfact>
</mgrwt>
</event>
<event>
 6    1  0.1719556E-004  0.4056460E+04  0.7818608E-02  0.7993253E-01
          2   -1    0    0  501    0  0.00000000000E+00  0.00000000000E+00  0.36114047582E+04  0.36114047582E+04  0.00000000000E+00 0.  1.
         -2   -1    0    0    0  501 -0.00000000000E+00 -0.00000000000E+00 -0.11390902895E+04  0.11390902895E+04  0.00000000000E+00 0. -1.
         23    2    1    2    0    0  0.18844722554E+03 -0.58323838461E+03 -0.10261150677E+04  0.11987787596E+04  0.92081552043E+02 0.  0.
         11    1    3    3    0    0 -0.48611638900E+01 -0.50865333656E+02 -0.11694605234E+03  0.12762167622E+03  0.00000000000E+00 0. -1.
        -11    1    3    3    0    0  0.19330838943E+03 -0.53237305095E+03 -0.90916901535E+03  0.10711570834E+04  0.00000000000E+00 0.  1.
         22    1    1    2    0    0 -0.18844722554E+03  0.58323838461E+03  0.34984295363E+04  0.35517162881E+04  0.00000000000E+00 0.  1.
<mgrwt>
<rscale>  0 0.40564596E+04</rscale>
<asrwt>0</asrwt>
<pdfrwt beam="1">  1        2 0.55560073E+00 0.40564596E+04</pdfrwt>
<pdfrwt beam="2">  1       -2 0.17524466E+00 0.40564596E+04</pdfrwt>
<totfact> 0.10388771E-01</totfact>
</mgrwt>
</event>
<event>
 6    1  0.1719556E-004  0.4661188E+04  0.7818608E-02  0.7883010E-01
         -2   -1    0    0    0  501 -0.00000000000E+00  0.00000000000E+00  0.17108784662E+04  0.17108784662E+04  0.00000000000E+00 0. -1.
          2   -1    0    0  501    0  0.00000000000E+00 -0.00000000000E+00 -0.31747826960E+04  0.31747826960E+04  0.00000000000E+00 0.  1.
         23    2    1    2    0    0  0.16402555724E+04 -0.15151468090E+03 -0.24590898288E+04  0.29611379958E+04  0.88433040039E+02 0.  0.
         11    1    3    3    0    0  0.10867063886E+04 -0.71236686865E+02 -0.15698844843E+04  0.19106393523E+04  0.00000000000E+00 0. -1.
        -11    1    3    3    0    0  0.55354918384E+03 -0.80277994033E+02 -0.88920534451E+03  0.10504986435E+04  0.00000000000E+00 0.  1.
         22    1    1    2    0    0 -0.16402555724E+04  0.15151468090E+03  0.99518559904E+03  0.19245231664E+04  0.00000000000E+00 0. -1.
<mgrwt>
<rscale>  0 0.46611876E+04</rscale>
<asrwt>0</asrwt>
<pdfrwt beam="1">  1        2 0.48842810E+00 0.46611876E+04</pdfrwt>
<pdfrwt beam="2">  1       -2 0.26321208E+00 0.46611876E+04</pdfrwt>
<totfact> 0.53663026E-02</totfact>
</mgrwt>
</event>
<event>
 6    1  0.1719556E-004  0.1312547E+04  0.7818608E-02  0.9019674E-01
          2   -1    0    0  501    0  0.00000000000E+00  0.00000000000E+00  0.57648321353E+03  0.57648321353E+03  0.00000000000E+00 0. -1.
         -2   -1    0    0    0  501 -0.00000000000E+00 -0.00000000000E+00 -0.74710720133E+03  0.74710720133E+03  0.00000000000E+00 0.  1.
         23    2    1    2    0    0 -0.41268263951E+02 -0.59088907073E+03 -0.36352006867E+03  0.70064430039E+03  0.88896748159E+02 0.  0.
         13    1    3    3    0    0  0.19685809367E+02 -0.31654770166E+03 -0.21045280826E+03  0.38063153183E+03  0.00000000000E+00 0. -1.
        -13    1    3    3    0    0 -0.60954073318E+02 -0.27434136907E+03 -0.15306726041E+03  0.32001276857E+03  0.00000000000E+00 0.  1.
         22    1    1    2    0    0  0.41268263951E+02  0.59088907073E+03  0.19289608086E+03  0.62294611447E+03  0.00000000000E+00 0. -1.
<mgrwt>
<rscale>  0 0.13125468E+04</rscale>
<asrwt>0</asrwt>
<pdfrwt beam="1">  1        2 0.88689725E-01 0.13125468E+04</pdfrwt>
<pdfrwt beam="2">  1       -2 0.11493957E+00 0.13125468E+04</pdfrwt>
<totfact> 0.30090329E+01</totfact>
</mgrwt>
</event>
<event>
 6    1  0.1719556E-004  0.1203477E+04  0.7818608E-02  0.9109819E-01
          2   -1    0    0  501    0  0.00000000000E+00  0.00000000000E+00  0.13337889912E+04  0.13337889912E+04  0.00000000000E+00 0.  1.
         -2   -1    0    0    0  501 -0.00000000000E+00 -0.00000000000E+00 -0.27147392813E+03  0.27147392813E+03  0.00000000000E+00 0. -1.
         23    2    1    2    0    0  0.39198733456E+03  0.45201899773E+03  0.51993893565E+03  0.79770666226E+03  0.89577773185E+02 0.  0.
         11    1    3    3    0    0  0.34609284751E+03  0.34714756514E+03  0.41134750821E+03  0.63992066977E+03  0.00000000000E+00 0. -1.
        -11    1    3    3    0    0  0.45894487048E+02  0.10487143259E+03  0.10859142744E+03  0.15778599250E+03  0.00000000000E+00 0.  1.
         22    1    1    2    0    0 -0.39198733456E+03 -0.45201899773E+03  0.54237612746E+03  0.80755625712E+03  0.00000000000E+00 0. -1.
<mgrwt>
<rscale>  0 0.12034765E+04</rscale>
<asrwt>0</asrwt>
<pdfrwt beam="1">  1        2 0.20519830E+00 0.12034765E+04</pdfrwt>
<pdfrwt beam="2">  1       -2 0.41765220E-01 0.12034765E+04</pdfrwt>
<totfact> 0.84624266E+01</totfact>
</mgrwt>
</event>
<event>
 6    1  0.1719556E-004  0.2944231E+04  0.7818608E-02  0.8259838E-01
          1   -1    0    0  501    0  0.00000000000E+00  0.00000000000E+00  0.18019974074E+04  0.18019974074E+04  0.00000000000E+00 0.  1.
         -1   -1    0    0    0  501 -0.00000000000E+00 -0.00000000000E+00 -0.12026235416E+04  0.12026235416E+04  0.00000000000E+00 0. -1.
         23    2    1    2    0    0 -0.25067632292E+03  0.87544275789E+03  0.14784806460E+04  0.17388929482E+04  0.92763265544E+02 0.  0.
         13    1    3    3    0    0 -0.22906061382E+03  0.72099424926E+03  0.11707375770E+04  0.13938895030E+04  0.00000000000E+00 0. -1.
        -13    1    3    3    0    0 -0.21615709099E+02  0.15444850863E+03  0.30774306898E+03  0.34500344521E+03  0.00000000000E+00 0.  1.
         22    1    1    2    0    0  0.25067632292E+03 -0.87544275789E+03 -0.87910678012E+03  0.12657280008E+04  0.00000000000E+00 0. -1.
<mgrwt>
<rscale>  0 0.29442313E+04</rscale>
<asrwt>0</asrwt>
<pdfrwt beam="1">  1        1 0.27723037E+00 0.29442313E+04</pdfrwt>
<pdfrwt beam="2">  1       -1 0.18501901E+00 0.29442313E+04</pdfrwt>
<totfact> 0.66547772E-01</totfact>
</mgrwt>
</event>
<event>
 6    1  0.1719556E-004  0.3811959E+04  0.7818608E-02  0.8043593E-01
          2   -1    0    0  501    0  0.00000000000E+00  0.00000000000E+00  0.34270298507E+04  0.34270298507E+04  0.00000000000E+00 0.  1.
         -2   -1    0    0    0  501 -0.00000000000E+00 -0.00000000000E+00 -0.10600310230E+04  0.10600310230E+04  0.00000000000E+00 0. -1.
         23    2    1    2    0    0 -0.22849546983E+03 -0.97511483543E+03  0.30916611161E+04  0.32508592097E+04  0.81596705796E+02 0.  0.
         11    1    3    3    0    0 -0.79861956255E+02 -0.37216691693E+03  0.13033013117E+04  0.13577483033E+04  0.00000000000E+00 0. -1.
        -11    1    3    3    0    0 -0.14863351357E+03 -0.60294791850E+03  0.17883598044E+04  0.18931109064E+04  0.00000000000E+00 0.  1.
         22    1    1    2    0    0  0.22849546983E+03  0.97511483543E+03 -0.72466228835E+03  0.12362016640E+04  0.00000000000E+00 0. -1.
<mgrwt>
<rscale>  0 0.38119591E+04</rscale>
<asrwt>0</asrwt>
<pdfrwt beam="1">  1        2 0.52723536E+00 0.38119591E+04</pdfrwt>
<pdfrwt beam="2">  1       -2 0.16308170E+00 0.38119591E+04</pdfrwt>
<totfact> 0.17468362E-01</totfact>
</mgrwt>
</event>
<event>
 6    1  0.1719556E-004  0.5439557E+03  0.7818608E-02  0.1002903E+00
          2   -1    0    0  501    0  0.00000000000E+00  0.00000000000E+00  0.38915160140E+03  0.38915160140E+03  0.00000000000E+00 0.  1.
         -2   -1    0    0    0  501 -0.00000000000E+00 -0.00000000000E+00 -0.19008520730E+03  0.19008520730E+03  0.00000000000E+00 0. -1.
         23    2    1    2    0    0  0.26600440385E+02 -0.20836699067E+03  0.27311524042E+03  0.35650913222E+03  0.91555669306E+02 0.  0.
         13    1    3    3    0    0 -0.27047789689E+02 -0.59611428344E+02  0.47006777765E+02  0.80589965083E+02  0.00000000000E+00 0. -1.
        -13    1    3    3    0    0  0.53648230074E+02 -0.14875556232E+03  0.22610846265E+03  0.27591916714E+03  0.00000000000E+00 0.  1.
         22    1    1    2    0    0 -0.26600440385E+02  0.20836699067E+03 -0.74048846321E+02  0.22272767648E+03  0.00000000000E+00 0.  1.
<mgrwt>
<rscale>  0 0.54395574E+03</rscale>
<asrwt>0</asrwt>
<pdfrwt beam="1">  1        2 0.59869477E-01 0.54395574E+03</pdfrwt>
<pdfrwt beam="2">  1       -2 0.29243878E-01 0.54395574E+03</pdfrwt>
<totfact> 0.88490293E+02</totfact>
</mgrwt>
</event>
<event>
 6    1  0.1719556E-004  0.1245144E+04  0.7818608E-02  0.9074235E-01
          2   -1    0    0  501    0  0.00000000000E+00  0.00000000000E+00  0.50593745115E+03  0.50593745115E+03  0.00000000000E+00 0. -1.
         -2   -1    0    0    0  501 -0.00000000000E+00 -0.00000000000E+00 -0.76609408910E+03  0.76609408910E+03  0.00000000000E+00 0.  1.
         23    2    1    2    0    0  0.35668301752E+03 -0.25984578962E+03 -0.57502476083E+03  0.72992034854E+03  0.85951325047E+02 0.  0.
         11    1    3    3    0    0  0.45466114748E+02 -0.51087650534E+02 -0.13949691087E+03  0.15535927320E+03  0.00000000000E+00 0.  1.
        -11    1    3    3    0    0  0.31121690277E+03 -0.20875813909E+03 -0.43552784996E+03  0.57456107534E+03  0.00000000000E+00 0. -1.
         22    1    1    2    0    0 -0.35668301752E+03  0.25984578962E+03  0.31486812288E+03  0.54211119171E+03  0.00000000000E+00 0. -1.
<mgrwt>
<rscale>  0 0.12451437E+04</rscale>
<asrwt>0</asrwt>
<pdfrwt beam="1">  1        2 0.77836532E-01 0.12451437E+04</pdfrwt>
<pdfrwt beam="2">  1       -2 0.11786063E+00 0.12451437E+04</pdfrwt>
<totfact> 0.33168141E+01</totfact>
</mgrwt>
</event>
<event>
 6    1  0.1719556E-004  0.1294141E+04  0.7818608E-02  0.9034225E-01
          1   -1    0    0  501    0  0.00000000000E+00  0.00000000000E+00  0.22622432224E+03  0.22622432224E+03  0.00000000000E+00 0.  1.
         -1   -1    0    0    0  501 -0.00000000000E+00 -0.00000000000E+00 -0.18508180620E+04  0.18508180620E+04  0.00000000000E+00 0. -1.
         23    2    1    2    0    0  0.26609629601E+03  0.57835375394E+03 -0.97203504159E+03  0.11653773372E+04  0.89173496679E+02 0.  0.
         13    1    3    3    0    0  0.21640311897E+03  0.49939713853E+03 -0.77102717801E+03  0.94377471947E+03  0.00000000000E+00 0. -1.
        -13    1    3    3    0    0  0.49693177043E+02  0.78956615407E+02 -0.20100786357E+03  0.22160261772E+03  0.00000000000E+00 0.  1.
         22    1    1    2    0    0 -0.26609629601E+03 -0.57835375394E+03 -0.65255869814E+03  0.91166504702E+03  0.00000000000E+00 0. -1.
<mgrwt>
<rscale>  0 0.12941407E+04</rscale>
<asrwt>0</asrwt>
<pdfrwt beam="1">  1        1 0.34803743E-01 0.12941407E+04</pdfrwt>
<pdfrwt beam="2">  1       -1 0.28474123E+00 0.12941407E+04</pdfrwt>
<totfact> 0.51829977E+00</totfact>
</mgrwt>
</event>
<event>
 6    1  0.1719556E-004  0.4459895E+04  0.7818608E-02  0.7917696E-01
          2   -1    0    0  501    0  0.00000000000E+00  0.00000000000E+00  0.21613461803E+04  0.21613461803E+04  0.00000000000E+00 0. -1.
         -2   -1    0    0    0  501 -0.00000000000E+00 -0.00000000000E+00 -0.23007263937E+04  0.23007263937E+04  0.00000000000E+00 0.  1.
         23    2    1    2    0    0  0.24323316384E+02  0.19849527373E+04  0.94465517405E+03  0.22002676058E+04  0.90416516241E+02 0.  0.
         13    1    3    3    0    0  0.47666353158E+02  0.15408694075E+04  0.70600259704E+03  0.16955796292E+04  0.00000000000E+00 0.  1.
        -13    1    3    3    0    0 -0.23343036774E+02  0.44408332980E+03  0.23865257701E+03  0.50468797656E+03  0.00000000000E+00 0. -1.
         22    1    1    2    0    0 -0.24323316384E+02 -0.19849527373E+04 -0.10840353874E+04  0.22618049682E+04  0.00000000000E+00 0.  1.
<mgrwt>
<rscale>  0 0.44598952E+04</rscale>
<asrwt>0</asrwt>
<pdfrwt beam="1">  1        2 0.33251480E+00 0.44598952E+04</pdfrwt>
<pdfrwt beam="2">  1       -2 0.35395791E+00 0.44598952E+04</pdfrwt>
<totfact> 0.60610753E-02</totfact>
</mgrwt>
</event>
<event>
 6    1  0.1719556E-004  0.2509449E+04  0.7818608E-02  0.8399627E-01
         -3   -1    0    0    0  501 -0.00000000000E+00  0.00000000000E+00  0.12209384749E+04  0.12209384749E+04  0.00000000000E+00 0.  1.
          3   -1    0    0  501    0  0.00000000000E+00 -0.00000000000E+00 -0.12894459549E+04  0.12894459549E+04  0.00000000000E+00 0. -1.
         23    2    1    2    0    0  0.81724067196E+03 -0.76618421069E+03  0.52740881926E+03  0.12415121760E+04  0.90949766266E+02 0.  0.
         11    1    3    3    0    0  0.60039421648E+03 -0.52564647306E+03  0.34050216041E+03  0.86759388602E+03  0.00000000000E+00 0. -1.
        -11    1    3    3    0    0  0.21684645548E+03 -0.24053773763E+03  0.18690665885E+03  0.37391829001E+03  0.00000000000E+00 0.  1.
         22    1    1    2    0    0 -0.81724067196E+03  0.76618421069E+03 -0.59591629933E+03  0.12688722538E+04  0.00000000000E+00 0.  1.
<mgrwt>
<rscale>  0 0.25094495E+04</rscale>
<asrwt>0</asrwt>
<pdfrwt beam="1">  1        3 0.19837630E+00 0.25094495E+04</pdfrwt>
<pdfrwt beam="2">  1       -3 0.18783669E+00 0.25094495E+04</pdfrwt>
<totfact> 0.61378489E-02</totfact>
</mgrwt>
</event>
<event>
 6    1  0.1719556E-004  0.1652547E+04  0.7818608E-02  0.8788901E-01
          1   -1    0    0  501    0  0.00000000000E+00  0.00000000000E+00  0.80381322739E+03  0.80381322739E+03  0.00000000000E+00 0.  1.
         -1   -1    0    0    0  501 -0.00000000000E+00 -0.00000000000E+00 -0.84936135927E+03  0.84936135927E+03  0.00000000000E+00 0. -1.
         23    2    1    2    0    0  0.26655414412E+03 -0.78207036168E+02  0.75251686955E+03  0.80814488377E+03  0.98229638891E+02 0.  0.
         13    1    3    3    0    0  0.34376876882E+02 -0.48329655509E+02  0.18389162540E+03  0.19321918941E+03  0.00000000000E+00 0.  1.
        -13    1    3    3    0    0  0.23217726723E+03 -0.29877380659E+02  0.56862524415E+03  0.61492569436E+03  0.00000000000E+00 0. -1.
         22    1    1    2    0    0 -0.26655414412E+03  0.78207036168E+02 -0.79806500143E+03  0.84502970289E+03  0.00000000000E+00 0. -1.
<mgrwt>
<rscale>  0 0.16525470E+04</rscale>
<asrwt>0</asrwt>
<pdfrwt beam="1">  1        1 0.12366357E+00 0.16525470E+04</pdfrwt>
<pdfrwt beam="2">  1       -1 0.13067098E+00 0.16525470E+04</pdfrwt>
<totfact> 0.10495101E+01</totfact>
</mgrwt>
</event>
<event>
 6    1  0.1719556E-004  0.1687170E+04  0.7818608E-02  0.8768716E-01
         -2   -1    0    0    0  501 -0.00000000000E+00  0.00000000000E+00  0.28868475614E+03  0.28868475614E+03  0.00000000000E+00 0. -1.
          2   -1    0    0  501    0  0.00000000000E+00 -0.00000000000E+00 -0.24650947252E+04  0.24650947252E+04  0.00000000000E+00 0.  1.
         23    2    1    2    0    0 -0.54705644709E+03  0.27804635013E+03 -0.15243874125E+03  0.63882320280E+03  0.90977939503E+02 0.  0.
         11    1    3    3    0    0 -0.72316091793E+02  0.74505194329E+02 -0.26467485271E+02  0.10715021648E+03  0.00000000000E+00 0.  1.
        -11    1    3    3    0    0 -0.47474035530E+03  0.20354115580E+03 -0.12597125598E+03  0.53167298632E+03  0.00000000000E+00 0. -1.
         22    1    1    2    0    0  0.54705644709E+03 -0.27804635013E+03 -0.20239712278E+04  0.21149562785E+04  0.00000000000E+00 0.  1.
<mgrwt>
<rscale>  0 0.16871695E+04</rscale>
<asrwt>0</asrwt>
<pdfrwt beam="1">  1        2 0.37924535E+00 0.16871695E+04</pdfrwt>
<pdfrwt beam="2">  1       -2 0.44413039E-01 0.16871695E+04</pdfrwt>
<totfact> 0.16726493E+01</totfact>
</mgrwt>
</event>
<event>
 6    1  0.1719556E-004  0.3811252E+04  0.7818608E-02  0.8043745E-01
          2   -1    0    0  501    0  0.00000000000E+00  0.00000000000E+00  0.18850472575E+04  0.18850472575E+04  0.00000000000E+00 0.  1.
         -2   -1    0    0    0  501 -0.00000000000E+00 -0.00000000000E+00 -0.19264291049E+04  0.19264291049E+04  0.00000000000E+00 0. -1.
         23    2    1    2    0    0  0.76540325122E+03  0.13902353412E+04  0.10323440290E+04  0.18953647532E+04  0.89871643873E+02 0.  0.
         11    1    3    3    0    0  0.54401532454E+03  0.90198025509E+03  0.69471038803E+03  0.12618017186E+04  0.00000000000E+00 0. -1.
        -11    1    3    3    0    0  0.22138792669E+03  0.48825508615E+03  0.33763364100E+03  0.63356303457E+03  0.00000000000E+00 0.  1.
         22    1    1    2    0    0 -0.76540325122E+03 -0.13902353412E+04 -0.10737258765E+04  0.19161116092E+04  0.00000000000E+00 0. -1.
<mgrwt>
<rscale>  0 0.38112517E+04</rscale>
<asrwt>0</asrwt>
<pdfrwt beam="1">  1        2 0.29000727E+00 0.38112517E+04</pdfrwt>
<pdfrwt beam="2">  1       -2 0.29637371E+00 0.38112517E+04</pdfrwt>
<totfact> 0.20740025E-01</totfact>
</mgrwt>
</event>
<event>
 6    1  0.1719556E-004  0.6724095E+03  0.7818608E-02  0.9765615E-01
          1   -1    0    0  501    0  0.00000000000E+00  0.00000000000E+00  0.78100173771E+02  0.78100173771E+02  0.00000000000E+00 0.  1.
         -1   -1    0    0    0  501 -0.00000000000E+00 -0.00000000000E+00 -0.14472904907E+04  0.14472904907E+04  0.00000000000E+00 0. -1.
         23    2    1    2    0    0  0.27395046854E+03 -0.18093813271E+03 -0.76634308103E+03  0.83894164458E+03  0.93562268477E+02 0.  0.
         11    1    3    3    0    0  0.44666035806E+02 -0.49084787118E+02 -0.25180463296E+03  0.26040342598E+03  0.00000000000E+00 0. -1.
        -11    1    3    3    0    0  0.22928443274E+03 -0.13185334560E+03 -0.51453844807E+03  0.57853821860E+03  0.00000000000E+00 0.  1.
         22    1    1    2    0    0 -0.27395046854E+03  0.18093813271E+03 -0.60284723591E+03  0.68644901991E+03  0.00000000000E+00 0. -1.
<mgrwt>
<rscale>  0 0.67240951E+03</rscale>
<asrwt>0</asrwt>
<pdfrwt beam="1">  1        1 0.12015412E-01 0.67240951E+03</pdfrwt>
<pdfrwt beam="2">  1       -1 0.22266006E+00 0.67240951E+03</pdfrwt>
<totfact> 0.56849073E+01</totfact>
</mgrwt>
</event>
<event>
 6    1  0.1719556E-004  0.1585508E+04  0.7818608E-02  0.8829501E-01
          4   -1    0    0  501    0  0.00000000000E+00  0.00000000000E+00  0.79889972438E+03  0.79889972438E+03  0.00000000000E+00 0.  1.
         -4   -1    0    0    0  501 -0.00000000000E+00 -0.00000000000E+00 -0.78665542703E+03  0.78665542703E+03  0.00000000000E+00 0. -1.
         23    2    1    2    0    0  0.11193851219E+03  0.56743579654E+03 -0.53223889785E+03  0.79121544853E+03  0.90719501230E+02 0.  0.
         11    1    3    3    0    0  0.77221184490E+02  0.46372421853E+03 -0.47279318647E+03  0.66673582427E+03  0.00000000000E+00 0.  1.
        -11    1    3    3    0    0  0.34717327698E+02  0.10371157801E+03 -0.59445711379E+02  0.12447962427E+03  0.00000000000E+00 0. -1.
         22    1    1    2    0    0 -0.11193851219E+03 -0.56743579654E+03  0.54448319521E+03  0.79433970288E+03  0.00000000000E+00 0.  1.
<mgrwt>
<rscale>  0 0.15855079E+04</rscale>
<asrwt>0</asrwt>
<pdfrwt beam="1">  1        4 0.12290765E+00 0.15855079E+04</pdfrwt>
<pdfrwt beam="2">  1       -4 0.12102391E+00 0.15855079E+04</pdfrwt>
<totfact> 0.49617723E-01</totfact>
</mgrwt>
</event>
<event>
 6    1  0.1719556E-004  0.3431643E+04  0.7818608E-02  0.8130183E-01
          1   -1    0    0  501    0  0.00000000000E+00  0.00000000000E+00  0.45068981329E+04  0.45068981329E+04  0.00000000000E+00 0.  1.
         -1   -1    0    0    0  501 -0.00000000000E+00 -0.00000000000E+00 -0.65323049599E+03  0.65323049599E+03  0.00000000000E+00 0. -1.
         23    2    1    2    0    0 -0.12871927340E+04 -0.35727545781E+02  0.36310847431E+04  0.38533445088E+04  0.73115660838E+02 0.  0.
         11    1    3    3    0    0 -0.76774794038E+03 -0.49333469451E+00  0.22503444332E+04  0.23777062921E+04  0.00000000000E+00 0. -1.
        -11    1    3    3    0    0 -0.51944479358E+03 -0.35234211086E+02  0.13807403099E+04  0.14756382167E+04  0.00000000000E+00 0.  1.
         22    1    1    2    0    0  0.12871927340E+04  0.35727545781E+02  0.22258289378E+03  0.13067841201E+04  0.00000000000E+00 0. -1.
<mgrwt>
<rscale>  0 0.34316429E+04</rscale>
<asrwt>0</asrwt>
<pdfrwt beam="1">  1        1 0.69336892E+00 0.34316429E+04</pdfrwt>
<pdfrwt beam="2">  1       -1 0.10049700E+00 0.34316429E+04</pdfrwt>
<totfact> 0.24417883E-02</totfact>
</mgrwt>
</event>
<event>
 6    1  0.1719556E-004  0.1452807E+04  0.7818608E-02  0.8916457E-01
          2   -1    0    0  501    0  0.00000000000E+00  0.00000000000E+00  0.65841419040E+03  0.65841419040E+03  0.00000000000E+00 0.  1.
         -2   -1    0    0    0  501 -0.00000000000E+00 -0.00000000000E+00 -0.80141344757E+03  0.80141344757E+03  0.00000000000E+00 0. -1.
         23    2    1    2    0    0 -0.37227296129E+03  0.19436401030E+03  0.52028613525E+03  0.67477220171E+03  0.90858876610E+02 0.  0.
         13    1    3    3    0    0 -0.20195158399E+03  0.10301406892E+03  0.20888236770E+03  0.30826641757E+03  0.00000000000E+00 0.  1.
        -13    1    3    3    0    0 -0.17032137730E+03  0.91349941382E+02  0.31140376756E+03  0.36650578413E+03  0.00000000000E+00 0. -1.
         22    1    1    2    0    0  0.37227296129E+03 -0.19436401030E+03 -0.66328539243E+03  0.78505543627E+03  0.00000000000E+00 0. -1.
<mgrwt>
<rscale>  0 0.14528069E+04</rscale>
<asrwt>0</asrwt>
<pdfrwt beam="1">  1        2 0.10129449E+00 0.14528069E+04</pdfrwt>
<pdfrwt beam="2">  1       -2 0.12329438E+00 0.14528069E+04</pdfrwt>
<totfact> 0.21288054E+01</totfact>
</mgrwt>
</event>
<event>
 6    1  0.1719556E-004  0.2224899E+04  0.7818608E-02  0.8508135E-01
         -2   -1    0    0    0  501 -0.00000000000E+00  0.00000000000E+00  0.90362482869E+03  0.90362482869E+03  0.00000000000E+00 0. -1.
          2   -1    0    0  501    0  0.00000000000E+00 -0.00000000000E+00 -0.13695333070E+04  0.13695333070E+04  0.00000000000E+00 0.  1.
         23    2    1    2    0    0  0.24916384383E+03  0.10788499908E+04 -0.14819703762E+03  0.11212291087E+04  0.95877152330E+02 0.  0.
         13    1    3    3    0    0  0.82401050349E+02  0.20492460601E+03 -0.12270490980E+02  0.22121164570E+03  0.00000000000E+00 0. -1.
        -13    1    3    3    0    0  0.16676279348E+03  0.87392538483E+03 -0.13592654664E+03  0.90001746295E+03  0.00000000000E+00 0.  1.
         22    1    1    2    0    0 -0.24916384383E+03 -0.10788499908E+04 -0.31771144067E+03  0.11519290270E+04  0.00000000000E+00 0.  1.
<mgrwt>
<rscale>  0 0.22248994E+04</rscale>
<asrwt>0</asrwt>
<pdfrwt beam="1">  1        2 0.21069743E+00 0.22248994E+04</pdfrwt>
<pdfrwt beam="2">  1       -2 0.13901921E+00 0.22248994E+04</pdfrwt>
<totfact> 0.50276734E+00</totfact>
</mgrwt>
</event>
<event>
 6    1  0.1719556E-004  0.1974260E+04  0.7818608E-02  0.8618750E-01
         -2   -1    0    0    0  501 -0.00000000000E+00  0.00000000000E+00  0.85273319667E+03  0.85273319667E+03  0.00000000000E+00 0. -1.
          2   -1    0    0  501    0  0.00000000000E+00 -0.00000000000E+00 -0.11427088164E+04  0.11427088164E+04  0.00000000000E+00 0.  1.
         23    2    1    2    0    0  0.79160867992E+03 -0.37256895483E+03 -0.60284756281E+03  0.10662806811E+04  0.89874237804E+02 0.  0.
         13    1    3    3    0    0  0.61941291161E+03 -0.26929138353E+03 -0.50228900703E+03  0.84171518395E+03  0.00000000000E+00 0. -1.
        -13    1    3    3    0    0  0.17219576831E+03 -0.10327757130E+03 -0.10055855578E+03  0.22456549712E+03  0.00000000000E+00 0.  1.
         22    1    1    2    0    0 -0.79160867992E+03  0.37256895483E+03  0.31287194303E+03  0.92916133204E+03  0.00000000000E+00 0.  1.
<mgrwt>
<rscale>  0 0.19742601E+04</rscale>
<asrwt>0</asrwt>
<pdfrwt beam="1">  1        2 0.17580136E+00 0.19742601E+04</pdfrwt>
<pdfrwt beam="2">  1       -2 0.13118972E+00 0.19742601E+04</pdfrwt>
<totfact> 0.81045266E+00</totfact>
</mgrwt>
</event>
<event>
 6    1  0.1719556E-004  0.1815759E+04  0.7818608E-02  0.8697964E-01
          2   -1    0    0  501    0  0.00000000000E+00  0.00000000000E+00  0.89027998003E+03  0.89027998003E+03  0.00000000000E+00 0.  1.
         -2   -1    0    0    0  501 -0.00000000000E+00 -0.00000000000E+00 -0.92582678496E+03  0.92582678496E+03  0.00000000000E+00 0. -1.
         23    2    1    2    0    0 -0.70163805381E+03 -0.20392108470E+03 -0.55292492026E+03  0.92080799834E+03  0.91003489032E+02 0.  0.
         11    1    3    3    0    0 -0.37157537134E+03 -0.63883108033E+02 -0.30413226137E+03  0.48440245714E+03  0.00000000000E+00 0.  1.
        -11    1    3    3    0    0 -0.33006268247E+03 -0.14003797667E+03 -0.24879265889E+03  0.43640554120E+03  0.00000000000E+00 0. -1.
         22    1    1    2    0    0  0.70163805381E+03  0.20392108470E+03  0.51737811533E+03  0.89529876665E+03  0.00000000000E+00 0.  1.
<mgrwt>
<rscale>  0 0.18157589E+04</rscale>
<asrwt>0</asrwt>
<pdfrwt beam="1">  1        2 0.13696615E+00 0.18157589E+04</pdfrwt>
<pdfrwt beam="2">  1       -2 0.14243489E+00 0.18157589E+04</pdfrwt>
<totfact> 0.96366791E+00</totfact>
</mgrwt>
</event>
<event>
 6    1  0.1719556E-004  0.1650985E+04  0.7818608E-02  0.8789824E-01
          2   -1    0    0  501    0  0.00000000000E+00  0.00000000000E+00  0.93608562640E+03  0.93608562640E+03  0.00000000000E+00 0.  1.
         -2   -1    0    0    0  501 -0.00000000000E+00 -0.00000000000E+00 -0.72796561601E+03  0.72796561601E+03  0.00000000000E+00 0. -1.
         23    2    1    2    0    0 -0.45833061947E+03 -0.51553532468E+03  0.55701529483E+03  0.89102372205E+03  0.88394608690E+02 0.  0.
         11    1    3    3    0    0 -0.62209058229E+02 -0.69308016859E+02  0.11753923696E+03  0.14996346339E+03  0.00000000000E+00 0.  1.
        -11    1    3    3    0    0 -0.39612156124E+03 -0.44622730782E+03  0.43947605787E+03  0.74106025866E+03  0.00000000000E+00 0. -1.
         22    1    1    2    0    0  0.45833061947E+03  0.51553532468E+03 -0.34889528443E+03  0.77302752037E+03  0.00000000000E+00 0.  1.
<mgrwt>
<rscale>  0 0.16509853E+04</rscale>
<asrwt>0</asrwt>
<pdfrwt beam="1">  1        2 0.14401317E+00 0.16509853E+04</pdfrwt>
<pdfrwt beam="2">  1       -2 0.11199471E+00 0.16509853E+04</pdfrwt>
<totfact> 0.16662372E+01</totfact>
</mgrwt>
</event>
<event>
 6    1  0.1719556E-004  0.9589298E+03  0.7818608E-02  0.9354773E-01
          2   -1    0    0  501    0  0.00000000000E+00  0.00000000000E+00  0.44032636189E+03  0.44032636189E+03  0.00000000000E+00 0.  1.
         -2   -1    0    0    0  501 -0.00000000000E+00 -0.00000000000E+00 -0.52208227297E+03  0.52208227297E+03  0.00000000000E+00 0. -1.
         23    2    1    2    0    0  0.52734804687E+02 -0.44168963619E+03  0.12610204122E+03  0.47141411079E+03  0.91971977865E+02 0.  0.
         13    1    3    3    0    0  0.52145228802E+02 -0.10378963367E+03  0.38106796042E+02  0.12224377632E+03  0.00000000000E+00 0.  1.
        -13    1    3    3    0    0  0.58957588538E+00 -0.33790000252E+03  0.87995245174E+02  0.34917033447E+03  0.00000000000E+00 0. -1.
         22    1    1    2    0    0 -0.52734804687E+02  0.44168963619E+03 -0.20785795229E+03  0.49099452407E+03  0.00000000000E+00 0. -1.
<mgrwt>
<rscale>  0 0.95892979E+03</rscale>
<asrwt>0</asrwt>
<pdfrwt beam="1">  1        2 0.67742518E-01 0.95892979E+03</pdfrwt>
<pdfrwt beam="2">  1       -2 0.80320349E-01 0.95892979E+03</pdfrwt>
<totfact> 0.97791824E+01</totfact>
</mgrwt>
</event>
<event>
 6    1  0.1719556E-004  0.1018548E+04  0.7818608E-02  0.9288432E-01
          1   -1    0    0  501    0  0.00000000000E+00  0.00000000000E+00  0.15095314835E+04  0.15095314835E+04  0.00000000000E+00 0.  1.
         -1   -1    0    0    0  501 -0.00000000000E+00 -0.00000000000E+00 -0.17181488675E+03  0.17181488675E+03  0.00000000000E+00 0. -1.
         23    2    1    2    0    0  0.97806282013E+02 -0.42934541020E+03  0.10830539995E+04  0.11726651454E+04  0.90741541336E+02 0.  0.
         13    1    3    3    0    0  0.87181447835E+02 -0.28269114468E+03  0.62268815910E+03  0.68938772226E+03  0.00000000000E+00 0. -1.
        -13    1    3    3    0    0  0.10624834178E+02 -0.14665426552E+03  0.46036584040E+03  0.48327742312E+03  0.00000000000E+00 0.  1.
         22    1    1    2    0    0 -0.97806282013E+02  0.42934541020E+03  0.25466259722E+03  0.50868122482E+03  0.00000000000E+00 0. -1.
<mgrwt>
<rscale>  0 0.10185479E+04</rscale>
<asrwt>0</asrwt>
<pdfrwt beam="1">  1        1 0.23223560E+00 0.10185479E+04</pdfrwt>
<pdfrwt beam="2">  1       -1 0.26433061E-01 0.10185479E+04</pdfrwt>
<totfact> 0.82101326E+01</totfact>
</mgrwt>
</event>
<event>
 6    1  0.1719556E-004  0.1815306E+04  0.7818608E-02  0.8698202E-01
          2   -1    0    0  501    0  0.00000000000E+00  0.00000000000E+00  0.23585375515E+04  0.23585375515E+04  0.00000000000E+00 0. -1.
         -2   -1    0    0    0  501 -0.00000000000E+00 -0.00000000000E+00 -0.34929849572E+03  0.34929849572E+03  0.00000000000E+00 0.  1.
         23    2    1    2    0    0  0.50585587262E+03  0.39635661169E+03  0.19589426703E+04  0.20632288382E+04  0.80424658436E+02 0.  0.
         13    1    3    3    0    0  0.24468605062E+03  0.24029115787E+03  0.10768998554E+04  0.11301877731E+04  0.00000000000E+00 0. -1.
        -13    1    3    3    0    0  0.26116982200E+03  0.15606545383E+03  0.88204281492E+03  0.93304106510E+03  0.00000000000E+00 0.  1.
         22    1    1    2    0    0 -0.50585587262E+03 -0.39635661169E+03  0.50296385425E+02  0.64460720899E+03  0.00000000000E+00 0.  1.
<mgrwt>
<rscale>  0 0.18153056E+04</rscale>
<asrwt>0</asrwt>
<pdfrwt beam="1">  1        2 0.36285192E+00 0.18153056E+04</pdfrwt>
<pdfrwt beam="2">  1       -2 0.53738232E-01 0.18153056E+04</pdfrwt>
<totfact> 0.12924752E+01</totfact>
</mgrwt>
</event>
<event>
 6    1  0.1719556E-004  0.3049724E+04  0.7818608E-02  0.8229673E-01
         -2   -1    0    0    0  501 -0.00000000000E+00  0.00000000000E+00  0.11175343022E+04  0.11175343022E+04  0.00000000000E+00 0. -1.
          2   -1    0    0  501    0  0.00000000000E+00 -0.00000000000E+00 -0.20806555380E+04  0.20806555380E+04  0.00000000000E+00 0.  1.
         23    2    1    2    0    0 -0.23197632484E+03  0.67018760384E+03  0.93210980414E+03  0.11746125290E+04  0.89002621878E+02 0.  0.
         11    1    3    3    0    0 -0.13020207450E+03  0.24402466582E+03  0.36580829351E+03  0.45860257886E+03  0.00000000000E+00 0.  1.
        -11    1    3    3    0    0 -0.10177425034E+03  0.42616293802E+03  0.56630151063E+03  0.71600995015E+03  0.00000000000E+00 0. -1.
         22    1    1    2    0    0  0.23197632484E+03 -0.67018760384E+03 -0.18952310400E+04  0.20235773112E+04  0.00000000000E+00 0.  1.
<mgrwt>
<rscale>  0 0.30497239E+04</rscale>
<asrwt>0</asrwt>
<pdfrwt beam="1">  1        2 0.32010085E+00 0.30497239E+04</pdfrwt>
<pdfrwt beam="2">  1       -2 0.17192836E+00 0.30497239E+04</pdfrwt>
<totfact> 0.10606766E+00</totfact>
</mgrwt>
</event>
<event>
 6    1  0.1719556E-004  0.8556251E+03  0.7818608E-02  0.9482818E-01
         -1   -1    0    0    0  501 -0.00000000000E+00  0.00000000000E+00  0.12344901203E+03  0.12344901203E+03  0.00000000000E+00 0.  1.
          1   -1    0    0  501    0  0.00000000000E+00 -0.00000000000E+00 -0.14825843464E+04  0.14825843464E+04  0.00000000000E+00 0. -1.
         23    2    1    2    0    0  0.30684057176E+03  0.10030419655E+03 -0.12004694864E+04  0.12463294251E+04  0.89431425619E+02 0.  0.
         13    1    3    3    0    0  0.20620250776E+03  0.71613237928E+02 -0.95232255633E+03  0.97701902814E+03  0.00000000000E+00 0.  1.
        -13    1    3    3    0    0  0.10063806400E+03  0.28690958620E+02 -0.24814693004E+03  0.26931039698E+03  0.00000000000E+00 0. -1.
         22    1    1    2    0    0 -0.30684057176E+03 -0.10030419655E+03 -0.15866584802E+03  0.35970393333E+03  0.00000000000E+00 0.  1.
<mgrwt>
<rscale>  0 0.85562509E+03</rscale>
<asrwt>0</asrwt>
<pdfrwt beam="1">  1        1 0.22808988E+00 0.85562509E+03</pdfrwt>
<pdfrwt beam="2">  1       -1 0.18992157E-01 0.85562509E+03</pdfrwt>
<totfact> 0.15170041E+02</totfact>
</mgrwt>
</event>
<event>
 6    1  0.1719556E-004  0.8844524E+03  0.7818608E-02  0.9445228E-01
          2   -1    0    0  501    0  0.00000000000E+00  0.00000000000E+00  0.15343464284E+04  0.15343464284E+04  0.00000000000E+00 0.  1.
         -2   -1    0    0    0  501 -0.00000000000E+00 -0.00000000000E+00 -0.12745753098E+03  0.12745753098E+03  0.00000000000E+00 0. -1.
         23    2    1    2    0    0 -0.10914852949E+03 -0.34005972333E+03  0.23618441880E+03  0.43783378279E+03  0.91440279687E+02 0.  0.
         11    1    3    3    0    0 -0.52481860746E+02 -0.60885942841E+02  0.77941978803E+02  0.11196604754E+03  0.00000000000E+00 0. -1.
        -11    1    3    3    0    0 -0.56666668743E+02 -0.27917378049E+03  0.15824243999E+03  0.32586773525E+03  0.00000000000E+00 0.  1.
         22    1    1    2    0    0  0.10914852949E+03  0.34005972333E+03  0.11707044786E+04  0.12239701766E+04  0.00000000000E+00 0. -1.
<mgrwt>
<rscale>  0 0.88445239E+03</rscale>
<asrwt>0</asrwt>
<pdfrwt beam="1">  1        2 0.23605328E+00 0.88445239E+03</pdfrwt>
<pdfrwt beam="2">  1       -2 0.19608852E-01 0.88445239E+03</pdfrwt>
<totfact> 0.26965037E+02</totfact>
</mgrwt>
</event>
<event>
 6    1  0.1719556E-004  0.3469647E+04  0.7818608E-02  0.8121021E-01
         -2   -1    0    0    0  501 -0.00000000000E+00  0.00000000000E+00  0.61321743856E+03  0.61321743856E+03  0.00000000000E+00 0. -1.
          2   -1    0    0  501    0  0.00000000000E+00 -0.00000000000E+00 -0.49079032584E+04  0.49079032584E+04  0.00000000000E+00 0.  1.
         23    2    1    2    0    0 -0.16333817995E+04  0.17443613434E+03 -0.30306540604E+04  0.34484074131E+04  0.91025192301E+02 0.  0.
         13    1    3    3    0    0 -0.53613700347E+03  0.90266653726E+02 -0.94517034990E+03  0.10903843110E+04  0.00000000000E+00 0. -1.
        -13    1    3    3    0    0 -0.10972447960E+04  0.84169480612E+02 -0.20854837105E+04  0.23580231022E+04  0.00000000000E+00 0.  1.
         22    1    1    2    0    0  0.16333817995E+04 -0.17443613434E+03 -0.12640317595E+04  0.20727132838E+04  0.00000000000E+00 0. -1.
<mgrwt>
<rscale>  0 0.34696466E+04</rscale>
<asrwt>0</asrwt>
<pdfrwt beam="1">  1        2 0.75506200E+00 0.34696466E+04</pdfrwt>
<pdfrwt beam="2">  1       -2 0.94341149E-01 0.34696466E+04</pdfrwt>
<totfact> 0.34554250E-02</totfact>
</mgrwt>
</event>
<event>
 6    1  0.1719556E-004  0.2341422E+04  0.7818608E-02  0.8461766E-01
         -1   -1    0    0    0  501 -0.00000000000E+00  0.00000000000E+00  0.14640289783E+04  0.14640289783E+04  0.00000000000E+00 0. -1.
          1   -1    0    0  501    0  0.00000000000E+00 -0.00000000000E+00 -0.93615920131E+03  0.93615920131E+03  0.00000000000E+00 0.  1.
         23    2    1    2    0    0  0.78983144865E+03  0.84346964893E+03  0.44524689985E+03  0.12416972190E+04  0.91062703202E+02 0.  0.
         11    1    3    3    0    0  0.52919258936E+03  0.50590575516E+03  0.29952329049E+03  0.79101177696E+03  0.00000000000E+00 0. -1.
        -11    1    3    3    0    0  0.26063885929E+03  0.33756389377E+03  0.14572360936E+03  0.45068544205E+03  0.00000000000E+00 0.  1.
         22    1    1    2    0    0 -0.78983144865E+03 -0.84346964893E+03  0.82622877107E+02  0.11584909606E+04  0.00000000000E+00 0. -1.
<mgrwt>
<rscale>  0 0.23414220E+04</rscale>
<asrwt>0</asrwt>
<pdfrwt beam="1">  1        1 0.14402449E+00 0.23414220E+04</pdfrwt>
<pdfrwt beam="2">  1       -1 0.22523523E+00 0.23414220E+04</pdfrwt>
<totfact> 0.15549279E+00</totfact>
</mgrwt>
</event>
<event>
 6    1  0.1719556E-004  0.1938720E+04  0.7818608E-02  0.8635820E-01
         -1   -1    0    0    0  501 -0.00000000000E+00  0.00000000000E+00  0.67881648375E+03  0.67881648375E+03  0.00000000000E+00 0. -1.
          1   -1    0    0  501    0  0.00000000000E+00 -0.00000000000E+00 -0.13842600061E+04  0.13842600061E+04  0.00000000000E+00 0.  1.
         23    2    1    2    0    0  0.86800946397E+03 -0.38383602764E+03 -0.15981780188E+03  0.96832631173E+03  0.10650629336E+03 0.  0.
         11    1    3    3    0    0  0.29156252786E+03 -0.17445846317E+03 -0.27207677519E+02  0.34085879883E+03  0.00000000000E+00 0. -1.
        -11    1    3    3    0    0  0.57644693611E+03 -0.20937756447E+03 -0.13261012436E+03  0.62746751290E+03  0.00000000000E+00 0.  1.
         22    1    1    2    0    0 -0.86800946397E+03  0.38383602764E+03 -0.54562572046E+03  0.10947501781E+04  0.00000000000E+00 0.  1.
<mgrwt>
<rscale>  0 0.19387197E+04</rscale>
<asrwt>0</asrwt>
<pdfrwt beam="1">  1        1 0.21296308E+00 0.19387197E+04</pdfrwt>
<pdfrwt beam="2">  1       -1 0.10443331E+00 0.19387197E+04</pdfrwt>
<totfact> 0.63367612E+00</totfact>
</mgrwt>
</event>
<event>
 6    1  0.1719556E-004  0.2337504E+04  0.7818608E-02  0.8463279E-01
          1   -1    0    0  501    0  0.00000000000E+00  0.00000000000E+00  0.24412024010E+04  0.24412024010E+04  0.00000000000E+00 0.  1.
         -1   -1    0    0    0  501 -0.00000000000E+00 -0.00000000000E+00 -0.55955262969E+03  0.55955262969E+03  0.00000000000E+00 0. -1.
         23    2    1    2    0    0 -0.21856901653E+03 -0.40518977736E+03 -0.43440038769E+03  0.63939112191E+03  0.90366693512E+02 0.  0.
         13    1    3    3    0    0 -0.44832547575E+02 -0.73014134756E+02 -0.37745671788E+02  0.93625621146E+02  0.00000000000E+00 0. -1.
        -13    1    3    3    0    0 -0.17373646895E+03 -0.33217564261E+03 -0.39665471590E+03  0.54576550077E+03  0.00000000000E+00 0.  1.
         22    1    1    2    0    0  0.21856901653E+03  0.40518977736E+03  0.23160501590E+04  0.23613639088E+04  0.00000000000E+00 0.  1.
<mgrwt>
<rscale>  0 0.23375040E+04</rscale>
<asrwt>0</asrwt>
<pdfrwt beam="1">  1        1 0.37556959E+00 0.23375040E+04</pdfrwt>
<pdfrwt beam="2">  1       -1 0.86085022E-01 0.23375040E+04</pdfrwt>
<totfact> 0.17851246E+00</totfact>
</mgrwt>
</event>
<event>
 6    1  0.1719556E-004  0.3458873E+04  0.7818608E-02  0.8123606E-01
         -2   -1    0    0    0  501 -0.00000000000E+00  0.00000000000E+00  0.96841421871E+03  0.96841421871E+03  0.00000000000E+00 0. -1.
          2   -1    0    0  501    0  0.00000000000E+00 -0.00000000000E+00 -0.30885030075E+04  0.30885030075E+04  0.00000000000E+00 0.  1.
         23    2    1    2    0    0 -0.93506603424E+03  0.29468084487E+03 -0.27301112106E+04  0.29022256466E+04  0.90670794523E+02 0.  0.
         11    1    3    3    0    0 -0.84351849539E+02  0.35915692719E+02 -0.33728066598E+03  0.34951883947E+03  0.00000000000E+00 0. -1.
        -11    1    3    3    0    0 -0.85071418470E+03  0.25876515215E+03 -0.23928305446E+04  0.25527068072E+04  0.00000000000E+00 0.  1.
         22    1    1    2    0    0  0.93506603424E+03 -0.29468084487E+03  0.61002242185E+03  0.11546915795E+04  0.00000000000E+00 0. -1.
<mgrwt>
<rscale>  0 0.34588728E+04</rscale>
<asrwt>0</asrwt>
<pdfrwt beam="1">  1        2 0.47515432E+00 0.34588728E+04</pdfrwt>
<pdfrwt beam="2">  1       -2 0.14898680E+00 0.34588728E+04</pdfrwt>
<totfact> 0.38460550E-01</totfact>
</mgrwt>
</event>
<event>
 6    1  0.1719556E-004  0.4191374E+04  0.7818608E-02  0.7967015E-01
         -2   -1    0    0    0  501 -0.00000000000E+00  0.00000000000E+00  0.17087115242E+04  0.17087115242E+04  0.00000000000E+00 0. -1.
          2   -1    0    0  501    0  0.00000000000E+00 -0.00000000000E+00 -0.25703020605E+04  0.25703020605E+04  0.00000000000E+00 0.  1.
         23    2    1    2    0    0 -0.63795279466E+03 -0.46860039878E+03 -0.24109306611E+04  0.25391788442E+04  0.90952999702E+02 0.  0.
         13    1    3    3    0    0 -0.45875726505E+03 -0.33937795389E+03 -0.16010408560E+04  0.16996962807E+04  0.00000000000E+00 0.  1.
        -13    1    3    3    0    0 -0.17919552961E+03 -0.12922244490E+03 -0.80988980506E+03  0.83948256351E+03  0.00000000000E+00 0. -1.
         22    1    1    2    0    0  0.63795279466E+03  0.46860039878E+03  0.15493401248E+04  0.17398347405E+04  0.00000000000E+00 0. -1.
<mgrwt>
<rscale>  0 0.41913744E+04</rscale>
<asrwt>0</asrwt>
<pdfrwt beam="1">  1        2 0.39543108E+00 0.41913744E+04</pdfrwt>
<pdfrwt beam="2">  1       -2 0.26287870E+00 0.41913744E+04</pdfrwt>
<totfact> 0.13183263E-01</totfact>
</mgrwt>
</event>
<event>
 6    1  0.1719556E-004  0.8896090E+03  0.7818608E-02  0.9438665E-01
          2   -1    0    0  501    0  0.00000000000E+00  0.00000000000E+00  0.39919792694E+03  0.39919792694E+03  0.00000000000E+00 0.  1.
         -2   -1    0    0    0  501 -0.00000000000E+00 -0.00000000000E+00 -0.49562143616E+03  0.49562143616E+03  0.00000000000E+00 0. -1.
         23    2    1    2    0    0  0.10745834191E+03 -0.35068638461E+03 -0.29345619092E+03  0.47846601166E+03  0.91021715664E+02 0.  0.
         13    1    3    3    0    0 -0.14635013690E+02 -0.45956900420E+02 -0.52195281262E+02  0.71067346285E+02  0.00000000000E+00 0. -1.
        -13    1    3    3    0    0  0.12209335560E+03 -0.30472948419E+03 -0.24126090966E+03  0.40739866537E+03  0.00000000000E+00 0.  1.
         22    1    1    2    0    0 -0.10745834191E+03  0.35068638461E+03  0.19703268170E+03  0.41635335144E+03  0.00000000000E+00 0.  1.
<mgrwt>
<rscale>  0 0.88960901E+03</rscale>
<asrwt>0</asrwt>
<pdfrwt beam="1">  1        2 0.61415066E-01 0.88960901E+03</pdfrwt>
<pdfrwt beam="2">  1       -2 0.76249451E-01 0.88960901E+03</pdfrwt>
<totfact> 0.12322008E+02</totfact>
</mgrwt>
</event>
<event>
 6    1  0.1719556E-004  0.3277951E+04  0.7818608E-02  0.8168529E-01
          2   -1    0    0  501    0  0.00000000000E+00  0.00000000000E+00  0.20389279737E+04  0.20389279737E+04  0.00000000000E+00 0.  1.
         -2   -1    0    0    0  501 -0.00000000000E+00 -0.00000000000E+00 -0.13174767545E+04  0.13174767545E+04  0.00000000000E+00 0. -1.
         23    2    1    2    0    0  0.65542226535E+03  0.12762750798E+04  0.11694283816E+04  0.18533611615E+04  0.94490369819E+02 0.  0.
         13    1    3    3    0    0  0.57705157105E+03  0.11802345642E+04  0.10615022253E+04  0.16890024028E+04  0.00000000000E+00 0. -1.
        -13    1    3    3    0    0  0.78370694300E+02  0.96040515654E+02  0.10792615631E+03  0.16435875878E+03  0.00000000000E+00 0.  1.
         22    1    1    2    0    0 -0.65542226535E+03 -0.12762750798E+04 -0.44797716247E+03  0.15030435667E+04  0.00000000000E+00 0. -1.
<mgrwt>
<rscale>  0 0.32779507E+04</rscale>
<asrwt>0</asrwt>
<pdfrwt beam="1">  1        2 0.31368122E+00 0.32779507E+04</pdfrwt>
<pdfrwt beam="2">  1       -2 0.20268873E+00 0.32779507E+04</pdfrwt>
<totfact> 0.67921487E-01</totfact>
</mgrwt>
</event>
<event>
 6    1  0.1719556E-004  0.3496336E+04  0.7818608E-02  0.8114659E-01
          1   -1    0    0  501    0  0.00000000000E+00  0.00000000000E+00  0.20201713716E+04  0.20201713716E+04  0.00000000000E+00 0. -1.
         -1   -1    0    0    0  501 -0.00000000000E+00 -0.00000000000E+00 -0.15127878009E+04  0.15127878009E+04  0.00000000000E+00 0.  1.
         23    2    1    2    0    0 -0.41069004702E+03  0.11396905820E+03  0.19657917846E+04  0.20135481751E+04  0.91562284916E+02 0.  0.
         11    1    3    3    0    0 -0.19079467089E+03  0.87129066741E+02  0.80986787725E+03  0.83658834519E+03  0.00000000000E+00 0.  1.
        -11    1    3    3    0    0 -0.21989537613E+03  0.26839991458E+02  0.11559239073E+04  0.11769598299E+04  0.00000000000E+00 0. -1.
         22    1    1    2    0    0  0.41069004702E+03 -0.11396905820E+03 -0.14584082138E+04  0.15194109974E+04  0.00000000000E+00 0.  1.
<mgrwt>
<rscale>  0 0.34963356E+04</rscale>
<asrwt>0</asrwt>
<pdfrwt beam="1">  1        1 0.31079559E+00 0.34963356E+04</pdfrwt>
<pdfrwt beam="2">  1       -1 0.23273659E+00 0.34963356E+04</pdfrwt>
<totfact> 0.21334900E-01</totfact>
</mgrwt>
</event>
<event>
 6    1  0.1719556E-004  0.1695602E+04  0.7818608E-02  0.8763877E-01
         -2   -1    0    0    0  501 -0.00000000000E+00  0.00000000000E+00  0.36219516228E+03  0.36219516228E+03  0.00000000000E+00 0. -1.
          2   -1    0    0  501    0  0.00000000000E+00 -0.00000000000E+00 -0.19844722321E+04  0.19844722321E+04  0.00000000000E+00 0.  1.
         23    2    1    2    0    0 -0.16741815283E+03 -0.82793450328E+03 -0.86078802789E+03  0.12094031592E+04  0.90529513907E+02 0.  0.
         13    1    3    3    0    0 -0.53663053975E+02 -0.23771140910E+03 -0.19240748433E+03  0.31049489111E+03  0.00000000000E+00 0. -1.
        -13    1    3    3    0    0 -0.11375509886E+03 -0.59022309418E+03 -0.66838054357E+03  0.89890826809E+03  0.00000000000E+00 0.  1.
         22    1    1    2    0    0  0.16741815283E+03  0.82793450328E+03 -0.76148904191E+03  0.11372642352E+04  0.00000000000E+00 0.  1.
<mgrwt>
<rscale>  0 0.16956017E+04</rscale>
<asrwt>0</asrwt>
<pdfrwt beam="1">  1        2 0.30530342E+00 0.16956017E+04</pdfrwt>
<pdfrwt beam="2">  1       -2 0.55722332E-01 0.16956017E+04</pdfrwt>
<totfact> 0.19630029E+01</totfact>
</mgrwt>
</event>
<event>
 6    1  0.1719556E-004  0.2781621E+04  0.7818608E-02  0.8308997E-01
         -1   -1    0    0    0  501 -0.00000000000E+00  0.00000000000E+00  0.72146117311E+03  0.72146117311E+03  0.00000000000E+00 0. -1.
          1   -1    0    0  501    0  0.00000000000E+00 -0.00000000000E+00 -0.26811622657E+04  0.26811622657E+04  0.00000000000E+00 0.  1.
         23    2    1    2    0    0  0.39997371314E+03  0.71570272382E+03 -0.23529577694E+04  0.24933049171E+04  0.89161566589E+02 0.  0.
         13    1    3    3    0    0  0.25475424253E+03  0.41163533240E+03 -0.15008915526E+04  0.15770284790E+04  0.00000000000E+00 0.  1.
        -13    1    3    3    0    0  0.14521947061E+03  0.30406739142E+03 -0.85206621683E+03  0.91627643810E+03  0.00000000000E+00 0. -1.
         22    1    1    2    0    0 -0.39997371314E+03 -0.71570272382E+03  0.39325667681E+03  0.90931852172E+03  0.00000000000E+00 0. -1.
<mgrwt>
<rscale>  0 0.27816215E+04</rscale>
<asrwt>0</asrwt>
<pdfrwt beam="1">  1        1 0.41248649E+00 0.27816215E+04</pdfrwt>
<pdfrwt beam="2">  1       -1 0.11099403E+00 0.27816215E+04</pdfrwt>
<totfact> 0.65513096E-01</totfact>
</mgrwt>
</event>
<event>
 6    1  0.1719556E-004  0.1380587E+04  0.7818608E-02  0.8967992E-01
         -1   -1    0    0    0  501 -0.00000000000E+00  0.00000000000E+00  0.55415102264E+03  0.55415102264E+03  0.00000000000E+00 0. -1.
          1   -1    0    0  501    0  0.00000000000E+00 -0.00000000000E+00 -0.85988279240E+03  0.85988279240E+03  0.00000000000E+00 0.  1.
         23    2    1    2    0    0  0.49864886406E+03 -0.44552202820E+03  0.94639120007E+01  0.67478494961E+03  0.90025526143E+02 0.  0.
         13    1    3    3    0    0  0.46688481881E+03 -0.38109318285E+03  0.32173737497E+01  0.60268051200E+03  0.00000000000E+00 0.  1.
        -13    1    3    3    0    0  0.31764045247E+02 -0.64428845346E+02  0.62465382510E+01  0.72104437611E+02  0.00000000000E+00 0. -1.
         22    1    1    2    0    0 -0.49864886406E+03  0.44552202820E+03 -0.31519568176E+03  0.73924886543E+03  0.00000000000E+00 0.  1.
<mgrwt>
<rscale>  0 0.13805867E+04</rscale>
<asrwt>0</asrwt>
<pdfrwt beam="1">  1        1 0.13228966E+00 0.13805867E+04</pdfrwt>
<pdfrwt beam="2">  1       -1 0.85254004E-01 0.13805867E+04</pdfrwt>
<totfact> 0.26107665E+01</totfact>
</mgrwt>
</event>
<event>
 6    1  0.1719556E-004  0.2785649E+04  0.7818608E-02  0.8307738E-01
          2   -1    0    0  501    0  0.00000000000E+00  0.00000000000E+00  0.37221986212E+04  0.37221986212E+04  0.00000000000E+00 0.  1.
         -2   -1    0    0    0  501 -0.00000000000E+00 -0.00000000000E+00 -0.52118659163E+03  0.52118659163E+03  0.00000000000E+00 0. -1.
         23    2    1    2    0    0  0.57419521812E+03  0.40349719422E+03 -0.22768948876E+03  0.74359889992E+03  0.92664375113E+02 0.  0.
         11    1    3    3    0    0  0.34733381773E+03  0.29089716180E+03 -0.16953529160E+03  0.48373975936E+03  0.00000000000E+00 0.  1.
        -11    1    3    3    0    0  0.22686140039E+03  0.11260003242E+03 -0.58154197154E+02  0.25985914056E+03  0.00000000000E+00 0. -1.
         22    1    1    2    0    0 -0.57419521812E+03 -0.40349719422E+03  0.34287015183E+04  0.34997863129E+04  0.00000000000E+00 0.  1.
<mgrwt>
<rscale>  0 0.27856489E+04</rscale>
<asrwt>0</asrwt>
<pdfrwt beam="1">  1        2 0.57264592E+00 0.27856489E+04</pdfrwt>
<pdfrwt beam="2">  1       -2 0.80182555E-01 0.27856489E+04</pdfrwt>
<totfact> 0.67344439E-01</totfact>
</mgrwt>
</event>
<event>
 6    1  0.1719556E-004  0.1936873E+04  0.7818608E-02  0.8636717E-01
         -1   -1    0    0    0  501 -0.00000000000E+00  0.00000000000E+00  0.10055046467E+04  0.10055046467E+04  0.00000000000E+00 0.  1.
          1   -1    0    0  501    0  0.00000000000E+00 -0.00000000000E+00 -0.93273460346E+03  0.93273460346E+03  0.00000000000E+00 0. -1.
         23    2    1    2    0    0  0.81914290534E+03  0.40304288089E+03 -0.27999993046E+03  0.95952309235E+03  0.94052860040E+02 0.  0.
         13    1    3    3    0    0  0.27271382528E+03  0.92015284990E+02 -0.65339347835E+02  0.29514212431E+03  0.00000000000E+00 0.  1.
        -13    1    3    3    0    0  0.54642908006E+03  0.31102759590E+03 -0.21466058263E+03  0.66438096803E+03  0.00000000000E+00 0. -1.
         22    1    1    2    0    0 -0.81914290534E+03 -0.40304288089E+03  0.35276997370E+03  0.97871615781E+03  0.00000000000E+00 0.  1.
<mgrwt>
<rscale>  0 0.19368727E+04</rscale>
<asrwt>0</asrwt>
<pdfrwt beam="1">  1        1 0.14349763E+00 0.19368727E+04</pdfrwt>
<pdfrwt beam="2">  1       -1 0.15469302E+00 0.19368727E+04</pdfrwt>
<totfact> 0.51216860E+00</totfact>
</mgrwt>
</event>
<event>
 6    1  0.1719556E-004  0.2458944E+04  0.7818608E-02  0.8417760E-01
         -1   -1    0    0    0  501 -0.00000000000E+00  0.00000000000E+00  0.10928603937E+04  0.10928603937E+04  0.00000000000E+00 0. -1.
          1   -1    0    0  501    0  0.00000000000E+00 -0.00000000000E+00 -0.13831606508E+04  0.13831606508E+04  0.00000000000E+00 0.  1.
         23    2    1    2    0    0  0.56673534233E+03  0.32173678748E+03  0.90235023592E+03  0.11169335906E+04  0.92742594879E+02 0.  0.
         11    1    3    3    0    0  0.31873877097E+03  0.13353087000E+03  0.43885212896E+03  0.55858400304E+03  0.00000000000E+00 0.  1.
        -11    1    3    3    0    0  0.24799657136E+03  0.18820591748E+03  0.46349810697E+03  0.55834958757E+03  0.00000000000E+00 0. -1.
         22    1    1    2    0    0 -0.56673534233E+03 -0.32173678748E+03 -0.11926504931E+04  0.13590874539E+04  0.00000000000E+00 0.  1.
<mgrwt>
<rscale>  0 0.24589441E+04</rscale>
<asrwt>0</asrwt>
<pdfrwt beam="1">  1        1 0.21279395E+00 0.24589441E+04</pdfrwt>
<pdfrwt beam="2">  1       -1 0.16813237E+00 0.24589441E+04</pdfrwt>
<totfact> 0.17880901E+00</totfact>
</mgrwt>
</event>
<event>
 6    1  0.1719556E-004  0.8318549E+03  0.7818608E-02  0.9515020E-01
          2   -1    0    0  501    0  0.00000000000E+00  0.00000000000E+00  0.22094707154E+04  0.22094707154E+04  0.00000000000E+00 0.  1.
         -2   -1    0    0    0  501 -0.00000000000E+00 -0.00000000000E+00 -0.78297327149E+02  0.78297327149E+02  0.00000000000E+00 0. -1.
         23    2    1    2    0    0 -0.23359222803E+03  0.30823513200E+03  0.69858931364E+03  0.80389764510E+03  0.93006285137E+02 0.  0.
         11    1    3    3    0    0 -0.18876220985E+03  0.23649564998E+03  0.45856916671E+03  0.54940608386E+03  0.00000000000E+00 0. -1.
        -11    1    3    3    0    0 -0.44830018175E+02  0.71739482019E+02  0.24002014693E+03  0.25449156124E+03  0.00000000000E+00 0.  1.
         22    1    1    2    0    0  0.23359222803E+03 -0.30823513200E+03  0.14325840747E+04  0.14838703975E+04  0.00000000000E+00 0.  1.
<mgrwt>
<rscale>  0 0.83185492E+03</rscale>
<asrwt>0</asrwt>
<pdfrwt beam="1">  1        2 0.33991852E+00 0.83185492E+03</pdfrwt>
<pdfrwt beam="2">  1       -2 0.12045744E-01 0.83185492E+03</pdfrwt>
<totfact> 0.26367993E+02</totfact>
</mgrwt>
</event>
<event>
 6    1  0.1719556E-004  0.2194787E+04  0.7818608E-02  0.8520601E-01
         -2   -1    0    0    0  501 -0.00000000000E+00  0.00000000000E+00  0.42256289135E+03  0.42256289135E+03  0.00000000000E+00 0. -1.
          2   -1    0    0  501    0  0.00000000000E+00 -0.00000000000E+00 -0.28499254231E+04  0.28499254231E+04  0.00000000000E+00 0.  1.
         23    2    1    2    0    0 -0.35939958597E+03  0.12485664220E+03 -0.27475164573E+04  0.27752401073E+04  0.91398723683E+02 0.  0.
         13    1    3    3    0    0 -0.60287742855E+02  0.89333775352E+01 -0.71169179081E+03  0.71429659265E+03  0.00000000000E+00 0.  1.
        -13    1    3    3    0    0 -0.29911184312E+03  0.11592326466E+03 -0.20358246665E+04  0.20609435147E+04  0.00000000000E+00 0. -1.
         22    1    1    2    0    0  0.35939958597E+03 -0.12485664220E+03  0.32015392551E+03  0.49724820716E+03  0.00000000000E+00 0. -1.
<mgrwt>
<rscale>  0 0.21947872E+04</rscale>
<asrwt>0</asrwt>
<pdfrwt beam="1">  1        2 0.43845007E+00 0.21947872E+04</pdfrwt>
<pdfrwt beam="2">  1       -2 0.65009676E-01 0.21947872E+04</pdfrwt>
<totfact> 0.43067535E+00</totfact>
</mgrwt>
</event>
<event>
 6    1  0.1719556E-004  0.5924973E+03  0.7818608E-02  0.9921095E-01
          1   -1    0    0  501    0  0.00000000000E+00  0.00000000000E+00  0.18441514493E+03  0.18441514493E+03  0.00000000000E+00 0.  1.
         -1   -1    0    0    0  501 -0.00000000000E+00 -0.00000000000E+00 -0.47590051046E+03  0.47590051046E+03  0.00000000000E+00 0. -1.
         23    2    1    2    0    0  0.14742661153E+03 -0.34015221791E+02 -0.42394799621E+03  0.45922366245E+03  0.90900096605E+02 0.  0.
         11    1    3    3    0    0  0.97242400804E+02 -0.35894609391E+02 -0.16071327782E+03  0.19124137932E+03  0.00000000000E+00 0. -1.
        -11    1    3    3    0    0  0.50184210723E+02  0.18793875999E+01 -0.26323471839E+03  0.26798228313E+03  0.00000000000E+00 0.  1.
         22    1    1    2    0    0 -0.14742661153E+03  0.34015221791E+02  0.13246263068E+03  0.20109199295E+03  0.00000000000E+00 0.  1.
<mgrwt>
<rscale>  0 0.59249730E+03</rscale>
<asrwt>0</asrwt>
<pdfrwt beam="1">  1        1 0.28371561E-01 0.59249730E+03</pdfrwt>
<pdfrwt beam="2">  1       -1 0.73215462E-01 0.59249730E+03</pdfrwt>
<totfact> 0.31563551E+02</totfact>
</mgrwt>
</event>
<event>
 6    1  0.1719556E-004  0.1444308E+04  0.7818608E-02  0.8922357E-01
         -1   -1    0    0    0  501 -0.00000000000E+00  0.00000000000E+00  0.41071589658E+03  0.41071589658E+03  0.00000000000E+00 0.  1.
          1   -1    0    0  501    0  0.00000000000E+00 -0.00000000000E+00 -0.12697488611E+04  0.12697488611E+04  0.00000000000E+00 0. -1.
         23    2    1    2    0    0  0.67192789706E+03  0.18651925588E+03 -0.63424895515E+03  0.94779540355E+03  0.98832475453E+02 0.  0.
         13    1    3    3    0    0  0.49036357446E+03  0.95463351253E+02 -0.47941316858E+03  0.69239199359E+03  0.00000000000E+00 0.  1.
        -13    1    3    3    0    0  0.18156432261E+03  0.91055904627E+02 -0.15483578658E+03  0.25540340995E+03  0.00000000000E+00 0. -1.
         22    1    1    2    0    0 -0.67192789706E+03 -0.18651925588E+03 -0.22478400942E+03  0.73266935418E+03  0.00000000000E+00 0.  1.
<mgrwt>
<rscale>  0 0.14443075E+04</rscale>
<asrwt>0</asrwt>
<pdfrwt beam="1">  1        1 0.19534598E+00 0.14443075E+04</pdfrwt>
<pdfrwt beam="2">  1       -1 0.63187062E-01 0.14443075E+04</pdfrwt>
<totfact> 0.23472162E+01</totfact>
</mgrwt>
</event>
<event>
 6    1  0.1719556E-004  0.1102069E+04  0.7818608E-02  0.9203177E-01
         -2   -1    0    0    0  501 -0.00000000000E+00  0.00000000000E+00  0.74693518302E+03  0.74693518302E+03  0.00000000000E+00 0. -1.
          2   -1    0    0  501    0  0.00000000000E+00 -0.00000000000E+00 -0.40651342470E+03  0.40651342470E+03  0.00000000000E+00 0.  1.
         23    2    1    2    0    0 -0.51539375888E+03  0.82090230939E+02 -0.13313007970E+01  0.52961795271E+03  0.90132517799E+02 0.  0.
         13    1    3    3    0    0 -0.13123733223E+03 -0.23987268735E+01  0.31266556819E+02  0.13493179328E+03  0.00000000000E+00 0. -1.
        -13    1    3    3    0    0 -0.38415642665E+03  0.84488957812E+02 -0.32597857616E+02  0.39468615943E+03  0.00000000000E+00 0.  1.
         22    1    1    2    0    0  0.51539375888E+03 -0.82090230939E+02  0.34175305912E+03  0.62383065500E+03  0.00000000000E+00 0. -1.
<mgrwt>
<rscale>  0 0.11020693E+04</rscale>
<asrwt>0</asrwt>
<pdfrwt beam="1">  1        2 0.62540527E-01 0.11020693E+04</pdfrwt>
<pdfrwt beam="2">  1       -2 0.11491310E+00 0.11020693E+04</pdfrwt>
<totfact> 0.45779786E+01</totfact>
</mgrwt>
</event>
<event>
 6    1  0.1719556E-004  0.1755119E+04  0.7818608E-02  0.8730538E-01
          2   -1    0    0  501    0  0.00000000000E+00  0.00000000000E+00  0.21345064189E+04  0.21345064189E+04  0.00000000000E+00 0.  1.
         -2   -1    0    0    0  501 -0.00000000000E+00 -0.00000000000E+00 -0.36079094507E+03  0.36079094507E+03  0.00000000000E+00 0. -1.
         23    2    1    2    0    0  0.85359518272E+03  0.14296209758E+03  0.70330521545E+03  0.11187651201E+04  0.89074522094E+02 0.  0.
         13    1    3    3    0    0  0.51040890627E+03  0.86569992909E+02  0.47611377826E+03  0.70334624838E+03  0.00000000000E+00 0.  1.
        -13    1    3    3    0    0  0.34318627645E+03  0.56392104672E+02  0.22719143719E+03  0.41541887168E+03  0.00000000000E+00 0. -1.
         22    1    1    2    0    0 -0.85359518272E+03 -0.14296209758E+03  0.10704102584E+04  0.13765322439E+04  0.00000000000E+00 0.  1.
<mgrwt>
<rscale>  0 0.17551189E+04</rscale>
<asrwt>0</asrwt>
<pdfrwt beam="1">  1        2 0.32838559E+00 0.17551189E+04</pdfrwt>
<pdfrwt beam="2">  1       -2 0.55506301E-01 0.17551189E+04</pdfrwt>
<totfact> 0.16245770E+01</totfact>
</mgrwt>
</event>
<event>
 6    1  0.1719556E-004  0.3911758E+04  0.7818608E-02  0.8022588E-01
          2   -1    0    0  501    0  0.00000000000E+00  0.00000000000E+00  0.32146968266E+04  0.32146968266E+04  0.00000000000E+00 0.  1.
         -2   -1    0    0    0  501 -0.00000000000E+00 -0.00000000000E+00 -0.11899918232E+04  0.11899918232E+04  0.00000000000E+00 0. -1.
         23    2    1    2    0    0 -0.45876398049E+03  0.12217527708E+04 -0.62594101128E+03  0.14501889429E+04  0.90008874872E+02 0.  0.
         11    1    3    3    0    0 -0.17319996980E+03  0.58471484591E+03 -0.27908574404E+03  0.67065530125E+03  0.00000000000E+00 0.  1.
        -11    1    3    3    0    0 -0.28556401069E+03  0.63703792494E+03 -0.34685526724E+03  0.77953364162E+03  0.00000000000E+00 0. -1.
         22    1    1    2    0    0  0.45876398049E+03 -0.12217527708E+04  0.26506460147E+04  0.29544997069E+04  0.00000000000E+00 0.  1.
<mgrwt>
<rscale>  0 0.39117581E+04</rscale>
<asrwt>0</asrwt>
<pdfrwt beam="1">  1        2 0.49456874E+00 0.39117581E+04</pdfrwt>
<pdfrwt beam="2">  1       -2 0.18307567E+00 0.39117581E+04</pdfrwt>
<totfact> 0.17385266E-01</totfact>
</mgrwt>
</event>
<event>
 6    1  0.1719556E-004  0.2808173E+04  0.7818608E-02  0.8300735E-01
          2   -1    0    0  501    0  0.00000000000E+00  0.00000000000E+00  0.10023544152E+04  0.10023544152E+04  0.00000000000E+00 0.  1.
         -2   -1    0    0    0  501 -0.00000000000E+00 -0.00000000000E+00 -0.19668283589E+04  0.19668283589E+04  0.00000000000E+00 0. -1.
         23    2    1    2    0    0  0.13559966231E+04  0.11537762272E+03 -0.84168543283E+03  0.16027582954E+04  0.91438217971E+02 0.  0.
         11    1    3    3    0    0  0.58603187059E+03  0.56385845105E+02 -0.41703928203E+03  0.72148075486E+03  0.00000000000E+00 0. -1.
        -11    1    3    3    0    0  0.76996475256E+03  0.58991777613E+02 -0.42464615079E+03  0.88127754050E+03  0.00000000000E+00 0.  1.
         22    1    1    2    0    0 -0.13559966231E+04 -0.11537762272E+03 -0.12278851084E+03  0.13664244788E+04  0.00000000000E+00 0.  1.
<mgrwt>
<rscale>  0 0.28081731E+04</rscale>
<asrwt>0</asrwt>
<pdfrwt beam="1">  1        2 0.15420837E+00 0.28081731E+04</pdfrwt>
<pdfrwt beam="2">  1       -2 0.30258897E+00 0.28081731E+04</pdfrwt>
<totfact> 0.66885407E-01</totfact>
</mgrwt>
</event>
<event>
 6    1  0.1719556E-004  0.3700951E+04  0.7818608E-02  0.8067751E-01
          1   -1    0    0  501    0  0.00000000000E+00  0.00000000000E+00  0.13747707534E+04  0.13747707534E+04  0.00000000000E+00 0.  1.
         -1   -1    0    0    0  501 -0.00000000000E+00 -0.00000000000E+00 -0.24907852623E+04  0.24907852623E+04  0.00000000000E+00 0. -1.
         23    2    1    2    0    0 -0.83219204558E+03  0.79040129807E+03 -0.20729371015E+04  0.23712405668E+04  0.91846534056E+02 0.  0.
         13    1    3    3    0    0 -0.71626041982E+02  0.89519980462E+02 -0.16356240936E+03  0.19974177967E+03  0.00000000000E+00 0. -1.
        -13    1    3    3    0    0 -0.76056600360E+03  0.70088131761E+03 -0.19093746922E+04  0.21714987871E+04  0.00000000000E+00 0.  1.
         22    1    1    2    0    0  0.83219204558E+03 -0.79040129807E+03  0.95692259261E+03  0.14943154489E+04  0.00000000000E+00 0.  1.
<mgrwt>
<rscale>  0 0.37009505E+04</rscale>
<asrwt>0</asrwt>
<pdfrwt beam="1">  1        1 0.21150319E+00 0.37009505E+04</pdfrwt>
<pdfrwt beam="2">  1       -1 0.38319773E+00 0.37009505E+04</pdfrwt>
<totfact> 0.59728918E-02</totfact>
</mgrwt>
</event>
<event>
 6    1  0.1719556E-004  0.1870677E+04  0.7818608E-02  0.8669592E-01
          1   -1    0    0  501    0  0.00000000000E+00  0.00000000000E+00  0.52020925948E+03  0.52020925948E+03  0.00000000000E+00 0. -1.
         -1   -1    0    0    0  501 -0.00000000000E+00 -0.00000000000E+00 -0.16817421418E+04  0.16817421418E+04  0.00000000000E+00 0.  1.
         23    2    1    2    0    0 -0.71215594551E+03 -0.59912542426E+03 -0.66241521267E+03  0.11459041424E+04  0.90471127935E+02 0.  0.
         13    1    3    3    0    0 -0.53329277738E+03 -0.43282480791E+03 -0.53383415922E+03  0.86989505706E+03  0.00000000000E+00 0.  1.
        -13    1    3    3    0    0 -0.17886316812E+03 -0.16630061635E+03 -0.12858105345E+03  0.27600908538E+03  0.00000000000E+00 0. -1.
         22    1    1    2    0    0  0.71215594551E+03  0.59912542426E+03 -0.49911766963E+03  0.10560472588E+04  0.00000000000E+00 0. -1.
<mgrwt>
<rscale>  0 0.18706767E+04</rscale>
<asrwt>0</asrwt>
<pdfrwt beam="1">  1        1 0.80032193E-01 0.18706767E+04</pdfrwt>
<pdfrwt beam="2">  1       -1 0.25872956E+00 0.18706767E+04</pdfrwt>
<totfact> 0.24065224E+00</totfact>
</mgrwt>
</event>
<event>
 6    1  0.1719556E-004  0.1228270E+04  0.7818608E-02  0.9088465E-01
          1   -1    0    0  501    0  0.00000000000E+00  0.00000000000E+00  0.53335916624E+03  0.53335916624E+03  0.00000000000E+00 0.  1.
         -1   -1    0    0    0  501 -0.00000000000E+00 -0.00000000000E+00 -0.70714462354E+03  0.70714462354E+03  0.00000000000E+00 0. -1.
         23    2    1    2    0    0 -0.68855485471E+02 -0.53841163448E+03 -0.36993134153E+03  0.66335443830E+03  0.92529710573E+02 0.  0.
         13    1    3    3    0    0 -0.79018839536E+02 -0.26397076771E+03 -0.17181034918E+03  0.32472040172E+03  0.00000000000E+00 0. -1.
        -13    1    3    3    0    0  0.10163354066E+02 -0.27444086678E+03 -0.19812099235E+03  0.33863403658E+03  0.00000000000E+00 0.  1.
         22    1    1    2    0    0  0.68855485471E+02  0.53841163448E+03  0.19614588422E+03  0.57714935149E+03  0.00000000000E+00 0.  1.
<mgrwt>
<rscale>  0 0.12282704E+04</rscale>
<asrwt>0</asrwt>
<pdfrwt beam="1">  1        1 0.82055257E-01 0.12282704E+04</pdfrwt>
<pdfrwt beam="2">  1       -1 0.10879148E+00 0.12282704E+04</pdfrwt>
<totfact> 0.31358718E+01</totfact>
</mgrwt>
</event>
<event>
 6    1  0.1719556E-004  0.9521416E+03  0.7818608E-02  0.9362651E-01
         -2   -1    0    0    0  501 -0.00000000000E+00  0.00000000000E+00  0.17859451923E+03  0.17859451923E+03  0.00000000000E+00 0. -1.
          2   -1    0    0  501    0  0.00000000000E+00 -0.00000000000E+00 -0.12690390080E+04  0.12690390080E+04  0.00000000000E+00 0.  1.
         23    2    1    2    0    0 -0.21805064299E+03  0.30990949426E+03 -0.12357040502E+03  0.40915604968E+03  0.92461075315E+02 0.  0.
         11    1    3    3    0    0 -0.71620972853E+02  0.17549506949E+03 -0.79597555725E+02  0.20558174541E+03  0.00000000000E+00 0.  1.
        -11    1    3    3    0    0 -0.14642967014E+03  0.13441442477E+03 -0.43972849298E+02  0.20357430427E+03  0.00000000000E+00 0. -1.
         22    1    1    2    0    0  0.21805064299E+03 -0.30990949426E+03 -0.96687408374E+03  0.10384774775E+04  0.00000000000E+00 0.  1.
<mgrwt>
<rscale>  0 0.95214161E+03</rscale>
<asrwt>0</asrwt>
<pdfrwt beam="1">  1        2 0.19523677E+00 0.95214161E+03</pdfrwt>
<pdfrwt beam="2">  1       -2 0.27476080E-01 0.95214161E+03</pdfrwt>
<totfact> 0.20787005E+02</totfact>
</mgrwt>
</event>
<event>
 6    1  0.1719556E-004  0.1883146E+04  0.7818608E-02  0.8663291E-01
         -2   -1    0    0    0  501 -0.00000000000E+00  0.00000000000E+00  0.52531259016E+03  0.52531259016E+03  0.00000000000E+00 0. -1.
          2   -1    0    0  501    0  0.00000000000E+00 -0.00000000000E+00 -0.16876808677E+04  0.16876808677E+04  0.00000000000E+00 0.  1.
         23    2    1    2    0    0  0.47049132893E+02 -0.84130154989E+03 -0.94914018995E+02  0.85304474086E+03  0.93138285130E+02 0.  0.
         13    1    3    3    0    0  0.55740696452E+02 -0.68416233710E+03 -0.10902697911E+03  0.69503381998E+03  0.00000000000E+00 0.  1.
        -13    1    3    3    0    0 -0.86915635590E+01 -0.15713921279E+03  0.14112960118E+02  0.15801092088E+03  0.00000000000E+00 0. -1.
         22    1    1    2    0    0 -0.47049132893E+02  0.84130154989E+03 -0.10674542585E+04  0.13599487170E+04  0.00000000000E+00 0.  1.
<mgrwt>
<rscale>  0 0.18831463E+04</rscale>
<asrwt>0</asrwt>
<pdfrwt beam="1">  1        2 0.25964321E+00 0.18831463E+04</pdfrwt>
<pdfrwt beam="2">  1       -2 0.80817322E-01 0.18831463E+04</pdfrwt>
<totfact> 0.12622392E+01</totfact>
</mgrwt>
</event>
<event>
 6    1  0.1719556E-004  0.2755601E+04  0.7818608E-02  0.8317186E-01
         -2   -1    0    0    0  501 -0.00000000000E+00  0.00000000000E+00  0.61948596571E+03  0.61948596571E+03  0.00000000000E+00 0. -1.
          2   -1    0    0  501    0  0.00000000000E+00 -0.00000000000E+00 -0.30643707787E+04  0.30643707787E+04  0.00000000000E+00 0.  1.
         23    2    1    2    0    0  0.16326622205E+03 -0.13530763922E+04 -0.14793519297E+04  0.20136096576E+04  0.93113579022E+02 0.  0.
         13    1    3    3    0    0  0.12257244575E+03 -0.95907377996E+03 -0.98649336990E+03  0.13813094109E+04  0.00000000000E+00 0.  1.
        -13    1    3    3    0    0  0.40693776299E+02 -0.39400261225E+03 -0.49285855984E+03  0.63230024664E+03  0.00000000000E+00 0. -1.
         22    1    1    2    0    0 -0.16326622205E+03  0.13530763922E+04 -0.96553288324E+03  0.16702470868E+04  0.00000000000E+00 0. -1.
<mgrwt>
<rscale>  0 0.27556013E+04</rscale>
<asrwt>0</asrwt>
<pdfrwt beam="1">  1        2 0.47144166E+00 0.27556013E+04</pdfrwt>
<pdfrwt beam="2">  1       -2 0.95305533E-01 0.27556013E+04</pdfrwt>
<totfact> 0.12805167E+00</totfact>
</mgrwt>
</event>
<event>
 6    1  0.1719556E-004  0.1387975E+04  0.7818608E-02  0.8962569E-01
         -2   -1    0    0    0  501 -0.00000000000E+00  0.00000000000E+00  0.26931106959E+03  0.26931106959E+03  0.00000000000E+00 0. -1.
          2   -1    0    0  501    0  0.00000000000E+00 -0.00000000000E+00 -0.17883365009E+04  0.17883365009E+04  0.00000000000E+00 0.  1.
         23    2    1    2    0    0 -0.28088834967E+03  0.63067064876E+03 -0.80558538451E+03  0.10648533156E+04  0.91110042212E+02 0.  0.
         13    1    3    3    0    0 -0.17203791638E+03  0.40062450481E+03 -0.44023339018E+03  0.61959864134E+03  0.00000000000E+00 0. -1.
        -13    1    3    3    0    0 -0.10885043328E+03  0.23004614395E+03 -0.36535199433E+03  0.44525467424E+03  0.00000000000E+00 0.  1.
         22    1    1    2    0    0  0.28088834967E+03 -0.63067064876E+03 -0.71344004680E+03  0.99279425490E+03  0.00000000000E+00 0.  1.
<mgrwt>
<rscale>  0 0.13879752E+04</rscale>
<asrwt>0</asrwt>
<pdfrwt beam="1">  1        2 0.27512870E+00 0.13879752E+04</pdfrwt>
<pdfrwt beam="2">  1       -2 0.41432472E-01 0.13879752E+04</pdfrwt>
<totfact> 0.47087546E+01</totfact>
</mgrwt>
</event>
<event>
 6    1  0.1719556E-004  0.1344161E+04  0.7818608E-02  0.8995260E-01
          1   -1    0    0  501    0  0.00000000000E+00  0.00000000000E+00  0.56407408859E+03  0.56407408859E+03  0.00000000000E+00 0.  1.
         -1   -1    0    0    0  501 -0.00000000000E+00 -0.00000000000E+00 -0.80076786584E+03  0.80076786584E+03  0.00000000000E+00 0. -1.
         23    2    1    2    0    0 -0.77821402716E+02 -0.65319304214E+03  0.48705642226E+01  0.66407762022E+03  0.90873771042E+02 0.  0.
         11    1    3    3    0    0 -0.69003612645E+02 -0.25511742569E+03  0.24520603051E+02  0.26541977963E+03  0.00000000000E+00 0. -1.
        -11    1    3    3    0    0 -0.88177900717E+01 -0.39807561646E+03 -0.19650038828E+02  0.39865784059E+03  0.00000000000E+00 0.  1.
         22    1    1    2    0    0  0.77821402716E+02  0.65319304214E+03 -0.24156434148E+03  0.70076433421E+03  0.00000000000E+00 0. -1.
<mgrwt>
<rscale>  0 0.13441613E+04</rscale>
<asrwt>0</asrwt>
<pdfrwt beam="1">  1        1 0.86780630E-01 0.13441613E+04</pdfrwt>
<pdfrwt beam="2">  1       -1 0.12319506E+00 0.13441613E+04</pdfrwt>
<totfact> 0.21271679E+01</totfact>
</mgrwt>
</event>
<event>
 6    1  0.1719556E-004  0.1573665E+04  0.7818608E-02  0.8836892E-01
          1   -1    0    0  501    0  0.00000000000E+00  0.00000000000E+00  0.27961115095E+04  0.27961115095E+04  0.00000000000E+00 0. -1.
         -1   -1    0    0    0  501 -0.00000000000E+00 -0.00000000000E+00 -0.22141650721E+03  0.22141650721E+03  0.00000000000E+00 0.  1.
         23    2    1    2    0    0 -0.49873396365E+03 -0.46000615051E+03  0.53737691128E+03  0.87020265036E+03  0.90207998049E+02 0.  0.
         11    1    3    3    0    0 -0.19574282734E+03 -0.15749121123E+03  0.14872051924E+03  0.29195295668E+03  0.00000000000E+00 0.  1.
        -11    1    3    3    0    0 -0.30299113631E+03 -0.30251493928E+03  0.38865639204E+03  0.57824969368E+03  0.00000000000E+00 0. -1.
         22    1    1    2    0    0  0.49873396365E+03  0.46000615051E+03  0.20373180910E+04  0.21473253663E+04  0.00000000000E+00 0.  1.
<mgrwt>
<rscale>  0 0.15736648E+04</rscale>
<asrwt>0</asrwt>
<pdfrwt beam="1">  1        1 0.43017098E+00 0.15736648E+04</pdfrwt>
<pdfrwt beam="2">  1       -1 0.34064080E-01 0.15736648E+04</pdfrwt>
<totfact> 0.65951153E+00</totfact>
</mgrwt>
</event>
<event>
 6    1  0.1719556E-004  0.1326574E+04  0.7818608E-02  0.9008753E-01
         -1   -1    0    0    0  501 -0.00000000000E+00  0.00000000000E+00  0.62354839391E+03  0.62354839391E+03  0.00000000000E+00 0. -1.
          1   -1    0    0  501    0  0.00000000000E+00 -0.00000000000E+00 -0.70555826415E+03  0.70555826415E+03  0.00000000000E+00 0.  1.
         23    2    1    2    0    0  0.53984437564E+03 -0.23192662979E+03 -0.34247201661E+03  0.68640731839E+03  0.92983939761E+02 0.  0.
         13    1    3    3    0    0  0.21846364681E+03 -0.47861622586E+02 -0.14698828144E+03  0.26762409229E+03  0.00000000000E+00 0. -1.
        -13    1    3    3    0    0  0.32138072883E+03 -0.18406500720E+03 -0.19548373517E+03  0.41878322609E+03  0.00000000000E+00 0.  1.
         22    1    1    2    0    0 -0.53984437564E+03  0.23192662979E+03  0.26046214638E+03  0.64269933967E+03  0.00000000000E+00 0. -1.
<mgrwt>
<rscale>  0 0.13265741E+04</rscale>
<asrwt>0</asrwt>
<pdfrwt beam="1">  1        1 0.10854742E+00 0.13265741E+04</pdfrwt>
<pdfrwt beam="2">  1       -1 0.95930523E-01 0.13265741E+04</pdfrwt>
<totfact> 0.27661616E+01</totfact>
</mgrwt>
</event>
<event>
 6    1  0.1719556E-004  0.9900578E+03  0.7818608E-02  0.9319517E-01
          2   -1    0    0  501    0  0.00000000000E+00  0.00000000000E+00  0.11076693392E+04  0.11076693392E+04  0.00000000000E+00 0. -1.
         -2   -1    0    0    0  501 -0.00000000000E+00 -0.00000000000E+00 -0.22123354388E+03  0.22123354388E+03  0.00000000000E+00 0.  1.
         23    2    1    2    0    0  0.48189532201E+03  0.20076146229E+02  0.32194159532E+03  0.58642065781E+03  0.87273387006E+02 0.  0.
         13    1    3    3    0    0  0.39885707395E+03  0.41572807519E+02  0.29000681229E+03  0.49489313487E+03  0.00000000000E+00 0.  1.
        -13    1    3    3    0    0  0.83038248063E+02 -0.21496661290E+02  0.31934783029E+02  0.91527522937E+02  0.00000000000E+00 0. -1.
         22    1    1    2    0    0 -0.48189532201E+03 -0.20076146229E+02  0.56449419997E+03  0.74248222526E+03  0.00000000000E+00 0. -1.
<mgrwt>
<rscale>  0 0.99005780E+03</rscale>
<asrwt>0</asrwt>
<pdfrwt beam="1">  1        2 0.17041066E+00 0.99005780E+03</pdfrwt>
<pdfrwt beam="2">  1       -2 0.34035930E-01 0.99005780E+03</pdfrwt>
<totfact> 0.17371319E+02</totfact>
</mgrwt>
</event>
<event>
 6    1  0.1719556E-004  0.2023842E+04  0.7818608E-02  0.8595554E-01
         -2   -1    0    0    0  501 -0.00000000000E+00  0.00000000000E+00  0.88219383814E+03  0.88219383814E+03  0.00000000000E+00 0. -1.
          2   -1    0    0  501    0  0.00000000000E+00 -0.00000000000E+00 -0.11607247771E+04  0.11607247771E+04  0.00000000000E+00 0.  1.
         23    2    1    2    0    0  0.83354659833E+02 -0.10035478982E+04 -0.62935708297E+02  0.10130945104E+04  0.91341120652E+02 0.  0.
         11    1    3    3    0    0  0.17758385601E+02 -0.39059490909E+02 -0.14027169370E+02  0.45141616827E+02  0.00000000000E+00 0.  1.
        -11    1    3    3    0    0  0.65596274232E+02 -0.96448840731E+03 -0.48908538927E+02  0.96795289359E+03  0.00000000000E+00 0. -1.
         22    1    1    2    0    0 -0.83354659833E+02  0.10035478982E+04 -0.21559523064E+03  0.10298241048E+04  0.00000000000E+00 0.  1.
<mgrwt>
<rscale>  0 0.20238421E+04</rscale>
<asrwt>0</asrwt>
<pdfrwt beam="1">  1        2 0.17857304E+00 0.20238421E+04</pdfrwt>
<pdfrwt beam="2">  1       -2 0.13572213E+00 0.20238421E+04</pdfrwt>
<totfact> 0.72181194E+00</totfact>
</mgrwt>
</event>
<event>
 6    1  0.1719556E-004  0.3982633E+04  0.7818608E-02  0.8008059E-01
          2   -1    0    0  501    0  0.00000000000E+00  0.00000000000E+00  0.16352451754E+04  0.16352451754E+04  0.00000000000E+00 0.  1.
         -2   -1    0    0    0  501 -0.00000000000E+00 -0.00000000000E+00 -0.24249215831E+04  0.24249215831E+04  0.00000000000E+00 0. -1.
         23    2    1    2    0    0 -0.11372793263E+04  0.75081011406E+03 -0.18738186832E+04  0.23187637130E+04  0.91370703960E+02 0.  0.
         11    1    3    3    0    0 -0.27971627851E+03  0.15587077267E+03 -0.38970533457E+03  0.50438788847E+03  0.00000000000E+00 0. -1.
        -11    1    3    3    0    0 -0.85756304780E+03  0.59493934138E+03 -0.14841133487E+04  0.18143758245E+04  0.00000000000E+00 0.  1.
         22    1    1    2    0    0  0.11372793263E+04 -0.75081011406E+03  0.10841422755E+04  0.17414030455E+04  0.00000000000E+00 0.  1.
<mgrwt>
<rscale>  0 0.39826330E+04</rscale>
<asrwt>0</asrwt>
<pdfrwt beam="1">  1        2 0.25157618E+00 0.39826330E+04</pdfrwt>
<pdfrwt beam="2">  1       -2 0.37306486E+00 0.39826330E+04</pdfrwt>
<totfact> 0.93381055E-02</totfact>
</mgrwt>
</event>
<event>
 6    1  0.1719556E-004  0.3506923E+04  0.7818608E-02  0.8112151E-01
          1   -1    0    0  501    0  0.00000000000E+00  0.00000000000E+00  0.14677597247E+04  0.14677597247E+04  0.00000000000E+00 0.  1.
         -1   -1    0    0    0  501 -0.00000000000E+00 -0.00000000000E+00 -0.20947754576E+04  0.20947754576E+04  0.00000000000E+00 0. -1.
         23    2    1    2    0    0  0.12635038255E+04  0.51010645163E+03 -0.14329617731E+04  0.19794371029E+04  0.90229110548E+02 0.  0.
         13    1    3    3    0    0  0.20717288053E+03  0.12048950555E+03 -0.24772012554E+03  0.34467895783E+03  0.00000000000E+00 0.  1.
        -13    1    3    3    0    0  0.10563309449E+04  0.38961694608E+03 -0.11852416476E+04  0.16347581451E+04  0.00000000000E+00 0. -1.
         22    1    1    2    0    0 -0.12635038255E+04 -0.51010645163E+03  0.80594604024E+03  0.15830980793E+04  0.00000000000E+00 0.  1.
<mgrwt>
<rscale>  0 0.35069229E+04</rscale>
<asrwt>0</asrwt>
<pdfrwt beam="1">  1        1 0.22580919E+00 0.35069229E+04</pdfrwt>
<pdfrwt beam="2">  1       -1 0.32227314E+00 0.35069229E+04</pdfrwt>
<totfact> 0.13280819E-01</totfact>
</mgrwt>
</event>
<event>
 6    1  0.1719556E-004  0.3623448E+04  0.7818608E-02  0.8085142E-01
          1   -1    0    0  501    0  0.00000000000E+00  0.00000000000E+00  0.16623640982E+04  0.16623640982E+04  0.00000000000E+00 0.  1.
         -1   -1    0    0    0  501 -0.00000000000E+00 -0.00000000000E+00 -0.19745032339E+04  0.19745032339E+04  0.00000000000E+00 0. -1.
         23    2    1    2    0    0 -0.16980825086E+04  0.71593538643E+02 -0.78262536590E+03  0.18733574417E+04  0.91410065085E+02 0.  0.
         13    1    3    3    0    0 -0.14565874357E+04  0.72534772988E+02 -0.63776137496E+03  0.15917436422E+04  0.00000000000E+00 0.  1.
        -13    1    3    3    0    0 -0.24149507295E+03 -0.94123434539E+00 -0.14486399094E+03  0.28161379947E+03  0.00000000000E+00 0. -1.
         22    1    1    2    0    0  0.16980825086E+04 -0.71593538643E+02  0.47048623014E+03  0.17635098904E+04  0.00000000000E+00 0.  1.
<mgrwt>
<rscale>  0 0.36234477E+04</rscale>
<asrwt>0</asrwt>
<pdfrwt beam="1">  1        1 0.25574832E+00 0.36234477E+04</pdfrwt>
<pdfrwt beam="2">  1       -1 0.30376973E+00 0.36234477E+04</pdfrwt>
<totfact> 0.12744663E-01</totfact>
</mgrwt>
</event>
<event>
 6    1  0.1719556E-004  0.1883887E+04  0.7818608E-02  0.8662919E-01
          2   -1    0    0  501    0  0.00000000000E+00  0.00000000000E+00  0.12098459709E+04  0.12098459709E+04  0.00000000000E+00 0.  1.
         -2   -1    0    0    0  501 -0.00000000000E+00 -0.00000000000E+00 -0.73336368402E+03  0.73336368402E+03  0.00000000000E+00 0. -1.
         23    2    1    2    0    0  0.84294679197E+03  0.27044389300E+03 -0.86631002360E+02  0.89402150691E+03  0.89835020414E+02 0.  0.
         13    1    3    3    0    0  0.68439457449E+03  0.23782518378E+03 -0.40345745005E+02  0.72566144363E+03  0.00000000000E+00 0. -1.
        -13    1    3    3    0    0  0.15855221749E+03  0.32618709221E+02 -0.46285257355E+02  0.16836006328E+03  0.00000000000E+00 0.  1.
         22    1    1    2    0    0 -0.84294679197E+03 -0.27044389300E+03  0.56311328921E+03  0.10491881480E+04  0.00000000000E+00 0.  1.
<mgrwt>
<rscale>  0 0.18838865E+04</rscale>
<asrwt>0</asrwt>
<pdfrwt beam="1">  1        2 0.18613015E+00 0.18838865E+04</pdfrwt>
<pdfrwt beam="2">  1       -2 0.11282518E+00 0.18838865E+04</pdfrwt>
<totfact> 0.10826974E+01</totfact>
</mgrwt>
</event>
<event>
 6    1  0.1719556E-004  0.3570392E+04  0.7818608E-02  0.8097308E-01
         -1   -1    0    0    0  501 -0.00000000000E+00  0.00000000000E+00  0.18841528707E+04  0.18841528707E+04  0.00000000000E+00 0. -1.
          1   -1    0    0  501    0  0.00000000000E+00 -0.00000000000E+00 -0.16914367272E+04  0.16914367272E+04  0.00000000000E+00 0.  1.
         23    2    1    2    0    0 -0.92944204860E+03  0.13009643226E+04  0.88903610373E+03  0.18316767051E+04  0.91014657333E+02 0.  0.
         11    1    3    3    0    0 -0.31705526162E+03  0.41604916377E+03  0.33644640922E+03  0.62194624517E+03  0.00000000000E+00 0. -1.
        -11    1    3    3    0    0 -0.61238678698E+03  0.88491515887E+03  0.55258969450E+03  0.12097304600E+04  0.00000000000E+00 0.  1.
         22    1    1    2    0    0  0.92944204860E+03 -0.13009643226E+04 -0.69631996021E+03  0.17439128927E+04  0.00000000000E+00 0.  1.
<mgrwt>
<rscale>  0 0.35703923E+04</rscale>
<asrwt>0</asrwt>
<pdfrwt beam="1">  1        1 0.26022103E+00 0.35703923E+04</pdfrwt>
<pdfrwt beam="2">  1       -1 0.28986967E+00 0.35703923E+04</pdfrwt>
<totfact> 0.15049605E-01</totfact>
</mgrwt>
</event>
<event>
 6    1  0.1719556E-004  0.2349786E+04  0.7818608E-02  0.8458546E-01
         -1   -1    0    0    0  501 -0.00000000000E+00  0.00000000000E+00  0.15458226808E+04  0.15458226808E+04  0.00000000000E+00 0. -1.
          1   -1    0    0  501    0  0.00000000000E+00 -0.00000000000E+00 -0.89296994277E+03  0.89296994277E+03  0.00000000000E+00 0.  1.
         23    2    1    2    0    0  0.77257090094E+03  0.13675777798E+03  0.12321149280E+04  0.14635423113E+04  0.90996781443E+02 0.  0.
         11    1    3    3    0    0  0.10125442778E+03  0.73871810813E+01  0.21825193891E+03  0.24070924043E+03  0.00000000000E+00 0. -1.
        -11    1    3    3    0    0  0.67131647315E+03  0.12937059690E+03  0.10138629891E+04  0.12228330709E+04  0.00000000000E+00 0.  1.
         22    1    1    2    0    0 -0.77257090094E+03 -0.13675777798E+03 -0.57926219002E+03  0.97525031228E+03  0.00000000000E+00 0.  1.
<mgrwt>
<rscale>  0 0.23497857E+04</rscale>
<asrwt>0</asrwt>
<pdfrwt beam="1">  1        1 0.13737999E+00 0.23497857E+04</pdfrwt>
<pdfrwt beam="2">  1       -1 0.23781887E+00 0.23497857E+04</pdfrwt>
<totfact> 0.13907050E+00</totfact>
</mgrwt>
</event>
<event>
 6    1  0.1719556E-004  0.3598456E+04  0.7818608E-02  0.8090845E-01
         -2   -1    0    0    0  501 -0.00000000000E+00  0.00000000000E+00  0.70760206225E+03  0.70760206225E+03  0.00000000000E+00 0. -1.
          2   -1    0    0  501    0  0.00000000000E+00 -0.00000000000E+00 -0.45749175317E+04  0.45749175317E+04  0.00000000000E+00 0.  1.
         23    2    1    2    0    0  0.95530801880E+03  0.15050026921E+04 -0.22805291499E+04  0.28959871015E+04  0.91003155704E+02 0.  0.
         11    1    3    3    0    0  0.55639453451E+02  0.12989646671E+03 -0.19622854777E+03  0.24181497845E+03  0.00000000000E+00 0.  1.
        -11    1    3    3    0    0  0.89966856535E+03  0.13751062253E+04 -0.20843006021E+04  0.26541721230E+04  0.00000000000E+00 0. -1.
         22    1    1    2    0    0 -0.95530801880E+03 -0.15050026921E+04 -0.15867863196E+04  0.23865324925E+04  0.00000000000E+00 0.  1.
<mgrwt>
<rscale>  0 0.35984558E+04</rscale>
<asrwt>0</asrwt>
<pdfrwt beam="1">  1        2 0.70383346E+00 0.35984558E+04</pdfrwt>
<pdfrwt beam="2">  1       -2 0.10886186E+00 0.35984558E+04</pdfrwt>
<totfact> 0.56596500E-02</totfact>
</mgrwt>
</event>
<event>
 6    1  0.1719556E-004  0.3537642E+04  0.7818608E-02  0.8104927E-01
         -2   -1    0    0    0  501 -0.00000000000E+00  0.00000000000E+00  0.80641673597E+03  0.80641673597E+03  0.00000000000E+00 0. -1.
          2   -1    0    0  501    0  0.00000000000E+00 -0.00000000000E+00 -0.38797891449E+04  0.38797891449E+04  0.00000000000E+00 0.  1.
         23    2    1    2    0    0 -0.56999039919E+03 -0.16615354688E+04 -0.12763227233E+04  0.21732441338E+04  0.91658070852E+02 0.  0.
         11    1    3    3    0    0 -0.46368941291E+03 -0.12505373087E+04 -0.94135788485E+03  0.16324846399E+04  0.00000000000E+00 0. -1.
        -11    1    3    3    0    0 -0.10630098629E+03 -0.41099816008E+03 -0.33496483845E+03  0.54075949392E+03  0.00000000000E+00 0.  1.
         22    1    1    2    0    0  0.56999039919E+03  0.16615354688E+04 -0.17970496856E+04  0.25129617470E+04  0.00000000000E+00 0.  1.
<mgrwt>
<rscale>  0 0.35376415E+04</rscale>
<asrwt>0</asrwt>
<pdfrwt beam="1">  1        2 0.59689065E+00 0.35376415E+04</pdfrwt>
<pdfrwt beam="2">  1       -2 0.12406411E+00 0.35376415E+04</pdfrwt>
<totfact> 0.17021676E-01</totfact>
</mgrwt>
</event>
<event>
 6    1  0.1719556E-004  0.3272501E+04  0.7818608E-02  0.8169928E-01
          1   -1    0    0  501    0  0.00000000000E+00  0.00000000000E+00  0.33932151782E+04  0.33932151782E+04  0.00000000000E+00 0. -1.
         -1   -1    0    0    0  501 -0.00000000000E+00 -0.00000000000E+00 -0.78902032314E+03  0.78902032314E+03  0.00000000000E+00 0.  1.
         23    2    1    2    0    0  0.32699916731E+03  0.76458486624E+03  0.31022999254E+04  0.32128918397E+04  0.83010082818E+02 0.  0.
         11    1    3    3    0    0  0.26352249746E+03  0.59106723764E+03  0.25328481913E+04  0.26142158569E+04  0.00000000000E+00 0.  1.
        -11    1    3    3    0    0  0.63476669847E+02  0.17351762860E+03  0.56945173404E+03  0.59867598285E+03  0.00000000000E+00 0. -1.
         22    1    1    2    0    0 -0.32699916731E+03 -0.76458486624E+03 -0.49810507035E+03  0.96934366156E+03  0.00000000000E+00 0.  1.
<mgrwt>
<rscale>  0 0.32725010E+04</rscale>
<asrwt>0</asrwt>
<pdfrwt beam="1">  1        1 0.52203309E+00 0.32725010E+04</pdfrwt>
<pdfrwt beam="2">  1       -1 0.12138774E+00 0.32725010E+04</pdfrwt>
<totfact> 0.15136132E-01</totfact>
</mgrwt>
</event>
<event>
 6    1  0.2098643E-004  0.3714044E+04  0.7818608E-02  0.8064857E-01
         -2   -1    0    0    0  501 -0.00000000000E+00  0.00000000000E+00  0.11242902991E+04  0.11242902991E+04  0.00000000000E+00 0. -1.
          2   -1    0    0  501    0  0.00000000000E+00 -0.00000000000E+00 -0.30672948622E+04  0.30672948622E+04  0.00000000000E+00 0.  1.
         23    2    1    2    0    0  0.11219730668E+02  0.15909719666E+04 -0.20504900239E+04  0.25969470190E+04  0.91141652193E+02 0.  0.
         13    1    3    3    0    0  0.33113899802E+02  0.92341830767E+03 -0.11307271690E+04  0.14602540300E+04  0.00000000000E+00 0.  1.
        -13    1    3    3    0    0 -0.21894169134E+02  0.66755365892E+03 -0.91976285480E+03  0.11366929890E+04  0.00000000000E+00 0. -1.
         22    1    1    2    0    0 -0.11219730668E+02 -0.15909719666E+04  0.10748546074E+03  0.15946381424E+04  0.00000000000E+00 0. -1.
<mgrwt>
<rscale>  0 0.37140435E+04</rscale>
<asrwt>0</asrwt>
<pdfrwt beam="1">  1        2 0.47189151E+00 0.37140435E+04</pdfrwt>
<pdfrwt beam="2">  1       -2 0.17296774E+00 0.37140435E+04</pdfrwt>
<totfact> 0.25867958E-01</totfact>
</mgrwt>
</event>
<event>
 6    1  0.1719556E-004  0.2100802E+04  0.7818608E-02  0.8560890E-01
          2   -1    0    0  501    0  0.00000000000E+00  0.00000000000E+00  0.14833052189E+04  0.14833052189E+04  0.00000000000E+00 0.  1.
         -2   -1    0    0    0  501 -0.00000000000E+00 -0.00000000000E+00 -0.74384004635E+03  0.74384004635E+03  0.00000000000E+00 0. -1.
         23    2    1    2    0    0 -0.21694953621E+03 -0.23248603799E+03  0.14296349998E+04  0.14672431336E+04  0.88483451125E+02 0.  0.
         13    1    3    3    0    0 -0.10017358042E+03 -0.13063231253E+03  0.91854136599E+03  0.93317618290E+03  0.00000000000E+00 0. -1.
        -13    1    3    3    0    0 -0.11677595579E+03 -0.10185372546E+03  0.51109363383E+03  0.53406695066E+03  0.00000000000E+00 0.  1.
         22    1    1    2    0    0  0.21694953621E+03  0.23248603799E+03 -0.69016982732E+03  0.75990213164E+03  0.00000000000E+00 0. -1.
<mgrwt>
<rscale>  0 0.21008016E+04</rscale>
<asrwt>0</asrwt>
<pdfrwt beam="1">  1        2 0.22820080E+00 0.21008016E+04</pdfrwt>
<pdfrwt beam="2">  1       -2 0.11443693E+00 0.21008016E+04</pdfrwt>
<totfact> 0.71350624E+00</totfact>
</mgrwt>
</event>
<event>
 6    1  0.1719556E-004  0.3190441E+04  0.7818608E-02  0.8191346E-01
         -2   -1    0    0    0  501 -0.00000000000E+00  0.00000000000E+00  0.91440410566E+03  0.91440410566E+03  0.00000000000E+00 0. -1.
          2   -1    0    0  501    0  0.00000000000E+00 -0.00000000000E+00 -0.27829366933E+04  0.27829366933E+04  0.00000000000E+00 0.  1.
         23    2    1    2    0    0  0.10108010087E+04 -0.11329117921E+04 -0.37276345332E+03  0.15660188826E+04  0.90855602297E+02 0.  0.
         13    1    3    3    0    0  0.43342565414E+03 -0.54943360096E+03 -0.15510822369E+03  0.71679400150E+03  0.00000000000E+00 0.  1.
        -13    1    3    3    0    0  0.57737535460E+03 -0.58347819118E+03 -0.21765522963E+03  0.84922488109E+03  0.00000000000E+00 0. -1.
         22    1    1    2    0    0 -0.10108010087E+04  0.11329117921E+04 -0.14957691343E+04  0.21313219164E+04  0.00000000000E+00 0.  1.
<mgrwt>
<rscale>  0 0.31904412E+04</rscale>
<asrwt>0</asrwt>
<pdfrwt beam="1">  1        2 0.42814411E+00 0.31904412E+04</pdfrwt>
<pdfrwt beam="2">  1       -2 0.14067756E+00 0.31904412E+04</pdfrwt>
<totfact> 0.70745644E-01</totfact>
</mgrwt>
</event>
<event>
 6    1  0.1719556E-004  0.3429073E+04  0.7818608E-02  0.8130808E-01
          1   -1    0    0  501    0  0.00000000000E+00  0.00000000000E+00  0.17755810875E+04  0.17755810875E+04  0.00000000000E+00 0.  1.
         -1   -1    0    0    0  501 -0.00000000000E+00 -0.00000000000E+00 -0.16555903222E+04  0.16555903222E+04  0.00000000000E+00 0. -1.
         23    2    1    2    0    0  0.52962353543E+02  0.13773418340E+04  0.10783241848E+04  0.17523985003E+04  0.90785006881E+02 0.  0.
         11    1    3    3    0    0  0.62267436814E+02  0.66551473395E+03  0.55613697602E+03  0.86952598057E+03  0.00000000000E+00 0.  1.
        -11    1    3    3    0    0 -0.93050832718E+01  0.71182710007E+03  0.52218720882E+03  0.88287251969E+03  0.00000000000E+00 0. -1.
         22    1    1    2    0    0 -0.52962353543E+02 -0.13773418340E+04 -0.95833341948E+03  0.16787729095E+04  0.00000000000E+00 0. -1.
<mgrwt>
<rscale>  0 0.34290727E+04</rscale>
<asrwt>0</asrwt>
<pdfrwt beam="1">  1        1 0.27316632E+00 0.34290727E+04</pdfrwt>
<pdfrwt beam="2">  1       -1 0.25470620E+00 0.34290727E+04</pdfrwt>
<totfact> 0.22566393E-01</totfact>
</mgrwt>
</event>
<event>
 6    1  0.1719556E-004  0.9696682E+03  0.7818608E-02  0.9342452E-01
          1   -1    0    0  501    0  0.00000000000E+00  0.00000000000E+00  0.76941638549E+03  0.76941638549E+03  0.00000000000E+00 0.  1.
         -1   -1    0    0    0  501 -0.00000000000E+00 -0.00000000000E+00 -0.30550962121E+03  0.30550962121E+03  0.00000000000E+00 0. -1.
         23    2    1    2    0    0  0.19454216621E+02 -0.14942965000E+03 -0.27272971525E+03  0.32303439893E+03  0.85217594841E+02 0.  0.
         13    1    3    3    0    0 -0.10031494506E+02 -0.12667204494E+03 -0.24698800304E+03  0.27775800888E+03  0.00000000000E+00 0. -1.
        -13    1    3    3    0    0  0.29485711126E+02 -0.22757605063E+02 -0.25741712208E+02  0.45276390053E+02  0.00000000000E+00 0.  1.
         22    1    1    2    0    0 -0.19454216621E+02  0.14942965000E+03  0.73663647954E+03  0.75189160777E+03  0.00000000000E+00 0.  1.
<mgrwt>
<rscale>  0 0.96966821E+03</rscale>
<asrwt>0</asrwt>
<pdfrwt beam="1">  1        1 0.11837175E+00 0.96966821E+03</pdfrwt>
<pdfrwt beam="2">  1       -1 0.47001481E-01 0.96966821E+03</pdfrwt>
<totfact> 0.10658744E+02</totfact>
</mgrwt>
</event>
<event>
 6    1  0.1719556E-004  0.2490215E+04  0.7818608E-02  0.8406480E-01
         -2   -1    0    0    0  501 -0.00000000000E+00  0.00000000000E+00  0.47343945380E+03  0.47343945380E+03  0.00000000000E+00 0. -1.
          2   -1    0    0  501    0  0.00000000000E+00 -0.00000000000E+00 -0.32745318970E+04  0.32745318970E+04  0.00000000000E+00 0.  1.
         23    2    1    2    0    0 -0.71440904696E+03  0.92884788470E+03 -0.20289685713E+04  0.23446488815E+04  0.86753875935E+02 0.  0.
         13    1    3    3    0    0 -0.31041952438E+03  0.37277058362E+03 -0.76368711762E+03  0.90472990596E+03  0.00000000000E+00 0.  1.
        -13    1    3    3    0    0 -0.40398952258E+03  0.55607730108E+03 -0.12652814537E+04  0.14399189756E+04  0.00000000000E+00 0. -1.
         22    1    1    2    0    0  0.71440904696E+03 -0.92884788470E+03 -0.77212387193E+03  0.14033224693E+04  0.00000000000E+00 0. -1.
<mgrwt>
<rscale>  0 0.24902149E+04</rscale>
<asrwt>0</asrwt>
<pdfrwt beam="1">  1        2 0.50377416E+00 0.24902149E+04</pdfrwt>
<pdfrwt beam="2">  1       -2 0.72836836E-01 0.24902149E+04</pdfrwt>
<totfact> 0.17624914E+00</totfact>
</mgrwt>
</event>
<event>
 6    1  0.1719556E-004  0.3251072E+04  0.7818608E-02  0.8175458E-01
          1   -1    0    0  501    0  0.00000000000E+00  0.00000000000E+00  0.23594056883E+04  0.23594056883E+04  0.00000000000E+00 0. -1.
         -1   -1    0    0    0  501 -0.00000000000E+00 -0.00000000000E+00 -0.11199288712E+04  0.11199288712E+04  0.00000000000E+00 0.  1.
         23    2    1    2    0    0  0.26134021528E+03  0.12365855527E+04  0.17119880715E+04  0.21299978992E+04  0.92441098975E+02 0.  0.
         11    1    3    3    0    0  0.13347828696E+03  0.58795003384E+03  0.89288671810E+03  0.10773803352E+04  0.00000000000E+00 0. -1.
        -11    1    3    3    0    0  0.12786192832E+03  0.64863551881E+03  0.81910135338E+03  0.10526175640E+04  0.00000000000E+00 0.  1.
         22    1    1    2    0    0 -0.26134021528E+03 -0.12365855527E+04 -0.47251125441E+03  0.13493366603E+04  0.00000000000E+00 0.  1.
<mgrwt>
<rscale>  0 0.32510715E+04</rscale>
<asrwt>0</asrwt>
<pdfrwt beam="1">  1        1 0.36298549E+00 0.32510715E+04</pdfrwt>
<pdfrwt beam="2">  1       -1 0.17229675E+00 0.32510715E+04</pdfrwt>
<totfact> 0.33402656E-01</totfact>
</mgrwt>
</event>
<event>
 6    1  0.1719556E-004  0.1734554E+04  0.7818608E-02  0.8741899E-01
         -1   -1    0    0    0  501 -0.00000000000E+00  0.00000000000E+00  0.22378309460E+03  0.22378309460E+03  0.00000000000E+00 0. -1.
          1   -1    0    0  501    0  0.00000000000E+00 -0.00000000000E+00 -0.33611531509E+04  0.33611531509E+04  0.00000000000E+00 0.  1.
         23    2    1    2    0    0 -0.55952557918E+02  0.67972871979E+03 -0.26722289733E+04  0.27593951815E+04  0.91061851167E+02 0.  0.
         11    1    3    3    0    0 -0.48459536650E+02  0.39360210036E+03 -0.17171516071E+04  0.17623508679E+04  0.00000000000E+00 0. -1.
        -11    1    3    3    0    0 -0.74930212684E+01  0.28612661943E+03 -0.95507736628E+03  0.99704431360E+03  0.00000000000E+00 0.  1.
         22    1    1    2    0    0  0.55952557918E+02 -0.67972871979E+03 -0.46514108301E+03  0.82554106400E+03  0.00000000000E+00 0. -1.
<mgrwt>
<rscale>  0 0.17345538E+04</rscale>
<asrwt>0</asrwt>
<pdfrwt beam="1">  1        1 0.51710049E+00 0.17345538E+04</pdfrwt>
<pdfrwt beam="2">  1       -1 0.34428168E-01 0.17345538E+04</pdfrwt>
<totfact> 0.24466453E+00</totfact>
</mgrwt>
</event>
<event>
 6    1  0.1719556E-004  0.5397140E+04  0.7818608E-02  0.7770004E-01
         -2   -1    0    0    0  501 -0.00000000000E+00  0.00000000000E+00  0.24185344064E+04  0.24185344064E+04  0.00000000000E+00 0. -1.
          2   -1    0    0  501    0  0.00000000000E+00 -0.00000000000E+00 -0.30110296424E+04  0.30110296424E+04  0.00000000000E+00 0.  1.
         23    2    1    2    0    0  0.23587896264E+04  0.64557588392E+03  0.84962282978E+03  0.25904865157E+04  0.90026174087E+02 0.  0.
         11    1    3    3    0    0  0.13278391441E+03  0.46924391259E+02  0.68731822590E+02  0.15670842306E+03  0.00000000000E+00 0.  1.
        -11    1    3    3    0    0  0.22260057119E+04  0.59865149266E+03  0.78089100719E+03  0.24337780927E+04  0.00000000000E+00 0. -1.
         22    1    1    2    0    0 -0.23587896264E+04 -0.64557588392E+03 -0.14421180658E+04  0.28390775331E+04  0.00000000000E+00 0.  1.
<mgrwt>
<rscale>  0 0.53971395E+04</rscale>
<asrwt>0</asrwt>
<pdfrwt beam="1">  1        2 0.46323533E+00 0.53971395E+04</pdfrwt>
<pdfrwt beam="2">  1       -2 0.37208221E+00 0.53971395E+04</pdfrwt>
<totfact> 0.13609364E-02</totfact>
</mgrwt>
</event>
<event>
 6    1  0.1719556E-004  0.2409480E+04  0.7818608E-02  0.8435963E-01
          2   -1    0    0  501    0  0.00000000000E+00  0.00000000000E+00  0.14755661312E+04  0.14755661312E+04  0.00000000000E+00 0.  1.
         -2   -1    0    0    0  501 -0.00000000000E+00 -0.00000000000E+00 -0.98362110394E+03  0.98362110394E+03  0.00000000000E+00 0. -1.
         23    2    1    2    0    0  0.72165981040E+03 -0.81643278818E+03  0.76683514030E+03  0.13353901210E+04  0.88742679957E+02 0.  0.
         13    1    3    3    0    0  0.54219890354E+03 -0.66768720998E+03  0.59725400602E+03  0.10471381041E+04  0.00000000000E+00 0. -1.
        -13    1    3    3    0    0  0.17946090686E+03 -0.14874557819E+03  0.16958113428E+03  0.28825201687E+03  0.00000000000E+00 0.  1.
         22    1    1    2    0    0 -0.72165981040E+03  0.81643278818E+03 -0.27489011303E+03  0.11237971142E+04  0.00000000000E+00 0. -1.
<mgrwt>
<rscale>  0 0.24094796E+04</rscale>
<asrwt>0</asrwt>
<pdfrwt beam="1">  1        2 0.22701017E+00 0.24094796E+04</pdfrwt>
<pdfrwt beam="2">  1       -2 0.15132632E+00 0.24094796E+04</pdfrwt>
<totfact> 0.34469753E+00</totfact>
</mgrwt>
</event>
<event>
 6    1  0.1719556E-004  0.3768943E+04  0.7818608E-02  0.8052853E-01
          2   -1    0    0  501    0  0.00000000000E+00  0.00000000000E+00  0.21207086573E+04  0.21207086573E+04  0.00000000000E+00 0.  1.
         -2   -1    0    0    0  501 -0.00000000000E+00 -0.00000000000E+00 -0.16745496305E+04  0.16745496305E+04  0.00000000000E+00 0. -1.
         23    2    1    2    0    0 -0.73841922414E+02 -0.18631881784E+04  0.48997210326E+03  0.19300927715E+04  0.90898992139E+02 0.  0.
         11    1    3    3    0    0 -0.79126879965E+02 -0.16242927368E+04  0.39937854619E+03  0.16745420810E+04  0.00000000000E+00 0.  1.
        -11    1    3    3    0    0  0.52849575513E+01 -0.23889544163E+03  0.90593557069E+02  0.25555069045E+03  0.00000000000E+00 0. -1.
         22    1    1    2    0    0  0.73841922414E+02  0.18631881784E+04 -0.43813076457E+02  0.18651655163E+04  0.00000000000E+00 0.  1.
<mgrwt>
<rscale>  0 0.37689425E+04</rscale>
<asrwt>0</asrwt>
<pdfrwt beam="1">  1        2 0.32626287E+00 0.37689425E+04</pdfrwt>
<pdfrwt beam="2">  1       -2 0.25762302E+00 0.37689425E+04</pdfrwt>
<totfact> 0.26535583E-01</totfact>
</mgrwt>
</event>
<event>
 6    1  0.1719556E-004  0.2492007E+04  0.7818608E-02  0.8405839E-01
         -2   -1    0    0    0  501 -0.00000000000E+00  0.00000000000E+00  0.14188721140E+04  0.14188721140E+04  0.00000000000E+00 0. -1.
          2   -1    0    0  501    0  0.00000000000E+00 -0.00000000000E+00 -0.10941963090E+04  0.10941963090E+04  0.00000000000E+00 0.  1.
         23    2    1    2    0    0 -0.11184062858E+03 -0.92458078664E+03 -0.67003116302E+03  0.11504239684E+04  0.84708856940E+02 0.  0.
         13    1    3    3    0    0 -0.96511031965E+02 -0.57727960263E+03 -0.45838182589E+03  0.74342452018E+03  0.00000000000E+00 0. -1.
        -13    1    3    3    0    0 -0.15329596616E+02 -0.34730118401E+03 -0.21164933713E+03  0.40699944822E+03  0.00000000000E+00 0.  1.
         22    1    1    2    0    0  0.11184062858E+03  0.92458078664E+03  0.99470696809E+03  0.13626444546E+04  0.00000000000E+00 0. -1.
<mgrwt>
<rscale>  0 0.24920069E+04</rscale>
<asrwt>0</asrwt>
<pdfrwt beam="1">  1        2 0.16833789E+00 0.24920069E+04</pdfrwt>
<pdfrwt beam="2">  1       -2 0.21828802E+00 0.24920069E+04</pdfrwt>
<totfact> 0.19865177E+00</totfact>
</mgrwt>
</event>
<event>
 6    1  0.1719556E-004  0.7334600E+03  0.7818608E-02  0.9661662E-01
         -2   -1    0    0    0  501 -0.00000000000E+00  0.00000000000E+00  0.14660244393E+03  0.14660244393E+03  0.00000000000E+00 0. -1.
          2   -1    0    0  501    0  0.00000000000E+00 -0.00000000000E+00 -0.91738507581E+03  0.91738507581E+03  0.00000000000E+00 0.  1.
         23    2    1    2    0    0 -0.24104641173E+03 -0.20255247716E+03 -0.64792200102E+03  0.72601472020E+03  0.90352509262E+02 0.  0.
         11    1    3    3    0    0 -0.16837809087E+03 -0.96307433227E+02 -0.32646632173E+03  0.37974539155E+03  0.00000000000E+00 0. -1.
        -11    1    3    3    0    0 -0.72668320868E+02 -0.10624504394E+03 -0.32145567928E+03  0.34626932865E+03  0.00000000000E+00 0.  1.
         22    1    1    2    0    0  0.24104641173E+03  0.20255247716E+03 -0.12286063086E+03  0.33797279954E+03  0.00000000000E+00 0. -1.
<mgrwt>
<rscale>  0 0.73346000E+03</rscale>
<asrwt>0</asrwt>
<pdfrwt beam="1">  1        2 0.14113617E+00 0.73346000E+03</pdfrwt>
<pdfrwt beam="2">  1       -2 0.22554222E-01 0.73346000E+03</pdfrwt>
<totfact> 0.49521328E+02</totfact>
</mgrwt>
</event>
<event>
 6    1  0.1719556E-004  0.8285605E+03  0.7818608E-02  0.9519573E-01
         -2   -1    0    0    0  501 -0.00000000000E+00  0.00000000000E+00  0.25741622824E+03  0.25741622824E+03  0.00000000000E+00 0. -1.
          2   -1    0    0  501    0  0.00000000000E+00 -0.00000000000E+00 -0.66673382548E+03  0.66673382548E+03  0.00000000000E+00 0.  1.
         23    2    1    2    0    0  0.39099096756E+03  0.11966251766E+03 -0.20789775935E+03  0.46833977967E+03  0.94486062649E+02 0.  0.
         11    1    3    3    0    0  0.27606843796E+03  0.58020522270E+02 -0.18103208425E+03  0.33519066062E+03  0.00000000000E+00 0.  1.
        -11    1    3    3    0    0  0.11492252960E+03  0.61641995387E+02 -0.26865675107E+02  0.13314911905E+03  0.00000000000E+00 0. -1.
         22    1    1    2    0    0 -0.39099096756E+03 -0.11966251766E+03 -0.20141983789E+03  0.45581027406E+03  0.00000000000E+00 0.  1.
<mgrwt>
<rscale>  0 0.82856045E+03</rscale>
<asrwt>0</asrwt>
<pdfrwt beam="1">  1        2 0.10257443E+00 0.82856045E+03</pdfrwt>
<pdfrwt beam="2">  1       -2 0.39602497E-01 0.82856045E+03</pdfrwt>
<totfact> 0.26403572E+02</totfact>
</mgrwt>
</event>
<event>
 6    1  0.1946139E-004  0.3202194E+04  0.7818608E-02  0.8188238E-01
          2   -1    0    0  501    0  0.00000000000E+00  0.00000000000E+00  0.18547002788E+04  0.18547002788E+04  0.00000000000E+00 0.  1.
         -2   -1    0    0    0  501 -0.00000000000E+00 -0.00000000000E+00 -0.13821706448E+04  0.13821706448E+04  0.00000000000E+00 0. -1.
         23    2    1    2    0    0  0.14406903628E+04  0.68270087421E+03  0.10135396424E+03  0.15999712373E+04  0.89253174742E+02 0.  0.
         13    1    3    3    0    0  0.47768951631E+03  0.18037657307E+03  0.30162927287E+02  0.51150052227E+03  0.00000000000E+00 0.  1.
        -13    1    3    3    0    0  0.96300084646E+03  0.50232430114E+03  0.71191036955E+02  0.10884707151E+04  0.00000000000E+00 0. -1.
         22    1    1    2    0    0 -0.14406903628E+04 -0.68270087421E+03  0.37117566976E+03  0.16368996862E+04  0.00000000000E+00 0.  1.
<mgrwt>
<rscale>  0 0.32021944E+04</rscale>
<asrwt>0</asrwt>
<pdfrwt beam="1">  1        2 0.28533851E+00 0.32021944E+04</pdfrwt>
<pdfrwt beam="2">  1       -2 0.21264164E+00 0.32021944E+04</pdfrwt>
<totfact> 0.74599857E-01</totfact>
</mgrwt>
</event>
<event>
 6    1  0.1719556E-004  0.2014444E+04  0.7818608E-02  0.8599897E-01
          1   -1    0    0  501    0  0.00000000000E+00  0.00000000000E+00  0.73147649815E+03  0.73147649815E+03  0.00000000000E+00 0.  1.
         -1   -1    0    0    0  501 -0.00000000000E+00 -0.00000000000E+00 -0.13869158728E+04  0.13869158728E+04  0.00000000000E+00 0. -1.
         23    2    1    2    0    0  0.89250188475E+03 -0.42804983065E+03 -0.51124847623E+03  0.11181037691E+04  0.94840720717E+02 0.  0.
         13    1    3    3    0    0  0.45717572004E+03 -0.26882789533E+03 -0.29026187073E+03  0.60459079541E+03  0.00000000000E+00 0.  1.
        -13    1    3    3    0    0  0.43532616471E+03 -0.15922193532E+03 -0.22098660550E+03  0.51351297372E+03  0.00000000000E+00 0. -1.
         22    1    1    2    0    0 -0.89250188475E+03  0.42804983065E+03 -0.14419089847E+03  0.10002886019E+04  0.00000000000E+00 0. -1.
<mgrwt>
<rscale>  0 0.20144442E+04</rscale>
<asrwt>0</asrwt>
<pdfrwt beam="1">  1        1 0.11253485E+00 0.20144442E+04</pdfrwt>
<pdfrwt beam="2">  1       -1 0.21337167E+00 0.20144442E+04</pdfrwt>
<totfact> 0.28771036E+00</totfact>
</mgrwt>
</event>
<event>
 6    1  0.2159869E-004  0.2569159E+04  0.7818608E-02  0.8378753E-01
          2   -1    0    0  501    0  0.00000000000E+00  0.00000000000E+00  0.19517562677E+04  0.19517562677E+04  0.00000000000E+00 0.  1.
         -2   -1    0    0    0  501 -0.00000000000E+00 -0.00000000000E+00 -0.84546634467E+03  0.84546634467E+03  0.00000000000E+00 0. -1.
         23    2    1    2    0    0  0.61777768608E+03 -0.29616387595E+03  0.17348330908E+04  0.18674759670E+04  0.91969143603E+02 0.  0.
         11    1    3    3    0    0  0.26426545379E+03 -0.15204983455E+03  0.66470608649E+03  0.73129307645E+03  0.00000000000E+00 0. -1.
        -11    1    3    3    0    0  0.35351223229E+03 -0.14411404140E+03  0.10701270043E+04  0.11361828905E+04  0.00000000000E+00 0.  1.
         22    1    1    2    0    0 -0.61777768608E+03  0.29616387595E+03 -0.62854316780E+03  0.92974664539E+03  0.00000000000E+00 0. -1.
<mgrwt>
<rscale>  0 0.25691588E+04</rscale>
<asrwt>0</asrwt>
<pdfrwt beam="1">  1        2 0.30027019E+00 0.25691588E+04</pdfrwt>
<pdfrwt beam="2">  1       -2 0.13007175E+00 0.25691588E+04</pdfrwt>
<totfact> 0.27335478E+00</totfact>
</mgrwt>
</event>
<event>
 6    1  0.1719556E-004  0.1880943E+04  0.7818608E-02  0.8664401E-01
          2   -1    0    0  501    0  0.00000000000E+00  0.00000000000E+00  0.14404591227E+04  0.14404591227E+04  0.00000000000E+00 0.  1.
         -2   -1    0    0    0  501 -0.00000000000E+00 -0.00000000000E+00 -0.61403105742E+03  0.61403105742E+03  0.00000000000E+00 0. -1.
         23    2    1    2    0    0  0.76976759176E+02  0.93015792828E+03  0.51782010267E+03  0.10714550497E+04  0.93589913161E+02 0.  0.
         13    1    3    3    0    0  0.24735154909E+02  0.18521940625E+03  0.63570120726E+02  0.19738089216E+03  0.00000000000E+00 0. -1.
        -13    1    3    3    0    0  0.52241604267E+02  0.74493852203E+03  0.45424998195E+03  0.87407415756E+03  0.00000000000E+00 0.  1.
         22    1    1    2    0    0 -0.76976759176E+02 -0.93015792828E+03  0.30860796259E+03  0.98303513038E+03  0.00000000000E+00 0. -1.
<mgrwt>
<rscale>  0 0.18809430E+04</rscale>
<asrwt>0</asrwt>
<pdfrwt beam="1">  1        2 0.22160909E+00 0.18809430E+04</pdfrwt>
<pdfrwt beam="2">  1       -2 0.94466317E-01 0.18809430E+04</pdfrwt>
<totfact> 0.12154953E+01</totfact>
</mgrwt>
</event>
<event>
 6    1  0.1719556E-004  0.1228040E+04  0.7818608E-02  0.9088661E-01
          1   -1    0    0  501    0  0.00000000000E+00  0.00000000000E+00  0.16067458491E+04  0.16067458491E+04  0.00000000000E+00 0. -1.
         -1   -1    0    0    0  501 -0.00000000000E+00 -0.00000000000E+00 -0.23464843942E+03  0.23464843942E+03  0.00000000000E+00 0.  1.
         23    2    1    2    0    0 -0.49333457155E+03  0.23247804419E+03  0.11018260163E+04  0.12327304514E+04  0.90436469939E+02 0.  0.
         11    1    3    3    0    0 -0.16372265198E+03  0.52436953641E+02  0.42922006277E+03  0.46236847120E+03  0.00000000000E+00 0.  1.
        -11    1    3    3    0    0 -0.32961191957E+03  0.18004109055E+03  0.67260595356E+03  0.77036198022E+03  0.00000000000E+00 0. -1.
         22    1    1    2    0    0  0.49333457155E+03 -0.23247804419E+03  0.27027139333E+03  0.60866383708E+03  0.00000000000E+00 0.  1.
<mgrwt>
<rscale>  0 0.12280397E+04</rscale>
<asrwt>0</asrwt>
<pdfrwt beam="1">  1        1 0.24719166E+00 0.12280397E+04</pdfrwt>
<pdfrwt beam="2">  1       -1 0.36099761E-01 0.12280397E+04</pdfrwt>
<totfact> 0.40024626E+01</totfact>
</mgrwt>
</event>
<event>
 6    1  0.1719556E-004  0.3046452E+04  0.7818608E-02  0.8230589E-01
          1   -1    0    0  501    0  0.00000000000E+00  0.00000000000E+00  0.23760398129E+04  0.23760398129E+04  0.00000000000E+00 0.  1.
         -1   -1    0    0    0  501 -0.00000000000E+00 -0.00000000000E+00 -0.97650644114E+03  0.97650644114E+03  0.00000000000E+00 0. -1.
         23    2    1    2    0    0  0.35233459408E+03  0.12009054235E+04 -0.25234359942E+03  0.12801054152E+04  0.93161577250E+02 0.  0.
         13    1    3    3    0    0  0.24948072936E+03  0.96023610351E+03 -0.22176295397E+03  0.10165986507E+04  0.00000000000E+00 0.  1.
        -13    1    3    3    0    0  0.10285386472E+03  0.24066932001E+03 -0.30580645448E+02  0.26350676454E+03  0.00000000000E+00 0. -1.
         22    1    1    2    0    0 -0.35233459408E+03 -0.12009054235E+04  0.16518769712E+04  0.20724408388E+04  0.00000000000E+00 0.  1.
<mgrwt>
<rscale>  0 0.30464525E+04</rscale>
<asrwt>0</asrwt>
<pdfrwt beam="1">  1        1 0.36554459E+00 0.30464525E+04</pdfrwt>
<pdfrwt beam="2">  1       -1 0.15023176E+00 0.30464525E+04</pdfrwt>
<totfact> 0.48591172E-01</totfact>
</mgrwt>
</event>
<event>
 6    1  0.1719556E-004  0.5291939E+04  0.7818608E-02  0.7784986E-01
         -2   -1    0    0    0  501 -0.00000000000E+00  0.00000000000E+00  0.25792342075E+04  0.25792342075E+04  0.00000000000E+00 0. -1.
          2   -1    0    0  501    0  0.00000000000E+00 -0.00000000000E+00 -0.27144319477E+04  0.27144319477E+04  0.00000000000E+00 0.  1.
         23    2    1    2    0    0  0.13815887265E+04 -0.22550467104E+04 -0.13020347115E+02  0.26462239196E+04  0.91150577985E+02 0.  0.
         11    1    3    3    0    0  0.13394999051E+04 -0.22111219594E+04 -0.16880173897E+02  0.25852669602E+04  0.00000000000E+00 0.  1.
        -11    1    3    3    0    0  0.42088821442E+02 -0.43924751029E+02  0.38598267815E+01  0.60956959457E+02  0.00000000000E+00 0. -1.
         22    1    1    2    0    0 -0.13815887265E+04  0.22550467104E+04 -0.12217739311E+03  0.26474422356E+04  0.00000000000E+00 0. -1.
<mgrwt>
<rscale>  0 0.52919394E+04</rscale>
<asrwt>0</asrwt>
<pdfrwt beam="1">  1        2 0.41760492E+00 0.52919394E+04</pdfrwt>
<pdfrwt beam="2">  1       -2 0.39680526E+00 0.52919394E+04</pdfrwt>
<totfact> 0.14434316E-02</totfact>
</mgrwt>
</event>
<event>
 6    1  0.1719556E-004  0.1961267E+04  0.7818608E-02  0.8624947E-01
          2   -1    0    0  501    0  0.00000000000E+00  0.00000000000E+00  0.24242459326E+04  0.24242459326E+04  0.00000000000E+00 0.  1.
         -2   -1    0    0    0  501 -0.00000000000E+00 -0.00000000000E+00 -0.39667681458E+03  0.39667681458E+03  0.00000000000E+00 0. -1.
         23    2    1    2    0    0  0.76191967469E+02  0.41314963656E+03  0.22870488740E+04  0.23271337418E+04  0.91984030615E+02 0.  0.
         11    1    3    3    0    0  0.37495318410E+02  0.43570187816E+02  0.25643622207E+03  0.26279991659E+03  0.00000000000E+00 0. -1.
        -11    1    3    3    0    0  0.38696649060E+02  0.36957944875E+03  0.20306126520E+04  0.20643338252E+04  0.00000000000E+00 0.  1.
         22    1    1    2    0    0 -0.76191967469E+02 -0.41314963656E+03 -0.25947975599E+03  0.49378900541E+03  0.00000000000E+00 0. -1.
<mgrwt>
<rscale>  0 0.19612671E+04</rscale>
<asrwt>0</asrwt>
<pdfrwt beam="1">  1        2 0.37296090E+00 0.19612671E+04</pdfrwt>
<pdfrwt beam="2">  1       -2 0.61027204E-01 0.19612671E+04</pdfrwt>
<totfact> 0.89686265E+00</totfact>
</mgrwt>
</event>
<event>
 6    1  0.1719556E-004  0.1093153E+04  0.7818608E-02  0.9211891E-01
          2   -1    0    0  501    0  0.00000000000E+00  0.00000000000E+00  0.17909021821E+04  0.17909021821E+04  0.00000000000E+00 0.  1.
         -2   -1    0    0    0  501 -0.00000000000E+00 -0.00000000000E+00 -0.16681309719E+03  0.16681309719E+03  0.00000000000E+00 0. -1.
         23    2    1    2    0    0 -0.98529689006E+02  0.37814243055E+03  0.14918542529E+04  0.15451794043E+04  0.96179425582E+02 0.  0.
         11    1    3    3    0    0 -0.52114400424E+02  0.22359792432E+03  0.10493146211E+04  0.10741383135E+04  0.00000000000E+00 0.  1.
        -11    1    3    3    0    0 -0.46415288582E+02  0.15454450623E+03  0.44253963189E+03  0.47104109079E+03  0.00000000000E+00 0. -1.
         22    1    1    2    0    0  0.98529689006E+02 -0.37814243055E+03  0.13223483194E+03  0.41253587502E+03  0.00000000000E+00 0. -1.
<mgrwt>
<rscale>  0 0.10931531E+04</rscale>
<asrwt>0</asrwt>
<pdfrwt beam="1">  1        2 0.27552340E+00 0.10931531E+04</pdfrwt>
<pdfrwt beam="2">  1       -2 0.25663555E-01 0.10931531E+04</pdfrwt>
<totfact> 0.11866803E+02</totfact>
</mgrwt>
</event>
<event>
 6    1  0.1719556E-004  0.1956496E+04  0.7818608E-02  0.8627235E-01
          2   -1    0    0  501    0  0.00000000000E+00  0.00000000000E+00  0.52018665551E+03  0.52018665551E+03  0.00000000000E+00 0.  1.
         -2   -1    0    0    0  501 -0.00000000000E+00 -0.00000000000E+00 -0.18396643226E+04  0.18396643226E+04  0.00000000000E+00 0. -1.
         23    2    1    2    0    0 -0.27122080571E+03 -0.90685917193E+03 -0.36665439949E+03  0.10167849103E+04  0.58837250249E+02 0.  0.
         13    1    3    3    0    0 -0.11505850749E+03 -0.34077838263E+03 -0.11192548613E+03  0.37669043080E+03  0.00000000000E+00 0.  1.
        -13    1    3    3    0    0 -0.15616229822E+03 -0.56608078930E+03 -0.25472891336E+03  0.64009447951E+03  0.00000000000E+00 0. -1.
         22    1    1    2    0    0  0.27122080571E+03  0.90685917193E+03 -0.95282326757E+03  0.13430660678E+04  0.00000000000E+00 0. -1.
<mgrwt>
<rscale>  0 0.19564957E+04</rscale>
<asrwt>0</asrwt>
<pdfrwt beam="1">  1        2 0.80028715E-01 0.19564957E+04</pdfrwt>
<pdfrwt beam="2">  1       -2 0.28302528E+00 0.19564957E+04</pdfrwt>
<totfact> 0.22138305E+00</totfact>
</mgrwt>
</event>
<event>
 6    1  0.1719556E-004  0.1500541E+04  0.7818608E-02  0.8884093E-01
          1   -1    0    0  501    0  0.00000000000E+00  0.00000000000E+00  0.12040454130E+04  0.12040454130E+04  0.00000000000E+00 0.  1.
         -1   -1    0    0    0  501 -0.00000000000E+00 -0.00000000000E+00 -0.46751239872E+03  0.46751239872E+03  0.00000000000E+00 0. -1.
         23    2    1    2    0    0  0.29174024363E+03  0.51373288900E+03  0.87960185872E+03  0.10636906015E+04  0.93297454165E+02 0.  0.
         13    1    3    3    0    0  0.17773550818E+02  0.94135021920E+02  0.11764605345E+03  0.15171649664E+03  0.00000000000E+00 0. -1.
        -13    1    3    3    0    0  0.27396669281E+03  0.41959786708E+03  0.76195580527E+03  0.91197410490E+03  0.00000000000E+00 0.  1.
         22    1    1    2    0    0 -0.29174024363E+03 -0.51373288900E+03 -0.14306884442E+03  0.60786721020E+03  0.00000000000E+00 0.  1.
<mgrwt>
<rscale>  0 0.15005414E+04</rscale>
<asrwt>0</asrwt>
<pdfrwt beam="1">  1        1 0.18523776E+00 0.15005414E+04</pdfrwt>
<pdfrwt beam="2">  1       -1 0.71924985E-01 0.15005414E+04</pdfrwt>
<totfact> 0.20028783E+01</totfact>
</mgrwt>
</event>
<event>
 6    1  0.1719556E-004  0.1183015E+04  0.7818608E-02  0.9127855E-01
         -2   -1    0    0    0  501 -0.00000000000E+00  0.00000000000E+00  0.19953938405E+03  0.19953938405E+03  0.00000000000E+00 0. -1.
          2   -1    0    0  501    0  0.00000000000E+00 -0.00000000000E+00 -0.17534432186E+04  0.17534432186E+04  0.00000000000E+00 0.  1.
         23    2    1    2    0    0  0.30533613718E+03 -0.14153428711E+03  0.14797224610E+02  0.34858703918E+03  0.89620616661E+02 0.  0.
         11    1    3    3    0    0  0.37825868680E+02 -0.24541011286E+02  0.33259927511E+02  0.56029281223E+02  0.00000000000E+00 0. -1.
        -11    1    3    3    0    0  0.26751026850E+03 -0.11699327582E+03 -0.18462702901E+02  0.29255775795E+03  0.00000000000E+00 0.  1.
         22    1    1    2    0    0 -0.30533613718E+03  0.14153428711E+03 -0.15687010592E+04  0.16043955635E+04  0.00000000000E+00 0.  1.
<mgrwt>
<rscale>  0 0.11830148E+04</rscale>
<asrwt>0</asrwt>
<pdfrwt beam="1">  1        2 0.26976049E+00 0.11830148E+04</pdfrwt>
<pdfrwt beam="2">  1       -2 0.30698368E-01 0.11830148E+04</pdfrwt>
<totfact> 0.88863271E+01</totfact>
</mgrwt>
</event>
<event>
 6    1  0.1719556E-004  0.1485145E+04  0.7818608E-02  0.8894392E-01
          2   -1    0    0  501    0  0.00000000000E+00  0.00000000000E+00  0.30397889483E+04  0.30397889483E+04  0.00000000000E+00 0.  1.
         -2   -1    0    0    0  501 -0.00000000000E+00 -0.00000000000E+00 -0.18139872535E+03  0.18139872535E+03  0.00000000000E+00 0. -1.
         23    2    1    2    0    0 -0.41624903009E+03 -0.54852210435E+03  0.84761429340E+03  0.10957795733E+04  0.90239287313E+02 0.  0.
         13    1    3    3    0    0 -0.21869070930E+03 -0.26861913894E+03  0.49480037216E+03  0.60399443411E+03  0.00000000000E+00 0. -1.
        -13    1    3    3    0    0 -0.19755832079E+03 -0.27990296540E+03  0.35281392124E+03  0.49178513924E+03  0.00000000000E+00 0.  1.
         22    1    1    2    0    0  0.41624903009E+03  0.54852210435E+03  0.20107759295E+04  0.21254081003E+04  0.00000000000E+00 0.  1.
<mgrwt>
<rscale>  0 0.14851449E+04</rscale>
<asrwt>0</asrwt>
<pdfrwt beam="1">  1        2 0.46765980E+00 0.14851449E+04</pdfrwt>
<pdfrwt beam="2">  1       -2 0.27907498E-01 0.14851449E+04</pdfrwt>
<totfact> 0.18796199E+01</totfact>
</mgrwt>
</event>
<event>
 6    1  0.1719556E-004  0.1724859E+04  0.7818608E-02  0.8747312E-01
          2   -1    0    0  501    0  0.00000000000E+00  0.00000000000E+00  0.23656334077E+04  0.23656334077E+04  0.00000000000E+00 0.  1.
         -2   -1    0    0    0  501 -0.00000000000E+00 -0.00000000000E+00 -0.31441254529E+03  0.31441254529E+03  0.00000000000E+00 0. -1.
         23    2    1    2    0    0  0.57828668511E+03  0.62937700895E+03  0.11599713431E+04  0.14451951056E+04  0.11191276461E+03 0.  0.
         13    1    3    3    0    0  0.34845781676E+03  0.30771211341E+03  0.67314549549E+03  0.81806751121E+03  0.00000000000E+00 0. -1.
        -13    1    3    3    0    0  0.22982886834E+03  0.32166489554E+03  0.48682584764E+03  0.62712759442E+03  0.00000000000E+00 0.  1.
         22    1    1    2    0    0 -0.57828668511E+03 -0.62937700895E+03  0.89124951923E+03  0.12348508473E+04  0.00000000000E+00 0. -1.
<mgrwt>
<rscale>  0 0.17248592E+04</rscale>
<asrwt>0</asrwt>
<pdfrwt beam="1">  1        2 0.36394359E+00 0.17248592E+04</pdfrwt>
<pdfrwt beam="2">  1       -2 0.48371162E-01 0.17248592E+04</pdfrwt>
<totfact> 0.16008308E+01</totfact>
</mgrwt>
</event>
<event>
 6    1  0.1719556E-004  0.3315439E+04  0.7818608E-02  0.8158978E-01
         -2   -1    0    0    0  501 -0.00000000000E+00  0.00000000000E+00  0.17111213083E+04  0.17111213083E+04  0.00000000000E+00 0. -1.
          2   -1    0    0  501    0  0.00000000000E+00 -0.00000000000E+00 -0.16059840819E+04  0.16059840819E+04  0.00000000000E+00 0.  1.
         23    2    1    2    0    0  0.56906877306E+03 -0.14842901641E+04  0.51880622980E+03  0.16745224839E+04  0.88933038807E+02 0.  0.
         13    1    3    3    0    0  0.25843986682E+02 -0.95843933686E+02  0.52943207480E+02  0.11250313102E+03  0.00000000000E+00 0. -1.
        -13    1    3    3    0    0  0.54322478638E+03 -0.13884462304E+04  0.46586302232E+03  0.15620193529E+04  0.00000000000E+00 0.  1.
         22    1    1    2    0    0 -0.56906877306E+03  0.14842901641E+04 -0.41366900343E+03  0.16425829063E+04  0.00000000000E+00 0.  1.
<mgrwt>
<rscale>  0 0.33154388E+04</rscale>
<asrwt>0</asrwt>
<pdfrwt beam="1">  1        2 0.24707448E+00 0.33154388E+04</pdfrwt>
<pdfrwt beam="2">  1       -2 0.26324943E+00 0.33154388E+04</pdfrwt>
<totfact> 0.49198876E-01</totfact>
</mgrwt>
</event>
<event>
 6    1  0.1719556E-004  0.1584089E+04  0.7818608E-02  0.8830383E-01
          2   -1    0    0  501    0  0.00000000000E+00  0.00000000000E+00  0.20536688512E+04  0.20536688512E+04  0.00000000000E+00 0.  1.
         -2   -1    0    0    0  501 -0.00000000000E+00 -0.00000000000E+00 -0.30547003268E+03  0.30547003268E+03  0.00000000000E+00 0. -1.
         23    2    1    2    0    0  0.70476117914E+03 -0.21818562018E+03  0.12951432467E+04  0.14933718046E+04  0.92032780720E+02 0.  0.
         11    1    3    3    0    0  0.22251227252E+03 -0.36857789661E+02  0.45500719083E+03  0.50784028177E+03  0.00000000000E+00 0. -1.
        -11    1    3    3    0    0  0.48224890662E+03 -0.18132783052E+03  0.84013605592E+03  0.98553152284E+03  0.00000000000E+00 0.  1.
         22    1    1    2    0    0 -0.70476117914E+03  0.21818562018E+03  0.45305557181E+03  0.86576707931E+03  0.00000000000E+00 0. -1.
<mgrwt>
<rscale>  0 0.15840887E+04</rscale>
<asrwt>0</asrwt>
<pdfrwt beam="1">  1        2 0.31594905E+00 0.15840887E+04</pdfrwt>
<pdfrwt beam="2">  1       -2 0.46995391E-01 0.15840887E+04</pdfrwt>
<totfact> 0.25708257E+01</totfact>
</mgrwt>
</event>
<event>
 6    1  0.1719556E-004  0.1956286E+04  0.7818608E-02  0.8627336E-01
          2   -1    0    0  501    0  0.00000000000E+00  0.00000000000E+00  0.84406742476E+03  0.84406742476E+03  0.00000000000E+00 0.  1.
         -2   -1    0    0    0  501 -0.00000000000E+00 -0.00000000000E+00 -0.11335156328E+04  0.11335156328E+04  0.00000000000E+00 0. -1.
         23    2    1    2    0    0 -0.74284477692E+03  0.60687481946E+03  0.37126801334E+02  0.96428811240E+03  0.91420759416E+02 0.  0.
         11    1    3    3    0    0 -0.22180686444E+03  0.23522713726E+03  0.23042069416E+02  0.32413118977E+03  0.00000000000E+00 0. -1.
        -11    1    3    3    0    0 -0.52103791248E+03  0.37164768220E+03  0.14084731918E+02  0.64015692263E+03  0.00000000000E+00 0.  1.
         22    1    1    2    0    0  0.74284477692E+03 -0.60687481946E+03 -0.32657500934E+03  0.10132949451E+04  0.00000000000E+00 0.  1.
<mgrwt>
<rscale>  0 0.19562859E+04</rscale>
<asrwt>0</asrwt>
<pdfrwt beam="1">  1        2 0.12985653E+00 0.19562859E+04</pdfrwt>
<pdfrwt beam="2">  1       -2 0.17438702E+00 0.19562859E+04</pdfrwt>
<totfact> 0.59259467E+00</totfact>
</mgrwt>
</event>
<event>
 6    1  0.1719556E-004  0.2611669E+04  0.7818608E-02  0.8364248E-01
          1   -1    0    0  501    0  0.00000000000E+00  0.00000000000E+00  0.27911070627E+04  0.27911070627E+04  0.00000000000E+00 0.  1.
         -1   -1    0    0    0  501 -0.00000000000E+00 -0.00000000000E+00 -0.61094179784E+03  0.61094179784E+03  0.00000000000E+00 0. -1.
         23    2    1    2    0    0  0.53555433609E+02 -0.77607431724E+03  0.24550763975E+04  0.25769817959E+04  0.90969931299E+02 0.  0.
         13    1    3    3    0    0  0.35518050744E+01 -0.25453368885E+03  0.67512906105E+03  0.72152564968E+03  0.00000000000E+00 0. -1.
        -13    1    3    3    0    0  0.50003628534E+02 -0.52154062839E+03  0.17799473364E+04  0.18554561462E+04  0.00000000000E+00 0.  1.
         22    1    1    2    0    0 -0.53555433609E+02  0.77607431724E+03 -0.27491113263E+03  0.82506706466E+03  0.00000000000E+00 0. -1.
<mgrwt>
<rscale>  0 0.26116692E+04</rscale>
<asrwt>0</asrwt>
<pdfrwt beam="1">  1        1 0.42940108E+00 0.26116692E+04</pdfrwt>
<pdfrwt beam="2">  1       -1 0.93991047E-01 0.26116692E+04</pdfrwt>
<totfact> 0.81571118E-01</totfact>
</mgrwt>
</event>
<event>
 6    1  0.1719556E-004  0.1495715E+04  0.7818608E-02  0.8887307E-01
         -2   -1    0    0    0  501 -0.00000000000E+00  0.00000000000E+00  0.31859451820E+03  0.31859451820E+03  0.00000000000E+00 0. -1.
          2   -1    0    0  501    0  0.00000000000E+00 -0.00000000000E+00 -0.17554951893E+04  0.17554951893E+04  0.00000000000E+00 0.  1.
         23    2    1    2    0    0  0.24229776048E+03 -0.49276773815E+03 -0.22591103696E+02  0.55692135792E+03  0.90126535721E+02 0.  0.
         11    1    3    3    0    0  0.11025298693E+03 -0.18333196780E+03  0.31274949138E+02  0.21620465765E+03  0.00000000000E+00 0. -1.
        -11    1    3    3    0    0  0.13204477354E+03 -0.30943577035E+03 -0.53866052835E+02  0.34071670026E+03  0.00000000000E+00 0.  1.
         22    1    1    2    0    0 -0.24229776048E+03  0.49276773815E+03 -0.14143095674E+04  0.15171683495E+04  0.00000000000E+00 0.  1.
<mgrwt>
<rscale>  0 0.14957154E+04</rscale>
<asrwt>0</asrwt>
<pdfrwt beam="1">  1        2 0.27007618E+00 0.14957154E+04</pdfrwt>
<pdfrwt beam="2">  1       -2 0.49014543E-01 0.14957154E+04</pdfrwt>
<totfact> 0.34789499E+01</totfact>
</mgrwt>
</event>
<event>
 6    1  0.1719556E-004  0.3028644E+04  0.7818608E-02  0.8235598E-01
         -2   -1    0    0    0  501 -0.00000000000E+00  0.00000000000E+00  0.68871773031E+03  0.68871773031E+03  0.00000000000E+00 0. -1.
          2   -1    0    0  501    0  0.00000000000E+00 -0.00000000000E+00 -0.33296249578E+04  0.33296249578E+04  0.00000000000E+00 0.  1.
         23    2    1    2    0    0  0.56095992533E+03  0.62517337304E+03 -0.29912494115E+04  0.31082561921E+04  0.90364426846E+02 0.  0.
         11    1    3    3    0    0  0.32793382838E+03  0.29795507930E+03 -0.15754789674E+04  0.16365976298E+04  0.00000000000E+00 0. -1.
        -11    1    3    3    0    0  0.23302609695E+03  0.32721829374E+03 -0.14157704441E+04  0.14716585623E+04  0.00000000000E+00 0.  1.
         22    1    1    2    0    0 -0.56095992533E+03 -0.62517337304E+03  0.35034218407E+03  0.91008649596E+03  0.00000000000E+00 0. -1.
<mgrwt>
<rscale>  0 0.30286444E+04</rscale>
<asrwt>0</asrwt>
<pdfrwt beam="1">  1        2 0.51224998E+00 0.30286444E+04</pdfrwt>
<pdfrwt beam="2">  1       -2 0.10595658E+00 0.30286444E+04</pdfrwt>
<totfact> 0.65305106E-01</totfact>
</mgrwt>
</event>
<event>
 6    1  0.1719556E-004  0.5493304E+04  0.7818608E-02  0.7756611E-01
          2   -1    0    0  501    0  0.00000000000E+00  0.00000000000E+00  0.45221989390E+04  0.45221989390E+04  0.00000000000E+00 0.  1.
         -2   -1    0    0    0  501 -0.00000000000E+00 -0.00000000000E+00 -0.16682363581E+04  0.16682363581E+04  0.00000000000E+00 0. -1.
         23    2    1    2    0    0 -0.11324151945E+04 -0.38667786730E+03 -0.13577297517E+04  0.18120524622E+04  0.90664773523E+02 0.  0.
         13    1    3    3    0    0 -0.34677548223E+03 -0.99858803793E+02 -0.46748833160E+03  0.59056782503E+03  0.00000000000E+00 0. -1.
        -13    1    3    3    0    0 -0.78563971228E+03 -0.28681906350E+03 -0.89024142009E+03  0.12214846371E+04  0.00000000000E+00 0.  1.
         22    1    1    2    0    0  0.11324151945E+04  0.38667786730E+03  0.42116923326E+04  0.43783828350E+04  0.00000000000E+00 0.  1.
<mgrwt>
<rscale>  0 0.54933038E+04</rscale>
<asrwt>0</asrwt>
<pdfrwt beam="1">  1        2 0.69572291E+00 0.54933038E+04</pdfrwt>
<pdfrwt beam="2">  1       -2 0.25665175E+00 0.54933038E+04</pdfrwt>
<totfact> 0.47400447E-03</totfact>
</mgrwt>
</event>
<event>
 6    1  0.1719556E-004  0.2472868E+04  0.7818608E-02  0.8412716E-01
          2   -1    0    0  501    0  0.00000000000E+00  0.00000000000E+00  0.19801675515E+04  0.19801675515E+04  0.00000000000E+00 0.  1.
         -2   -1    0    0    0  501 -0.00000000000E+00 -0.00000000000E+00 -0.77204025053E+03  0.77204025053E+03  0.00000000000E+00 0. -1.
         23    2    1    2    0    0 -0.54241567873E+03  0.47356732781E+03 -0.51146823125E+03  0.88794130367E+03  0.91428795655E+02 0.  0.
         13    1    3    3    0    0 -0.63348114932E+02  0.80491919474E+02 -0.10590954295E+03  0.14733894276E+03  0.00000000000E+00 0. -1.
        -13    1    3    3    0    0 -0.47906756380E+03  0.39307540834E+03 -0.40555868831E+03  0.74060236091E+03  0.00000000000E+00 0.  1.
         22    1    1    2    0    0  0.54241567873E+03 -0.47356732781E+03  0.17195955322E+04  0.18642664983E+04  0.00000000000E+00 0.  1.
<mgrwt>
<rscale>  0 0.24728680E+04</rscale>
<asrwt>0</asrwt>
<pdfrwt beam="1">  1        2 0.30464116E+00 0.24728680E+04</pdfrwt>
<pdfrwt beam="2">  1       -2 0.11877542E+00 0.24728680E+04</pdfrwt>
<totfact> 0.33368329E+00</totfact>
</mgrwt>
</event>
<event>
 6    1  0.1719556E-004  0.1942775E+04  0.7818608E-02  0.8633853E-01
         -2   -1    0    0    0  501 -0.00000000000E+00  0.00000000000E+00  0.57386025407E+03  0.57386025407E+03  0.00000000000E+00 0. -1.
          2   -1    0    0  501    0  0.00000000000E+00 -0.00000000000E+00 -0.16442920730E+04  0.16442920730E+04  0.00000000000E+00 0.  1.
         23    2    1    2    0    0 -0.53625243859E+02  0.91198295508E+03 -0.90590328754E+03  0.12898968586E+04  0.92652912611E+02 0.  0.
         11    1    3    3    0    0 -0.76962064398E+02  0.57954679548E+03 -0.55964036158E+03  0.80931760256E+03  0.00000000000E+00 0. -1.
        -11    1    3    3    0    0  0.23336820539E+02  0.33243615960E+03 -0.34626292596E+03  0.48057925600E+03  0.00000000000E+00 0.  1.
         22    1    1    2    0    0  0.53625243859E+02 -0.91198295508E+03 -0.16452853135E+03  0.92825546848E+03  0.00000000000E+00 0. -1.
<mgrwt>
<rscale>  0 0.19427752E+04</rscale>
<asrwt>0</asrwt>
<pdfrwt beam="1">  1        2 0.25296801E+00 0.19427752E+04</pdfrwt>
<pdfrwt beam="2">  1       -2 0.88286195E-01 0.19427752E+04</pdfrwt>
<totfact> 0.10861047E+01</totfact>
</mgrwt>
</event>
<event>
 6    1  0.1719556E-004  0.1329783E+04  0.7818608E-02  0.9006275E-01
          1   -1    0    0  501    0  0.00000000000E+00  0.00000000000E+00  0.13567395784E+04  0.13567395784E+04  0.00000000000E+00 0. -1.
         -1   -1    0    0    0  501 -0.00000000000E+00 -0.00000000000E+00 -0.32584051826E+03  0.32584051826E+03  0.00000000000E+00 0.  1.
         23    2    1    2    0    0 -0.15181278721E+03 -0.63582360070E+03  0.64839356378E+03  0.92519695168E+03  0.90864802130E+02 0.  0.
         13    1    3    3    0    0  0.28880969487E+01 -0.10969845386E+03  0.13516022137E+03  0.17409875739E+03  0.00000000000E+00 0. -1.
        -13    1    3    3    0    0 -0.15470088416E+03 -0.52612514684E+03  0.51323334241E+03  0.75109819428E+03  0.00000000000E+00 0.  1.
         22    1    1    2    0    0  0.15181278721E+03  0.63582360070E+03  0.38250549640E+03  0.75738314501E+03  0.00000000000E+00 0.  1.
<mgrwt>
<rscale>  0 0.13297830E+04</rscale>
<asrwt>0</asrwt>
<pdfrwt beam="1">  1        1 0.20872916E+00 0.13297830E+04</pdfrwt>
<pdfrwt beam="2">  1       -1 0.50129311E-01 0.13297830E+04</pdfrwt>
<totfact> 0.32267981E+01</totfact>
</mgrwt>
</event>
<event>
 6    1  0.1719556E-004  0.2228704E+04  0.7818608E-02  0.8506575E-01
         -1   -1    0    0    0  501 -0.00000000000E+00  0.00000000000E+00  0.85020983977E+03  0.85020983977E+03  0.00000000000E+00 0. -1.
          1   -1    0    0  501    0  0.00000000000E+00 -0.00000000000E+00 -0.14605575531E+04  0.14605575531E+04  0.00000000000E+00 0.  1.
         23    2    1    2    0    0  0.88311604362E+03 -0.63809012690E+03 -0.72729328073E+02  0.10958243964E+04  0.92133576631E+02 0.  0.
         11    1    3    3    0    0  0.66608607242E+03 -0.52802040389E+03 -0.51161940608E+02  0.85152436663E+03  0.00000000000E+00 0.  1.
        -11    1    3    3    0    0  0.21702997121E+03 -0.11006972301E+03 -0.21567387466E+02  0.24430002973E+03  0.00000000000E+00 0. -1.
         22    1    1    2    0    0 -0.88311604362E+03  0.63809012690E+03 -0.53761838522E+03  0.12149429965E+04  0.00000000000E+00 0. -1.
<mgrwt>
<rscale>  0 0.22287040E+04</rscale>
<asrwt>0</asrwt>
<pdfrwt beam="1">  1        1 0.22470116E+00 0.22287040E+04</pdfrwt>
<pdfrwt beam="2">  1       -1 0.13080151E+00 0.22287040E+04</pdfrwt>
<totfact> 0.31643453E+00</totfact>
</mgrwt>
</event>
<event>
 6    1  0.1719556E-004  0.1848006E+04  0.7818608E-02  0.8681179E-01
         -1   -1    0    0    0  501 -0.00000000000E+00  0.00000000000E+00  0.38171573724E+03  0.38171573724E+03  0.00000000000E+00 0. -1.
          1   -1    0    0  501    0  0.00000000000E+00 -0.00000000000E+00 -0.22366957461E+04  0.22366957461E+04  0.00000000000E+00 0.  1.
         23    2    1    2    0    0 -0.18011236153E+03 -0.39441694678E+03  0.22293968713E+03  0.49573499983E+03  0.89698914597E+02 0.  0.
         11    1    3    3    0    0 -0.16834777045E+03 -0.30676419855E+03  0.14846175510E+03  0.38011332265E+03  0.00000000000E+00 0. -1.
        -11    1    3    3    0    0 -0.11764591077E+02 -0.87652748226E+02  0.74477932031E+02  0.11562167718E+03  0.00000000000E+00 0.  1.
         22    1    1    2    0    0  0.18011236153E+03  0.39441694678E+03 -0.20779196960E+04  0.21226764835E+04  0.00000000000E+00 0.  1.
<mgrwt>
<rscale>  0 0.18480065E+04</rscale>
<asrwt>0</asrwt>
<pdfrwt beam="1">  1        1 0.34410704E+00 0.18480065E+04</pdfrwt>
<pdfrwt beam="2">  1       -1 0.58725498E-01 0.18480065E+04</pdfrwt>
<totfact> 0.56810503E+00</totfact>
</mgrwt>
</event>
<event>
 6    1  0.1719556E-004  0.2884596E+04  0.7818608E-02  0.8277475E-01
          2   -1    0    0  501    0  0.00000000000E+00  0.00000000000E+00  0.22342792097E+04  0.22342792097E+04  0.00000000000E+00 0.  1.
         -2   -1    0    0    0  501 -0.00000000000E+00 -0.00000000000E+00 -0.93104906963E+03  0.93104906963E+03  0.00000000000E+00 0. -1.
         23    2    1    2    0    0  0.77875504822E+03 -0.78890436233E+03  0.16622800692E+04  0.20001045371E+04  0.91725748302E+02 0.  0.
         13    1    3    3    0    0  0.44511606329E+03 -0.43303647640E+03  0.85165759420E+03  0.10540254065E+04  0.00000000000E+00 0. -1.
        -13    1    3    3    0    0  0.33363898493E+03 -0.35586788593E+03  0.81062247497E+03  0.94607913064E+03  0.00000000000E+00 0.  1.
         22    1    1    2    0    0 -0.77875504822E+03  0.78890436233E+03 -0.35904992906E+03  0.11652237423E+04  0.00000000000E+00 0. -1.
<mgrwt>
<rscale>  0 0.28845960E+04</rscale>
<asrwt>0</asrwt>
<pdfrwt beam="1">  1        2 0.34373526E+00 0.28845960E+04</pdfrwt>
<pdfrwt beam="2">  1       -2 0.14323832E+00 0.28845960E+04</pdfrwt>
<totfact> 0.14440583E+00</totfact>
</mgrwt>
</event>
<event>
 6    1  0.1719556E-004  0.2281241E+04  0.7818608E-02  0.8485355E-01
          2   -1    0    0  501    0  0.00000000000E+00  0.00000000000E+00  0.12436829361E+04  0.12436829361E+04  0.00000000000E+00 0.  1.
         -2   -1    0    0    0  501 -0.00000000000E+00 -0.00000000000E+00 -0.10460984283E+04  0.10460984283E+04  0.00000000000E+00 0. -1.
         23    2    1    2    0    0 -0.37235150659E+03  0.99814595095E+03  0.50292526543E+03  0.11815512610E+04  0.90490750343E+02 0.  0.
         13    1    3    3    0    0 -0.50487313470E+02  0.20319449041E+03  0.69450214425E+02  0.22059080226E+03  0.00000000000E+00 0. -1.
        -13    1    3    3    0    0 -0.32186419312E+03  0.79495146054E+03  0.43347505100E+03  0.96096045874E+03  0.00000000000E+00 0.  1.
         22    1    1    2    0    0  0.37235150659E+03 -0.99814595095E+03 -0.30534075757E+03  0.11082301034E+04  0.00000000000E+00 0. -1.
<mgrwt>
<rscale>  0 0.22812407E+04</rscale>
<asrwt>0</asrwt>
<pdfrwt beam="1">  1        2 0.19133583E+00 0.22812407E+04</pdfrwt>
<pdfrwt beam="2">  1       -2 0.16093822E+00 0.22812407E+04</pdfrwt>
<totfact> 0.40161707E+00</totfact>
</mgrwt>
</event>
<event>
 6    1  0.1719556E-004  0.4106782E+04  0.7818608E-02  0.7983345E-01
         -2   -1    0    0    0  501 -0.00000000000E+00  0.00000000000E+00  0.21205960472E+04  0.21205960472E+04  0.00000000000E+00 0. -1.
          2   -1    0    0  501    0  0.00000000000E+00 -0.00000000000E+00 -0.19883157069E+04  0.19883157069E+04  0.00000000000E+00 0.  1.
         23    2    1    2    0    0  0.18327938944E+04 -0.17689674761E+03  0.97327807139E+03  0.20846333389E+04  0.89442912159E+02 0.  0.
         13    1    3    3    0    0  0.79494636435E+03 -0.41566179417E+02  0.38979160222E+03  0.88634359174E+03  0.00000000000E+00 0. -1.
        -13    1    3    3    0    0  0.10378475301E+04 -0.13533056819E+03  0.58348646917E+03  0.11982897471E+04  0.00000000000E+00 0.  1.
         22    1    1    2    0    0 -0.18327938944E+04  0.17689674761E+03 -0.84099773104E+03  0.20242784152E+04  0.00000000000E+00 0. -1.
<mgrwt>
<rscale>  0 0.41067819E+04</rscale>
<asrwt>0</asrwt>
<pdfrwt beam="1">  1        2 0.30589472E+00 0.41067819E+04</pdfrwt>
<pdfrwt beam="2">  1       -2 0.32624555E+00 0.41067819E+04</pdfrwt>
<totfact> 0.11617758E-01</totfact>
</mgrwt>
</event>
<event>
 6    1  0.1719556E-004  0.1434676E+04  0.7818608E-02  0.8929094E-01
          1   -1    0    0  501    0  0.00000000000E+00  0.00000000000E+00  0.10126172175E+04  0.10126172175E+04  0.00000000000E+00 0.  1.
         -1   -1    0    0    0  501 -0.00000000000E+00 -0.00000000000E+00 -0.50816246408E+03  0.50816246408E+03  0.00000000000E+00 0. -1.
         23    2    1    2    0    0 -0.48225913457E+03 -0.33764416921E+03 -0.17560878238E+03  0.62129990383E+03  0.92723611722E+02 0.  0.
         13    1    3    3    0    0 -0.15450972928E+03 -0.14767746835E+03 -0.95502792263E+02  0.23409971045E+03  0.00000000000E+00 0.  1.
        -13    1    3    3    0    0 -0.32774940529E+03 -0.18996670086E+03 -0.80105990116E+02  0.38720019338E+03  0.00000000000E+00 0. -1.
         22    1    1    2    0    0  0.48225913457E+03  0.33764416921E+03  0.68006353583E+03  0.89947977778E+03  0.00000000000E+00 0.  1.
<mgrwt>
<rscale>  0 0.14346764E+04</rscale>
<asrwt>0</asrwt>
<pdfrwt beam="1">  1        1 0.15578726E+00 0.14346764E+04</pdfrwt>
<pdfrwt beam="2">  1       -1 0.78178841E-01 0.14346764E+04</pdfrwt>
<totfact> 0.23567750E+01</totfact>
</mgrwt>
</event>
<event>
 6    1  0.1719556E-004  0.3052426E+04  0.7818608E-02  0.8228917E-01
         -2   -1    0    0    0  501 -0.00000000000E+00  0.00000000000E+00  0.11886307367E+04  0.11886307367E+04  0.00000000000E+00 0. -1.
          2   -1    0    0  501    0  0.00000000000E+00 -0.00000000000E+00 -0.19596716064E+04  0.19596716064E+04  0.00000000000E+00 0.  1.
         23    2    1    2    0    0 -0.16565542352E+03 -0.11624315062E+03 -0.19446864027E+04  0.19573371772E+04  0.91702948023E+02 0.  0.
         13    1    3    3    0    0 -0.64092197021E+02 -0.72699080438E+01 -0.36620724891E+03  0.37184460523E+03  0.00000000000E+00 0. -1.
        -13    1    3    3    0    0 -0.10156322650E+03 -0.10897324258E+03 -0.15784791538E+04  0.15854925719E+04  0.00000000000E+00 0.  1.
         22    1    1    2    0    0  0.16565542352E+03  0.11624315062E+03  0.11736455330E+04  0.11909651659E+04  0.00000000000E+00 0. -1.
<mgrwt>
<rscale>  0 0.30524259E+04</rscale>
<asrwt>0</asrwt>
<pdfrwt beam="1">  1        2 0.30148794E+00 0.30524259E+04</pdfrwt>
<pdfrwt beam="2">  1       -2 0.18286627E+00 0.30524259E+04</pdfrwt>
<totfact> 0.10391354E+00</totfact>
</mgrwt>
</event>
<event>
 6    1  0.1719556E-004  0.3289325E+04  0.7818608E-02  0.8165617E-01
          1   -1    0    0  501    0  0.00000000000E+00  0.00000000000E+00  0.16121122911E+04  0.16121122911E+04  0.00000000000E+00 0.  1.
         -1   -1    0    0    0  501 -0.00000000000E+00 -0.00000000000E+00 -0.16778702957E+04  0.16778702957E+04  0.00000000000E+00 0. -1.
         23    2    1    2    0    0  0.91436911829E+03  0.43192312232E+03 -0.13285029244E+04  0.16722207995E+04  0.93669173984E+02 0.  0.
         13    1    3    3    0    0  0.52130804989E+03  0.20027281413E+03 -0.76569014685E+03  0.94770917688E+03  0.00000000000E+00 0. -1.
        -13    1    3    3    0    0  0.39306106840E+03  0.23165030819E+03 -0.56281277753E+03  0.72451162263E+03  0.00000000000E+00 0.  1.
         22    1    1    2    0    0 -0.91436911829E+03 -0.43192312232E+03  0.12627449197E+04  0.16177617873E+04  0.00000000000E+00 0.  1.
<mgrwt>
<rscale>  0 0.32893254E+04</rscale>
<asrwt>0</asrwt>
<pdfrwt beam="1">  1        1 0.24801728E+00 0.32893254E+04</pdfrwt>
<pdfrwt beam="2">  1       -1 0.25813389E+00 0.32893254E+04</pdfrwt>
<totfact> 0.28047338E-01</totfact>
</mgrwt>
</event>
<event>
 6    1  0.1719556E-004  0.4370890E+04  0.7818608E-02  0.7933638E-01
         -1   -1    0    0    0  501 -0.00000000000E+00  0.00000000000E+00  0.13912307047E+04  0.13912307047E+04  0.00000000000E+00 0. -1.
          1   -1    0    0  501    0  0.00000000000E+00 -0.00000000000E+00 -0.34330534535E+04  0.34330534535E+04  0.00000000000E+00 0.  1.
         23    2    1    2    0    0  0.47338416715E+03 -0.26265195426E+03 -0.33572765822E+04  0.34017872666E+04  0.88158602626E+02 0.  0.
         13    1    3    3    0    0  0.37863238115E+03 -0.22511770834E+03 -0.29020985127E+04  0.29353392036E+04  0.00000000000E+00 0.  1.
        -13    1    3    3    0    0  0.94751785994E+02 -0.37534245921E+02 -0.45517806952E+03  0.46644806307E+03  0.00000000000E+00 0. -1.
         22    1    1    2    0    0 -0.47338416715E+03  0.26265195426E+03  0.13154538334E+04  0.14224968916E+04  0.00000000000E+00 0. -1.
<mgrwt>
<rscale>  0 0.43708898E+04</rscale>
<asrwt>0</asrwt>
<pdfrwt beam="1">  1        1 0.52816206E+00 0.43708898E+04</pdfrwt>
<pdfrwt beam="2">  1       -1 0.21403550E+00 0.43708898E+04</pdfrwt>
<totfact> 0.25817856E-02</totfact>
</mgrwt>
</event>
<event>
 6    1  0.1719556E-004  0.1965053E+04  0.7818608E-02  0.8623136E-01
         -2   -1    0    0    0  501 -0.00000000000E+00  0.00000000000E+00  0.12748744535E+04  0.12748744535E+04  0.00000000000E+00 0. -1.
          2   -1    0    0  501    0  0.00000000000E+00 -0.00000000000E+00 -0.75721852339E+03  0.75721852339E+03  0.00000000000E+00 0.  1.
         23    2    1    2    0    0  0.27291001101E+03 -0.59118896108E+03  0.10171481269E+04  0.12114367050E+04  0.94891075769E+02 0.  0.
         11    1    3    3    0    0  0.20862211080E+03 -0.44044954848E+03  0.68046817921E+03  0.83699219398E+03  0.00000000000E+00 0.  1.
        -11    1    3    3    0    0  0.64287900210E+02 -0.15073941260E+03  0.33667994772E+03  0.37444451101E+03  0.00000000000E+00 0. -1.
         22    1    1    2    0    0 -0.27291001101E+03  0.59118896108E+03 -0.49949219686E+03  0.82065627186E+03  0.00000000000E+00 0.  1.
<mgrwt>
<rscale>  0 0.19650532E+04</rscale>
<asrwt>0</asrwt>
<pdfrwt beam="1">  1        2 0.11649516E+00 0.19650532E+04</pdfrwt>
<pdfrwt beam="2">  1       -2 0.19613453E+00 0.19650532E+04</pdfrwt>
<totfact> 0.48640594E+00</totfact>
</mgrwt>
</event>
<event>
 6    1  0.1719556E-004  0.2567042E+04  0.7818608E-02  0.8379483E-01
         -2   -1    0    0    0  501 -0.00000000000E+00  0.00000000000E+00  0.63708384139E+03  0.63708384139E+03  0.00000000000E+00 0. -1.
          2   -1    0    0  501    0  0.00000000000E+00 -0.00000000000E+00 -0.25858864900E+04  0.25858864900E+04  0.00000000000E+00 0.  1.
         23    2    1    2    0    0  0.36859165689E+03  0.58879361199E+03 -0.23282652489E+04  0.24314341086E+04  0.92276910403E+02 0.  0.
         11    1    3    3    0    0  0.90430907618E+01  0.60354395658E+02 -0.23207065691E+03  0.23996087257E+03  0.00000000000E+00 0. -1.
        -11    1    3    3    0    0  0.35954856612E+03  0.52843921634E+03 -0.20961945920E+04  0.21914732360E+04  0.00000000000E+00 0.  1.
         22    1    1    2    0    0 -0.36859165689E+03 -0.58879361199E+03  0.37946260025E+03  0.79153622282E+03  0.00000000000E+00 0. -1.
<mgrwt>
<rscale>  0 0.25670423E+04</rscale>
<asrwt>0</asrwt>
<pdfrwt beam="1">  1        2 0.39782869E+00 0.25670423E+04</pdfrwt>
<pdfrwt beam="2">  1       -2 0.98012900E-01 0.25670423E+04</pdfrwt>
<totfact> 0.23824487E+00</totfact>
</mgrwt>
</event>
<event>
 6    1  0.1719556E-004  0.1403162E+04  0.7818608E-02  0.8951533E-01
         -2   -1    0    0    0  501 -0.00000000000E+00  0.00000000000E+00  0.14391290525E+04  0.14391290525E+04  0.00000000000E+00 0. -1.
          2   -1    0    0  501    0  0.00000000000E+00 -0.00000000000E+00 -0.34202363450E+03  0.34202363450E+03  0.00000000000E+00 0.  1.
         23    2    1    2    0    0 -0.43941147535E+03 -0.87697475992E+01 -0.13898945515E+03  0.46924953182E+03  0.87850448671E+02 0.  0.
         13    1    3    3    0    0 -0.33046767593E+03  0.24224795146E+02 -0.79269035099E+02  0.34070413185E+03  0.00000000000E+00 0. -1.
        -13    1    3    3    0    0 -0.10894379942E+03 -0.32994542745E+02 -0.59720420054E+02  0.12854539997E+03  0.00000000000E+00 0.  1.
         22    1    1    2    0    0  0.43941147535E+03  0.87697475992E+01  0.12360948732E+04  0.13119031552E+04  0.00000000000E+00 0. -1.
<mgrwt>
<rscale>  0 0.14031624E+04</rscale>
<asrwt>0</asrwt>
<pdfrwt beam="1">  1        2 0.52619022E-01 0.14031624E+04</pdfrwt>
<pdfrwt beam="2">  1       -2 0.22140447E+00 0.14031624E+04</pdfrwt>
<totfact> 0.89321288E+00</totfact>
</mgrwt>
</event>
<event>
 6    1  0.1719556E-004  0.1361845E+04  0.7818608E-02  0.8981910E-01
         -1   -1    0    0    0  501 -0.00000000000E+00  0.00000000000E+00  0.62499690260E+03  0.62499690260E+03  0.00000000000E+00 0. -1.
          1   -1    0    0  501    0  0.00000000000E+00 -0.00000000000E+00 -0.74185248373E+03  0.74185248373E+03  0.00000000000E+00 0.  1.
         23    2    1    2    0    0 -0.43114824500E+03  0.18006053365E+03 -0.55134875755E+03  0.72880947747E+03  0.94165795551E+02 0.  0.
         11    1    3    3    0    0 -0.24584152822E+03  0.56804384741E+02 -0.32403434031E+03  0.41068607089E+03  0.00000000000E+00 0. -1.
        -11    1    3    3    0    0 -0.18530671678E+03  0.12325614891E+03 -0.22731441724E+03  0.31812340657E+03  0.00000000000E+00 0.  1.
         22    1    1    2    0    0  0.43114824500E+03 -0.18006053365E+03  0.43449317642E+03  0.63803990886E+03  0.00000000000E+00 0. -1.
<mgrwt>
<rscale>  0 0.13618451E+04</rscale>
<asrwt>0</asrwt>
<pdfrwt beam="1">  1        1 0.11413115E+00 0.13618451E+04</pdfrwt>
<pdfrwt beam="2">  1       -1 0.96153370E-01 0.13618451E+04</pdfrwt>
<totfact> 0.25399609E+01</totfact>
</mgrwt>
</event>
<event>
 6    1  0.1719556E-004  0.1700792E+04  0.7818608E-02  0.8760913E-01
         -1   -1    0    0    0  501 -0.00000000000E+00  0.00000000000E+00  0.10441457081E+04  0.10441457081E+04  0.00000000000E+00 0. -1.
          1   -1    0    0  501    0  0.00000000000E+00 -0.00000000000E+00 -0.69259777985E+03  0.69259777985E+03  0.00000000000E+00 0.  1.
         23    2    1    2    0    0  0.51259866369E+03  0.67500234764E+03  0.15107088137E+03  0.86578045451E+03  0.91475815777E+02 0.  0.
         13    1    3    3    0    0  0.32128052103E+03  0.49150943187E+03  0.11296663970E+03  0.59796668510E+03  0.00000000000E+00 0.  1.
        -13    1    3    3    0    0  0.19131814266E+03  0.18349291578E+03  0.38104241678E+02  0.26781376941E+03  0.00000000000E+00 0. -1.
         22    1    1    2    0    0 -0.51259866369E+03 -0.67500234764E+03  0.20047704689E+03  0.87096303347E+03  0.00000000000E+00 0. -1.
<mgrwt>
<rscale>  0 0.17007916E+04</rscale>
<asrwt>0</asrwt>
<pdfrwt beam="1">  1        1 0.10655350E+00 0.17007916E+04</pdfrwt>
<pdfrwt beam="2">  1       -1 0.16063780E+00 0.17007916E+04</pdfrwt>
<totfact> 0.76143514E+00</totfact>
</mgrwt>
</event>
<event>
 6    1  0.1719556E-004  0.4182977E+04  0.7818608E-02  0.7968618E-01
         -2   -1    0    0    0  501 -0.00000000000E+00  0.00000000000E+00  0.97008312511E+03  0.97008312511E+03  0.00000000000E+00 0. -1.
          2   -1    0    0  501    0  0.00000000000E+00 -0.00000000000E+00 -0.45092261837E+04  0.45092261837E+04  0.00000000000E+00 0.  1.
         23    2    1    2    0    0 -0.76227024906E+03 -0.15414535973E+04 -0.21334647596E+03  0.17352395934E+04  0.91676619289E+02 0.  0.
         13    1    3    3    0    0 -0.59390234012E+03 -0.11103515968E+04 -0.16209653217E+03  0.12695967643E+04  0.00000000000E+00 0.  1.
        -13    1    3    3    0    0 -0.16836790894E+03 -0.43110200041E+03 -0.51249943791E+02  0.46564282906E+03  0.00000000000E+00 0. -1.
         22    1    1    2    0    0  0.76227024906E+03  0.15414535973E+04 -0.33257965826E+04  0.37440697154E+04  0.00000000000E+00 0.  1.
<mgrwt>
<rscale>  0 0.41829770E+04</rscale>
<asrwt>0</asrwt>
<pdfrwt beam="1">  1        2 0.69372712E+00 0.41829770E+04</pdfrwt>
<pdfrwt beam="2">  1       -2 0.14924356E+00 0.41829770E+04</pdfrwt>
<totfact> 0.28230666E-02</totfact>
</mgrwt>
</event>
<event>
 6    1  0.1719556E-004  0.1416268E+04  0.7818608E-02  0.8942126E-01
         -1   -1    0    0    0  501 -0.00000000000E+00  0.00000000000E+00  0.40913904326E+03  0.40913904326E+03  0.00000000000E+00 0. -1.
          1   -1    0    0  501    0  0.00000000000E+00 -0.00000000000E+00 -0.12256315316E+04  0.12256315316E+04  0.00000000000E+00 0.  1.
         23    2    1    2    0    0 -0.50607194382E+03 -0.50578456305E+02  0.15456925561E+03  0.53858267896E+03  0.86675571713E+02 0.  0.
         13    1    3    3    0    0 -0.14989989913E+03 -0.41852912447E+02  0.78349420054E+02  0.17424200889E+03  0.00000000000E+00 0.  1.
        -13    1    3    3    0    0 -0.35617204469E+03 -0.87255438582E+01  0.76219835551E+02  0.36434067007E+03  0.00000000000E+00 0. -1.
         22    1    1    2    0    0  0.50607194382E+03  0.50578456305E+02 -0.97106174397E+03  0.10961878959E+04  0.00000000000E+00 0.  1.
<mgrwt>
<rscale>  0 0.14162679E+04</rscale>
<asrwt>0</asrwt>
<pdfrwt beam="1">  1        1 0.18855869E+00 0.14162679E+04</pdfrwt>
<pdfrwt beam="2">  1       -1 0.62944469E-01 0.14162679E+04</pdfrwt>
<totfact> 0.25515392E+01</totfact>
</mgrwt>
</event>
<event>
 6    1  0.1719556E-004  0.4705867E+04  0.7818608E-02  0.7875555E-01
         -2   -1    0    0    0  501 -0.00000000000E+00  0.00000000000E+00  0.28317321206E+04  0.28317321206E+04  0.00000000000E+00 0. -1.
          2   -1    0    0  501    0  0.00000000000E+00 -0.00000000000E+00 -0.19550914309E+04  0.19550914309E+04  0.00000000000E+00 0.  1.
         23    2    1    2    0    0 -0.19402860476E+04  0.11768257799E+04 -0.19074446589E+03  0.22790476578E+04  0.89699010978E+02 0.  0.
         13    1    3    3    0    0 -0.72469891720E+03  0.48931288284E+03 -0.63700649940E+02  0.87674020708E+03  0.00000000000E+00 0. -1.
        -13    1    3    3    0    0 -0.12155871304E+04  0.68751289707E+03 -0.12704381595E+03  0.14023074507E+04  0.00000000000E+00 0.  1.
         22    1    1    2    0    0  0.19402860476E+04 -0.11768257799E+04  0.10673851556E+04  0.25077758937E+04  0.00000000000E+00 0. -1.
<mgrwt>
<rscale>  0 0.47058666E+04</rscale>
<asrwt>0</asrwt>
<pdfrwt beam="1">  1        2 0.30078330E+00 0.47058666E+04</pdfrwt>
<pdfrwt beam="2">  1       -2 0.43565110E+00 0.47058666E+04</pdfrwt>
<totfact> 0.22810059E-02</totfact>
</mgrwt>
</event>
<event>
 6    1  0.1719556E-004  0.1388088E+04  0.7818608E-02  0.8962487E-01
          2   -1    0    0  501    0  0.00000000000E+00  0.00000000000E+00  0.16251282755E+04  0.16251282755E+04  0.00000000000E+00 0.  1.
         -2   -1    0    0    0  501 -0.00000000000E+00 -0.00000000000E+00 -0.29640544433E+03  0.29640544433E+03  0.00000000000E+00 0. -1.
         23    2    1    2    0    0 -0.78967582532E+02 -0.38830300447E+03  0.14510050560E+04  0.15068434199E+04  0.90256949978E+02 0.  0.
         11    1    3    3    0    0 -0.64302110641E+02 -0.38066927557E+03  0.13361939736E+04  0.13908480125E+04  0.00000000000E+00 0.  1.
        -11    1    3    3    0    0 -0.14665471892E+02 -0.76337289045E+01  0.11481108243E+03  0.11599540737E+03  0.00000000000E+00 0. -1.
         22    1    1    2    0    0  0.78967582532E+02  0.38830300447E+03 -0.12228222485E+03  0.41469029997E+03  0.00000000000E+00 0. -1.
<mgrwt>
<rscale>  0 0.13880877E+04</rscale>
<asrwt>0</asrwt>
<pdfrwt beam="1">  1        2 0.25001973E+00 0.13880877E+04</pdfrwt>
<pdfrwt beam="2">  1       -2 0.45600839E-01 0.13880877E+04</pdfrwt>
<totfact> 0.47952713E+01</totfact>
</mgrwt>
</event>
<event>
 6    1  0.1719556E-004  0.1846124E+04  0.7818608E-02  0.8682148E-01
          2   -1    0    0  501    0  0.00000000000E+00  0.00000000000E+00  0.26091952722E+04  0.26091952722E+04  0.00000000000E+00 0.  1.
         -2   -1    0    0    0  501 -0.00000000000E+00 -0.00000000000E+00 -0.32655421301E+03  0.32655421301E+03  0.00000000000E+00 0. -1.
         23    2    1    2    0    0 -0.68460387868E+03  0.23753259889E+03  0.24076400467E+03  0.76910089533E+03  0.91894912862E+02 0.  0.
         11    1    3    3    0    0 -0.30293885984E+03  0.14636189009E+03  0.13653004218E+03  0.36308980720E+03  0.00000000000E+00 0.  1.
        -11    1    3    3    0    0 -0.38166501884E+03  0.91170708802E+02  0.10423396249E+03  0.40601108813E+03  0.00000000000E+00 0. -1.
         22    1    1    2    0    0  0.68460387868E+03 -0.23753259889E+03  0.20418770545E+04  0.21666485899E+04  0.00000000000E+00 0. -1.
<mgrwt>
<rscale>  0 0.18461243E+04</rscale>
<asrwt>0</asrwt>
<pdfrwt beam="1">  1        2 0.40141464E+00 0.18461243E+04</pdfrwt>
<pdfrwt beam="2">  1       -2 0.50239111E-01 0.18461243E+04</pdfrwt>
<totfact> 0.10609281E+01</totfact>
</mgrwt>
</event>
<event>
 6    1  0.1719556E-004  0.1630061E+04  0.7818608E-02  0.8802290E-01
          2   -1    0    0  501    0  0.00000000000E+00  0.00000000000E+00  0.66395008861E+03  0.66395008861E+03  0.00000000000E+00 0.  1.
         -2   -1    0    0    0  501 -0.00000000000E+00 -0.00000000000E+00 -0.10004894760E+04  0.10004894760E+04  0.00000000000E+00 0. -1.
         23    2    1    2    0    0 -0.46115164489E+02 -0.47622656026E+03 -0.83942738271E+03  0.97031084389E+03  0.89142906837E+02 0.  0.
         13    1    3    3    0    0 -0.63686212615E+02 -0.21360011928E+03 -0.40861580836E+03  0.46545442686E+03  0.00000000000E+00 0. -1.
        -13    1    3    3    0    0  0.17571048126E+02 -0.26262644098E+03 -0.43081157435E+03  0.50485641704E+03  0.00000000000E+00 0.  1.
         22    1    1    2    0    0  0.46115164489E+02  0.47622656026E+03  0.50288799532E+03  0.69412872072E+03  0.00000000000E+00 0.  1.
<mgrwt>
<rscale>  0 0.16300614E+04</rscale>
<asrwt>0</asrwt>
<pdfrwt beam="1">  1        2 0.10214617E+00 0.16300614E+04</pdfrwt>
<pdfrwt beam="2">  1       -2 0.15392146E+00 0.16300614E+04</pdfrwt>
<totfact> 0.11710788E+01</totfact>
</mgrwt>
</event>
<event>
 6    1  0.2290260E-004  0.3239493E+04  0.7818608E-02  0.8178464E-01
          1   -1    0    0  501    0  0.00000000000E+00  0.00000000000E+00  0.19505464920E+04  0.19505464920E+04  0.00000000000E+00 0.  1.
         -1   -1    0    0    0  501 -0.00000000000E+00 -0.00000000000E+00 -0.13450480448E+04  0.13450480448E+04  0.00000000000E+00 0. -1.
         23    2    1    2    0    0  0.11712030821E+04  0.70371606524E+03  0.11854214057E+04  0.18112618255E+04  0.92263381455E+02 0.  0.
         11    1    3    3    0    0  0.83850815842E+03  0.45775904766E+03  0.80674824699E+03  0.12503927429E+04  0.00000000000E+00 0. -1.
        -11    1    3    3    0    0  0.33269492365E+03  0.24595701758E+03  0.37867315873E+03  0.56086908264E+03  0.00000000000E+00 0.  1.
         22    1    1    2    0    0 -0.11712030821E+04 -0.70371606524E+03 -0.57992295854E+03  0.14843327113E+04  0.00000000000E+00 0.  1.
<mgrwt>
<rscale>  0 0.32394930E+04</rscale>
<asrwt>0</asrwt>
<pdfrwt beam="1">  1        1 0.30008408E+00 0.32394930E+04</pdfrwt>
<pdfrwt beam="2">  1       -1 0.20693047E+00 0.32394930E+04</pdfrwt>
<totfact> 0.36214572E-01</totfact>
</mgrwt>
</event>
<event>
 6    1  0.1719556E-004  0.4027396E+04  0.7818608E-02  0.7999043E-01
         -2   -1    0    0    0  501 -0.00000000000E+00  0.00000000000E+00  0.18060008681E+04  0.18060008681E+04  0.00000000000E+00 0. -1.
          2   -1    0    0  501    0  0.00000000000E+00 -0.00000000000E+00 -0.22452811027E+04  0.22452811027E+04  0.00000000000E+00 0.  1.
         23    2    1    2    0    0 -0.12967055236E+03  0.20064818057E+04 -0.31189594605E+03  0.20365833715E+04  0.87229920523E+02 0.  0.
         13    1    3    3    0    0 -0.89040762859E+02  0.95922853340E+03 -0.11477225918E+03  0.97016509328E+03  0.00000000000E+00 0.  1.
        -13    1    3    3    0    0 -0.40629789500E+02  0.10472532723E+04 -0.19712368686E+03  0.10664182782E+04  0.00000000000E+00 0. -1.
         22    1    1    2    0    0  0.12967055236E+03 -0.20064818057E+04 -0.12738428859E+03  0.20146985993E+04  0.00000000000E+00 0. -1.
<mgrwt>
<rscale>  0 0.40273960E+04</rscale>
<asrwt>0</asrwt>
<pdfrwt beam="1">  1        2 0.34542786E+00 0.40273960E+04</pdfrwt>
<pdfrwt beam="2">  1       -2 0.27784629E+00 0.40273960E+04</pdfrwt>
<totfact> 0.16636596E-01</totfact>
</mgrwt>
</event>
<event>
 6    1  0.1719556E-004  0.2870503E+04  0.7818608E-02  0.8281708E-01
         -3   -1    0    0    0  501 -0.00000000000E+00  0.00000000000E+00  0.10791570526E+04  0.10791570526E+04  0.00000000000E+00 0. -1.
          3   -1    0    0  501    0  0.00000000000E+00 -0.00000000000E+00 -0.19088477763E+04  0.19088477763E+04  0.00000000000E+00 0.  1.
         23    2    1    2    0    0  0.33975705679E+02  0.10704505890E+04  0.57712233558E+03  0.12199149567E+04  0.90019438991E+02 0.  0.
         13    1    3    3    0    0  0.29361218185E+02  0.94254841012E+03  0.47331780325E+03  0.10551252672E+04  0.00000000000E+00 0. -1.
        -13    1    3    3    0    0  0.46144874947E+01  0.12790217889E+03  0.10380453233E+03  0.16478968958E+03  0.00000000000E+00 0.  1.
         22    1    1    2    0    0 -0.33975705679E+02 -0.10704505890E+04 -0.14068130593E+04  0.17680898721E+04  0.00000000000E+00 0.  1.
<mgrwt>
<rscale>  0 0.28705028E+04</rscale>
<asrwt>0</asrwt>
<pdfrwt beam="1">  1        3 0.29366889E+00 0.28705028E+04</pdfrwt>
<pdfrwt beam="2">  1       -3 0.16602416E+00 0.28705028E+04</pdfrwt>
<totfact> 0.23229044E-02</totfact>
</mgrwt>
</event>
<event>
 6    1  0.1719556E-004  0.1608726E+04  0.7818608E-02  0.8815205E-01
         -2   -1    0    0    0  501 -0.00000000000E+00  0.00000000000E+00  0.32237235678E+03  0.32237235678E+03  0.00000000000E+00 0. -1.
          2   -1    0    0  501    0  0.00000000000E+00 -0.00000000000E+00 -0.20069953639E+04  0.20069953639E+04  0.00000000000E+00 0.  1.
         23    2    1    2    0    0 -0.60728601386E+03 -0.43275946878E+03 -0.12711962992E+04  0.14767255312E+04  0.93280238821E+02 0.  0.
         11    1    3    3    0    0 -0.35181238706E+03 -0.22704595329E+03 -0.62910625864E+03  0.75570927297E+03  0.00000000000E+00 0.  1.
        -11    1    3    3    0    0 -0.25547362680E+03 -0.20571351549E+03 -0.64209004057E+03  0.72101625824E+03  0.00000000000E+00 0. -1.
         22    1    1    2    0    0  0.60728601386E+03  0.43275946878E+03 -0.41342670790E+03  0.85264218946E+03  0.00000000000E+00 0. -1.
<mgrwt>
<rscale>  0 0.16087260E+04</rscale>
<asrwt>0</asrwt>
<pdfrwt beam="1">  1        2 0.30876851E+00 0.16087260E+04</pdfrwt>
<pdfrwt beam="2">  1       -2 0.49595748E-01 0.16087260E+04</pdfrwt>
<totfact> 0.24419502E+01</totfact>
</mgrwt>
</event>
<event>
 6    1  0.1719556E-004  0.3518334E+04  0.7818608E-02  0.8109459E-01
          2   -1    0    0  501    0  0.00000000000E+00  0.00000000000E+00  0.94344482376E+03  0.94344482376E+03  0.00000000000E+00 0.  1.
         -2   -1    0    0    0  501 -0.00000000000E+00 -0.00000000000E+00 -0.32801802898E+04  0.32801802898E+04  0.00000000000E+00 0. -1.
         23    2    1    2    0    0 -0.19214495597E+03 -0.12920570760E+04 -0.25814905642E+04  0.28946269082E+04  0.91870739045E+02 0.  0.
         11    1    3    3    0    0 -0.91654172564E+02 -0.88984270474E+03 -0.17319451585E+04  0.19493215637E+04  0.00000000000E+00 0. -1.
        -11    1    3    3    0    0 -0.10049078340E+03 -0.40221437129E+03 -0.84954540569E+03  0.94530534451E+03  0.00000000000E+00 0.  1.
         22    1    1    2    0    0  0.19214495597E+03  0.12920570760E+04  0.24475509815E+03  0.13289982054E+04  0.00000000000E+00 0.  1.
<mgrwt>
<rscale>  0 0.35183343E+04</rscale>
<asrwt>0</asrwt>
<pdfrwt beam="1">  1        2 0.14514536E+00 0.35183343E+04</pdfrwt>
<pdfrwt beam="2">  1       -2 0.50464312E+00 0.35183343E+04</pdfrwt>
<totfact> 0.34700468E-02</totfact>
</mgrwt>
</event>
<event>
 6    1  0.1719556E-004  0.2263722E+04  0.7818608E-02  0.8492364E-01
          2   -1    0    0  501    0  0.00000000000E+00  0.00000000000E+00  0.15132271229E+04  0.15132271229E+04  0.00000000000E+00 0.  1.
         -2   -1    0    0    0  501 -0.00000000000E+00 -0.00000000000E+00 -0.84660742812E+03  0.84660742812E+03  0.00000000000E+00 0. -1.
         23    2    1    2    0    0 -0.10467588220E+04  0.42388494229E+03  0.29399199019E+03  0.11706188927E+04  0.92384121363E+02 0.  0.
         13    1    3    3    0    0 -0.40205587226E+03  0.20835200217E+03  0.13441539857E+03  0.47236318718E+03  0.00000000000E+00 0.  1.
        -13    1    3    3    0    0 -0.64470294975E+03  0.21553294011E+03  0.15957659161E+03  0.69825570551E+03  0.00000000000E+00 0. -1.
         22    1    1    2    0    0  0.10467588220E+04 -0.42388494229E+03  0.37262770456E+03  0.11892156583E+04  0.00000000000E+00 0.  1.
<mgrwt>
<rscale>  0 0.22637220E+04</rscale>
<asrwt>0</asrwt>
<pdfrwt beam="1">  1        2 0.23280417E+00 0.22637220E+04</pdfrwt>
<pdfrwt beam="2">  1       -2 0.13024730E+00 0.22637220E+04</pdfrwt>
<totfact> 0.49045842E+00</totfact>
</mgrwt>
</event>
<event>
 6    1  0.1719556E-004  0.2569850E+04  0.7818608E-02  0.8378515E-01
         -2   -1    0    0    0  501 -0.00000000000E+00  0.00000000000E+00  0.26400600213E+04  0.26400600213E+04  0.00000000000E+00 0. -1.
          2   -1    0    0  501    0  0.00000000000E+00 -0.00000000000E+00 -0.62537691422E+03  0.62537691422E+03  0.00000000000E+00 0.  1.
         23    2    1    2    0    0 -0.12234425348E+04 -0.79740909668E+02  0.52637201594E+03  0.13371630564E+04  0.88132239612E+02 0.  0.
         13    1    3    3    0    0 -0.23971887995E+03 -0.28448511686E+02  0.68784235264E+02  0.25100942262E+03  0.00000000000E+00 0.  1.
        -13    1    3    3    0    0 -0.98372365488E+03 -0.51292397982E+02  0.45758778067E+03  0.10861536338E+04  0.00000000000E+00 0. -1.
         22    1    1    2    0    0  0.12234425348E+04  0.79740909668E+02  0.14883110912E+04  0.19282738791E+04  0.00000000000E+00 0. -1.
<mgrwt>
<rscale>  0 0.25698503E+04</rscale>
<asrwt>0</asrwt>
<pdfrwt beam="1">  1        2 0.96211834E-01 0.25698503E+04</pdfrwt>
<pdfrwt beam="2">  1       -2 0.40616308E+00 0.25698503E+04</pdfrwt>
<totfact> 0.28280729E-01</totfact>
</mgrwt>
</event>
<event>
 6    1  0.1719556E-004  0.6619790E+03  0.7818608E-02  0.9784558E-01
         -2   -1    0    0    0  501 -0.00000000000E+00  0.00000000000E+00  0.24454800783E+03  0.24454800783E+03  0.00000000000E+00 0. -1.
          2   -1    0    0  501    0  0.00000000000E+00 -0.00000000000E+00 -0.44798581901E+03  0.44798581901E+03  0.00000000000E+00 0.  1.
         23    2    1    2    0    0 -0.25854280728E+03  0.19353741542E+03 -0.13459423825E+03  0.36232093809E+03  0.94126185774E+02 0.  0.
         11    1    3    3    0    0 -0.12947098004E+03  0.15371280706E+03 -0.88502521009E+02  0.21959749077E+03  0.00000000000E+00 0. -1.
        -11    1    3    3    0    0 -0.12907182724E+03  0.39824608358E+02 -0.46091717237E+02  0.14272344732E+03  0.00000000000E+00 0.  1.
         22    1    1    2    0    0  0.25854280728E+03 -0.19353741542E+03 -0.68843572942E+02  0.33021288875E+03  0.00000000000E+00 0. -1.
<mgrwt>
<rscale>  0 0.66197897E+03</rscale>
<asrwt>0</asrwt>
<pdfrwt beam="1">  1        2 0.68920895E-01 0.66197897E+03</pdfrwt>
<pdfrwt beam="2">  1       -2 0.37622771E-01 0.66197897E+03</pdfrwt>
<totfact> 0.46950831E+02</totfact>
</mgrwt>
</event>
<event>
 6    1  0.1719556E-004  0.2201263E+04  0.7818608E-02  0.8517902E-01
          2   -1    0    0  501    0  0.00000000000E+00  0.00000000000E+00  0.19169974985E+04  0.19169974985E+04  0.00000000000E+00 0.  1.
         -2   -1    0    0    0  501 -0.00000000000E+00 -0.00000000000E+00 -0.63192050744E+03  0.63192050744E+03  0.00000000000E+00 0. -1.
         23    2    1    2    0    0  0.56536902412E+03 -0.51571493479E+03  0.15566353202E+04  0.17369155715E+04  0.90322506820E+02 0.  0.
         13    1    3    3    0    0  0.23957359396E+03 -0.27425327215E+03  0.77808285296E+03  0.85908281922E+03  0.00000000000E+00 0.  1.
        -13    1    3    3    0    0  0.32579543016E+03 -0.24146166264E+03  0.77855246720E+03  0.87783275230E+03  0.00000000000E+00 0. -1.
         22    1    1    2    0    0 -0.56536902412E+03  0.51571493479E+03 -0.27155832910E+03  0.81200243442E+03  0.00000000000E+00 0. -1.
<mgrwt>
<rscale>  0 0.22012633E+04</rscale>
<asrwt>0</asrwt>
<pdfrwt beam="1">  1        2 0.29492269E+00 0.22012633E+04</pdfrwt>
<pdfrwt beam="2">  1       -2 0.97218540E-01 0.22012633E+04</pdfrwt>
<totfact> 0.59952016E+00</totfact>
</mgrwt>
</event>
<event>
 6    1  0.1719556E-004  0.3106933E+04  0.7818608E-02  0.8213838E-01
         -2   -1    0    0    0  501 -0.00000000000E+00  0.00000000000E+00  0.70809750578E+03  0.70809750578E+03  0.00000000000E+00 0. -1.
          2   -1    0    0  501    0  0.00000000000E+00 -0.00000000000E+00 -0.34080880300E+04  0.34080880300E+04  0.00000000000E+00 0.  1.
         23    2    1    2    0    0 -0.37298834273E+02  0.13882789996E+04 -0.43363930562E+03  0.14581679230E+04  0.97472358420E+02 0.  0.
         13    1    3    3    0    0  0.51588607904E+01  0.24119253680E+03 -0.11269869755E+03  0.26627326205E+03  0.00000000000E+00 0. -1.
        -13    1    3    3    0    0 -0.42457695063E+02  0.11470864628E+04 -0.32094060808E+03  0.11918946610E+04  0.00000000000E+00 0.  1.
         22    1    1    2    0    0  0.37298834273E+02 -0.13882789996E+04 -0.22663512186E+04  0.26580176128E+04  0.00000000000E+00 0.  1.
<mgrwt>
<rscale>  0 0.31069333E+04</rscale>
<asrwt>0</asrwt>
<pdfrwt beam="1">  1        2 0.52432124E+00 0.31069333E+04</pdfrwt>
<pdfrwt beam="2">  1       -2 0.10893808E+00 0.31069333E+04</pdfrwt>
<totfact> 0.53672027E-01</totfact>
</mgrwt>
</event>
<event>
 6    1  0.1719556E-004  0.1713398E+04  0.7818608E-02  0.8753760E-01
         -1   -1    0    0    0  501 -0.00000000000E+00  0.00000000000E+00  0.29026926629E+03  0.29026926629E+03  0.00000000000E+00 0.  1.
          1   -1    0    0  501    0  0.00000000000E+00 -0.00000000000E+00 -0.25284565657E+04  0.25284565657E+04  0.00000000000E+00 0. -1.
         23    2    1    2    0    0  0.62661899637E+03 -0.58058151826E+03 -0.11433925679E+04  0.14300927739E+04  0.89958388385E+02 0.  0.
         11    1    3    3    0    0  0.14841368074E+03 -0.16103425207E+03 -0.35407223976E+03  0.41632415488E+03  0.00000000000E+00 0. -1.
        -11    1    3    3    0    0  0.47820531562E+03 -0.41954726619E+03 -0.78932032813E+03  0.10137686190E+04  0.00000000000E+00 0.  1.
         22    1    1    2    0    0 -0.62661899637E+03  0.58058151826E+03 -0.10947947316E+04  0.13886330582E+04  0.00000000000E+00 0.  1.
<mgrwt>
<rscale>  0 0.17133981E+04</rscale>
<asrwt>0</asrwt>
<pdfrwt beam="1">  1        1 0.38899331E+00 0.17133981E+04</pdfrwt>
<pdfrwt beam="2">  1       -1 0.44656812E-01 0.17133981E+04</pdfrwt>
<totfact> 0.61223044E+00</totfact>
</mgrwt>
</event>
<event>
 6    1  0.1719556E-004  0.1178894E+04  0.7818608E-02  0.9131534E-01
          2   -1    0    0  501    0  0.00000000000E+00  0.00000000000E+00  0.24184978712E+03  0.24184978712E+03  0.00000000000E+00 0.  1.
         -2   -1    0    0    0  501 -0.00000000000E+00 -0.00000000000E+00 -0.14366253768E+04  0.14366253768E+04  0.00000000000E+00 0. -1.
         23    2    1    2    0    0  0.41395848993E+02  0.19069446997E+03 -0.13876521047E+04  0.14041043432E+04  0.88615156170E+02 0.  0.
         11    1    3    3    0    0  0.20178761517E+02  0.97821067378E+01 -0.33970454417E+03  0.34044390046E+03  0.00000000000E+00 0.  1.
        -11    1    3    3    0    0  0.21217087475E+02  0.18091236323E+03 -0.10479475605E+04  0.10636604428E+04  0.00000000000E+00 0. -1.
         22    1    1    2    0    0 -0.41395848993E+02 -0.19069446997E+03  0.19287651500E+03  0.27437082066E+03  0.00000000000E+00 0.  1.
<mgrwt>
<rscale>  0 0.11788936E+04</rscale>
<asrwt>0</asrwt>
<pdfrwt beam="1">  1        2 0.37207659E-01 0.11788936E+04</pdfrwt>
<pdfrwt beam="2">  1       -2 0.22101929E+00 0.11788936E+04</pdfrwt>
<totfact> 0.13449359E+01</totfact>
</mgrwt>
</event>
<event>
 6    1  0.1719556E-004  0.1056699E+04  0.7818608E-02  0.9248455E-01
          2   -1    0    0  501    0  0.00000000000E+00  0.00000000000E+00  0.47222085623E+03  0.47222085623E+03  0.00000000000E+00 0. -1.
         -2   -1    0    0    0  501 -0.00000000000E+00 -0.00000000000E+00 -0.59114984102E+03  0.59114984102E+03  0.00000000000E+00 0.  1.
         23    2    1    2    0    0 -0.87931567444E+02  0.36252941566E+03 -0.43057120290E+03  0.57728386356E+03  0.93303593653E+02 0.  0.
         11    1    3    3    0    0 -0.33945238607E+02  0.29311608838E+03 -0.30918657546E+03  0.42739403240E+03  0.00000000000E+00 0.  1.
        -11    1    3    3    0    0 -0.53986328837E+02  0.69413327289E+02 -0.12138462744E+03  0.14988983116E+03  0.00000000000E+00 0. -1.
         22    1    1    2    0    0  0.87931567444E+02 -0.36252941566E+03  0.31164221812E+03  0.48608683369E+03  0.00000000000E+00 0. -1.
<mgrwt>
<rscale>  0 0.10566992E+04</rscale>
<asrwt>0</asrwt>
<pdfrwt beam="1">  1        2 0.72649363E-01 0.10566992E+04</pdfrwt>
<pdfrwt beam="2">  1       -2 0.90946129E-01 0.10566992E+04</pdfrwt>
<totfact> 0.67592767E+01</totfact>
</mgrwt>
</event>
<event>
 6    1  0.1719556E-004  0.2056991E+04  0.7818608E-02  0.8580430E-01
         -1   -1    0    0    0  501 -0.00000000000E+00  0.00000000000E+00  0.58344241405E+03  0.58344241405E+03  0.00000000000E+00 0. -1.
          1   -1    0    0  501    0  0.00000000000E+00 -0.00000000000E+00 -0.18130372928E+04  0.18130372928E+04  0.00000000000E+00 0.  1.
         23    2    1    2    0    0 -0.43110517821E+02  0.10187881581E+03 -0.18049916076E+04  0.18105452348E+04  0.88552434568E+02 0.  0.
         11    1    3    3    0    0  0.24557656357E+02  0.50661799090E+02 -0.79829827160E+03  0.80028109238E+03  0.00000000000E+00 0. -1.
        -11    1    3    3    0    0 -0.67668174177E+02  0.51217016724E+02 -0.10066933360E+04  0.10102641424E+04  0.00000000000E+00 0.  1.
         22    1    1    2    0    0  0.43110517821E+02 -0.10187881581E+03  0.57539672893E+03  0.58593447204E+03  0.00000000000E+00 0. -1.
<mgrwt>
<rscale>  0 0.20569909E+04</rscale>
<asrwt>0</asrwt>
<pdfrwt beam="1">  1        1 0.27892881E+00 0.20569909E+04</pdfrwt>
<pdfrwt beam="2">  1       -1 0.89760371E-01 0.20569909E+04</pdfrwt>
<totfact> 0.44767433E+00</totfact>
</mgrwt>
</event>
<event>
 6    1  0.1719556E-004  0.1957130E+04  0.7818608E-02  0.8626930E-01
          2   -1    0    0  501    0  0.00000000000E+00  0.00000000000E+00  0.16277389009E+04  0.16277389009E+04  0.00000000000E+00 0.  1.
         -2   -1    0    0    0  501 -0.00000000000E+00 -0.00000000000E+00 -0.58829416389E+03  0.58829416389E+03  0.00000000000E+00 0. -1.
         23    2    1    2    0    0  0.81654187981E+03 -0.26983787285E+03 -0.25969564794E+01  0.86495793361E+03  0.92695003231E+02 0.  0.
         13    1    3    3    0    0  0.68371884973E+03 -0.23476313361E+03  0.30886755944E+02  0.72356007772E+03  0.00000000000E+00 0.  1.
        -13    1    3    3    0    0  0.13282303009E+03 -0.35074739239E+02 -0.33483712424E+02  0.14139785590E+03  0.00000000000E+00 0. -1.
         22    1    1    2    0    0 -0.81654187981E+03  0.26983787285E+03  0.10420416935E+04  0.13510751312E+04  0.00000000000E+00 0.  1.
<mgrwt>
<rscale>  0 0.19571298E+04</rscale>
<asrwt>0</asrwt>
<pdfrwt beam="1">  1        2 0.25042137E+00 0.19571298E+04</pdfrwt>
<pdfrwt beam="2">  1       -2 0.90506795E-01 0.19571298E+04</pdfrwt>
<totfact> 0.10465166E+01</totfact>
</mgrwt>
</event>
<event>
 6    1  0.1719556E-004  0.3257106E+03  0.7818608E-02  0.1073051E+00
         -2   -1    0    0    0  501 -0.00000000000E+00  0.00000000000E+00  0.17802571242E+02  0.17802571242E+02  0.00000000000E+00 0. -1.
          2   -1    0    0  501    0  0.00000000000E+00 -0.00000000000E+00 -0.14897760542E+04  0.14897760542E+04  0.00000000000E+00 0.  1.
         23    2    1    2    0    0  0.53818044065E+02  0.14079631612E+03 -0.79565161821E+03  0.81466358791E+03  0.88855384786E+02 0.  0.
         13    1    3    3    0    0 -0.22605782607E+02  0.39070534778E+02 -0.27569982340E+03  0.27937057955E+03  0.00000000000E+00 0. -1.
        -13    1    3    3    0    0  0.76423826671E+02  0.10172578135E+03 -0.51995179481E+03  0.53529300836E+03  0.00000000000E+00 0.  1.
         22    1    1    2    0    0 -0.53818044065E+02 -0.14079631612E+03 -0.67632186475E+03  0.69291503753E+03  0.00000000000E+00 0.  1.
<mgrwt>
<rscale>  0 0.32571057E+03</rscale>
<asrwt>0</asrwt>
<pdfrwt beam="1">  1        2 0.22919642E+00 0.32571057E+03</pdfrwt>
<pdfrwt beam="2">  1       -2 0.27388559E-02 0.32571057E+03</pdfrwt>
<totfact> 0.67219334E+03</totfact>
</mgrwt>
</event>
<event>
 6    1  0.1719556E-004  0.2512122E+04  0.7818608E-02  0.8398680E-01
          2   -1    0    0  501    0  0.00000000000E+00  0.00000000000E+00  0.17471307730E+04  0.17471307730E+04  0.00000000000E+00 0.  1.
         -2   -1    0    0    0  501 -0.00000000000E+00 -0.00000000000E+00 -0.90301759161E+03  0.90301759161E+03  0.00000000000E+00 0. -1.
         23    2    1    2    0    0 -0.10252174145E+04  0.59862424386E+03 -0.46667595514E+01  0.11907481040E+04  0.91856062395E+02 0.  0.
         13    1    3    3    0    0 -0.82520597616E+03  0.50931855393E+03  0.22761179838E+02  0.96999400193E+03  0.00000000000E+00 0.  1.
        -13    1    3    3    0    0 -0.20001143839E+03  0.89305689930E+02 -0.27427939390E+02  0.22075410211E+03  0.00000000000E+00 0. -1.
         22    1    1    2    0    0  0.10252174145E+04 -0.59862424386E+03  0.84877994097E+03  0.14594002606E+04  0.00000000000E+00 0.  1.
<mgrwt>
<rscale>  0 0.25121225E+04</rscale>
<asrwt>0</asrwt>
<pdfrwt beam="1">  1        2 0.26878935E+00 0.25121225E+04</pdfrwt>
<pdfrwt beam="2">  1       -2 0.13892578E+00 0.25121225E+04</pdfrwt>
<totfact> 0.30146061E+00</totfact>
</mgrwt>
</event>
<event>
 6    1  0.1719556E-004  0.3345116E+04  0.7818608E-02  0.8151509E-01
         -2   -1    0    0    0  501 -0.00000000000E+00  0.00000000000E+00  0.24093041763E+04  0.24093041763E+04  0.00000000000E+00 0. -1.
          2   -1    0    0  501    0  0.00000000000E+00 -0.00000000000E+00 -0.11611033224E+04  0.11611033224E+04  0.00000000000E+00 0.  1.
         23    2    1    2    0    0  0.97917063774E+03 -0.12591088713E+04  0.11571302397E+04  0.19727767077E+04  0.93633643643E+02 0.  0.
         11    1    3    3    0    0  0.65862311827E+03 -0.78122746234E+03  0.76465576628E+03  0.12762441776E+04  0.00000000000E+00 0. -1.
        -11    1    3    3    0    0  0.32054751947E+03 -0.47788140895E+03  0.39247447339E+03  0.69653253013E+03  0.00000000000E+00 0.  1.
         22    1    1    2    0    0 -0.97917063774E+03  0.12591088713E+04  0.91070614194E+02  0.15976307910E+04  0.00000000000E+00 0.  1.
<mgrwt>
<rscale>  0 0.33451165E+04</rscale>
<asrwt>0</asrwt>
<pdfrwt beam="1">  1        2 0.17863128E+00 0.33451165E+04</pdfrwt>
<pdfrwt beam="2">  1       -2 0.37066218E+00 0.33451165E+04</pdfrwt>
<totfact> 0.19113170E-01</totfact>
</mgrwt>
</event>
<event>
 6    1  0.1719556E-004  0.2349342E+04  0.7818608E-02  0.8458717E-01
          2   -1    0    0  501    0  0.00000000000E+00  0.00000000000E+00  0.13456860795E+04  0.13456860795E+04  0.00000000000E+00 0.  1.
         -2   -1    0    0    0  501 -0.00000000000E+00 -0.00000000000E+00 -0.10253889629E+04  0.10253889629E+04  0.00000000000E+00 0. -1.
         23    2    1    2    0    0 -0.43538941624E+03 -0.57454034162E+03 -0.77340339157E+03  0.10611737678E+04  0.90974784541E+02 0.  0.
         13    1    3    3    0    0 -0.15276333860E+03 -0.17519277836E+03 -0.19334472278E+03  0.30234306514E+03  0.00000000000E+00 0. -1.
        -13    1    3    3    0    0 -0.28262607764E+03 -0.39934756326E+03 -0.58005866878E+03  0.75883070265E+03  0.00000000000E+00 0.  1.
         22    1    1    2    0    0  0.43538941624E+03  0.57454034162E+03  0.10937005082E+04  0.13099012747E+04  0.00000000000E+00 0.  1.
<mgrwt>
<rscale>  0 0.23493417E+04</rscale>
<asrwt>0</asrwt>
<pdfrwt beam="1">  1        2 0.20702863E+00 0.23493417E+04</pdfrwt>
<pdfrwt beam="2">  1       -2 0.15775215E+00 0.23493417E+04</pdfrwt>
<totfact> 0.36762730E+00</totfact>
</mgrwt>
</event>
<event>
 6    1  0.1719556E-004  0.7912242E+03  0.7818608E-02  0.9572807E-01
         -2   -1    0    0    0  501 -0.00000000000E+00  0.00000000000E+00  0.18588752595E+03  0.18588752595E+03  0.00000000000E+00 0. -1.
          2   -1    0    0  501    0  0.00000000000E+00 -0.00000000000E+00 -0.84195491426E+03  0.84195491426E+03  0.00000000000E+00 0.  1.
         23    2    1    2    0    0 -0.22677134863E+03  0.69938318731E+02  0.70429080457E+02  0.26356910422E+03  0.90508587093E+02 0.  0.
         11    1    3    3    0    0 -0.15263160828E+03  0.89485946744E+02  0.55731528595E+02  0.18549971911E+03  0.00000000000E+00 0. -1.
        -11    1    3    3    0    0 -0.74139740352E+02 -0.19547628013E+02  0.14697551863E+02  0.78069385108E+02  0.00000000000E+00 0.  1.
         22    1    1    2    0    0  0.22677134863E+03 -0.69938318731E+02 -0.72649646876E+03  0.76427333599E+03  0.00000000000E+00 0.  1.
<mgrwt>
<rscale>  0 0.79122416E+03</rscale>
<asrwt>0</asrwt>
<pdfrwt beam="1">  1        2 0.12953153E+00 0.79122416E+03</pdfrwt>
<pdfrwt beam="2">  1       -2 0.28598081E-01 0.79122416E+03</pdfrwt>
<totfact> 0.36198135E+02</totfact>
</mgrwt>
</event>
<event>
 6    1  0.1719556E-004  0.6086215E+03  0.7818608E-02  0.9887679E-01
         -2   -1    0    0    0  501 -0.00000000000E+00  0.00000000000E+00  0.15293951258E+03  0.15293951258E+03  0.00000000000E+00 0. -1.
          2   -1    0    0  501    0  0.00000000000E+00 -0.00000000000E+00 -0.60550106560E+03  0.60550106560E+03  0.00000000000E+00 0.  1.
         23    2    1    2    0    0 -0.23534822198E+03 -0.70298073799E+02 -0.44053949070E+03  0.51252365166E+03  0.90966179861E+02 0.  0.
         13    1    3    3    0    0 -0.11614467681E+03 -0.81923996635E+02 -0.24271250283E+03  0.28126586392E+03  0.00000000000E+00 0.  1.
        -13    1    3    3    0    0 -0.11920354516E+03  0.11625922836E+02 -0.19782698787E+03  0.23125778774E+03  0.00000000000E+00 0. -1.
         22    1    1    2    0    0  0.23534822198E+03  0.70298073799E+02 -0.12022062327E+02  0.24591692652E+03  0.00000000000E+00 0. -1.
<mgrwt>
<rscale>  0 0.60862152E+03</rscale>
<asrwt>0</asrwt>
<pdfrwt beam="1">  1        2 0.93154010E-01 0.60862152E+03</pdfrwt>
<pdfrwt beam="2">  1       -2 0.23529156E-01 0.60862152E+03</pdfrwt>
<totfact> 0.78820542E+02</totfact>
</mgrwt>
</event>
<event>
 6    1  0.1719556E-004  0.4539596E+04  0.7818608E-02  0.7903741E-01
          2   -1    0    0  501    0  0.00000000000E+00  0.00000000000E+00  0.44232412178E+04  0.44232412178E+04  0.00000000000E+00 0.  1.
         -2   -1    0    0    0  501 -0.00000000000E+00 -0.00000000000E+00 -0.11647529177E+04  0.11647529177E+04  0.00000000000E+00 0. -1.
         23    2    1    2    0    0 -0.23243702160E+03  0.13407973717E+04 -0.60493604748E+03  0.14919213517E+04  0.90095155783E+02 0.  0.
         11    1    3    3    0    0 -0.29266564650E+02  0.18501458418E+03 -0.11812084785E+03  0.22144855579E+03  0.00000000000E+00 0.  1.
        -11    1    3    3    0    0 -0.20317045695E+03  0.11557827875E+04 -0.48681519963E+03  0.12704727959E+04  0.00000000000E+00 0. -1.
         22    1    1    2    0    0  0.23243702160E+03 -0.13407973717E+04  0.38634243476E+04  0.40960727838E+04  0.00000000000E+00 0.  1.
<mgrwt>
<rscale>  0 0.45395961E+04</rscale>
<asrwt>0</asrwt>
<pdfrwt beam="1">  1        2 0.68049864E+00 0.45395961E+04</pdfrwt>
<pdfrwt beam="2">  1       -2 0.17919276E+00 0.45395961E+04</pdfrwt>
<totfact> 0.20084538E-02</totfact>
</mgrwt>
</event>
<event>
 6    1  0.1719556E-004  0.1702287E+04  0.7818608E-02  0.8760061E-01
          2   -1    0    0  501    0  0.00000000000E+00  0.00000000000E+00  0.10462850716E+04  0.10462850716E+04  0.00000000000E+00 0.  1.
         -2   -1    0    0    0  501 -0.00000000000E+00 -0.00000000000E+00 -0.69239734870E+03  0.69239734870E+03  0.00000000000E+00 0. -1.
         23    2    1    2    0    0 -0.44648005080E+03  0.61474364652E+03 -0.20944633547E+03  0.79284974585E+03  0.86537652775E+02 0.  0.
         13    1    3    3    0    0 -0.24308854017E+03  0.40446158736E+03 -0.11958526835E+03  0.48680781672E+03  0.00000000000E+00 0. -1.
        -13    1    3    3    0    0 -0.20339151063E+03  0.21028205917E+03 -0.89861067125E+02  0.30604192913E+03  0.00000000000E+00 0.  1.
         22    1    1    2    0    0  0.44648005080E+03 -0.61474364652E+03  0.56333405836E+03  0.94583267443E+03  0.00000000000E+00 0.  1.
<mgrwt>
<rscale>  0 0.17022867E+04</rscale>
<asrwt>0</asrwt>
<pdfrwt beam="1">  1        2 0.16096693E+00 0.17022867E+04</pdfrwt>
<pdfrwt beam="2">  1       -2 0.10652267E+00 0.17022867E+04</pdfrwt>
<totfact> 0.15901184E+01</totfact>
</mgrwt>
</event>
<event>
 6    1  0.1719556E-004  0.3831796E+04  0.7818608E-02  0.8039366E-01
         -3   -1    0    0    0  501 -0.00000000000E+00  0.00000000000E+00  0.10826465571E+04  0.10826465571E+04  0.00000000000E+00 0. -1.
          3   -1    0    0  501    0  0.00000000000E+00 -0.00000000000E+00 -0.33904548646E+04  0.33904548646E+04  0.00000000000E+00 0.  1.
         23    2    1    2    0    0 -0.46182610938E+03  0.26606193038E+03 -0.33015263704E+04  0.33454720968E+04  0.89637436316E+02 0.  0.
         13    1    3    3    0    0 -0.29857282842E+03  0.21588836655E+03 -0.21480126768E+04  0.21793833945E+04  0.00000000000E+00 0.  1.
        -13    1    3    3    0    0 -0.16325328095E+03  0.50173563829E+02 -0.11535136936E+04  0.11660887023E+04  0.00000000000E+00 0. -1.
         22    1    1    2    0    0  0.46182610938E+03 -0.26606193038E+03  0.99371806288E+03  0.11276293250E+04  0.00000000000E+00 0. -1.
<mgrwt>
<rscale>  0 0.38317956E+04</rscale>
<asrwt>0</asrwt>
<pdfrwt beam="1">  1        3 0.52160843E+00 0.38317956E+04</pdfrwt>
<pdfrwt beam="2">  1       -3 0.16656101E+00 0.38317956E+04</pdfrwt>
<totfact> 0.13582107E-03</totfact>
</mgrwt>
</event>
<event>
 6    1  0.1719556E-004  0.1867227E+04  0.7818608E-02  0.8671344E-01
          2   -1    0    0  501    0  0.00000000000E+00  0.00000000000E+00  0.24226108183E+04  0.24226108183E+04  0.00000000000E+00 0.  1.
         -2   -1    0    0    0  501 -0.00000000000E+00 -0.00000000000E+00 -0.35979115748E+03  0.35979115748E+03  0.00000000000E+00 0. -1.
         23    2    1    2    0    0 -0.53687412074E+03  0.23075679345E+03 -0.46508862666E+02  0.59362392874E+03  0.93508155895E+02 0.  0.
         13    1    3    3    0    0 -0.32255078407E+03  0.17077893096E+03 -0.63354522285E+02  0.37042981394E+03  0.00000000000E+00 0.  1.
        -13    1    3    3    0    0 -0.21432333667E+03  0.59977862487E+02  0.16845659619E+02  0.22319411479E+03  0.00000000000E+00 0. -1.
         22    1    1    2    0    0  0.53687412074E+03 -0.23075679345E+03  0.21093285235E+04  0.21887780470E+04  0.00000000000E+00 0.  1.
<mgrwt>
<rscale>  0 0.18672268E+04</rscale>
<asrwt>0</asrwt>
<pdfrwt beam="1">  1        2 0.37270935E+00 0.18672268E+04</pdfrwt>
<pdfrwt beam="2">  1       -2 0.55352487E-01 0.18672268E+04</pdfrwt>
<totfact> 0.11122923E+01</totfact>
</mgrwt>
</event>
<event>
 6    1  0.1719556E-004  0.1453233E+04  0.7818608E-02  0.8916162E-01
         -2   -1    0    0    0  501 -0.00000000000E+00  0.00000000000E+00  0.72736055934E+03  0.72736055934E+03  0.00000000000E+00 0. -1.
          2   -1    0    0  501    0  0.00000000000E+00 -0.00000000000E+00 -0.72587351707E+03  0.72587351707E+03  0.00000000000E+00 0.  1.
         23    2    1    2    0    0 -0.18368092892E+03  0.41317168887E+03  0.56577331340E+03  0.73013759328E+03  0.92476671840E+02 0.  0.
         13    1    3    3    0    0 -0.46951896525E+02  0.37031941912E+02  0.55031352743E+02  0.81266814222E+02  0.00000000000E+00 0. -1.
        -13    1    3    3    0    0 -0.13672903240E+03  0.37613974696E+03  0.51074196066E+03  0.64887077906E+03  0.00000000000E+00 0.  1.
         22    1    1    2    0    0  0.18368092892E+03 -0.41317168887E+03 -0.56428627113E+03  0.72309648313E+03  0.00000000000E+00 0.  1.
<mgrwt>
<rscale>  0 0.14532333E+04</rscale>
<asrwt>0</asrwt>
<pdfrwt beam="1">  1        2 0.11167285E+00 0.14532333E+04</pdfrwt>
<pdfrwt beam="2">  1       -2 0.11190162E+00 0.14532333E+04</pdfrwt>
<totfact> 0.23903915E+01</totfact>
</mgrwt>
</event>
<event>
 6    1  0.1719556E-004  0.1189127E+04  0.7818608E-02  0.9122428E-01
          2   -1    0    0  501    0  0.00000000000E+00  0.00000000000E+00  0.34213186518E+03  0.34213186518E+03  0.00000000000E+00 0.  1.
         -2   -1    0    0    0  501 -0.00000000000E+00 -0.00000000000E+00 -0.10332436136E+04  0.10332436136E+04  0.00000000000E+00 0. -1.
         23    2    1    2    0    0 -0.11959878492E+03  0.37575022176E+03  0.16146363330E+03  0.43602629982E+03  0.92500436464E+02 0.  0.
         13    1    3    3    0    0 -0.10702852069E+03  0.27298450254E+03  0.79014336928E+02  0.30367566301E+03  0.00000000000E+00 0. -1.
        -13    1    3    3    0    0 -0.12570264236E+02  0.10276571923E+03  0.82449296373E+02  0.13235063681E+03  0.00000000000E+00 0.  1.
         22    1    1    2    0    0  0.11959878492E+03 -0.37575022176E+03 -0.85257538176E+03  0.93934917900E+03  0.00000000000E+00 0. -1.
<mgrwt>
<rscale>  0 0.11891267E+04</rscale>
<asrwt>0</asrwt>
<pdfrwt beam="1">  1        2 0.52635672E-01 0.11891267E+04</pdfrwt>
<pdfrwt beam="2">  1       -2 0.15896056E+00 0.11891267E+04</pdfrwt>
<totfact> 0.23971727E+01</totfact>
</mgrwt>
</event>
<event>
 6    1  0.1719556E-004  0.2464272E+04  0.7818608E-02  0.8415825E-01
         -1   -1    0    0    0  501 -0.00000000000E+00  0.00000000000E+00  0.23512518377E+04  0.23512518377E+04  0.00000000000E+00 0. -1.
          1   -1    0    0  501    0  0.00000000000E+00 -0.00000000000E+00 -0.64568129359E+03  0.64568129359E+03  0.00000000000E+00 0.  1.
         23    2    1    2    0    0 -0.63413527061E+02 -0.60983369871E+03  0.21514094077E+04  0.22388495556E+04  0.89255125560E+02 0.  0.
         13    1    3    3    0    0 -0.73772222077E+02 -0.47400913844E+03  0.17695356679E+04  0.18334076154E+04  0.00000000000E+00 0.  1.
        -13    1    3    3    0    0  0.10358695016E+02 -0.13582456027E+03  0.38187373977E+03  0.40544194019E+03  0.00000000000E+00 0. -1.
         22    1    1    2    0    0  0.63413527061E+02  0.60983369871E+03 -0.44583886359E+03  0.75808357572E+03  0.00000000000E+00 0.  1.
<mgrwt>
<rscale>  0 0.24642722E+04</rscale>
<asrwt>0</asrwt>
<pdfrwt beam="1">  1        1 0.99335585E-01 0.24642722E+04</pdfrwt>
<pdfrwt beam="2">  1       -1 0.36173105E+00 0.24642722E+04</pdfrwt>
<totfact> 0.35593984E-01</totfact>
</mgrwt>
</event>
<event>
 6    1  0.1719556E-004  0.1494890E+04  0.7818608E-02  0.8887858E-01
         -2   -1    0    0    0  501 -0.00000000000E+00  0.00000000000E+00  0.28957140836E+03  0.28957140836E+03  0.00000000000E+00 0. -1.
          2   -1    0    0  501    0  0.00000000000E+00 -0.00000000000E+00 -0.19293145062E+04  0.19293145062E+04  0.00000000000E+00 0.  1.
         23    2    1    2    0    0  0.31933175149E+03  0.34636393973E+03  0.32917843005E+02  0.48114733546E+03  0.92078378449E+02 0.  0.
         13    1    3    3    0    0  0.23330189080E+03  0.30254438995E+03  0.11342858116E+02  0.38221923103E+03  0.00000000000E+00 0. -1.
        -13    1    3    3    0    0  0.86029860684E+02  0.43819549785E+02  0.21574984889E+02  0.98928104428E+02  0.00000000000E+00 0.  1.
         22    1    1    2    0    0 -0.31933175149E+03 -0.34636393973E+03 -0.16726609409E+04  0.17377385791E+04  0.00000000000E+00 0.  1.
<mgrwt>
<rscale>  0 0.14948904E+04</rscale>
<asrwt>0</asrwt>
<pdfrwt beam="1">  1        2 0.29681762E+00 0.14948904E+04</pdfrwt>
<pdfrwt beam="2">  1       -2 0.44549447E-01 0.14948904E+04</pdfrwt>
<totfact> 0.33788227E+01</totfact>
</mgrwt>
</event>
<event>
 6    1  0.1719556E-004  0.2867644E+04  0.7818608E-02  0.8282570E-01
          2   -1    0    0  501    0  0.00000000000E+00  0.00000000000E+00  0.19911588447E+04  0.19911588447E+04  0.00000000000E+00 0.  1.
         -2   -1    0    0    0  501 -0.00000000000E+00 -0.00000000000E+00 -0.10324873011E+04  0.10324873011E+04  0.00000000000E+00 0. -1.
         23    2    1    2    0    0 -0.10000427397E+04 -0.94398876796E+03  0.90239862218E+03  0.16472861213E+04  0.89599200671E+02 0.  0.
         13    1    3    3    0    0 -0.74716916955E+03 -0.74315860237E+03  0.72149331865E+03  0.12771448959E+04  0.00000000000E+00 0.  1.
        -13    1    3    3    0    0 -0.25287357018E+03 -0.20083016558E+03  0.18090530353E+03  0.37014122542E+03  0.00000000000E+00 0. -1.
         22    1    1    2    0    0  0.10000427397E+04  0.94398876796E+03  0.56272921473E+02  0.13763600245E+04  0.00000000000E+00 0.  1.
<mgrwt>
<rscale>  0 0.28676445E+04</rscale>
<asrwt>0</asrwt>
<pdfrwt beam="1">  1        2 0.30633213E+00 0.28676445E+04</pdfrwt>
<pdfrwt beam="2">  1       -2 0.15884420E+00 0.28676445E+04</pdfrwt>
<totfact> 0.15024174E+00</totfact>
</mgrwt>
</event>
<event>
 6    1  0.1719556E-004  0.3200526E+04  0.7818608E-02  0.8188678E-01
         -1   -1    0    0    0  501 -0.00000000000E+00  0.00000000000E+00  0.23105319504E+04  0.23105319504E+04  0.00000000000E+00 0. -1.
          1   -1    0    0  501    0  0.00000000000E+00 -0.00000000000E+00 -0.11083339750E+04  0.11083339750E+04  0.00000000000E+00 0.  1.
         23    2    1    2    0    0  0.66227773155E+03  0.12540013111E+04 -0.18646134458E+03  0.14340470952E+04  0.10291820129E+03 0.  0.
         11    1    3    3    0    0  0.40225113191E+03  0.69760179133E+03 -0.14739074619E+03  0.81864416229E+03  0.00000000000E+00 0.  1.
        -11    1    3    3    0    0  0.26002659964E+03  0.55639951979E+03 -0.39070598384E+02  0.61540293289E+03  0.00000000000E+00 0. -1.
         22    1    1    2    0    0 -0.66227773155E+03 -0.12540013111E+04  0.13886593200E+04  0.19848188303E+04  0.00000000000E+00 0. -1.
<mgrwt>
<rscale>  0 0.32005256E+04</rscale>
<asrwt>0</asrwt>
<pdfrwt beam="1">  1        1 0.17051292E+00 0.32005256E+04</pdfrwt>
<pdfrwt beam="2">  1       -1 0.35546645E+00 0.32005256E+04</pdfrwt>
<totfact> 0.14935124E-01</totfact>
</mgrwt>
</event>
<event>
 6    1  0.1719556E-004  0.1877513E+04  0.7818608E-02  0.8666131E-01
         -2   -1    0    0    0  501 -0.00000000000E+00  0.00000000000E+00  0.68486930140E+03  0.68486930140E+03  0.00000000000E+00 0. -1.
          2   -1    0    0  501    0  0.00000000000E+00 -0.00000000000E+00 -0.12867621462E+04  0.12867621462E+04  0.00000000000E+00 0.  1.
         23    2    1    2    0    0  0.56384461416E+02 -0.65319815786E+03  0.40036804719E+03  0.77397793487E+03  0.94341027860E+02 0.  0.
         13    1    3    3    0    0  0.46747219416E+02 -0.30609092747E+03  0.23859632981E+03  0.39090301483E+03  0.00000000000E+00 0.  1.
        -13    1    3    3    0    0  0.96372420003E+01 -0.34710723040E+03  0.16177171738E+03  0.38307492005E+03  0.00000000000E+00 0. -1.
         22    1    1    2    0    0 -0.56384461416E+02  0.65319815786E+03 -0.10022608920E+04  0.11976535127E+04  0.00000000000E+00 0.  1.
<mgrwt>
<rscale>  0 0.18775131E+04</rscale>
<asrwt>0</asrwt>
<pdfrwt beam="1">  1        2 0.19796341E+00 0.18775131E+04</pdfrwt>
<pdfrwt beam="2">  1       -2 0.10536451E+00 0.18775131E+04</pdfrwt>
<totfact> 0.11512323E+01</totfact>
</mgrwt>
</event>
<event>
 6    1  0.1719556E-004  0.1571055E+04  0.7818608E-02  0.8838530E-01
          2   -1    0    0  501    0  0.00000000000E+00  0.00000000000E+00  0.23788918111E+04  0.23788918111E+04  0.00000000000E+00 0.  1.
         -2   -1    0    0    0  501 -0.00000000000E+00 -0.00000000000E+00 -0.25938708750E+03  0.25938708750E+03  0.00000000000E+00 0. -1.
         23    2    1    2    0    0  0.62417608113E+03 -0.41491666281E+03  0.68358505377E+03  0.10185206094E+04  0.91345983024E+02 0.  0.
         13    1    3    3    0    0  0.30523075012E+03 -0.18348431119E+03  0.26719568077E+03  0.44522560022E+03  0.00000000000E+00 0. -1.
        -13    1    3    3    0    0  0.31894533101E+03 -0.23143235162E+03  0.41638937301E+03  0.57329500914E+03  0.00000000000E+00 0.  1.
         22    1    1    2    0    0 -0.62417608113E+03  0.41491666281E+03  0.14359196698E+04  0.16197582892E+04  0.00000000000E+00 0.  1.
<mgrwt>
<rscale>  0 0.15710555E+04</rscale>
<asrwt>0</asrwt>
<pdfrwt beam="1">  1        2 0.36598334E+00 0.15710555E+04</pdfrwt>
<pdfrwt beam="2">  1       -2 0.39905707E-01 0.15710555E+04</pdfrwt>
<totfact> 0.23380225E+01</totfact>
</mgrwt>
</event>
<event>
 6    1  0.1719556E-004  0.1986989E+04  0.7818608E-02  0.8612728E-01
          1   -1    0    0  501    0  0.00000000000E+00  0.00000000000E+00  0.11946982980E+04  0.11946982980E+04  0.00000000000E+00 0.  1.
         -1   -1    0    0    0  501 -0.00000000000E+00 -0.00000000000E+00 -0.82617620112E+03  0.82617620112E+03  0.00000000000E+00 0. -1.
         23    2    1    2    0    0  0.38737241471E+03  0.61476654366E+03 -0.50251423993E+03  0.88654668452E+03  0.73818504538E+02 0.  0.
         13    1    3    3    0    0  0.76320233605E+02  0.77893095764E+02 -0.60271777318E+02  0.12459855363E+03  0.00000000000E+00 0.  1.
        -13    1    3    3    0    0  0.31105218111E+03  0.53687344790E+03 -0.44224246261E+03  0.76194813089E+03  0.00000000000E+00 0. -1.
         22    1    1    2    0    0 -0.38737241471E+03 -0.61476654366E+03  0.87103633678E+03  0.11343278146E+04  0.00000000000E+00 0.  1.
<mgrwt>
<rscale>  0 0.19869890E+04</rscale>
<asrwt>0</asrwt>
<pdfrwt beam="1">  1        1 0.18379974E+00 0.19869890E+04</pdfrwt>
<pdfrwt beam="2">  1       -1 0.12710403E+00 0.19869890E+04</pdfrwt>
<totfact> 0.53749276E+00</totfact>
</mgrwt>
</event>
<event>
 6    1  0.1719556E-004  0.2176151E+04  0.7818608E-02  0.8528420E-01
         -1   -1    0    0    0  501 -0.00000000000E+00  0.00000000000E+00  0.50429723846E+03  0.50429723846E+03  0.00000000000E+00 0. -1.
          1   -1    0    0  501    0  0.00000000000E+00 -0.00000000000E+00 -0.23476406300E+04  0.23476406300E+04  0.00000000000E+00 0.  1.
         23    2    1    2    0    0  0.28879638422E+03  0.30621235895E+03  0.38900508589E+03  0.58025367276E+03  0.90553893301E+02 0.  0.
         13    1    3    3    0    0  0.77929825639E+02  0.94442467336E+02  0.17109288853E+03  0.21039299861E+03  0.00000000000E+00 0. -1.
        -13    1    3    3    0    0  0.21086655858E+03  0.21176989162E+03  0.21791219736E+03  0.36986067415E+03  0.00000000000E+00 0.  1.
         22    1    1    2    0    0 -0.28879638422E+03 -0.30621235895E+03 -0.22323484775E+04  0.22716841957E+04  0.00000000000E+00 0.  1.
<mgrwt>
<rscale>  0 0.21761514E+04</rscale>
<asrwt>0</asrwt>
<pdfrwt beam="1">  1        1 0.36117548E+00 0.21761514E+04</pdfrwt>
<pdfrwt beam="2">  1       -1 0.77584191E-01 0.21761514E+04</pdfrwt>
<totfact> 0.26254413E+00</totfact>
</mgrwt>
</event>
<event>
 6    1  0.1784870E-004  0.3336821E+04  0.7818608E-02  0.8153589E-01
         -4   -1    0    0    0  501 -0.00000000000E+00  0.00000000000E+00  0.15387429829E+04  0.15387429829E+04  0.00000000000E+00 0. -1.
          4   -1    0    0  501    0  0.00000000000E+00 -0.00000000000E+00 -0.18090053188E+04  0.18090053188E+04  0.00000000000E+00 0.  1.
         23    2    1    2    0    0 -0.15205499215E+04  0.35136902869E+03  0.45340633718E+03  0.16275074447E+04  0.87583775811E+02 0.  0.
         13    1    3    3    0    0 -0.84130213576E+03  0.16435169185E+03  0.28243601675E+03  0.90253579752E+03  0.00000000000E+00 0. -1.
        -13    1    3    3    0    0 -0.67924778572E+03  0.18701733684E+03  0.17097032043E+03  0.72497164714E+03  0.00000000000E+00 0.  1.
         22    1    1    2    0    0  0.15205499215E+04 -0.35136902869E+03 -0.72366867303E+03  0.17202408571E+04  0.00000000000E+00 0.  1.
<mgrwt>
<rscale>  0 0.33368214E+04</rscale>
<asrwt>0</asrwt>
<pdfrwt beam="1">  1        4 0.27830851E+00 0.33368214E+04</pdfrwt>
<pdfrwt beam="2">  1       -4 0.23672969E+00 0.33368214E+04</pdfrwt>
<totfact> 0.53005933E-03</totfact>
</mgrwt>
</event>
<event>
 6    1  0.1719556E-004  0.2048653E+04  0.7818608E-02  0.8584206E-01
          2   -1    0    0  501    0  0.00000000000E+00  0.00000000000E+00  0.18123250713E+04  0.18123250713E+04  0.00000000000E+00 0.  1.
         -2   -1    0    0    0  501 -0.00000000000E+00 -0.00000000000E+00 -0.57894934726E+03  0.57894934726E+03  0.00000000000E+00 0. -1.
         23    2    1    2    0    0 -0.22781538345E+03 -0.99107487722E+03  0.49492122303E+03  0.11345149701E+04  0.89710307186E+02 0.  0.
         11    1    3    3    0    0 -0.16206296344E+03 -0.60001576182E+03  0.26085090202E+03  0.67403747050E+03  0.00000000000E+00 0.  1.
        -11    1    3    3    0    0 -0.65752420010E+02 -0.39105911540E+03  0.23407032101E+03  0.46047749962E+03  0.00000000000E+00 0. -1.
         22    1    1    2    0    0  0.22781538345E+03  0.99107487722E+03  0.73845450101E+03  0.12567594484E+04  0.00000000000E+00 0.  1.
<mgrwt>
<rscale>  0 0.20486526E+04</rscale>
<asrwt>0</asrwt>
<pdfrwt beam="1">  1        2 0.27881924E+00 0.20486526E+04</pdfrwt>
<pdfrwt beam="2">  1       -2 0.89069131E-01 0.20486526E+04</pdfrwt>
<totfact> 0.85081394E+00</totfact>
</mgrwt>
</event>
<event>
 6    1  0.1719556E-004  0.1326002E+04  0.7818608E-02  0.9009196E-01
          2   -1    0    0  501    0  0.00000000000E+00  0.00000000000E+00  0.35016840092E+03  0.35016840092E+03  0.00000000000E+00 0.  1.
         -2   -1    0    0    0  501 -0.00000000000E+00 -0.00000000000E+00 -0.12553114969E+04  0.12553114969E+04  0.00000000000E+00 0. -1.
         23    2    1    2    0    0 -0.46704521575E+03 -0.79337025025E+02  0.10072407092E+03  0.49363712362E+03  0.95428896335E+02 0.  0.
         13    1    3    3    0    0 -0.37871970152E+03 -0.68844896927E+02  0.42356112732E+02  0.38724962548E+03  0.00000000000E+00 0.  1.
        -13    1    3    3    0    0 -0.88325514236E+02 -0.10492128097E+02  0.58367958188E+02  0.10638749814E+03  0.00000000000E+00 0. -1.
         22    1    1    2    0    0  0.46704521575E+03  0.79337025025E+02 -0.10058671669E+04  0.11118427742E+04  0.00000000000E+00 0. -1.
<mgrwt>
<rscale>  0 0.13260021E+04</rscale>
<asrwt>0</asrwt>
<pdfrwt beam="1">  1        2 0.53872061E-01 0.13260021E+04</pdfrwt>
<pdfrwt beam="2">  1       -2 0.19312485E+00 0.13260021E+04</pdfrwt>
<totfact> 0.13334165E+01</totfact>
</mgrwt>
</event>
<event>
 6    1  0.1719556E-004  0.1799701E+04  0.7818608E-02  0.8706459E-01
          2   -1    0    0  501    0  0.00000000000E+00  0.00000000000E+00  0.31621499860E+04  0.31621499860E+04  0.00000000000E+00 0.  1.
         -2   -1    0    0    0  501 -0.00000000000E+00 -0.00000000000E+00 -0.25606968248E+03  0.25606968248E+03  0.00000000000E+00 0. -1.
         23    2    1    2    0    0  0.58049262978E+03 -0.56922035559E+03  0.21791496648E+04  0.23276181556E+04  0.90163796249E+02 0.  0.
         11    1    3    3    0    0  0.37223635642E+03 -0.42329590570E+03  0.15086610410E+04  0.16105270769E+04  0.00000000000E+00 0. -1.
        -11    1    3    3    0    0  0.20825627336E+03 -0.14592444989E+03  0.67048862373E+03  0.71709107862E+03  0.00000000000E+00 0.  1.
         22    1    1    2    0    0 -0.58049262978E+03  0.56922035559E+03  0.72693063878E+03  0.10906015129E+04  0.00000000000E+00 0. -1.
<mgrwt>
<rscale>  0 0.17997008E+04</rscale>
<asrwt>0</asrwt>
<pdfrwt beam="1">  1        2 0.48648458E+00 0.17997008E+04</pdfrwt>
<pdfrwt beam="2">  1       -2 0.39395338E-01 0.17997008E+04</pdfrwt>
<totfact> 0.79352392E+00</totfact>
</mgrwt>
</event>
<event>
 6    1  0.1719556E-004  0.2480174E+04  0.7818608E-02  0.8410083E-01
         -1   -1    0    0    0  501 -0.00000000000E+00  0.00000000000E+00  0.81779133392E+03  0.81779133392E+03  0.00000000000E+00 0. -1.
          1   -1    0    0  501    0  0.00000000000E+00 -0.00000000000E+00 -0.18804497617E+04  0.18804497617E+04  0.00000000000E+00 0.  1.
         23    2    1    2    0    0 -0.48672316682E+03  0.87277470964E+03 -0.13278121595E+04  0.16643447583E+04  0.91231621707E+02 0.  0.
         13    1    3    3    0    0 -0.97983575186E+02  0.21330063319E+03 -0.37039789241E+03  0.43851173283E+03  0.00000000000E+00 0.  1.
        -13    1    3    3    0    0 -0.38873959164E+03  0.65947407646E+03 -0.95741426706E+03  0.12258330255E+04  0.00000000000E+00 0. -1.
         22    1    1    2    0    0  0.48672316682E+03 -0.87277470964E+03  0.26515373166E+03  0.10338963373E+04  0.00000000000E+00 0. -1.
<mgrwt>
<rscale>  0 0.24801738E+04</rscale>
<asrwt>0</asrwt>
<pdfrwt beam="1">  1        1 0.28929996E+00 0.24801738E+04</pdfrwt>
<pdfrwt beam="2">  1       -1 0.12581405E+00 0.24801738E+04</pdfrwt>
<totfact> 0.17600802E+00</totfact>
</mgrwt>
</event>
<event>
 6    1  0.1719556E-004  0.4266498E+04  0.7818608E-02  0.7952842E-01
         -1   -1    0    0    0  501 -0.00000000000E+00  0.00000000000E+00  0.19951392354E+04  0.19951392354E+04  0.00000000000E+00 0. -1.
          1   -1    0    0  501    0  0.00000000000E+00 -0.00000000000E+00 -0.22809194198E+04  0.22809194198E+04  0.00000000000E+00 0.  1.
         23    2    1    2    0    0 -0.90415171881E+03 -0.96619320229E+03  0.15327726449E+04  0.20270246341E+04  0.91745580793E+02 0.  0.
         13    1    3    3    0    0 -0.12738148305E+02 -0.18309201612E+02  0.11213477953E+02  0.24964562358E+02  0.00000000000E+00 0. -1.
        -13    1    3    3    0    0 -0.89141357051E+03 -0.94788400068E+03  0.15215591670E+04  0.20020600718E+04  0.00000000000E+00 0.  1.
         22    1    1    2    0    0  0.90415171881E+03  0.96619320229E+03 -0.18185528293E+04  0.22490340210E+04  0.00000000000E+00 0.  1.
<mgrwt>
<rscale>  0 0.42664982E+04</rscale>
<asrwt>0</asrwt>
<pdfrwt beam="1">  1        1 0.35091068E+00 0.42664982E+04</pdfrwt>
<pdfrwt beam="2">  1       -1 0.30694450E+00 0.42664982E+04</pdfrwt>
<totfact> 0.43726712E-02</totfact>
</mgrwt>
</event>
<event>
 6    1  0.1719556E-004  0.4319835E+04  0.7818608E-02  0.7942961E-01
          1   -1    0    0  501    0  0.00000000000E+00  0.00000000000E+00  0.38187572704E+04  0.38187572704E+04  0.00000000000E+00 0.  1.
         -1   -1    0    0    0  501 -0.00000000000E+00 -0.00000000000E+00 -0.12216652525E+04  0.12216652525E+04  0.00000000000E+00 0. -1.
         23    2    1    2    0    0 -0.13472508437E+03 -0.17377814479E+04 -0.18737953903E+03  0.17554085108E+04  0.91174224775E+02 0.  0.
         13    1    3    3    0    0 -0.46759241962E+02 -0.10540344287E+04 -0.85362412449E+02  0.10585186560E+04  0.00000000000E+00 0. -1.
        -13    1    3    3    0    0 -0.87965842405E+02 -0.68374701914E+03 -0.10201712658E+03  0.69688985480E+03  0.00000000000E+00 0.  1.
         22    1    1    2    0    0  0.13472508437E+03  0.17377814479E+04  0.27844715569E+04  0.32850140121E+04  0.00000000000E+00 0.  1.
<mgrwt>
<rscale>  0 0.43198347E+04</rscale>
<asrwt>0</asrwt>
<pdfrwt beam="1">  1        1 0.58750111E+00 0.43198347E+04</pdfrwt>
<pdfrwt beam="2">  1       -1 0.18794850E+00 0.43198347E+04</pdfrwt>
<totfact> 0.19095086E-02</totfact>
</mgrwt>
</event>
<event>
 6    1  0.1719556E-004  0.8465138E+03  0.7818608E-02  0.9495028E-01
         -1   -1    0    0    0  501 -0.00000000000E+00  0.00000000000E+00  0.34913446639E+03  0.34913446639E+03  0.00000000000E+00 0.  1.
          1   -1    0    0  501    0  0.00000000000E+00 -0.00000000000E+00 -0.51311574372E+03  0.51311574372E+03  0.00000000000E+00 0. -1.
         23    2    1    2    0    0  0.10923757757E+03  0.15843122312E+03  0.29551908501E+03  0.36407967324E+03  0.90494077423E+02 0.  0.
         11    1    3    3    0    0  0.56718198328E+02  0.83104430116E+02  0.23067953451E+03  0.25166713724E+03  0.00000000000E+00 0. -1.
        -11    1    3    3    0    0  0.52519379240E+02  0.75326793008E+02  0.64839550504E+02  0.11241253600E+03  0.00000000000E+00 0.  1.
         22    1    1    2    0    0 -0.10923757757E+03 -0.15843122312E+03 -0.45950036234E+03  0.49817053687E+03  0.00000000000E+00 0. -1.
<mgrwt>
<rscale>  0 0.84651377E+03</rscale>
<asrwt>0</asrwt>
<pdfrwt beam="1">  1        1 0.78940883E-01 0.84651377E+03</pdfrwt>
<pdfrwt beam="2">  1       -1 0.53712995E-01 0.84651377E+03</pdfrwt>
<totfact> 0.15108025E+02</totfact>
</mgrwt>
</event>
<event>
 6    1  0.1719556E-004  0.4944413E+04  0.7818608E-02  0.7837140E-01
         -2   -1    0    0    0  501 -0.00000000000E+00  0.00000000000E+00  0.20542648030E+04  0.20542648030E+04  0.00000000000E+00 0. -1.
          2   -1    0    0  501    0  0.00000000000E+00 -0.00000000000E+00 -0.29751791658E+04  0.29751791658E+04  0.00000000000E+00 0.  1.
         23    2    1    2    0    0  0.20186381499E+04 -0.74034989494E+03  0.77872730257E+03  0.22886777004E+04  0.92797936614E+02 0.  0.
         13    1    3    3    0    0  0.15247162103E+04 -0.52397077762E+03  0.55911124563E+03  0.17064320328E+04  0.00000000000E+00 0.  1.
        -13    1    3    3    0    0  0.49392193964E+03 -0.21637911732E+03  0.21961605695E+03  0.58224566752E+03  0.00000000000E+00 0. -1.
         22    1    1    2    0    0 -0.20186381499E+04  0.74034989494E+03 -0.16996416654E+04  0.27407662684E+04  0.00000000000E+00 0. -1.
<mgrwt>
<rscale>  0 0.49444133E+04</rscale>
<asrwt>0</asrwt>
<pdfrwt beam="1">  1        2 0.45771987E+00 0.49444133E+04</pdfrwt>
<pdfrwt beam="2">  1       -2 0.31604074E+00 0.49444133E+04</pdfrwt>
<totfact> 0.33409856E-02</totfact>
</mgrwt>
</event>
<event>
 6    1  0.1719556E-004  0.2347367E+04  0.7818608E-02  0.8459476E-01
         -2   -1    0    0    0  501 -0.00000000000E+00  0.00000000000E+00  0.43072338272E+03  0.43072338272E+03  0.00000000000E+00 0. -1.
          2   -1    0    0  501    0  0.00000000000E+00 -0.00000000000E+00 -0.31981837591E+04  0.31981837591E+04  0.00000000000E+00 0.  1.
         23    2    1    2    0    0 -0.55570378395E+02  0.10615793464E+04 -0.21484353010E+04  0.23987726697E+04  0.91089529799E+02 0.  0.
         13    1    3    3    0    0 -0.17715364119E+02  0.51621325420E+03 -0.94375500430E+03  0.10758547607E+04  0.00000000000E+00 0. -1.
        -13    1    3    3    0    0 -0.37855014276E+02  0.54536609222E+03 -0.12046802967E+04  0.13229179090E+04  0.00000000000E+00 0.  1.
         22    1    1    2    0    0  0.55570378395E+02 -0.10615793464E+04 -0.61902507544E+03  0.12301344722E+04  0.00000000000E+00 0. -1.
<mgrwt>
<rscale>  0 0.23473666E+04</rscale>
<asrwt>0</asrwt>
<pdfrwt beam="1">  1        2 0.49202828E+00 0.23473666E+04</pdfrwt>
<pdfrwt beam="2">  1       -2 0.66265134E-01 0.23473666E+04</pdfrwt>
<totfact> 0.24622370E+00</totfact>
</mgrwt>
</event>
<event>
 6    1  0.1719556E-004  0.2564676E+04  0.7818608E-02  0.8380300E-01
          2   -1    0    0  501    0  0.00000000000E+00  0.00000000000E+00  0.22377268733E+04  0.22377268733E+04  0.00000000000E+00 0.  1.
         -2   -1    0    0    0  501 -0.00000000000E+00 -0.00000000000E+00 -0.73484849710E+03  0.73484849710E+03  0.00000000000E+00 0. -1.
         23    2    1    2    0    0  0.81886787313E+03  0.83227966723E+03  0.14235074443E+03  0.11797369853E+04  0.91003197837E+02 0.  0.
         13    1    3    3    0    0  0.56616701427E+03  0.53147553346E+03  0.64293196550E+02  0.77919506276E+03  0.00000000000E+00 0.  1.
        -13    1    3    3    0    0  0.25270085886E+03  0.30080413377E+03  0.78057547881E+02  0.40054192258E+03  0.00000000000E+00 0. -1.
         22    1    1    2    0    0 -0.81886787313E+03 -0.83227966723E+03  0.13605276318E+04  0.17928383851E+04  0.00000000000E+00 0.  1.
<mgrwt>
<rscale>  0 0.25646756E+04</rscale>
<asrwt>0</asrwt>
<pdfrwt beam="1">  1        2 0.34426567E+00 0.25646756E+04</pdfrwt>
<pdfrwt beam="2">  1       -2 0.11305362E+00 0.25646756E+04</pdfrwt>
<totfact> 0.26811456E+00</totfact>
</mgrwt>
</event>
<event>
 6    1  0.1719556E-004  0.8312534E+03  0.7818608E-02  0.9515849E-01
         -2   -1    0    0    0  501 -0.00000000000E+00  0.00000000000E+00  0.33022581077E+03  0.33022581077E+03  0.00000000000E+00 0. -1.
          2   -1    0    0  501    0  0.00000000000E+00 -0.00000000000E+00 -0.52311348200E+03  0.52311348200E+03  0.00000000000E+00 0.  1.
         23    2    1    2    0    0  0.24751343590E+03  0.24871928626E+03 -0.31845419808E+03  0.48065828041E+03  0.80592319349E+02 0.  0.
         11    1    3    3    0    0  0.10996497501E+02 -0.79661585009E+00 -0.29714017240E+02  0.31693538374E+02  0.00000000000E+00 0.  1.
        -11    1    3    3    0    0  0.23651693840E+03  0.24951590211E+03 -0.28874018084E+03  0.44896474204E+03  0.00000000000E+00 0. -1.
         22    1    1    2    0    0 -0.24751343590E+03 -0.24871928626E+03  0.12556652685E+03  0.37268101236E+03  0.00000000000E+00 0. -1.
<mgrwt>
<rscale>  0 0.83125345E+03</rscale>
<asrwt>0</asrwt>
<pdfrwt beam="1">  1        2 0.80478997E-01 0.83125345E+03</pdfrwt>
<pdfrwt beam="2">  1       -2 0.50803971E-01 0.83125345E+03</pdfrwt>
<totfact> 0.21524292E+02</totfact>
</mgrwt>
</event>
<event>
 6    1  0.1719556E-004  0.9743774E+03  0.7818608E-02  0.9337102E-01
          2   -1    0    0  501    0  0.00000000000E+00  0.00000000000E+00  0.28140924403E+03  0.28140924403E+03  0.00000000000E+00 0.  1.
         -2   -1    0    0    0  501 -0.00000000000E+00 -0.00000000000E+00 -0.84344366341E+03  0.84344366341E+03  0.00000000000E+00 0. -1.
         23    2    1    2    0    0 -0.34842260190E+02  0.23557601423E+03 -0.76884263288E+03  0.80944891453E+03  0.85898251056E+02 0.  0.
         13    1    3    3    0    0 -0.42389125123E+02  0.21387891222E+03 -0.58747415858E+03  0.62663140204E+03  0.00000000000E+00 0. -1.
        -13    1    3    3    0    0  0.75468649320E+01  0.21697102007E+02 -0.18136847430E+03  0.18281751249E+03  0.00000000000E+00 0.  1.
         22    1    1    2    0    0  0.34842260190E+02 -0.23557601423E+03  0.20680821349E+03  0.31540399291E+03  0.00000000000E+00 0.  1.
<mgrwt>
<rscale>  0 0.97437743E+03</rscale>
<asrwt>0</asrwt>
<pdfrwt beam="1">  1        2 0.43293729E-01 0.97437743E+03</pdfrwt>
<pdfrwt beam="2">  1       -2 0.12976057E+00 0.97437743E+03</pdfrwt>
<totfact> 0.51401124E+01</totfact>
</mgrwt>
</event>
<event>
 6    1  0.1719556E-004  0.3934959E+04  0.7818608E-02  0.8017798E-01
          2   -1    0    0  501    0  0.00000000000E+00  0.00000000000E+00  0.17096932184E+04  0.17096932184E+04  0.00000000000E+00 0.  1.
         -2   -1    0    0    0  501 -0.00000000000E+00 -0.00000000000E+00 -0.22641341337E+04  0.22641341337E+04  0.00000000000E+00 0. -1.
         23    2    1    2    0    0 -0.10343307367E+04 -0.14863120726E+03  0.14049075329E+04  0.17532468762E+04  0.90432982001E+02 0.  0.
         11    1    3    3    0    0 -0.14760971519E+03  0.10462253364E+02  0.19740332269E+03  0.24671067786E+03  0.00000000000E+00 0.  1.
        -11    1    3    3    0    0 -0.88672102151E+03 -0.15909346062E+03  0.12075042102E+04  0.15065361983E+04  0.00000000000E+00 0. -1.
         22    1    1    2    0    0  0.10343307367E+04  0.14863120726E+03 -0.19593484482E+04  0.22205804759E+04  0.00000000000E+00 0. -1.
<mgrwt>
<rscale>  0 0.39349586E+04</rscale>
<asrwt>0</asrwt>
<pdfrwt beam="1">  1        2 0.26302973E+00 0.39349586E+04</pdfrwt>
<pdfrwt beam="2">  1       -2 0.34832833E+00 0.39349586E+04</pdfrwt>
<totfact> 0.12240628E-01</totfact>
</mgrwt>
</event>
<event>
 6    1  0.1719556E-004  0.2398586E+04  0.7818608E-02  0.8440033E-01
          2   -1    0    0  501    0  0.00000000000E+00  0.00000000000E+00  0.22236917525E+04  0.22236917525E+04  0.00000000000E+00 0.  1.
         -2   -1    0    0    0  501 -0.00000000000E+00 -0.00000000000E+00 -0.64680914337E+03  0.64680914337E+03  0.00000000000E+00 0. -1.
         23    2    1    2    0    0 -0.62993369073E+03  0.11583311499E+03  0.20005382243E+04  0.21025700100E+04  0.91726194473E+02 0.  0.
         13    1    3    3    0    0 -0.33731877260E+03  0.63838979540E+02  0.92228704633E+03  0.98411013890E+03  0.00000000000E+00 0.  1.
        -13    1    3    3    0    0 -0.29261491813E+03  0.51994135450E+02  0.10782511779E+04  0.11184598711E+04  0.00000000000E+00 0. -1.
         22    1    1    2    0    0  0.62993369073E+03 -0.11583311499E+03 -0.42365561517E+03  0.76793088589E+03  0.00000000000E+00 0. -1.
<mgrwt>
<rscale>  0 0.23985864E+04</rscale>
<asrwt>0</asrwt>
<pdfrwt beam="1">  1        2 0.34210642E+00 0.23985864E+04</pdfrwt>
<pdfrwt beam="2">  1       -2 0.99509100E-01 0.23985864E+04</pdfrwt>
<totfact> 0.37629931E+00</totfact>
</mgrwt>
</event>
<event>
 6    1  0.1719556E-004  0.4478677E+04  0.7818608E-02  0.7914380E-01
         -2   -1    0    0    0  501 -0.00000000000E+00  0.00000000000E+00  0.21184971998E+04  0.21184971998E+04  0.00000000000E+00 0. -1.
          2   -1    0    0  501    0  0.00000000000E+00 -0.00000000000E+00 -0.23670728521E+04  0.23670728521E+04  0.00000000000E+00 0.  1.
         23    2    1    2    0    0  0.11521585282E+04  0.19181391831E+04 -0.18588241071E+03  0.22471202217E+04  0.90938550795E+02 0.  0.
         13    1    3    3    0    0  0.88233336370E+03  0.14139717199E+04 -0.11047952005E+03  0.16703394606E+04  0.00000000000E+00 0.  1.
        -13    1    3    3    0    0  0.26982516450E+03  0.50416746328E+03 -0.75402890664E+02  0.57678076108E+03  0.00000000000E+00 0. -1.
         22    1    1    2    0    0 -0.11521585282E+04 -0.19181391831E+04 -0.62693241559E+02  0.22384498303E+04  0.00000000000E+00 0. -1.
<mgrwt>
<rscale>  0 0.44786771E+04</rscale>
<asrwt>0</asrwt>
<pdfrwt beam="1">  1        2 0.36416505E+00 0.44786771E+04</pdfrwt>
<pdfrwt beam="2">  1       -2 0.32592265E+00 0.44786771E+04</pdfrwt>
<totfact> 0.69345240E-02</totfact>
</mgrwt>
</event>
<event>
 6    1  0.1719556E-004  0.1870399E+04  0.7818608E-02  0.8669733E-01
          1   -1    0    0  501    0  0.00000000000E+00  0.00000000000E+00  0.89625634811E+03  0.89625634811E+03  0.00000000000E+00 0.  1.
         -1   -1    0    0    0  501 -0.00000000000E+00 -0.00000000000E+00 -0.97583441898E+03  0.97583441898E+03  0.00000000000E+00 0. -1.
         23    2    1    2    0    0 -0.42266550864E+03 -0.30096732917E+03  0.73617430283E+03  0.90530257901E+03  0.91611625951E+02 0.  0.
         11    1    3    3    0    0 -0.23272813400E+03 -0.11047112158E+03  0.37469374281E+03  0.45471051666E+03  0.00000000000E+00 0.  1.
        -11    1    3    3    0    0 -0.18993737464E+03 -0.19049620758E+03  0.36148056002E+03  0.45059206236E+03  0.00000000000E+00 0. -1.
         22    1    1    2    0    0  0.42266550864E+03  0.30096732917E+03 -0.81575237369E+03  0.96678818807E+03  0.00000000000E+00 0. -1.
<mgrwt>
<rscale>  0 0.18703987E+04</rscale>
<asrwt>0</asrwt>
<pdfrwt beam="1">  1        1 0.13788559E+00 0.18703987E+04</pdfrwt>
<pdfrwt beam="2">  1       -1 0.15012837E+00 0.18703987E+04</pdfrwt>
<totfact> 0.59840246E+00</totfact>
</mgrwt>
</event>
<event>
 6    1  0.1719556E-004  0.3788086E+04  0.7818608E-02  0.8048716E-01
          1   -1    0    0  501    0  0.00000000000E+00  0.00000000000E+00  0.19614616078E+04  0.19614616078E+04  0.00000000000E+00 0.  1.
         -1   -1    0    0    0  501 -0.00000000000E+00 -0.00000000000E+00 -0.18289421040E+04  0.18289421040E+04  0.00000000000E+00 0. -1.
         23    2    1    2    0    0 -0.10812773980E+04 -0.10575762932E+04 -0.10725808063E+04  0.18565228508E+04  0.92839011459E+02 0.  0.
         13    1    3    3    0    0 -0.45629312515E+03 -0.44282794840E+03 -0.50729271484E+03  0.81341619511E+03  0.00000000000E+00 0.  1.
        -13    1    3    3    0    0 -0.62498427285E+03 -0.61474834476E+03 -0.56528809146E+03  0.10431066556E+04  0.00000000000E+00 0. -1.
         22    1    1    2    0    0  0.10812773980E+04  0.10575762932E+04  0.12051003102E+04  0.19338808611E+04  0.00000000000E+00 0.  1.
<mgrwt>
<rscale>  0 0.37880864E+04</rscale>
<asrwt>0</asrwt>
<pdfrwt beam="1">  1        1 0.30176332E+00 0.37880864E+04</pdfrwt>
<pdfrwt beam="2">  1       -1 0.28137571E+00 0.37880864E+04</pdfrwt>
<totfact> 0.10991818E-01</totfact>
</mgrwt>
</event>
<event>
 6    1  0.1719556E-004  0.4414763E+04  0.7818608E-02  0.7925731E-01
         -2   -1    0    0    0  501 -0.00000000000E+00  0.00000000000E+00  0.12652286925E+04  0.12652286925E+04  0.00000000000E+00 0. -1.
          2   -1    0    0  501    0  0.00000000000E+00 -0.00000000000E+00 -0.38511091588E+04  0.38511091588E+04  0.00000000000E+00 0.  1.
         23    2    1    2    0    0  0.14606831181E+04 -0.82755224277E+03  0.36580969960E+03  0.17206180865E+04  0.90950411535E+02 0.  0.
         13    1    3    3    0    0  0.52092447151E+03 -0.24556540092E+03  0.12693549878E+03  0.58972645523E+03  0.00000000000E+00 0.  1.
        -13    1    3    3    0    0  0.93975864655E+03 -0.58198684185E+03  0.23887420082E+03  0.11308916313E+04  0.00000000000E+00 0. -1.
         22    1    1    2    0    0 -0.14606831181E+04  0.82755224277E+03 -0.29516901658E+04  0.33957197648E+04  0.00000000000E+00 0.  1.
<mgrwt>
<rscale>  0 0.44147633E+04</rscale>
<asrwt>0</asrwt>
<pdfrwt beam="1">  1        2 0.59247833E+00 0.44147633E+04</pdfrwt>
<pdfrwt beam="2">  1       -2 0.19465057E+00 0.44147633E+04</pdfrwt>
<totfact> 0.49233297E-02</totfact>
</mgrwt>
</event>
<event>
 6    1  0.1719556E-004  0.1996452E+04  0.7818608E-02  0.8608281E-01
          1   -1    0    0  501    0  0.00000000000E+00  0.00000000000E+00  0.16439538106E+04  0.16439538106E+04  0.00000000000E+00 0.  1.
         -1   -1    0    0    0  501 -0.00000000000E+00 -0.00000000000E+00 -0.60613344353E+03  0.60613344353E+03  0.00000000000E+00 0. -1.
         23    2    1    2    0    0 -0.59416941008E+03  0.76115721218E+03  0.79591754582E+03  0.12546403372E+04  0.90774701500E+02 0.  0.
         11    1    3    3    0    0 -0.46562309039E+03  0.54923462888E+03  0.62612589353E+03  0.95419975604E+03  0.00000000000E+00 0.  1.
        -11    1    3    3    0    0 -0.12854631969E+03  0.21192258330E+03  0.16979165228E+03  0.30044058115E+03  0.00000000000E+00 0. -1.
         22    1    1    2    0    0  0.59416941008E+03 -0.76115721218E+03  0.24190282127E+03  0.99544691696E+03  0.00000000000E+00 0.  1.
<mgrwt>
<rscale>  0 0.19964522E+04</rscale>
<asrwt>0</asrwt>
<pdfrwt beam="1">  1        1 0.25291597E+00 0.19964522E+04</pdfrwt>
<pdfrwt beam="2">  1       -1 0.93251299E-01 0.19964522E+04</pdfrwt>
<totfact> 0.53919743E+00</totfact>
</mgrwt>
</event>
<event>
 6    1  0.1719556E-004  0.3424777E+04  0.7818608E-02  0.8131852E-01
          2   -1    0    0  501    0  0.00000000000E+00  0.00000000000E+00  0.10790083913E+04  0.10790083913E+04  0.00000000000E+00 0. -1.
         -2   -1    0    0    0  501 -0.00000000000E+00 -0.00000000000E+00 -0.27175639892E+04  0.27175639892E+04  0.00000000000E+00 0.  1.
         23    2    1    2    0    0  0.22723040508E+03  0.15336949682E+04 -0.14941787769E+02  0.15515833567E+04  0.57738577202E+02 0.  0.
         11    1    3    3    0    0  0.10978126044E+03  0.92489182936E+03 -0.17528365260E+02  0.93154928198E+03  0.00000000000E+00 0. -1.
        -11    1    3    3    0    0  0.11744914464E+03  0.60880313879E+03  0.25865774913E+01  0.62003407467E+03  0.00000000000E+00 0.  1.
         22    1    1    2    0    0 -0.22723040508E+03 -0.15336949682E+04 -0.16236138101E+04  0.22449890238E+04  0.00000000000E+00 0.  1.
<mgrwt>
<rscale>  0 0.34247770E+04</rscale>
<asrwt>0</asrwt>
<pdfrwt beam="1">  1        2 0.16600129E+00 0.34247770E+04</pdfrwt>
<pdfrwt beam="2">  1       -2 0.41808677E+00 0.34247770E+04</pdfrwt>
<totfact> 0.10466211E-01</totfact>
</mgrwt>
</event>
<event>
 6    1  0.1719556E-004  0.4360363E+03  0.7818608E-02  0.1031970E+00
          2   -1    0    0  501    0  0.00000000000E+00  0.00000000000E+00  0.13671313771E+04  0.13671313771E+04  0.00000000000E+00 0.  1.
         -2   -1    0    0    0  501 -0.00000000000E+00 -0.00000000000E+00 -0.34767620263E+02  0.34767620263E+02  0.00000000000E+00 0. -1.
         23    2    1    2    0    0  0.11806983553E+03 -0.13248637197E+03  0.34246055279E+03  0.39621441550E+03  0.90628406190E+02 0.  0.
         11    1    3    3    0    0  0.17091582335E+02 -0.84687770046E+02  0.12851201273E+03  0.15485308521E+03  0.00000000000E+00 0.  1.
        -11    1    3    3    0    0  0.10097825320E+03 -0.47798601924E+02  0.21394854006E+03  0.24136133029E+03  0.00000000000E+00 0. -1.
         22    1    1    2    0    0 -0.11806983553E+03  0.13248637197E+03  0.98990320400E+03  0.10056845818E+04  0.00000000000E+00 0.  1.
<mgrwt>
<rscale>  0 0.43603626E+03</rscale>
<asrwt>0</asrwt>
<pdfrwt beam="1">  1        2 0.21032786E+00 0.43603626E+03</pdfrwt>
<pdfrwt beam="2">  1       -2 0.53488657E-02 0.43603626E+03</pdfrwt>
<totfact> 0.28452659E+03</totfact>
</mgrwt>
</event>
<event>
 6    1  0.1719556E-004  0.5869178E+04  0.7818608E-02  0.7706837E-01
          2   -1    0    0  501    0  0.00000000000E+00  0.00000000000E+00  0.42547442078E+04  0.42547442078E+04  0.00000000000E+00 0.  1.
         -2   -1    0    0    0  501 -0.00000000000E+00 -0.00000000000E+00 -0.20240493701E+04  0.20240493701E+04  0.00000000000E+00 0. -1.
         23    2    1    2    0    0  0.17309700939E+04  0.22406939611E+04  0.29319431570E+03  0.28479226730E+04  0.87941747493E+02 0.  0.
         11    1    3    3    0    0  0.36372286303E+03  0.47223503454E+03  0.97846707578E+02  0.60404819933E+03  0.00000000000E+00 0. -1.
        -11    1    3    3    0    0  0.13672472309E+04  0.17684589266E+04  0.19534760812E+03  0.22438744737E+04  0.00000000000E+00 0.  1.
         22    1    1    2    0    0 -0.17309700939E+04 -0.22406939611E+04  0.19375005220E+04  0.34308709049E+04  0.00000000000E+00 0.  1.
<mgrwt>
<rscale>  0 0.58691779E+04</rscale>
<asrwt>0</asrwt>
<pdfrwt beam="1">  1        2 0.65457603E+00 0.58691779E+04</pdfrwt>
<pdfrwt beam="2">  1       -2 0.31139221E+00 0.58691779E+04</pdfrwt>
<totfact> 0.37991249E-03</totfact>
</mgrwt>
</event>
<event>
 6    1  0.1719556E-004  0.2784924E+04  0.7818608E-02  0.8307964E-01
          2   -1    0    0  501    0  0.00000000000E+00  0.00000000000E+00  0.16447249960E+04  0.16447249960E+04  0.00000000000E+00 0.  1.
         -2   -1    0    0    0  501 -0.00000000000E+00 -0.00000000000E+00 -0.11788905752E+04  0.11788905752E+04  0.00000000000E+00 0. -1.
         23    2    1    2    0    0  0.11284657066E+04 -0.39741935488E+03  0.95245143931E+03  0.15320378085E+04  0.92731373955E+02 0.  0.
         11    1    3    3    0    0  0.39119281460E+03 -0.18412996503E+03  0.35383550860E+03  0.55869063834E+03  0.00000000000E+00 0. -1.
        -11    1    3    3    0    0  0.73727289200E+03 -0.21328938985E+03  0.59861593070E+03  0.97334717012E+03  0.00000000000E+00 0.  1.
         22    1    1    2    0    0 -0.11284657066E+04  0.39741935488E+03 -0.48661701851E+03  0.12915777628E+04  0.00000000000E+00 0. -1.
<mgrwt>
<rscale>  0 0.27849243E+04</rscale>
<asrwt>0</asrwt>
<pdfrwt beam="1">  1        2 0.25303462E+00 0.27849243E+04</pdfrwt>
<pdfrwt beam="2">  1       -2 0.18136778E+00 0.27849243E+04</pdfrwt>
<totfact> 0.16276742E+00</totfact>
</mgrwt>
</event>
<event>
 6    1  0.1719556E-004  0.4726570E+04  0.7818608E-02  0.7872129E-01
         -2   -1    0    0    0  501 -0.00000000000E+00  0.00000000000E+00  0.23361323458E+04  0.23361323458E+04  0.00000000000E+00 0. -1.
          2   -1    0    0  501    0  0.00000000000E+00 -0.00000000000E+00 -0.23907532409E+04  0.23907532409E+04  0.00000000000E+00 0.  1.
         23    2    1    2    0    0 -0.10108175743E+04 -0.62144659752E+03  0.20152780793E+04  0.23410042387E+04  0.10491456731E+03 0.  0.
         11    1    3    3    0    0 -0.49629988769E+03 -0.35004801789E+03  0.10997419137E+04  0.12562959326E+04  0.00000000000E+00 0. -1.
        -11    1    3    3    0    0 -0.51451768659E+03 -0.27139857963E+03  0.91553616560E+03  0.10847083061E+04  0.00000000000E+00 0.  1.
         22    1    1    2    0    0  0.10108175743E+04  0.62144659752E+03 -0.20698989745E+04  0.23858813480E+04  0.00000000000E+00 0.  1.
<mgrwt>
<rscale>  0 0.47265700E+04</rscale>
<asrwt>0</asrwt>
<pdfrwt beam="1">  1        2 0.36780819E+00 0.47265700E+04</pdfrwt>
<pdfrwt beam="2">  1       -2 0.35940498E+00 0.47265700E+04</pdfrwt>
<totfact> 0.40618006E-02</totfact>
</mgrwt>
</event>
<event>
 6    1  0.1719556E-004  0.6523045E+03  0.7818608E-02  0.9802465E-01
         -2   -1    0    0    0  501 -0.00000000000E+00  0.00000000000E+00  0.10579814450E+03  0.10579814450E+03  0.00000000000E+00 0. -1.
          2   -1    0    0  501    0  0.00000000000E+00 -0.00000000000E+00 -0.10054550387E+04  0.10054550387E+04  0.00000000000E+00 0.  1.
         23    2    1    2    0    0 -0.10507788960E+03 -0.19161249475E+03 -0.60540107724E+02  0.24414667741E+03  0.90475324943E+02 0.  0.
         13    1    3    3    0    0 -0.64794971640E+02 -0.10613598980E+03  0.12129928823E+02  0.12494147372E+03  0.00000000000E+00 0.  1.
        -13    1    3    3    0    0 -0.40282917956E+02 -0.85476504946E+02 -0.72670036547E+02  0.11920520370E+03  0.00000000000E+00 0. -1.
         22    1    1    2    0    0  0.10507788960E+03  0.19161249475E+03 -0.83911678651E+03  0.86710650581E+03  0.00000000000E+00 0.  1.
<mgrwt>
<rscale>  0 0.65230446E+03</rscale>
<asrwt>0</asrwt>
<pdfrwt beam="1">  1        2 0.15468538E+00 0.65230446E+03</pdfrwt>
<pdfrwt beam="2">  1       -2 0.16276638E-01 0.65230446E+03</pdfrwt>
<totfact> 0.76770433E+02</totfact>
</mgrwt>
</event>
<event>
 6    1  0.1719556E-004  0.2383772E+04  0.7818608E-02  0.8445604E-01
         -2   -1    0    0    0  501 -0.00000000000E+00  0.00000000000E+00  0.59439056067E+03  0.59439056067E+03  0.00000000000E+00 0. -1.
          2   -1    0    0  501    0  0.00000000000E+00 -0.00000000000E+00 -0.23899970869E+04  0.23899970869E+04  0.00000000000E+00 0.  1.
         23    2    1    2    0    0 -0.11105497265E+04 -0.35915758108E+03 -0.60830310216E+03  0.13194539300E+04  0.92796262514E+02 0.  0.
         13    1    3    3    0    0 -0.91480562751E+03 -0.25791698685E+03 -0.49691356316E+03  0.10725267351E+04  0.00000000000E+00 0. -1.
        -13    1    3    3    0    0 -0.19574409897E+03 -0.10124059423E+03 -0.11138953900E+03  0.24692719494E+03  0.00000000000E+00 0.  1.
         22    1    1    2    0    0  0.11105497265E+04  0.35915758108E+03 -0.11873034241E+04  0.16649337175E+04  0.00000000000E+00 0.  1.
<mgrwt>
<rscale>  0 0.23837716E+04</rscale>
<asrwt>0</asrwt>
<pdfrwt beam="1">  1        2 0.36769187E+00 0.23837716E+04</pdfrwt>
<pdfrwt beam="2">  1       -2 0.91444700E-01 0.23837716E+04</pdfrwt>
<totfact> 0.36940910E+00</totfact>
</mgrwt>
</event>
<event>
 6    1  0.1719556E-004  0.8043003E+03  0.7818608E-02  0.9553813E-01
         -2   -1    0    0    0  501 -0.00000000000E+00  0.00000000000E+00  0.55077848801E+02  0.55077848801E+02  0.00000000000E+00 0. -1.
          2   -1    0    0  501    0  0.00000000000E+00 -0.00000000000E+00 -0.29362936304E+04  0.29362936304E+04  0.00000000000E+00 0.  1.
         23    2    1    2    0    0  0.16798452909E+03 -0.89473406253E+02 -0.27551418174E+04  0.27630757568E+04  0.86930494889E+02 0.  0.
         11    1    3    3    0    0  0.91188169425E+02 -0.94445411886E+02 -0.16032805845E+04  0.16086465897E+04  0.00000000000E+00 0. -1.
        -11    1    3    3    0    0  0.76796359665E+02  0.49720056337E+01 -0.11518612330E+04  0.11544291670E+04  0.00000000000E+00 0.  1.
         22    1    1    2    0    0 -0.16798452909E+03  0.89473406253E+02 -0.12607396413E+03  0.22829572241E+03  0.00000000000E+00 0. -1.
<mgrwt>
<rscale>  0 0.80430028E+03</rscale>
<asrwt>0</asrwt>
<pdfrwt beam="1">  1        2 0.45173751E+00 0.80430028E+03</pdfrwt>
<pdfrwt beam="2">  1       -2 0.84735147E-02 0.80430028E+03</pdfrwt>
<totfact> 0.17917777E+02</totfact>
</mgrwt>
</event>
<event>
 6    1  0.1859321E-004  0.4062757E+04  0.7818608E-02  0.7992005E-01
         -2   -1    0    0    0  501 -0.00000000000E+00  0.00000000000E+00  0.25294822950E+04  0.25294822950E+04  0.00000000000E+00 0. -1.
          2   -1    0    0  501    0  0.00000000000E+00 -0.00000000000E+00 -0.16313608298E+04  0.16313608298E+04  0.00000000000E+00 0.  1.
         23    2    1    2    0    0 -0.49922282194E+03  0.17540518994E+04 -0.46459353393E+03  0.18842417850E+04  0.92727884791E+02 0.  0.
         13    1    3    3    0    0 -0.32084444567E+03  0.11719839958E+04 -0.26601015820E+03  0.12438846606E+04  0.00000000000E+00 0.  1.
        -13    1    3    3    0    0 -0.17837837627E+03  0.58206790369E+03 -0.19858337573E+03  0.64035712437E+03  0.00000000000E+00 0. -1.
         22    1    1    2    0    0  0.49922282194E+03 -0.17540518994E+04  0.13627149991E+04  0.22766013398E+04  0.00000000000E+00 0. -1.
<mgrwt>
<rscale>  0 0.40627569E+04</rscale>
<asrwt>0</asrwt>
<pdfrwt beam="1">  1        2 0.25097859E+00 0.40627569E+04</pdfrwt>
<pdfrwt beam="2">  1       -2 0.38915112E+00 0.40627569E+04</pdfrwt>
<totfact> 0.73404298E-02</totfact>
</mgrwt>
</event>
<event>
 6    1  0.1719556E-004  0.2544986E+04  0.7818608E-02  0.8387132E-01
         -2   -1    0    0    0  501 -0.00000000000E+00  0.00000000000E+00  0.58668936931E+03  0.58668936931E+03  0.00000000000E+00 0. -1.
          2   -1    0    0  501    0  0.00000000000E+00 -0.00000000000E+00 -0.27599594072E+04  0.27599594072E+04  0.00000000000E+00 0.  1.
         23    2    1    2    0    0  0.11312413526E+04  0.11548000086E+03 -0.18340636509E+04  0.21600133644E+04  0.93944825313E+02 0.  0.
         11    1    3    3    0    0  0.41413771639E+03  0.60000882989E+02 -0.75499603161E+03  0.86320864329E+03  0.00000000000E+00 0.  1.
        -11    1    3    3    0    0  0.71710363619E+03  0.55479117867E+02 -0.10790676193E+04  0.12968047211E+04  0.00000000000E+00 0. -1.
         22    1    1    2    0    0 -0.11312413526E+04 -0.11548000086E+03 -0.33920638696E+03  0.11866354121E+04  0.00000000000E+00 0. -1.
<mgrwt>
<rscale>  0 0.25449863E+04</rscale>
<asrwt>0</asrwt>
<pdfrwt beam="1">  1        2 0.42460914E+00 0.25449863E+04</pdfrwt>
<pdfrwt beam="2">  1       -2 0.90259903E-01 0.25449863E+04</pdfrwt>
<totfact> 0.22802159E+00</totfact>
</mgrwt>
</event>
<event>
 6    1  0.1719556E-004  0.3582863E+04  0.7818608E-02  0.8094428E-01
          2   -1    0    0  501    0  0.00000000000E+00  0.00000000000E+00  0.32098118142E+04  0.32098118142E+04  0.00000000000E+00 0.  1.
         -2   -1    0    0    0  501 -0.00000000000E+00 -0.00000000000E+00 -0.99981767536E+03  0.99981767536E+03  0.00000000000E+00 0. -1.
         23    2    1    2    0    0  0.26847037764E+03  0.16650634827E+04  0.39990862518E+03  0.17355797100E+04  0.88302186834E+02 0.  0.
         13    1    3    3    0    0  0.15603840866E+03  0.70835939169E+03  0.15705266779E+03  0.74214995334E+03  0.00000000000E+00 0. -1.
        -13    1    3    3    0    0  0.11243196899E+03  0.95670409100E+03  0.24285595739E+03  0.99342975666E+03  0.00000000000E+00 0.  1.
         22    1    1    2    0    0 -0.26847037764E+03 -0.16650634827E+04  0.18100855137E+04  0.24740497796E+04  0.00000000000E+00 0.  1.
<mgrwt>
<rscale>  0 0.35828629E+04</rscale>
<asrwt>0</asrwt>
<pdfrwt beam="1">  1        2 0.49381720E+00 0.35828629E+04</pdfrwt>
<pdfrwt beam="2">  1       -2 0.15381810E+00 0.35828629E+04</pdfrwt>
<totfact> 0.29191094E-01</totfact>
</mgrwt>
</event>
<event>
 6    1  0.1719556E-004  0.4121663E+04  0.7818608E-02  0.7980443E-01
          2   -1    0    0  501    0  0.00000000000E+00  0.00000000000E+00  0.31784184665E+04  0.31784184665E+04  0.00000000000E+00 0.  1.
         -2   -1    0    0    0  501 -0.00000000000E+00 -0.00000000000E+00 -0.13362076227E+04  0.13362076227E+04  0.00000000000E+00 0. -1.
         23    2    1    2    0    0 -0.17099243242E+04  0.34959508804E+03 -0.27673762114E+03  0.17694484051E+04  0.91137409364E+02 0.  0.
         11    1    3    3    0    0 -0.36454293277E+03  0.11044211761E+03 -0.73810227889E+02  0.38799092891E+03  0.00000000000E+00 0.  1.
        -11    1    3    3    0    0 -0.13453813915E+04  0.23915297043E+03 -0.20292739325E+03  0.13814574762E+04  0.00000000000E+00 0. -1.
         22    1    1    2    0    0  0.17099243242E+04 -0.34959508804E+03  0.21189484649E+04  0.27451776841E+04  0.00000000000E+00 0.  1.
<mgrwt>
<rscale>  0 0.41216632E+04</rscale>
<asrwt>0</asrwt>
<pdfrwt beam="1">  1        2 0.48898745E+00 0.41216632E+04</pdfrwt>
<pdfrwt beam="2">  1       -2 0.20557040E+00 0.41216632E+04</pdfrwt>
<totfact> 0.12785971E-01</totfact>
</mgrwt>
</event>
<event>
 6    1  0.1719556E-004  0.3324364E+04  0.7818608E-02  0.8156724E-01
          1   -1    0    0  501    0  0.00000000000E+00  0.00000000000E+00  0.16770130456E+04  0.16770130456E+04  0.00000000000E+00 0.  1.
         -1   -1    0    0    0  501 -0.00000000000E+00 -0.00000000000E+00 -0.16474820833E+04  0.16474820833E+04  0.00000000000E+00 0. -1.
         23    2    1    2    0    0 -0.59521452641E+03  0.92815148485E+03 -0.12273357105E+04  0.16525324068E+04  0.93621033118E+02 0.  0.
         11    1    3    3    0    0 -0.46175740973E+03  0.78418518895E+03 -0.10222910490E+04  0.13686655197E+04  0.00000000000E+00 0.  1.
        -11    1    3    3    0    0 -0.13345711668E+03  0.14396629590E+03 -0.20504466154E+03  0.28386688707E+03  0.00000000000E+00 0. -1.
         22    1    1    2    0    0  0.59521452641E+03 -0.92815148485E+03  0.12568666728E+04  0.16719627222E+04  0.00000000000E+00 0.  1.
<mgrwt>
<rscale>  0 0.33243640E+04</rscale>
<asrwt>0</asrwt>
<pdfrwt beam="1">  1        1 0.25800201E+00 0.33243640E+04</pdfrwt>
<pdfrwt beam="2">  1       -1 0.25345878E+00 0.33243640E+04</pdfrwt>
<totfact> 0.27078384E-01</totfact>
</mgrwt>
</event>
<event>
 6    1  0.2018559E-004  0.3135469E+04  0.7818608E-02  0.8206071E-01
          2   -1    0    0  501    0  0.00000000000E+00  0.00000000000E+00  0.12947438485E+04  0.12947438485E+04  0.00000000000E+00 0.  1.
         -2   -1    0    0    0  501 -0.00000000000E+00 -0.00000000000E+00 -0.18982842158E+04  0.18982842158E+04  0.00000000000E+00 0. -1.
         23    2    1    2    0    0 -0.85086991205E+03  0.91042205778E+03  0.66454920542E+03  0.14151363087E+04  0.90206403150E+02 0.  0.
         13    1    3    3    0    0 -0.38772984738E+03  0.47235089830E+03  0.35040328465E+03  0.70443755406E+03  0.00000000000E+00 0.  1.
        -13    1    3    3    0    0 -0.46314006467E+03  0.43807115949E+03  0.31414592076E+03  0.71069875461E+03  0.00000000000E+00 0. -1.
         22    1    1    2    0    0  0.85086991205E+03 -0.91042205778E+03 -0.12680895727E+04  0.17778917557E+04  0.00000000000E+00 0. -1.
<mgrwt>
<rscale>  0 0.31354692E+04</rscale>
<asrwt>0</asrwt>
<pdfrwt beam="1">  1        2 0.19919136E+00 0.31354692E+04</pdfrwt>
<pdfrwt beam="2">  1       -2 0.29204373E+00 0.31354692E+04</pdfrwt>
<totfact> 0.50103607E-01</totfact>
</mgrwt>
</event>
<event>
 6    1  0.1719556E-004  0.3702567E+04  0.7818608E-02  0.8067393E-01
         -1   -1    0    0    0  501 -0.00000000000E+00  0.00000000000E+00  0.21484939562E+04  0.21484939562E+04  0.00000000000E+00 0. -1.
          1   -1    0    0  501    0  0.00000000000E+00 -0.00000000000E+00 -0.15951871258E+04  0.15951871258E+04  0.00000000000E+00 0.  1.
         23    2    1    2    0    0  0.51318101627E+03 -0.96024311145E+03  0.17892813775E+04  0.20965457903E+04  0.92492239379E+02 0.  0.
         13    1    3    3    0    0  0.35915940620E+03 -0.74280725807E+03  0.13928780373E+04  0.16189093021E+04  0.00000000000E+00 0. -1.
        -13    1    3    3    0    0  0.15402161007E+03 -0.21743585338E+03  0.39640334021E+03  0.47763648817E+03  0.00000000000E+00 0.  1.
         22    1    1    2    0    0 -0.51318101627E+03  0.96024311145E+03 -0.12359745471E+04  0.16471352918E+04  0.00000000000E+00 0.  1.
<mgrwt>
<rscale>  0 0.37025666E+04</rscale>
<asrwt>0</asrwt>
<pdfrwt beam="1">  1        1 0.24541340E+00 0.37025666E+04</pdfrwt>
<pdfrwt beam="2">  1       -1 0.33053753E+00 0.37025666E+04</pdfrwt>
<totfact> 0.94154255E-02</totfact>
</mgrwt>
</event>
<event>
 6    1  0.1719556E-004  0.1930561E+04  0.7818608E-02  0.8639792E-01
          1   -1    0    0  501    0  0.00000000000E+00  0.00000000000E+00  0.10254481884E+04  0.10254481884E+04  0.00000000000E+00 0.  1.
         -1   -1    0    0    0  501 -0.00000000000E+00 -0.00000000000E+00 -0.90864308865E+03  0.90864308865E+03  0.00000000000E+00 0. -1.
         23    2    1    2    0    0 -0.77347002910E+02 -0.42719258522E+03 -0.80231122423E+03  0.91760178831E+03  0.99064007914E+02 0.  0.
         13    1    3    3    0    0  0.18159183523E+02 -0.66972610912E+02 -0.17038821224E+03  0.18397616538E+03  0.00000000000E+00 0. -1.
        -13    1    3    3    0    0 -0.95506186433E+02 -0.36021997431E+03 -0.63192301199E+03  0.73362562293E+03  0.00000000000E+00 0.  1.
         22    1    1    2    0    0  0.77347002910E+02  0.42719258522E+03  0.91911632402E+03  0.10164894888E+04  0.00000000000E+00 0.  1.
<mgrwt>
<rscale>  0 0.19305610E+04</rscale>
<asrwt>0</asrwt>
<pdfrwt beam="1">  1        1 0.15776126E+00 0.19305610E+04</pdfrwt>
<pdfrwt beam="2">  1       -1 0.13979124E+00 0.19305610E+04</pdfrwt>
<totfact> 0.56772519E+00</totfact>
</mgrwt>
</event>
<event>
 6    1  0.1719556E-004  0.7340058E+03  0.7818608E-02  0.9660782E-01
         -1   -1    0    0    0  501 -0.00000000000E+00  0.00000000000E+00  0.11549965977E+03  0.11549965977E+03  0.00000000000E+00 0. -1.
          1   -1    0    0  501    0  0.00000000000E+00 -0.00000000000E+00 -0.11661604597E+04  0.11661604597E+04  0.00000000000E+00 0.  1.
         23    2    1    2    0    0 -0.35535114477E+03  0.47393419788E+02 -0.61135359340E+03  0.71464037199E+03  0.91853539869E+02 0.  0.
         13    1    3    3    0    0 -0.26432950078E+03  0.20432990946E+02 -0.51580640618E+03  0.57995158484E+03  0.00000000000E+00 0. -1.
        -13    1    3    3    0    0 -0.91021643994E+02  0.26960428842E+02 -0.95547187216E+02  0.13468878715E+03  0.00000000000E+00 0.  1.
         22    1    1    2    0    0  0.35535114477E+03 -0.47393419788E+02 -0.43930720657E+03  0.56701974751E+03  0.00000000000E+00 0.  1.
<mgrwt>
<rscale>  0 0.73400582E+03</rscale>
<asrwt>0</asrwt>
<pdfrwt beam="1">  1        1 0.17940930E+00 0.73400582E+03</pdfrwt>
<pdfrwt beam="2">  1       -1 0.17769179E-01 0.73400582E+03</pdfrwt>
<totfact> 0.28565008E+02</totfact>
</mgrwt>
</event>
<event>
 6    1  0.1719556E-004  0.2043395E+04  0.7818608E-02  0.8586596E-01
          2   -1    0    0  501    0  0.00000000000E+00  0.00000000000E+00  0.11901699927E+04  0.11901699927E+04  0.00000000000E+00 0.  1.
         -2   -1    0    0    0  501 -0.00000000000E+00 -0.00000000000E+00 -0.87707308315E+03  0.87707308315E+03  0.00000000000E+00 0. -1.
         23    2    1    2    0    0 -0.93089632307E+03  0.35439015944E+03  0.37605035303E+03  0.10691832152E+04  0.97869966383E+02 0.  0.
         13    1    3    3    0    0 -0.64764926122E+03  0.20170838363E+03  0.23551239169E+03  0.71805426273E+03  0.00000000000E+00 0. -1.
        -13    1    3    3    0    0 -0.28324706185E+03  0.15268177581E+03  0.14053796134E+03  0.35112895251E+03  0.00000000000E+00 0.  1.
         22    1    1    2    0    0  0.93089632307E+03 -0.35439015944E+03 -0.62953443436E+02  0.99805986066E+03  0.00000000000E+00 0. -1.
<mgrwt>
<rscale>  0 0.20433953E+04</rscale>
<asrwt>0</asrwt>
<pdfrwt beam="1">  1        2 0.18310308E+00 0.20433953E+04</pdfrwt>
<pdfrwt beam="2">  1       -2 0.13493432E+00 0.20433953E+04</pdfrwt>
<totfact> 0.70220476E+00</totfact>
</mgrwt>
</event>
<event>
 6    1  0.1719556E-004  0.2723407E+04  0.7818608E-02  0.8327450E-01
          1   -1    0    0  501    0  0.00000000000E+00  0.00000000000E+00  0.20268164945E+04  0.20268164945E+04  0.00000000000E+00 0.  1.
         -1   -1    0    0    0  501 -0.00000000000E+00 -0.00000000000E+00 -0.91485184120E+03  0.91485184120E+03  0.00000000000E+00 0. -1.
         23    2    1    2    0    0 -0.40215832142E+03 -0.56570363104E+02  0.19589180849E+04  0.20023805009E+04  0.85065184128E+02 0.  0.
         11    1    3    3    0    0 -0.27495199326E+03 -0.67211424791E+02  0.14747945210E+04  0.15017106424E+04  0.00000000000E+00 0. -1.
        -11    1    3    3    0    0 -0.12720632816E+03  0.10641061687E+02  0.48412356386E+03  0.50066985849E+03  0.00000000000E+00 0.  1.
         22    1    1    2    0    0  0.40215832142E+03  0.56570363104E+02 -0.84695343155E+03  0.93928783485E+03  0.00000000000E+00 0. -1.
<mgrwt>
<rscale>  0 0.27234073E+04</rscale>
<asrwt>0</asrwt>
<pdfrwt beam="1">  1        1 0.31181792E+00 0.27234073E+04</pdfrwt>
<pdfrwt beam="2">  1       -1 0.14074644E+00 0.27234073E+04</pdfrwt>
<totfact> 0.10291868E+00</totfact>
</mgrwt>
</event>
<event>
 6    1  0.1719556E-004  0.3016373E+03  0.7818608E-02  0.1084425E+00
         -2   -1    0    0    0  501 -0.00000000000E+00  0.00000000000E+00  0.95829990921E+02  0.95829990921E+02  0.00000000000E+00 0. -1.
          2   -1    0    0  501    0  0.00000000000E+00 -0.00000000000E+00 -0.23736064445E+03  0.23736064445E+03  0.00000000000E+00 0.  1.
         23    2    1    2    0    0  0.11075396265E+03 -0.32728173442E+02  0.16183809676E+01  0.14926342244E+03  0.94548276241E+02 0.  0.
         13    1    3    3    0    0  0.55798077046E+02  0.31587262789E+02  0.69774133036E+01  0.64497014419E+02  0.00000000000E+00 0. -1.
        -13    1    3    3    0    0  0.54955885607E+02 -0.64315436231E+02 -0.53590323360E+01  0.84766408017E+02  0.00000000000E+00 0.  1.
         22    1    1    2    0    0 -0.11075396265E+03  0.32728173442E+02 -0.14314903449E+03  0.18392721293E+03  0.00000000000E+00 0.  1.
<mgrwt>
<rscale>  0 0.30163732E+03</rscale>
<asrwt>0</asrwt>
<pdfrwt beam="1">  1        2 0.36517022E-01 0.30163732E+03</pdfrwt>
<pdfrwt beam="2">  1       -2 0.14743076E-01 0.30163732E+03</pdfrwt>
<totfact> 0.49619120E+03</totfact>
</mgrwt>
</event>
<event>
 6    1  0.1719556E-004  0.5270462E+04  0.7818608E-02  0.7788088E-01
          2   -1    0    0  501    0  0.00000000000E+00  0.00000000000E+00  0.23920142066E+04  0.23920142066E+04  0.00000000000E+00 0.  1.
         -2   -1    0    0    0  501 -0.00000000000E+00 -0.00000000000E+00 -0.29031777328E+04  0.29031777328E+04  0.00000000000E+00 0. -1.
         23    2    1    2    0    0  0.21836117217E+04 -0.12596830525E+04  0.51320321632E+03  0.25741096607E+04  0.87757963422E+02 0.  0.
         13    1    3    3    0    0  0.33839077221E+03 -0.22157127955E+03  0.10559959579E+03  0.41803519143E+03  0.00000000000E+00 0.  1.
        -13    1    3    3    0    0  0.18452209495E+04 -0.10381117730E+04  0.40760362053E+03  0.21560744693E+04  0.00000000000E+00 0. -1.
         22    1    1    2    0    0 -0.21836117217E+04  0.12596830525E+04 -0.10243667425E+04  0.27210822786E+04  0.00000000000E+00 0. -1.
<mgrwt>
<rscale>  0 0.52704620E+04</rscale>
<asrwt>0</asrwt>
<pdfrwt beam="1">  1        2 0.36800219E+00 0.52704620E+04</pdfrwt>
<pdfrwt beam="2">  1       -2 0.44664272E+00 0.52704620E+04</pdfrwt>
<totfact> 0.10491843E-02</totfact>
</mgrwt>
</event>
<event>
 6    1  0.1719556E-004  0.1195873E+04  0.7818608E-02  0.9116476E-01
         -2   -1    0    0    0  501 -0.00000000000E+00  0.00000000000E+00  0.86040060351E+03  0.86040060351E+03  0.00000000000E+00 0. -1.
          2   -1    0    0  501    0  0.00000000000E+00 -0.00000000000E+00 -0.41553682404E+03  0.41553682404E+03  0.00000000000E+00 0.  1.
         23    2    1    2    0    0  0.19732727612E+03 -0.45569914367E+03 -0.12486753410E+03  0.52016396076E+03  0.91536230832E+02 0.  0.
         13    1    3    3    0    0  0.84394144590E+02 -0.24245608297E+03 -0.21399146581E+02  0.25761453236E+03  0.00000000000E+00 0.  1.
        -13    1    3    3    0    0  0.11293313153E+03 -0.21324306071E+03 -0.10346838752E+03  0.26254942840E+03  0.00000000000E+00 0. -1.
         22    1    1    2    0    0 -0.19732727612E+03  0.45569914367E+03  0.56973131357E+03  0.75577346679E+03  0.00000000000E+00 0. -1.
<mgrwt>
<rscale>  0 0.11958731E+04</rscale>
<asrwt>0</asrwt>
<pdfrwt beam="1">  1        2 0.63928742E-01 0.11958731E+04</pdfrwt>
<pdfrwt beam="2">  1       -2 0.13236932E+00 0.11958731E+04</pdfrwt>
<totfact> 0.31161386E+01</totfact>
</mgrwt>
</event>
<event>
 6    1  0.1719556E-004  0.2826526E+04  0.7818608E-02  0.8295080E-01
         -1   -1    0    0    0  501 -0.00000000000E+00  0.00000000000E+00  0.30585174789E+04  0.30585174789E+04  0.00000000000E+00 0. -1.
          1   -1    0    0  501    0  0.00000000000E+00 -0.00000000000E+00 -0.65303286280E+03  0.65303286280E+03  0.00000000000E+00 0.  1.
         23    2    1    2    0    0  0.15266216043E+03 -0.78962817470E+03 -0.31973466282E+03  0.87013546392E+03  0.89928201640E+02 0.  0.
         11    1    3    3    0    0  0.15066454458E+02 -0.28894825426E+03 -0.97406775040E+02  0.30529685801E+03  0.00000000000E+00 0. -1.
        -11    1    3    3    0    0  0.13759570597E+03 -0.50067992044E+03 -0.22232788778E+03  0.56483860590E+03  0.00000000000E+00 0.  1.
         22    1    1    2    0    0 -0.15266216043E+03  0.78962817470E+03  0.27252192789E+04  0.28414148778E+04  0.00000000000E+00 0. -1.
<mgrwt>
<rscale>  0 0.28265261E+04</rscale>
<asrwt>0</asrwt>
<pdfrwt beam="1">  1        1 0.10046660E+00 0.28265261E+04</pdfrwt>
<pdfrwt beam="2">  1       -1 0.47054114E+00 0.28265261E+04</pdfrwt>
<totfact> 0.61025197E-02</totfact>
</mgrwt>
</event>
<event>
 6    1  0.1719556E-004  0.2765796E+04  0.7818608E-02  0.8313967E-01
          1   -1    0    0  501    0  0.00000000000E+00  0.00000000000E+00  0.29402169848E+04  0.29402169848E+04  0.00000000000E+00 0.  1.
         -1   -1    0    0    0  501 -0.00000000000E+00 -0.00000000000E+00 -0.65043047370E+03  0.65043047370E+03  0.00000000000E+00 0. -1.
         23    2    1    2    0    0 -0.53715476125E+03 -0.81846457078E+03  0.24114515955E+04  0.26041273706E+04  0.89224849890E+02 0.  0.
         11    1    3    3    0    0 -0.23608260379E+03 -0.42408542754E+03  0.11203084019E+04  0.12209317594E+04  0.00000000000E+00 0. -1.
        -11    1    3    3    0    0 -0.30107215746E+03 -0.39437914323E+03  0.12911431935E+04  0.13831956112E+04  0.00000000000E+00 0.  1.
         22    1    1    2    0    0  0.53715476125E+03  0.81846457078E+03 -0.12166508435E+03  0.98652008794E+03  0.00000000000E+00 0. -1.
<mgrwt>
<rscale>  0 0.27657959E+04</rscale>
<asrwt>0</asrwt>
<pdfrwt beam="1">  1        1 0.45234107E+00 0.27657959E+04</pdfrwt>
<pdfrwt beam="2">  1       -1 0.10006623E+00 0.27657959E+04</pdfrwt>
<totfact> 0.54565476E-01</totfact>
</mgrwt>
</event>
<event>
 6    1  0.1719556E-004  0.9904390E+03  0.7818608E-02  0.9319094E-01
          2   -1    0    0  501    0  0.00000000000E+00  0.00000000000E+00  0.40020503781E+03  0.40020503781E+03  0.00000000000E+00 0.  1.
         -2   -1    0    0    0  501 -0.00000000000E+00 -0.00000000000E+00 -0.61279176728E+03  0.61279176728E+03  0.00000000000E+00 0. -1.
         23    2    1    2    0    0  0.18172376830E+02  0.41031905291E+03 -0.38643785368E+03  0.56699661019E+03  0.58813100158E+02 0.  0.
         11    1    3    3    0    0  0.37253465666E+02  0.27142211085E+03 -0.23935214876E+03  0.36379559381E+03  0.00000000000E+00 0.  1.
        -11    1    3    3    0    0 -0.19081088837E+02  0.13889694207E+03 -0.14708570492E+03  0.20320101638E+03  0.00000000000E+00 0. -1.
         22    1    1    2    0    0 -0.18172376830E+02 -0.41031905291E+03  0.17385112421E+03  0.44600019490E+03  0.00000000000E+00 0.  1.
<mgrwt>
<rscale>  0 0.99043900E+03</rscale>
<asrwt>0</asrwt>
<pdfrwt beam="1">  1        2 0.61570006E-01 0.99043900E+03</pdfrwt>
<pdfrwt beam="2">  1       -2 0.94275656E-01 0.99043900E+03</pdfrwt>
<totfact> 0.75354361E+01</totfact>
</mgrwt>
</event>
<event>
 6    1  0.1719556E-004  0.1772657E+04  0.7818608E-02  0.8720977E-01
         -2   -1    0    0    0  501 -0.00000000000E+00  0.00000000000E+00  0.12725982558E+04  0.12725982558E+04  0.00000000000E+00 0. -1.
          2   -1    0    0  501    0  0.00000000000E+00 -0.00000000000E+00 -0.61730289073E+03  0.61730289073E+03  0.00000000000E+00 0.  1.
         23    2    1    2    0    0 -0.72998347905E+03  0.49613547021E+03  0.38126260025E+03  0.96571488790E+03  0.90652026251E+02 0.  0.
         11    1    3    3    0    0 -0.43776902124E+03  0.24402464209E+03  0.22389684121E+03  0.54892580320E+03  0.00000000000E+00 0.  1.
        -11    1    3    3    0    0 -0.29221445780E+03  0.25211082812E+03  0.15736575904E+03  0.41678908470E+03  0.00000000000E+00 0. -1.
         22    1    1    2    0    0  0.72998347905E+03 -0.49613547021E+03  0.27403276484E+03  0.92418625866E+03  0.00000000000E+00 0.  1.
<mgrwt>
<rscale>  0 0.17726574E+04</rscale>
<asrwt>0</asrwt>
<pdfrwt beam="1">  1        2 0.94969676E-01 0.17726574E+04</pdfrwt>
<pdfrwt beam="2">  1       -2 0.19578435E+00 0.17726574E+04</pdfrwt>
<totfact> 0.64224430E+00</totfact>
</mgrwt>
</event>
<event>
 6    1  0.1719556E-004  0.4347688E+04  0.7818608E-02  0.7937859E-01
         -1   -1    0    0    0  501 -0.00000000000E+00  0.00000000000E+00  0.14902723048E+04  0.14902723048E+04  0.00000000000E+00 0.  1.
          1   -1    0    0  501    0  0.00000000000E+00 -0.00000000000E+00 -0.31709620825E+04  0.31709620825E+04  0.00000000000E+00 0. -1.
         23    2    1    2    0    0  0.75838445122E+03 -0.20100290721E+04 -0.48866016882E+03  0.22043464300E+04  0.70644010922E+02 0.  0.
         13    1    3    3    0    0  0.33174313530E+03 -0.96468965243E+03 -0.25071782446E+03  0.10504946743E+04  0.00000000000E+00 0.  1.
        -13    1    3    3    0    0  0.42664131593E+03 -0.10453394196E+04 -0.23794234436E+03  0.11538517556E+04  0.00000000000E+00 0. -1.
         22    1    1    2    0    0 -0.75838445122E+03  0.20100290721E+04 -0.11920296089E+04  0.24568879573E+04  0.00000000000E+00 0.  1.
<mgrwt>
<rscale>  0 0.43476876E+04</rscale>
<asrwt>0</asrwt>
<pdfrwt beam="1">  1        1 0.48784031E+00 0.43476876E+04</pdfrwt>
<pdfrwt beam="2">  1       -1 0.22927267E+00 0.43476876E+04</pdfrwt>
<totfact> 0.32432566E-02</totfact>
</mgrwt>
</event>
<event>
 6    1  0.1719556E-004  0.4124159E+04  0.7818608E-02  0.7979958E-01
         -1   -1    0    0    0  501 -0.00000000000E+00  0.00000000000E+00  0.18656913044E+04  0.18656913044E+04  0.00000000000E+00 0. -1.
          1   -1    0    0  501    0  0.00000000000E+00 -0.00000000000E+00 -0.22791397510E+04  0.22791397510E+04  0.00000000000E+00 0.  1.
         23    2    1    2    0    0 -0.97716769464E+02 -0.19116466039E+04 -0.97431943844E+03  0.21502088921E+04  0.10078991175E+03 0.  0.
         11    1    3    3    0    0 -0.11057699921E+02 -0.93612513435E+03 -0.51486069251E+03  0.10684259790E+04  0.00000000000E+00 0. -1.
        -11    1    3    3    0    0 -0.86659069543E+02 -0.97552146953E+03 -0.45945874593E+03  0.10817829131E+04  0.00000000000E+00 0.  1.
         22    1    1    2    0    0  0.97716769464E+02  0.19116466039E+04  0.56087099185E+03  0.19946221634E+04  0.00000000000E+00 0. -1.
<mgrwt>
<rscale>  0 0.41241587E+04</rscale>
<asrwt>0</asrwt>
<pdfrwt beam="1">  1        1 0.35063688E+00 0.41241587E+04</pdfrwt>
<pdfrwt beam="2">  1       -1 0.28702944E+00 0.41241587E+04</pdfrwt>
<totfact> 0.59726611E-02</totfact>
</mgrwt>
</event>
<event>
 6    1  0.1719556E-004  0.4302018E+04  0.7818608E-02  0.7946245E-01
          1   -1    0    0  501    0  0.00000000000E+00  0.00000000000E+00  0.37657318509E+04  0.37657318509E+04  0.00000000000E+00 0.  1.
         -1   -1    0    0    0  501 -0.00000000000E+00 -0.00000000000E+00 -0.12286692649E+04  0.12286692649E+04  0.00000000000E+00 0. -1.
         23    2    1    2    0    0 -0.70652411917E+03  0.28082990700E+03 -0.10656961177E+04  0.13122941042E+04  0.91464927567E+02 0.  0.
         11    1    3    3    0    0 -0.40056635791E+03  0.15490818200E+03 -0.52356812662E+03  0.67718057795E+03  0.00000000000E+00 0.  1.
        -11    1    3    3    0    0 -0.30595776126E+03  0.12592172500E+03 -0.54212799105E+03  0.63511352621E+03  0.00000000000E+00 0. -1.
         22    1    1    2    0    0  0.70652411917E+03 -0.28082990700E+03  0.36027587037E+04  0.36821070116E+04  0.00000000000E+00 0.  1.
<mgrwt>
<rscale>  0 0.43020177E+04</rscale>
<asrwt>0</asrwt>
<pdfrwt beam="1">  1        1 0.57934336E+00 0.43020177E+04</pdfrwt>
<pdfrwt beam="2">  1       -1 0.18902604E+00 0.43020177E+04</pdfrwt>
<totfact> 0.20819130E-02</totfact>
</mgrwt>
</event>
<event>
 6    1  0.1719556E-004  0.2311873E+04  0.7818608E-02  0.8473254E-01
         -2   -1    0    0    0  501 -0.00000000000E+00  0.00000000000E+00  0.16038030873E+04  0.16038030873E+04  0.00000000000E+00 0. -1.
          2   -1    0    0  501    0  0.00000000000E+00 -0.00000000000E+00 -0.83313819317E+03  0.83313819317E+03  0.00000000000E+00 0.  1.
         23    2    1    2    0    0  0.11490514928E+04  0.93981709000E+02  0.44202824351E+03  0.12381277242E+04  0.91757281648E+02 0.  0.
         13    1    3    3    0    0  0.37628066533E+03  0.51960035879E+02  0.18615029569E+03  0.42301172208E+03  0.00000000000E+00 0.  1.
        -13    1    3    3    0    0  0.77277082742E+03  0.42021673121E+02  0.25587794782E+03  0.81511600212E+03  0.00000000000E+00 0. -1.
         22    1    1    2    0    0 -0.11490514928E+04 -0.93981709000E+02  0.32863665067E+03  0.11988135563E+04  0.00000000000E+00 0.  1.
<mgrwt>
<rscale>  0 0.23118734E+04</rscale>
<asrwt>0</asrwt>
<pdfrwt beam="1">  1        2 0.12817511E+00 0.23118734E+04</pdfrwt>
<pdfrwt beam="2">  1       -2 0.24673894E+00 0.23118734E+04</pdfrwt>
<totfact> 0.19879405E+00</totfact>
</mgrwt>
</event>
<event>
 6    1  0.1719556E-004  0.2738418E+04  0.7818608E-02  0.8322646E-01
          2   -1    0    0  501    0  0.00000000000E+00  0.00000000000E+00  0.12699436156E+04  0.12699436156E+04  0.00000000000E+00 0.  1.
         -2   -1    0    0    0  501 -0.00000000000E+00 -0.00000000000E+00 -0.14762333490E+04  0.14762333490E+04  0.00000000000E+00 0. -1.
         23    2    1    2    0    0 -0.81626516642E+03 -0.92429553683E+03  0.48990897848E+03  0.13300894999E+04  0.92283309538E+02 0.  0.
         13    1    3    3    0    0 -0.70929395137E+03 -0.79755125557E+03  0.45677200097E+03  0.11609593342E+04  0.00000000000E+00 0. -1.
        -13    1    3    3    0    0 -0.10697121505E+03 -0.12674428126E+03  0.33136977508E+02  0.16913016573E+03  0.00000000000E+00 0.  1.
         22    1    1    2    0    0  0.81626516642E+03  0.92429553683E+03 -0.69619871181E+03  0.14160874647E+04  0.00000000000E+00 0.  1.
<mgrwt>
<rscale>  0 0.27384179E+04</rscale>
<asrwt>0</asrwt>
<pdfrwt beam="1">  1        2 0.19537594E+00 0.27384179E+04</pdfrwt>
<pdfrwt beam="2">  1       -2 0.22711282E+00 0.27384179E+04</pdfrwt>
<totfact> 0.13420372E+00</totfact>
</mgrwt>
</event>
<event>
 6    1  0.1719556E-004  0.2462540E+04  0.7818608E-02  0.8416454E-01
         -1   -1    0    0    0  501 -0.00000000000E+00  0.00000000000E+00  0.38631950721E+04  0.38631950721E+04  0.00000000000E+00 0. -1.
          1   -1    0    0  501    0  0.00000000000E+00 -0.00000000000E+00 -0.39242801469E+03  0.39242801469E+03  0.00000000000E+00 0.  1.
         23    2    1    2    0    0 -0.26209501021E+03 -0.60622330417E+03 -0.54460075634E+02  0.66906110790E+03  0.92067243762E+02 0.  0.
         11    1    3    3    0    0 -0.13641925602E+03 -0.29098767407E+03  0.18621246748E+02  0.32191736626E+03  0.00000000000E+00 0. -1.
        -11    1    3    3    0    0 -0.12567575419E+03 -0.31523563011E+03 -0.73081322382E+02  0.34714374164E+03  0.00000000000E+00 0.  1.
         22    1    1    2    0    0  0.26209501021E+03  0.60622330417E+03  0.35252271330E+04  0.35865619789E+04  0.00000000000E+00 0. -1.
<mgrwt>
<rscale>  0 0.24625401E+04</rscale>
<asrwt>0</asrwt>
<pdfrwt beam="1">  1        1 0.60373543E-01 0.24625401E+04</pdfrwt>
<pdfrwt beam="2">  1       -1 0.59433768E+00 0.24625401E+04</pdfrwt>
<totfact> 0.25055788E-02</totfact>
</mgrwt>
</event>
<event>
 6    1  0.1719556E-004  0.3073132E+04  0.7818608E-02  0.8223151E-01
         -2   -1    0    0    0  501 -0.00000000000E+00  0.00000000000E+00  0.21180780452E+04  0.21180780452E+04  0.00000000000E+00 0. -1.
          2   -1    0    0  501    0  0.00000000000E+00 -0.00000000000E+00 -0.11147062929E+04  0.11147062929E+04  0.00000000000E+00 0.  1.
         23    2    1    2    0    0  0.15237748900E+04  0.15757282747E+03  0.39248522123E+03  0.15835719609E+04  0.83285024580E+02 0.  0.
         11    1    3    3    0    0  0.92505596292E+03  0.58232399848E+02  0.22012404847E+03  0.95266685869E+03  0.00000000000E+00 0. -1.
        -11    1    3    3    0    0  0.59871892704E+03  0.99340427625E+02  0.17236117276E+03  0.63090510224E+03  0.00000000000E+00 0.  1.
         22    1    1    2    0    0 -0.15237748900E+04 -0.15757282747E+03  0.61088653098E+03  0.16492123772E+04  0.00000000000E+00 0. -1.
<mgrwt>
<rscale>  0 0.30731319E+04</rscale>
<asrwt>0</asrwt>
<pdfrwt beam="1">  1        2 0.17149328E+00 0.30731319E+04</pdfrwt>
<pdfrwt beam="2">  1       -2 0.32585816E+00 0.30731319E+04</pdfrwt>
<totfact> 0.39979232E-01</totfact>
</mgrwt>
</event>
<event>
 6    1  0.1719556E-004  0.1205259E+04  0.7818608E-02  0.9108266E-01
          1   -1    0    0  501    0  0.00000000000E+00  0.00000000000E+00  0.10092915926E+04  0.10092915926E+04  0.00000000000E+00 0.  1.
         -1   -1    0    0    0  501 -0.00000000000E+00 -0.00000000000E+00 -0.35981886777E+03  0.35981886777E+03  0.00000000000E+00 0. -1.
         23    2    1    2    0    0 -0.47971062873E+03 -0.31000765930E+03  0.53170794381E+03  0.78593331762E+03  0.93545743296E+02 0.  0.
         11    1    3    3    0    0 -0.21973643464E+03 -0.87646667772E+02  0.22469150096E+03  0.32627030156E+03  0.00000000000E+00 0. -1.
        -11    1    3    3    0    0 -0.25997419409E+03 -0.22236099152E+03  0.30701644285E+03  0.45966301605E+03  0.00000000000E+00 0.  1.
         22    1    1    2    0    0  0.47971062873E+03  0.31000765930E+03  0.11776478097E+03  0.58317714271E+03  0.00000000000E+00 0.  1.
<mgrwt>
<rscale>  0 0.12052587E+04</rscale>
<asrwt>0</asrwt>
<pdfrwt beam="1">  1        1 0.15527563E+00 0.12052587E+04</pdfrwt>
<pdfrwt beam="2">  1       -1 0.55356749E-01 0.12052587E+04</pdfrwt>
<totfact> 0.48565807E+01</totfact>
</mgrwt>
</event>
<event>
 6    1  0.1719556E-004  0.2699772E+04  0.7818608E-02  0.8335079E-01
         -2   -1    0    0    0  501 -0.00000000000E+00  0.00000000000E+00  0.24585004710E+04  0.24585004710E+04  0.00000000000E+00 0. -1.
          2   -1    0    0  501    0  0.00000000000E+00 -0.00000000000E+00 -0.74118049043E+03  0.74118049043E+03  0.00000000000E+00 0.  1.
         23    2    1    2    0    0 -0.30559037783E+03 -0.70268790113E+03  0.21747477508E+04  0.23072707808E+04  0.82552471725E+02 0.  0.
         11    1    3    3    0    0 -0.11328417096E+03 -0.22273714855E+03  0.60551525828E+03  0.65505256945E+03  0.00000000000E+00 0.  1.
        -11    1    3    3    0    0 -0.19230620687E+03 -0.47995075258E+03  0.15692324926E+04  0.16522182113E+04  0.00000000000E+00 0. -1.
         22    1    1    2    0    0  0.30559037783E+03  0.70268790113E+03 -0.45742777031E+03  0.89241018062E+03  0.00000000000E+00 0.  1.
<mgrwt>
<rscale>  0 0.26997723E+04</rscale>
<asrwt>0</asrwt>
<pdfrwt beam="1">  1        2 0.11402777E+00 0.26997723E+04</pdfrwt>
<pdfrwt beam="2">  1       -2 0.37823084E+00 0.26997723E+04</pdfrwt>
<totfact> 0.34338104E-01</totfact>
</mgrwt>
</event>
<event>
 6    1  0.1719556E-004  0.1572145E+04  0.7818608E-02  0.8837846E-01
         -1   -1    0    0    0  501 -0.00000000000E+00  0.00000000000E+00  0.45448383556E+03  0.45448383556E+03  0.00000000000E+00 0. -1.
          1   -1    0    0  501    0  0.00000000000E+00 -0.00000000000E+00 -0.13595858549E+04  0.13595858549E+04  0.00000000000E+00 0.  1.
         23    2    1    2    0    0 -0.55069771509E+03 -0.45390544383E+03 -0.82708690361E+03  0.10961668533E+04  0.90614009430E+02 0.  0.
         11    1    3    3    0    0 -0.64658303839E+02 -0.20656847787E+02 -0.89118224861E+02  0.11202437064E+03  0.00000000000E+00 0.  1.
        -11    1    3    3    0    0 -0.48603941125E+03 -0.43324859604E+03 -0.73796867875E+03  0.98414248261E+03  0.00000000000E+00 0. -1.
         22    1    1    2    0    0  0.55069771509E+03  0.45390544383E+03 -0.78015115707E+02  0.71790283718E+03  0.00000000000E+00 0. -1.
<mgrwt>
<rscale>  0 0.15721448E+04</rscale>
<asrwt>0</asrwt>
<pdfrwt beam="1">  1        1 0.20916706E+00 0.15721448E+04</pdfrwt>
<pdfrwt beam="2">  1       -1 0.69920590E-01 0.15721448E+04</pdfrwt>
<totfact> 0.16316861E+01</totfact>
</mgrwt>
</event>
<event>
 6    1  0.1719556E-004  0.2322872E+04  0.7818608E-02  0.8468957E-01
          2   -1    0    0  501    0  0.00000000000E+00  0.00000000000E+00  0.33084987607E+04  0.33084987607E+04  0.00000000000E+00 0.  1.
         -2   -1    0    0    0  501 -0.00000000000E+00 -0.00000000000E+00 -0.40771765843E+03  0.40771765843E+03  0.00000000000E+00 0. -1.
         23    2    1    2    0    0  0.73849791999E+03 -0.89102511017E+03  0.15705531393E+04  0.19530342509E+04  0.91655316838E+02 0.  0.
         11    1    3    3    0    0  0.85625573713E+02 -0.68799265376E+02  0.17565846262E+03  0.20717377556E+03  0.00000000000E+00 0. -1.
        -11    1    3    3    0    0  0.65287234627E+03 -0.82222584480E+03  0.13948946767E+04  0.17458604754E+04  0.00000000000E+00 0.  1.
         22    1    1    2    0    0 -0.73849791999E+03  0.89102511017E+03  0.13302279629E+04  0.17631821682E+04  0.00000000000E+00 0. -1.
<mgrwt>
<rscale>  0 0.23228718E+04</rscale>
<asrwt>0</asrwt>
<pdfrwt beam="1">  1        2 0.50899979E+00 0.23228718E+04</pdfrwt>
<pdfrwt beam="2">  1       -2 0.62725796E-01 0.23228718E+04</pdfrwt>
<totfact> 0.23482820E+00</totfact>
</mgrwt>
</event>
<event>
 6    1  0.1719556E-004  0.1721535E+04  0.7818608E-02  0.8749177E-01
          2   -1    0    0  501    0  0.00000000000E+00  0.00000000000E+00  0.71045017517E+03  0.71045017517E+03  0.00000000000E+00 0.  1.
         -2   -1    0    0    0  501 -0.00000000000E+00 -0.00000000000E+00 -0.10428886579E+04  0.10428886579E+04  0.00000000000E+00 0. -1.
         23    2    1    2    0    0 -0.28053817578E+03 -0.80780919893E+03 -0.91139867038E+02  0.86481061636E+03  0.91288317244E+02 0.  0.
         11    1    3    3    0    0 -0.22796773321E+03 -0.65155663095E+03 -0.36953611116E+02  0.69127483688E+03  0.00000000000E+00 0.  1.
        -11    1    3    3    0    0 -0.52570442570E+02 -0.15625256798E+03 -0.54186255922E+02  0.17353577949E+03  0.00000000000E+00 0. -1.
         22    1    1    2    0    0  0.28053817578E+03  0.80780919893E+03 -0.24129861569E+03  0.88852821670E+03  0.00000000000E+00 0.  1.
<mgrwt>
<rscale>  0 0.17215347E+04</rscale>
<asrwt>0</asrwt>
<pdfrwt beam="1">  1        2 0.10930003E+00 0.17215347E+04</pdfrwt>
<pdfrwt beam="2">  1       -2 0.16044441E+00 0.17215347E+04</pdfrwt>
<totfact> 0.95426527E+00</totfact>
</mgrwt>
</event>
<event>
 6    1  0.1719556E-004  0.2711916E+04  0.7818608E-02  0.8331149E-01
          2   -1    0    0  501    0  0.00000000000E+00  0.00000000000E+00  0.42564600755E+04  0.42564600755E+04  0.00000000000E+00 0.  1.
         -2   -1    0    0    0  501 -0.00000000000E+00 -0.00000000000E+00 -0.43196051359E+03  0.43196051359E+03  0.00000000000E+00 0. -1.
         23    2    1    2    0    0  0.10310517738E+04  0.87301653097E+03  0.20795509943E+04  0.24815968247E+04  0.92546413483E+02 0.  0.
         11    1    3    3    0    0  0.85552740692E+03  0.70228107322E+03  0.17580330079E+04  0.20774517820E+04  0.00000000000E+00 0.  1.
        -11    1    3    3    0    0  0.17552436690E+03  0.17073545775E+03  0.32151798643E+03  0.40414504266E+03  0.00000000000E+00 0. -1.
         22    1    1    2    0    0 -0.10310517738E+04 -0.87301653097E+03  0.17449485676E+04  0.22068237644E+04  0.00000000000E+00 0.  1.
<mgrwt>
<rscale>  0 0.27119164E+04</rscale>
<asrwt>0</asrwt>
<pdfrwt beam="1">  1        2 0.65483998E+00 0.27119164E+04</pdfrwt>
<pdfrwt beam="2">  1       -2 0.66455467E-01 0.27119164E+04</pdfrwt>
<totfact> 0.37920271E-01</totfact>
</mgrwt>
</event>
<event>
 6    1  0.1735399E-004  0.3985845E+04  0.7818608E-02  0.8007408E-01
         -2   -1    0    0    0  501 -0.00000000000E+00  0.00000000000E+00  0.13937344554E+04  0.13937344554E+04  0.00000000000E+00 0. -1.
          2   -1    0    0  501    0  0.00000000000E+00 -0.00000000000E+00 -0.28497108279E+04  0.28497108279E+04  0.00000000000E+00 0.  1.
         23    2    1    2    0    0  0.16175547010E+04  0.19713787666E+03 -0.19489396222E+04  0.25409884354E+04  0.53944647288E+02 0.  0.
         13    1    3    3    0    0  0.66254827229E+03  0.66663081143E+02 -0.76132295097E+03  0.10114478806E+04  0.00000000000E+00 0. -1.
        -13    1    3    3    0    0  0.95500642872E+03  0.13047479551E+03 -0.11876166712E+04  0.15295405548E+04  0.00000000000E+00 0.  1.
         22    1    1    2    0    0 -0.16175547010E+04 -0.19713787666E+03  0.49296324965E+03  0.17024568478E+04  0.00000000000E+00 0. -1.
<mgrwt>
<rscale>  0 0.39858450E+04</rscale>
<asrwt>0</asrwt>
<pdfrwt beam="1">  1        2 0.43841705E+00 0.39858450E+04</pdfrwt>
<pdfrwt beam="2">  1       -2 0.21442069E+00 0.39858450E+04</pdfrwt>
<totfact> 0.18265683E-01</totfact>
</mgrwt>
</event>
<event>
 6    1  0.1719556E-004  0.1558922E+04  0.7818608E-02  0.8846189E-01
          2   -1    0    0  501    0  0.00000000000E+00  0.00000000000E+00  0.10339379909E+04  0.10339379909E+04  0.00000000000E+00 0.  1.
         -2   -1    0    0    0  501 -0.00000000000E+00 -0.00000000000E+00 -0.58761708234E+03  0.58761708234E+03  0.00000000000E+00 0. -1.
         23    2    1    2    0    0 -0.42173506080E+03  0.56224136097E+03  0.56794663237E+03  0.90827488558E+03  0.91782792869E+02 0.  0.
         13    1    3    3    0    0 -0.18173560748E+03  0.30555519021E+03  0.25258243605E+03  0.43610743205E+03  0.00000000000E+00 0. -1.
        -13    1    3    3    0    0 -0.23999945332E+03  0.25668617076E+03  0.31536419631E+03  0.47216745352E+03  0.00000000000E+00 0.  1.
         22    1    1    2    0    0  0.42173506080E+03 -0.56224136097E+03 -0.12162572377E+03  0.71328018770E+03  0.00000000000E+00 0. -1.
<mgrwt>
<rscale>  0 0.15589222E+04</rscale>
<asrwt>0</asrwt>
<pdfrwt beam="1">  1        2 0.15906738E+00 0.15589222E+04</pdfrwt>
<pdfrwt beam="2">  1       -2 0.90402628E-01 0.15589222E+04</pdfrwt>
<totfact> 0.24114462E+01</totfact>
</mgrwt>
</event>
<event>
 6    1  0.1719556E-004  0.8823897E+03  0.7818608E-02  0.9447867E-01
          2   -1    0    0  501    0  0.00000000000E+00  0.00000000000E+00  0.12601207099E+04  0.12601207099E+04  0.00000000000E+00 0.  1.
         -2   -1    0    0    0  501 -0.00000000000E+00 -0.00000000000E+00 -0.15447161396E+03  0.15447161396E+03  0.00000000000E+00 0. -1.
         23    2    1    2    0    0 -0.36145908610E+03  0.11315050903E+02  0.18548031733E+03  0.42591073586E+03  0.12734325859E+03 0.  0.
         13    1    3    3    0    0 -0.22221423091E+03 -0.20959157139E+02  0.17306620072E+03  0.28243647165E+03  0.00000000000E+00 0.  1.
        -13    1    3    3    0    0 -0.13924485518E+03  0.32274208042E+02  0.12414116611E+02  0.14347426421E+03  0.00000000000E+00 0. -1.
         22    1    1    2    0    0  0.36145908610E+03 -0.11315050903E+02  0.92016877861E+03  0.98868158799E+03  0.00000000000E+00 0.  1.
<mgrwt>
<rscale>  0 0.88238966E+03</rscale>
<asrwt>0</asrwt>
<pdfrwt beam="1">  1        2 0.19386472E+00 0.88238966E+03</pdfrwt>
<pdfrwt beam="2">  1       -2 0.23764865E-01 0.88238966E+03</pdfrwt>
<totfact> 0.27483084E+02</totfact>
</mgrwt>
</event>
<event>
 6    1  0.1719556E-004  0.2868705E+04  0.7818608E-02  0.8282250E-01
          2   -1    0    0  501    0  0.00000000000E+00  0.00000000000E+00  0.21864314070E+04  0.21864314070E+04  0.00000000000E+00 0.  1.
         -2   -1    0    0    0  501 -0.00000000000E+00 -0.00000000000E+00 -0.94097020700E+03  0.94097020700E+03  0.00000000000E+00 0. -1.
         23    2    1    2    0    0 -0.63597434201E+03  0.75914417299E+03 -0.50567358856E+03  0.11156272015E+04  0.90305235168E+02 0.  0.
         11    1    3    3    0    0 -0.82363941326E+02  0.13305763858E+03 -0.53359594698E+02  0.16533420808E+03  0.00000000000E+00 0. -1.
        -11    1    3    3    0    0 -0.55361040068E+03  0.62608653441E+03 -0.45231399386E+03  0.95029299343E+03  0.00000000000E+00 0.  1.
         22    1    1    2    0    0  0.63597434201E+03 -0.75914417299E+03  0.17511347886E+04  0.20117744125E+04  0.00000000000E+00 0.  1.
<mgrwt>
<rscale>  0 0.28687048E+04</rscale>
<asrwt>0</asrwt>
<pdfrwt beam="1">  1        2 0.33637406E+00 0.28687048E+04</pdfrwt>
<pdfrwt beam="2">  1       -2 0.14476465E+00 0.28687048E+04</pdfrwt>
<totfact> 0.14964026E+00</totfact>
</mgrwt>
</event>
<event>
 6    1  0.1719556E-004  0.2329882E+04  0.7818608E-02  0.8466231E-01
         -1   -1    0    0    0  501 -0.00000000000E+00  0.00000000000E+00  0.19749375844E+04  0.19749375844E+04  0.00000000000E+00 0. -1.
          1   -1    0    0  501    0  0.00000000000E+00 -0.00000000000E+00 -0.68715464414E+03  0.68715464414E+03  0.00000000000E+00 0.  1.
         23    2    1    2    0    0  0.15322167350E+03 -0.16693379572E+03  0.19484050274E+04  0.19636902559E+04  0.91942900390E+02 0.  0.
         11    1    3    3    0    0  0.11288967641E+03 -0.16855334706E+03  0.15424347569E+04  0.15557182551E+04  0.00000000000E+00 0.  1.
        -11    1    3    3    0    0  0.40331997098E+02  0.16195513397E+01  0.40597027046E+03  0.40797200080E+03  0.00000000000E+00 0. -1.
         22    1    1    2    0    0 -0.15322167350E+03  0.16693379572E+03 -0.66062208714E+03  0.69840197265E+03  0.00000000000E+00 0.  1.
<mgrwt>
<rscale>  0 0.23298820E+04</rscale>
<asrwt>0</asrwt>
<pdfrwt beam="1">  1        1 0.10571610E+00 0.23298820E+04</pdfrwt>
<pdfrwt beam="2">  1       -1 0.30383655E+00 0.23298820E+04</pdfrwt>
<totfact> 0.78802599E-01</totfact>
</mgrwt>
</event>
<event>
 6    1  0.1719556E-004  0.2654370E+04  0.7818608E-02  0.8349964E-01
          1   -1    0    0  501    0  0.00000000000E+00  0.00000000000E+00  0.23226008379E+04  0.23226008379E+04  0.00000000000E+00 0.  1.
         -1   -1    0    0    0  501 -0.00000000000E+00 -0.00000000000E+00 -0.75838258710E+03  0.75838258710E+03  0.00000000000E+00 0. -1.
         23    2    1    2    0    0 -0.26784517967E+03 -0.10178778428E+04  0.17183820397E+04  0.20172246098E+04  0.92422664488E+02 0.  0.
         13    1    3    3    0    0 -0.15593778033E+03 -0.75290342957E+03  0.12409603269E+04  0.14598502316E+04  0.00000000000E+00 0. -1.
        -13    1    3    3    0    0 -0.11190739934E+03 -0.26497441323E+03  0.47742171274E+03  0.55737437821E+03  0.00000000000E+00 0.  1.
         22    1    1    2    0    0  0.26784517967E+03  0.10178778428E+04 -0.15416378888E+03  0.10637588152E+04  0.00000000000E+00 0. -1.
<mgrwt>
<rscale>  0 0.26543700E+04</rscale>
<asrwt>0</asrwt>
<pdfrwt beam="1">  1        1 0.35732320E+00 0.26543700E+04</pdfrwt>
<pdfrwt beam="2">  1       -1 0.11667424E+00 0.26543700E+04</pdfrwt>
<totfact> 0.10432632E+00</totfact>
</mgrwt>
</event>
<event>
 6    1  0.1719556E-004  0.1441740E+04  0.7818608E-02  0.8924147E-01
         -1   -1    0    0    0  501 -0.00000000000E+00  0.00000000000E+00  0.28111130371E+03  0.28111130371E+03  0.00000000000E+00 0. -1.
          1   -1    0    0  501    0  0.00000000000E+00 -0.00000000000E+00 -0.18485686444E+04  0.18485686444E+04  0.00000000000E+00 0.  1.
         23    2    1    2    0    0  0.63703246990E+03 -0.25746159936E+03 -0.10922289344E+04  0.12942525838E+04  0.10014420984E+03 0.  0.
         11    1    3    3    0    0  0.27422234937E+03 -0.13006165551E+03 -0.39643778815E+03  0.49927632730E+03  0.00000000000E+00 0.  1.
        -11    1    3    3    0    0  0.36281012052E+03 -0.12739994385E+03 -0.69579114624E+03  0.79497625652E+03  0.00000000000E+00 0. -1.
         22    1    1    2    0    0 -0.63703246990E+03  0.25746159936E+03 -0.47522840632E+03  0.83542736430E+03  0.00000000000E+00 0. -1.
<mgrwt>
<rscale>  0 0.14417400E+04</rscale>
<asrwt>0</asrwt>
<pdfrwt beam="1">  1        1 0.28439518E+00 0.14417400E+04</pdfrwt>
<pdfrwt beam="2">  1       -1 0.43247892E-01 0.14417400E+04</pdfrwt>
<totfact> 0.19359877E+01</totfact>
</mgrwt>
</event>
<event>
 6    1  0.1719556E-004  0.7014597E+03  0.7818608E-02  0.9714739E-01
         -2   -1    0    0    0  501 -0.00000000000E+00  0.00000000000E+00  0.32094470979E+02  0.32094470979E+02  0.00000000000E+00 0. -1.
          2   -1    0    0  501    0  0.00000000000E+00 -0.00000000000E+00 -0.38327921984E+04  0.38327921984E+04  0.00000000000E+00 0.  1.
         23    2    1    2    0    0  0.33234525140E+03  0.17680290375E+02 -0.24283964995E+04  0.24528042996E+04  0.91506364347E+02 0.  0.
         11    1    3    3    0    0  0.13508744198E+03  0.16443904890E+01 -0.13182965424E+04  0.13252007753E+04  0.00000000000E+00 0.  1.
        -11    1    3    3    0    0  0.19725780942E+03  0.16035899886E+02 -0.11100999571E+04  0.11276035244E+04  0.00000000000E+00 0. -1.
         22    1    1    2    0    0 -0.33234525140E+03 -0.17680290375E+02 -0.13723012280E+04  0.14120823698E+04  0.00000000000E+00 0.  1.
<mgrwt>
<rscale>  0 0.70145973E+03</rscale>
<asrwt>0</asrwt>
<pdfrwt beam="1">  1        2 0.58966072E+00 0.70145973E+03</pdfrwt>
<pdfrwt beam="2">  1       -2 0.49376077E-02 0.70145973E+03</pdfrwt>
<totfact> 0.10742807E+02</totfact>
</mgrwt>
</event>
<event>
 6    1  0.1719556E-004  0.2229488E+04  0.7818608E-02  0.8506254E-01
         -2   -1    0    0    0  501 -0.00000000000E+00  0.00000000000E+00  0.25359668978E+04  0.25359668978E+04  0.00000000000E+00 0. -1.
          2   -1    0    0  501    0  0.00000000000E+00 -0.00000000000E+00 -0.49001189409E+03  0.49001189409E+03  0.00000000000E+00 0.  1.
         23    2    1    2    0    0 -0.25601860236E+03  0.94078448116E+03  0.17528899512E+04  0.20078883785E+04  0.91496419471E+02 0.  0.
         11    1    3    3    0    0 -0.20357160152E+03  0.69158274872E+03  0.12155045368E+04  0.14132159688E+04  0.00000000000E+00 0. -1.
        -11    1    3    3    0    0 -0.52447000842E+02  0.24920173244E+03  0.53738541440E+03  0.59467240979E+03  0.00000000000E+00 0.  1.
         22    1    1    2    0    0  0.25601860236E+03 -0.94078448116E+03  0.29306505244E+03  0.10180904133E+04  0.00000000000E+00 0.  1.
<mgrwt>
<rscale>  0 0.22294878E+04</rscale>
<asrwt>0</asrwt>
<pdfrwt beam="1">  1        2 0.75386447E-01 0.22294878E+04</pdfrwt>
<pdfrwt beam="2">  1       -2 0.39014875E+00 0.22294878E+04</pdfrwt>
<totfact> 0.49542824E-01</totfact>
</mgrwt>
</event>
<event>
 6    1  0.1719556E-004  0.2104549E+04  0.7818608E-02  0.8559242E-01
          2   -1    0    0  501    0  0.00000000000E+00  0.00000000000E+00  0.82019006655E+03  0.82019006655E+03  0.00000000000E+00 0.  1.
         -2   -1    0    0    0  501 -0.00000000000E+00 -0.00000000000E+00 -0.13500310542E+04  0.13500310542E+04  0.00000000000E+00 0. -1.
         23    2    1    2    0    0  0.91191890397E+03  0.14794885020E+03  0.25024479394E+03  0.96108143636E+03  0.87006440636E+02 0.  0.
         13    1    3    3    0    0  0.75988230166E+03  0.14450558624E+03  0.23410897777E+03  0.80815220738E+03  0.00000000000E+00 0. -1.
        -13    1    3    3    0    0  0.15203660232E+03  0.34432639630E+01  0.16135816174E+02  0.15292922897E+03  0.00000000000E+00 0.  1.
         22    1    1    2    0    0 -0.91191890397E+03 -0.14794885020E+03 -0.78008578156E+03  0.12091396844E+04  0.00000000000E+00 0. -1.
<mgrwt>
<rscale>  0 0.21045494E+04</rscale>
<asrwt>0</asrwt>
<pdfrwt beam="1">  1        2 0.12618309E+00 0.21045494E+04</pdfrwt>
<pdfrwt beam="2">  1       -2 0.20769708E+00 0.21045494E+04</pdfrwt>
<totfact> 0.36348815E+00</totfact>
</mgrwt>
</event>
<event>
 6    1  0.1719556E-004  0.2478230E+04  0.7818608E-02  0.8410783E-01
          2   -1    0    0  501    0  0.00000000000E+00  0.00000000000E+00  0.31261684010E+04  0.31261684010E+04  0.00000000000E+00 0.  1.
         -2   -1    0    0    0  501 -0.00000000000E+00 -0.00000000000E+00 -0.49114618244E+03  0.49114618244E+03  0.00000000000E+00 0. -1.
         23    2    1    2    0    0 -0.22960357080E+03  0.11832318268E+04  0.17279807084E+04  0.21088452742E+04  0.92497061570E+02 0.  0.
         11    1    3    3    0    0 -0.75991945920E+02  0.40155289070E+03  0.66386748898E+03  0.77957651504E+03  0.00000000000E+00 0. -1.
        -11    1    3    3    0    0 -0.15361162488E+03  0.78167893611E+03  0.10641132194E+04  0.13292687592E+04  0.00000000000E+00 0.  1.
         22    1    1    2    0    0  0.22960357080E+03 -0.11832318268E+04  0.90704151022E+03  0.15084693093E+04  0.00000000000E+00 0. -1.
<mgrwt>
<rscale>  0 0.24782298E+04</rscale>
<asrwt>0</asrwt>
<pdfrwt beam="1">  1        2 0.48094897E+00 0.24782298E+04</pdfrwt>
<pdfrwt beam="2">  1       -2 0.75560953E-01 0.24782298E+04</pdfrwt>
<totfact> 0.20325956E+00</totfact>
</mgrwt>
</event>
<event>
 6    1  0.1719556E-004  0.1149674E+04  0.7818608E-02  0.9158085E-01
         -1   -1    0    0    0  501 -0.00000000000E+00  0.00000000000E+00  0.53316170373E+03  0.53316170373E+03  0.00000000000E+00 0. -1.
          1   -1    0    0  501    0  0.00000000000E+00 -0.00000000000E+00 -0.61976946176E+03  0.61976946176E+03  0.00000000000E+00 0.  1.
         23    2    1    2    0    0 -0.26149140996E+03  0.12362413771E+03  0.45120308378E+03  0.54227480837E+03  0.82565489618E+02 0.  0.
         13    1    3    3    0    0 -0.11876006235E+03  0.39360054812E+02  0.26460177776E+03  0.29268971133E+03  0.00000000000E+00 0.  1.
        -13    1    3    3    0    0 -0.14273134762E+03  0.84264082896E+02  0.18660130602E+03  0.24958509704E+03  0.00000000000E+00 0. -1.
         22    1    1    2    0    0  0.26149140996E+03 -0.12362413771E+03 -0.53781084182E+03  0.61065635712E+03  0.00000000000E+00 0.  1.
<mgrwt>
<rscale>  0 0.11496736E+04</rscale>
<asrwt>0</asrwt>
<pdfrwt beam="1">  1        1 0.95349147E-01 0.11496736E+04</pdfrwt>
<pdfrwt beam="2">  1       -1 0.82024878E-01 0.11496736E+04</pdfrwt>
<totfact> 0.48004106E+01</totfact>
</mgrwt>
</event>
<event>
 6    1  0.1719556E-004  0.2737614E+04  0.7818608E-02  0.8322903E-01
         -2   -1    0    0    0  501 -0.00000000000E+00  0.00000000000E+00  0.14278379509E+04  0.14278379509E+04  0.00000000000E+00 0. -1.
          2   -1    0    0  501    0  0.00000000000E+00 -0.00000000000E+00 -0.13122170320E+04  0.13122170320E+04  0.00000000000E+00 0.  1.
         23    2    1    2    0    0 -0.83987518574E+03 -0.10775529306E+04  0.34435113491E+01  0.13692543348E+04  0.91295836057E+02 0.  0.
         11    1    3    3    0    0 -0.70285022641E+03 -0.84286604146E+03 -0.73619164877E+00  0.10974616834E+04  0.00000000000E+00 0.  1.
        -11    1    3    3    0    0 -0.13702495933E+03 -0.23468688914E+03  0.41797029979E+01  0.27179265136E+03  0.00000000000E+00 0. -1.
         22    1    1    2    0    0  0.83987518574E+03  0.10775529306E+04  0.11217740754E+03  0.13708006480E+04  0.00000000000E+00 0. -1.
<mgrwt>
<rscale>  0 0.27376145E+04</rscale>
<asrwt>0</asrwt>
<pdfrwt beam="1">  1        2 0.20187954E+00 0.27376145E+04</pdfrwt>
<pdfrwt beam="2">  1       -2 0.21966738E+00 0.27376145E+04</pdfrwt>
<totfact> 0.14126385E+00</totfact>
</mgrwt>
</event>
<event>
 6    1  0.1719556E-004  0.3641048E+04  0.7818608E-02  0.8081153E-01
         -2   -1    0    0    0  501 -0.00000000000E+00  0.00000000000E+00  0.16933810081E+04  0.16933810081E+04  0.00000000000E+00 0. -1.
          2   -1    0    0  501    0  0.00000000000E+00 -0.00000000000E+00 -0.19572127863E+04  0.19572127863E+04  0.00000000000E+00 0.  1.
         23    2    1    2    0    0 -0.19955694705E+03  0.10763923467E+04  0.13253639151E+04  0.17208304900E+04  0.78896190088E+02 0.  0.
         11    1    3    3    0    0 -0.69274972901E+02  0.51556786230E+03  0.58259780016E+03  0.78104381392E+03  0.00000000000E+00 0. -1.
        -11    1    3    3    0    0 -0.13028197415E+03  0.56082448439E+03  0.74276611498E+03  0.93978667613E+03  0.00000000000E+00 0.  1.
         22    1    1    2    0    0  0.19955694705E+03 -0.10763923467E+04 -0.15891956933E+04  0.19297633043E+04  0.00000000000E+00 0.  1.
<mgrwt>
<rscale>  0 0.36410476E+04</rscale>
<asrwt>0</asrwt>
<pdfrwt beam="1">  1        2 0.30110966E+00 0.36410476E+04</pdfrwt>
<pdfrwt beam="2">  1       -2 0.26052016E+00 0.36410476E+04</pdfrwt>
<totfact> 0.31753732E-01</totfact>
</mgrwt>
</event>
<event>
 6    1  0.1719556E-004  0.8851546E+03  0.7818608E-02  0.9444332E-01
          1   -1    0    0  501    0  0.00000000000E+00  0.00000000000E+00  0.87173671591E+03  0.87173671591E+03  0.00000000000E+00 0. -1.
         -1   -1    0    0    0  501 -0.00000000000E+00 -0.00000000000E+00 -0.22469474288E+03  0.22469474288E+03  0.00000000000E+00 0.  1.
         23    2    1    2    0    0  0.31959076983E+03  0.10374946712E+03  0.67489792568E+03  0.75926953006E+03  0.90004428225E+02 0.  0.
         13    1    3    3    0    0  0.21603227755E+03  0.36842352990E+02  0.36487368802E+03  0.42562907811E+03  0.00000000000E+00 0.  1.
        -13    1    3    3    0    0  0.10355849228E+03  0.66907114126E+02  0.31002423766E+03  0.33364045196E+03  0.00000000000E+00 0. -1.
         22    1    1    2    0    0 -0.31959076983E+03 -0.10374946712E+03 -0.27855952658E+02  0.33716192873E+03  0.00000000000E+00 0.  1.
<mgrwt>
<rscale>  0 0.88515458E+03</rscale>
<asrwt>0</asrwt>
<pdfrwt beam="1">  1        1 0.13411334E+00 0.88515458E+03</pdfrwt>
<pdfrwt beam="2">  1       -1 0.34568422E-01 0.88515458E+03</pdfrwt>
<totfact> 0.15343405E+02</totfact>
</mgrwt>
</event>
<event>
 6    1  0.1719556E-004  0.8944721E+03  0.7818608E-02  0.9432518E-01
          1   -1    0    0  501    0  0.00000000000E+00  0.00000000000E+00  0.12140243928E+04  0.12140243928E+04  0.00000000000E+00 0.  1.
         -1   -1    0    0    0  501 -0.00000000000E+00 -0.00000000000E+00 -0.16475787139E+03  0.16475787139E+03  0.00000000000E+00 0. -1.
         23    2    1    2    0    0  0.42184490131E+03  0.47969154126E+02  0.33942264004E+03  0.55165924045E+03  0.94159590538E+02 0.  0.
         11    1    3    3    0    0  0.40454038874E+03  0.49137545427E+02  0.29246408952E+03  0.50160010781E+03  0.00000000000E+00 0. -1.
        -11    1    3    3    0    0  0.17304512566E+02 -0.11683913010E+01  0.46958550523E+02  0.50059132639E+02  0.00000000000E+00 0.  1.
         22    1    1    2    0    0 -0.42184490131E+03 -0.47969154126E+02  0.70984388141E+03  0.82712302379E+03  0.00000000000E+00 0. -1.
<mgrwt>
<rscale>  0 0.89447208E+03</rscale>
<asrwt>0</asrwt>
<pdfrwt beam="1">  1        1 0.18677298E+00 0.89447208E+03</pdfrwt>
<pdfrwt beam="2">  1       -1 0.25347366E-01 0.89447208E+03</pdfrwt>
<totfact> 0.14374556E+02</totfact>
</mgrwt>
</event>
<event>
 6    1  0.1719556E-004  0.1586128E+04  0.7818608E-02  0.8829116E-01
          2   -1    0    0  501    0  0.00000000000E+00  0.00000000000E+00  0.16282760032E+04  0.16282760032E+04  0.00000000000E+00 0.  1.
         -2   -1    0    0    0  501 -0.00000000000E+00 -0.00000000000E+00 -0.38626773078E+03  0.38626773078E+03  0.00000000000E+00 0. -1.
         23    2    1    2    0    0  0.48936617584E+03 -0.61984929467E+03  0.58520741885E+03  0.98737297729E+03  0.93516153926E+02 0.  0.
         13    1    3    3    0    0  0.25231736314E+03 -0.30308345870E+03  0.34878356250E+03  0.52647279906E+03  0.00000000000E+00 0.  1.
        -13    1    3    3    0    0  0.23704881270E+03 -0.31676583597E+03  0.23642385635E+03  0.46090017823E+03  0.00000000000E+00 0. -1.
         22    1    1    2    0    0 -0.48936617584E+03  0.61984929467E+03  0.65680085361E+03  0.10271707567E+04  0.00000000000E+00 0.  1.
<mgrwt>
<rscale>  0 0.15861280E+04</rscale>
<asrwt>0</asrwt>
<pdfrwt beam="1">  1        2 0.25050400E+00 0.15861280E+04</pdfrwt>
<pdfrwt beam="2">  1       -2 0.59425805E-01 0.15861280E+04</pdfrwt>
<totfact> 0.27280037E+01</totfact>
</mgrwt>
</event>
<event>
 6    1  0.1719556E-004  0.1218203E+04  0.7818608E-02  0.9097071E-01
          1   -1    0    0  501    0  0.00000000000E+00  0.00000000000E+00  0.95726830464E+03  0.95726830464E+03  0.00000000000E+00 0.  1.
         -1   -1    0    0    0  501 -0.00000000000E+00 -0.00000000000E+00 -0.38756589258E+03  0.38756589258E+03  0.00000000000E+00 0. -1.
         23    2    1    2    0    0  0.32850112920E+03  0.50500609778E+03  0.21672547341E+03  0.64659579245E+03  0.90399321407E+02 0.  0.
         13    1    3    3    0    0  0.14571759592E+03  0.30635221709E+03  0.12028330497E+03  0.35993523325E+03  0.00000000000E+00 0.  1.
        -13    1    3    3    0    0  0.18278353328E+03  0.19865388068E+03  0.96442168443E+02  0.28666055920E+03  0.00000000000E+00 0. -1.
         22    1    1    2    0    0 -0.32850112920E+03 -0.50500609778E+03  0.35297693865E+03  0.69823840477E+03  0.00000000000E+00 0.  1.
<mgrwt>
<rscale>  0 0.12182028E+04</rscale>
<asrwt>0</asrwt>
<pdfrwt beam="1">  1        1 0.14727205E+00 0.12182028E+04</pdfrwt>
<pdfrwt beam="2">  1       -1 0.59625522E-01 0.12182028E+04</pdfrwt>
<totfact> 0.46098931E+01</totfact>
</mgrwt>
</event>
<event>
 6    1  0.1719556E-004  0.2052484E+04  0.7818608E-02  0.8582468E-01
          1   -1    0    0  501    0  0.00000000000E+00  0.00000000000E+00  0.15255959923E+04  0.15255959923E+04  0.00000000000E+00 0.  1.
         -1   -1    0    0    0  501 -0.00000000000E+00 -0.00000000000E+00 -0.69033543049E+03  0.69033543049E+03  0.00000000000E+00 0. -1.
         23    2    1    2    0    0 -0.42975967196E+03  0.13171069791E+03 -0.57510484236E+03  0.73567075085E+03  0.91786656787E+02 0.  0.
         13    1    3    3    0    0 -0.11165120964E+03  0.70547772249E+02 -0.20460326014E+03  0.24352715422E+03  0.00000000000E+00 0. -1.
        -13    1    3    3    0    0 -0.31810846232E+03  0.61162925660E+02 -0.37050158223E+03  0.49214359664E+03  0.00000000000E+00 0.  1.
         22    1    1    2    0    0  0.42975967196E+03 -0.13171069791E+03  0.14103654042E+04  0.14802606719E+04  0.00000000000E+00 0.  1.
<mgrwt>
<rscale>  0 0.20524843E+04</rscale>
<asrwt>0</asrwt>
<pdfrwt beam="1">  1        1 0.23470708E+00 0.20524843E+04</pdfrwt>
<pdfrwt beam="2">  1       -1 0.10620545E+00 0.20524843E+04</pdfrwt>
<totfact> 0.48070801E+00</totfact>
</mgrwt>
</event>
<event>
 6    1  0.1719556E-004  0.2431332E+04  0.7818608E-02  0.8427866E-01
          1   -1    0    0  501    0  0.00000000000E+00  0.00000000000E+00  0.27503890241E+04  0.27503890241E+04  0.00000000000E+00 0.  1.
         -1   -1    0    0    0  501 -0.00000000000E+00 -0.00000000000E+00 -0.53732171609E+03  0.53732171609E+03  0.00000000000E+00 0. -1.
         23    2    1    2    0    0 -0.49043985812E+03  0.67193713181E+03  0.23036864361E+04  0.24509057511E+04  0.89090074170E+02 0.  0.
         13    1    3    3    0    0 -0.20518745117E+03  0.34094705110E+03  0.10187671468E+04  0.10937244996E+04  0.00000000000E+00 0. -1.
        -13    1    3    3    0    0 -0.28525240695E+03  0.33099008071E+03  0.12849192893E+04  0.13571812514E+04  0.00000000000E+00 0.  1.
         22    1    1    2    0    0  0.49043985812E+03 -0.67193713181E+03 -0.90619128014E+02  0.83680498917E+03  0.00000000000E+00 0. -1.
<mgrwt>
<rscale>  0 0.24313319E+04</rscale>
<asrwt>0</asrwt>
<pdfrwt beam="1">  1        1 0.42313677E+00 0.24313319E+04</pdfrwt>
<pdfrwt beam="2">  1       -1 0.82664881E-01 0.24313319E+04</pdfrwt>
<totfact> 0.11746059E+00</totfact>
</mgrwt>
</event>
<event>
 6    1  0.1719556E-004  0.2089582E+04  0.7818608E-02  0.8565846E-01
          2   -1    0    0  501    0  0.00000000000E+00  0.00000000000E+00  0.18961073922E+04  0.18961073922E+04  0.00000000000E+00 0.  1.
         -2   -1    0    0    0  501 -0.00000000000E+00 -0.00000000000E+00 -0.57569964230E+03  0.57569964230E+03  0.00000000000E+00 0. -1.
         23    2    1    2    0    0 -0.52996916724E+03 -0.27106588354E+03  0.16742456484E+04  0.17793149481E+04  0.92299305625E+02 0.  0.
         13    1    3    3    0    0 -0.25976559492E+03 -0.14275333493E+03  0.96720298309E+03  0.10116018433E+04  0.00000000000E+00 0. -1.
        -13    1    3    3    0    0 -0.27020357232E+03 -0.12831254861E+03  0.70704266529E+03  0.76771310472E+03  0.00000000000E+00 0.  1.
         22    1    1    2    0    0  0.52996916724E+03  0.27106588354E+03 -0.35383789844E+03  0.69249208647E+03  0.00000000000E+00 0. -1.
<mgrwt>
<rscale>  0 0.20895821E+04</rscale>
<asrwt>0</asrwt>
<pdfrwt beam="1">  1        2 0.29170883E+00 0.20895821E+04</pdfrwt>
<pdfrwt beam="2">  1       -2 0.88569177E-01 0.20895821E+04</pdfrwt>
<totfact> 0.77179371E+00</totfact>
</mgrwt>
</event>
<event>
 6    1  0.2178923E-004  0.3971817E+04  0.7818608E-02  0.8010256E-01
         -2   -1    0    0    0  501 -0.00000000000E+00  0.00000000000E+00  0.17893488476E+04  0.17893488476E+04  0.00000000000E+00 0. -1.
          2   -1    0    0  501    0  0.00000000000E+00 -0.00000000000E+00 -0.22040601410E+04  0.22040601410E+04  0.00000000000E+00 0.  1.
         23    2    1    2    0    0  0.11812764104E+04 -0.78013315106E+03  0.11913144060E+04  0.18525352795E+04  0.92926080826E+02 0.  0.
         13    1    3    3    0    0  0.64800586639E+03 -0.42498462731E+03  0.71220668054E+03  0.10525026803E+04  0.00000000000E+00 0. -1.
        -13    1    3    3    0    0  0.53327054401E+03 -0.35514852375E+03  0.47910772547E+03  0.80003259911E+03  0.00000000000E+00 0.  1.
         22    1    1    2    0    0 -0.11812764104E+04  0.78013315106E+03 -0.16060256994E+04  0.21408737091E+04  0.00000000000E+00 0.  1.
<mgrwt>
<rscale>  0 0.39718170E+04</rscale>
<asrwt>0</asrwt>
<pdfrwt beam="1">  1        2 0.33908618E+00 0.39718170E+04</pdfrwt>
<pdfrwt beam="2">  1       -2 0.27528444E+00 0.39718170E+04</pdfrwt>
<totfact> 0.18276569E-01</totfact>
</mgrwt>
</event>
<event>
 6    1  0.1719556E-004  0.9821439E+03  0.7818608E-02  0.9328349E-01
          2   -1    0    0  501    0  0.00000000000E+00  0.00000000000E+00  0.65182631931E+03  0.65182631931E+03  0.00000000000E+00 0.  1.
         -2   -1    0    0    0  501 -0.00000000000E+00 -0.00000000000E+00 -0.36996305699E+03  0.36996305699E+03  0.00000000000E+00 0. -1.
         23    2    1    2    0    0 -0.37013876927E+03 -0.24563797616E+03  0.34838172606E+03  0.57260630687E+03  0.95746706272E+02 0.  0.
         13    1    3    3    0    0 -0.27756237186E+03 -0.21114385337E+03  0.31003662124E+03  0.46663187161E+03  0.00000000000E+00 0.  1.
        -13    1    3    3    0    0 -0.92576397417E+02 -0.34494122788E+02  0.38345104816E+02  0.10597443526E+03  0.00000000000E+00 0. -1.
         22    1    1    2    0    0  0.37013876927E+03  0.24563797616E+03 -0.66518463733E+02  0.44918306944E+03  0.00000000000E+00 0.  1.
<mgrwt>
<rscale>  0 0.98214390E+03</rscale>
<asrwt>0</asrwt>
<pdfrwt beam="1">  1        2 0.10028097E+00 0.98214390E+03</pdfrwt>
<pdfrwt beam="2">  1       -2 0.56917393E-01 0.98214390E+03</pdfrwt>
<totfact> 0.12965086E+02</totfact>
</mgrwt>
</event>
<event>
 6    1  0.1719556E-004  0.2380672E+04  0.7818608E-02  0.8446775E-01
         -2   -1    0    0    0  501 -0.00000000000E+00  0.00000000000E+00  0.90762083983E+03  0.90762083983E+03  0.00000000000E+00 0.  1.
          2   -1    0    0  501    0  0.00000000000E+00 -0.00000000000E+00 -0.15611139682E+04  0.15611139682E+04  0.00000000000E+00 0. -1.
         23    2    1    2    0    0  0.17072798916E+03 -0.44532755272E+03 -0.14562031741E+04  0.15350281663E+04  0.91209163803E+02 0.  0.
         11    1    3    3    0    0  0.16647255922E+03 -0.32968479199E+03 -0.11383670552E+04  0.11967809856E+04  0.00000000000E+00 0.  1.
        -11    1    3    3    0    0  0.42554299331E+01 -0.11564276073E+03 -0.31783611883E+03  0.33824718066E+03  0.00000000000E+00 0. -1.
         22    1    1    2    0    0 -0.17072798916E+03  0.44532755272E+03  0.80271004567E+03  0.93370664179E+03  0.00000000000E+00 0.  1.
<mgrwt>
<rscale>  0 0.23806718E+04</rscale>
<asrwt>0</asrwt>
<pdfrwt beam="1">  1        2 0.24017138E+00 0.23806718E+04</pdfrwt>
<pdfrwt beam="2">  1       -2 0.13963398E+00 0.23806718E+04</pdfrwt>
<totfact> 0.38197645E+00</totfact>
</mgrwt>
</event>
<event>
 6    1  0.1719556E-004  0.1582795E+04  0.7818608E-02  0.8831188E-01
         -1   -1    0    0    0  501 -0.00000000000E+00  0.00000000000E+00  0.46438658113E+03  0.46438658113E+03  0.00000000000E+00 0. -1.
          1   -1    0    0  501    0  0.00000000000E+00 -0.00000000000E+00 -0.13486816299E+04  0.13486816299E+04  0.00000000000E+00 0.  1.
         23    2    1    2    0    0  0.31396644950E+03  0.21357891077E+03 -0.12355223467E+04  0.12958144073E+04  0.91807551872E+02 0.  0.
         11    1    3    3    0    0  0.12936612511E+03  0.12862979246E+03 -0.68877378627E+03  0.71252406730E+03  0.00000000000E+00 0. -1.
        -11    1    3    3    0    0  0.18460032439E+03  0.84949118314E+02 -0.54674856042E+03  0.58329034005E+03  0.00000000000E+00 0.  1.
         22    1    1    2    0    0 -0.31396644950E+03 -0.21357891077E+03  0.35122729797E+03  0.51725380364E+03  0.00000000000E+00 0. -1.
<mgrwt>
<rscale>  0 0.15827946E+04</rscale>
<asrwt>0</asrwt>
<pdfrwt beam="1">  1        1 0.20748948E+00 0.15827946E+04</pdfrwt>
<pdfrwt beam="2">  1       -1 0.71444090E-01 0.15827946E+04</pdfrwt>
<totfact> 0.15873822E+01</totfact>
</mgrwt>
</event>
<event>
 6    1  0.1719556E-004  0.1547656E+04  0.7818608E-02  0.8853367E-01
         -2   -1    0    0    0  501 -0.00000000000E+00  0.00000000000E+00  0.52813199900E+03  0.52813199900E+03  0.00000000000E+00 0. -1.
          2   -1    0    0  501    0  0.00000000000E+00 -0.00000000000E+00 -0.11338254006E+04  0.11338254006E+04  0.00000000000E+00 0.  1.
         23    2    1    2    0    0  0.18428106992E+03  0.64237166435E+03 -0.71423945625E+03  0.98491743483E+03  0.11542740008E+03 0.  0.
         11    1    3    3    0    0  0.14094304098E+03  0.57527302014E+03 -0.58169434105E+03  0.83016401687E+03  0.00000000000E+00 0.  1.
        -11    1    3    3    0    0  0.43338028944E+02  0.67098644206E+02 -0.13254511520E+03  0.15475341796E+03  0.00000000000E+00 0. -1.
         22    1    1    2    0    0 -0.18428106992E+03 -0.64237166435E+03  0.10854605466E+03  0.67703996475E+03  0.00000000000E+00 0. -1.
<mgrwt>
<rscale>  0 0.15476556E+04</rscale>
<asrwt>0</asrwt>
<pdfrwt beam="1">  1        2 0.17443468E+00 0.15476556E+04</pdfrwt>
<pdfrwt beam="2">  1       -2 0.81251077E-01 0.15476556E+04</pdfrwt>
<totfact> 0.26692625E+01</totfact>
</mgrwt>
</event>
<event>
 6    1  0.1719556E-004  0.3479662E+04  0.7818608E-02  0.8118627E-01
         -2   -1    0    0    0  501 -0.00000000000E+00  0.00000000000E+00  0.14174486492E+04  0.14174486492E+04  0.00000000000E+00 0. -1.
          2   -1    0    0  501    0  0.00000000000E+00 -0.00000000000E+00 -0.21355352269E+04  0.21355352269E+04  0.00000000000E+00 0.  1.
         23    2    1    2    0    0  0.34435335171E+03 -0.12336108494E+04 -0.15599166961E+04  0.20203218433E+04  0.89360467762E+02 0.  0.
         11    1    3    3    0    0  0.21472830918E+03 -0.73922534738E+03 -0.10044260770E+04  0.12654778169E+04  0.00000000000E+00 0.  1.
        -11    1    3    3    0    0  0.12962504253E+03 -0.49438550206E+03 -0.55549061907E+03  0.75484402639E+03  0.00000000000E+00 0. -1.
         22    1    1    2    0    0 -0.34435335171E+03  0.12336108494E+04  0.84183011829E+03  0.15326620328E+04  0.00000000000E+00 0. -1.
<mgrwt>
<rscale>  0 0.34796618E+04</rscale>
<asrwt>0</asrwt>
<pdfrwt beam="1">  1        2 0.32854388E+00 0.34796618E+04</pdfrwt>
<pdfrwt beam="2">  1       -2 0.21806903E+00 0.34796618E+04</pdfrwt>
<totfact> 0.46969099E-01</totfact>
</mgrwt>
</event>
<event>
 6    1  0.1719556E-004  0.1594704E+04  0.7818608E-02  0.8823808E-01
         -1   -1    0    0    0  501 -0.00000000000E+00  0.00000000000E+00  0.10257052699E+04  0.10257052699E+04  0.00000000000E+00 0. -1.
          1   -1    0    0  501    0  0.00000000000E+00 -0.00000000000E+00 -0.61983687014E+03  0.61983687014E+03  0.00000000000E+00 0.  1.
         23    2    1    2    0    0  0.11576907634E+03 -0.69376389913E+03  0.58516807213E+03  0.91969146715E+03  0.93273229464E+02 0.  0.
         13    1    3    3    0    0  0.58022931566E+02 -0.23814216528E+03  0.15224202525E+03  0.28854113350E+03  0.00000000000E+00 0.  1.
        -13    1    3    3    0    0  0.57746144779E+02 -0.45562173385E+03  0.43292604688E+03  0.63115033365E+03  0.00000000000E+00 0. -1.
         22    1    1    2    0    0 -0.11576907634E+03  0.69376389913E+03 -0.17929967241E+03  0.72585067286E+03  0.00000000000E+00 0. -1.
<mgrwt>
<rscale>  0 0.15947037E+04</rscale>
<asrwt>0</asrwt>
<pdfrwt beam="1">  1        1 0.95359518E-01 0.15947037E+04</pdfrwt>
<pdfrwt beam="2">  1       -1 0.15780081E+00 0.15947037E+04</pdfrwt>
<totfact> 0.95238183E+00</totfact>
</mgrwt>
</event>
<event>
 6    1  0.1719556E-004  0.3270384E+04  0.7818608E-02  0.8170472E-01
         -1   -1    0    0    0  501 -0.00000000000E+00  0.00000000000E+00  0.26244740943E+04  0.26244740943E+04  0.00000000000E+00 0. -1.
          1   -1    0    0  501    0  0.00000000000E+00 -0.00000000000E+00 -0.10188149815E+04  0.10188149815E+04  0.00000000000E+00 0.  1.
         23    2    1    2    0    0  0.60270682249E+03 -0.84218501146E+03 -0.60445046129E+03  0.12025688057E+04  0.90995961269E+02 0.  0.
         13    1    3    3    0    0  0.26346743132E+03 -0.31392822218E+03 -0.27524541479E+03  0.49368619022E+03  0.00000000000E+00 0.  1.
        -13    1    3    3    0    0  0.33923939117E+03 -0.52825678928E+03 -0.32920504649E+03  0.70888261552E+03  0.00000000000E+00 0. -1.
         22    1    1    2    0    0 -0.60270682249E+03  0.84218501146E+03  0.22101095741E+04  0.24407202701E+04  0.00000000000E+00 0. -1.
<mgrwt>
<rscale>  0 0.32703844E+04</rscale>
<asrwt>0</asrwt>
<pdfrwt beam="1">  1        1 0.15674077E+00 0.32703844E+04</pdfrwt>
<pdfrwt beam="2">  1       -1 0.40376524E+00 0.32703844E+04</pdfrwt>
<totfact> 0.81945387E-02</totfact>
</mgrwt>
</event>
<event>
 6    1  0.1719556E-004  0.2863661E+04  0.7818608E-02  0.8283772E-01
          2   -1    0    0  501    0  0.00000000000E+00  0.00000000000E+00  0.25558449127E+04  0.25558449127E+04  0.00000000000E+00 0.  1.
         -2   -1    0    0    0  501 -0.00000000000E+00 -0.00000000000E+00 -0.80213744904E+03  0.80213744904E+03  0.00000000000E+00 0. -1.
         23    2    1    2    0    0 -0.38281398682E+03 -0.98338412450E+03 -0.25456654778E+03  0.10893362038E+04  0.90875480229E+02 0.  0.
         13    1    3    3    0    0 -0.62225732374E+02 -0.24876556596E+03 -0.84257049330E+02  0.26991776328E+03  0.00000000000E+00 0.  1.
        -13    1    3    3    0    0 -0.32058825445E+03 -0.73461855854E+03 -0.17030949845E+03  0.81941844054E+03  0.00000000000E+00 0. -1.
         22    1    1    2    0    0  0.38281398682E+03  0.98338412450E+03  0.20082740114E+04  0.22686461579E+04  0.00000000000E+00 0.  1.
<mgrwt>
<rscale>  0 0.28636612E+04</rscale>
<asrwt>0</asrwt>
<pdfrwt beam="1">  1        2 0.39320691E+00 0.28636612E+04</pdfrwt>
<pdfrwt beam="2">  1       -2 0.12340576E+00 0.28636612E+04</pdfrwt>
<totfact> 0.13841534E+00</totfact>
</mgrwt>
</event>
<event>
 6    1  0.1719556E-004  0.1528698E+04  0.7818608E-02  0.8865590E-01
         -2   -1    0    0    0  501 -0.00000000000E+00  0.00000000000E+00  0.72839098876E+03  0.72839098876E+03  0.00000000000E+00 0. -1.
          2   -1    0    0  501    0  0.00000000000E+00 -0.00000000000E+00 -0.80208238681E+03  0.80208238681E+03  0.00000000000E+00 0.  1.
         23    2    1    2    0    0  0.75632113204E+02 -0.65442624654E+03  0.34557607507E+03  0.74958981017E+03  0.92022449161E+02 0.  0.
         13    1    3    3    0    0  0.94881523402E+02 -0.59421902722E+03  0.31831885440E+03  0.68075373584E+03  0.00000000000E+00 0. -1.
        -13    1    3    3    0    0 -0.19249410198E+02 -0.60207219313E+02  0.27257220665E+02  0.68836074327E+02  0.00000000000E+00 0.  1.
         22    1    1    2    0    0 -0.75632113204E+02  0.65442624654E+03 -0.41926747312E+03  0.78088356540E+03  0.00000000000E+00 0.  1.
<mgrwt>
<rscale>  0 0.15286982E+04</rscale>
<asrwt>0</asrwt>
<pdfrwt beam="1">  1        2 0.12339729E+00 0.15286982E+04</pdfrwt>
<pdfrwt beam="2">  1       -2 0.11206015E+00 0.15286982E+04</pdfrwt>
<totfact> 0.20787544E+01</totfact>
</mgrwt>
</event>
<event>
 6    1  0.2830898E-004  0.2862020E+04  0.7818608E-02  0.8284268E-01
         -2   -1    0    0    0  501 -0.00000000000E+00  0.00000000000E+00  0.13191358370E+04  0.13191358370E+04  0.00000000000E+00 0. -1.
          2   -1    0    0  501    0  0.00000000000E+00 -0.00000000000E+00 -0.15523718611E+04  0.15523718611E+04  0.00000000000E+00 0.  1.
         23    2    1    2    0    0 -0.49294285016E+03 -0.69198082197E+03 -0.12702905050E+04  0.15308690040E+04  0.89954593351E+02 0.  0.
         11    1    3    3    0    0 -0.34276362728E+03 -0.40601192917E+03 -0.78945849603E+03  0.95161825738E+03  0.00000000000E+00 0. -1.
        -11    1    3    3    0    0 -0.15017922287E+03 -0.28596889280E+03 -0.48083200899E+03  0.57925074665E+03  0.00000000000E+00 0.  1.
         22    1    1    2    0    0  0.49294285016E+03  0.69198082197E+03  0.10370544810E+04  0.13406386940E+04  0.00000000000E+00 0. -1.
<mgrwt>
<rscale>  0 0.28620198E+04</rscale>
<asrwt>0</asrwt>
<pdfrwt beam="1">  1        2 0.23882644E+00 0.28620198E+04</pdfrwt>
<pdfrwt beam="2">  1       -2 0.20294398E+00 0.28620198E+04</pdfrwt>
<totfact> 0.13064057E+00</totfact>
</mgrwt>
</event>
<event>
 6    1  0.1719556E-004  0.1992632E+04  0.7818608E-02  0.8610073E-01
          1   -1    0    0  501    0  0.00000000000E+00  0.00000000000E+00  0.19642000230E+04  0.19642000230E+04  0.00000000000E+00 0. -1.
         -1   -1    0    0    0  501 -0.00000000000E+00 -0.00000000000E+00 -0.50536885312E+03  0.50536885312E+03  0.00000000000E+00 0.  1.
         23    2    1    2    0    0  0.53023200845E+03  0.83633334711E+03  0.62045495717E+03  0.11720812560E+04  0.90612728324E+02 0.  0.
         13    1    3    3    0    0  0.21192388197E+03  0.41654221108E+03  0.30372520582E+03  0.55737612616E+03  0.00000000000E+00 0.  1.
        -13    1    3    3    0    0  0.31830812649E+03  0.41979113603E+03  0.31672975136E+03  0.61470512986E+03  0.00000000000E+00 0. -1.
         22    1    1    2    0    0 -0.53023200845E+03 -0.83633334711E+03  0.83837621270E+03  0.12974876201E+04  0.00000000000E+00 0.  1.
<mgrwt>
<rscale>  0 0.19926319E+04</rscale>
<asrwt>0</asrwt>
<pdfrwt beam="1">  1        1 0.30218462E+00 0.19926319E+04</pdfrwt>
<pdfrwt beam="2">  1       -1 0.77749055E-01 0.19926319E+04</pdfrwt>
<totfact> 0.48480679E+00</totfact>
</mgrwt>
</event>
<event>
 6    1  0.1719556E-004  0.4019336E+04  0.7818608E-02  0.8000657E-01
         -1   -1    0    0    0  501 -0.00000000000E+00  0.00000000000E+00  0.33299357024E+04  0.33299357024E+04  0.00000000000E+00 0. -1.
          1   -1    0    0  501    0  0.00000000000E+00 -0.00000000000E+00 -0.12128658474E+04  0.12128658474E+04  0.00000000000E+00 0.  1.
         23    2    1    2    0    0  0.13926438408E+04 -0.62846419768E+03 -0.41471709477E+03  0.15857135777E+04  0.89850802586E+02 0.  0.
         11    1    3    3    0    0  0.50796296920E+03 -0.20693295090E+03 -0.10959948996E+03  0.55933860268E+03  0.00000000000E+00 0.  1.
        -11    1    3    3    0    0  0.88468087161E+03 -0.42153124678E+03 -0.30511760481E+03  0.10263749750E+04  0.00000000000E+00 0. -1.
         22    1    1    2    0    0 -0.13926438408E+04  0.62846419768E+03  0.25317869498E+04  0.29570879720E+04  0.00000000000E+00 0. -1.
<mgrwt>
<rscale>  0 0.40193359E+04</rscale>
<asrwt>0</asrwt>
<pdfrwt beam="1">  1        1 0.18659475E+00 0.40193359E+04</pdfrwt>
<pdfrwt beam="2">  1       -1 0.51229780E+00 0.40193359E+04</pdfrwt>
<totfact> 0.10182875E-02</totfact>
</mgrwt>
</event>
<event>
 6    1  0.1719556E-004  0.1220278E+04  0.7818608E-02  0.9095290E-01
          2   -1    0    0  501    0  0.00000000000E+00  0.00000000000E+00  0.15918723286E+04  0.15918723286E+04  0.00000000000E+00 0.  1.
         -2   -1    0    0    0  501 -0.00000000000E+00 -0.00000000000E+00 -0.23385630912E+03  0.23385630912E+03  0.00000000000E+00 0. -1.
         23    2    1    2    0    0 -0.18494584344E+03  0.57681642341E+03  0.73522486853E+03  0.95694157000E+03  0.90881294863E+02 0.  0.
         13    1    3    3    0    0 -0.21292246080E+02  0.18163240830E+03  0.18647009430E+03  0.26117960785E+03  0.00000000000E+00 0.  1.
        -13    1    3    3    0    0 -0.16365359736E+03  0.39518401511E+03  0.54875477422E+03  0.69576196214E+03  0.00000000000E+00 0. -1.
         22    1    1    2    0    0  0.18494584344E+03 -0.57681642341E+03  0.62279115094E+03  0.86878706771E+03  0.00000000000E+00 0. -1.
<mgrwt>
<rscale>  0 0.12202777E+04</rscale>
<asrwt>0</asrwt>
<pdfrwt beam="1">  1        2 0.24490343E+00 0.12202777E+04</pdfrwt>
<pdfrwt beam="2">  1       -2 0.35977895E-01 0.12202777E+04</pdfrwt>
<totfact> 0.80658068E+01</totfact>
</mgrwt>
</event>
<event>
 6    1  0.1719556E-004  0.2481212E+04  0.7818608E-02  0.8409710E-01
         -2   -1    0    0    0  501 -0.00000000000E+00  0.00000000000E+00  0.95815112324E+03  0.95815112324E+03  0.00000000000E+00 0. -1.
          2   -1    0    0  501    0  0.00000000000E+00 -0.00000000000E+00 -0.16063261363E+04  0.16063261363E+04  0.00000000000E+00 0.  1.
         23    2    1    2    0    0 -0.41969363565E+03  0.19774411000E+03 -0.15118567801E+04  0.15840734266E+04  0.91280976435E+02 0.  0.
         11    1    3    3    0    0 -0.30903557747E+03  0.12494626678E+03 -0.94898340665E+03  0.10058250662E+04  0.00000000000E+00 0.  1.
        -11    1    3    3    0    0 -0.11065805818E+03  0.72797843221E+02 -0.56287337342E+03  0.57824836041E+03  0.00000000000E+00 0. -1.
         22    1    1    2    0    0  0.41969363565E+03 -0.19774411000E+03  0.86368176703E+03  0.98040383289E+03  0.00000000000E+00 0. -1.
<mgrwt>
<rscale>  0 0.24812120E+04</rscale>
<asrwt>0</asrwt>
<pdfrwt beam="1">  1        2 0.24712709E+00 0.24812120E+04</pdfrwt>
<pdfrwt beam="2">  1       -2 0.14740787E+00 0.24812120E+04</pdfrwt>
<totfact> 0.31007326E+00</totfact>
</mgrwt>
</event>
<event>
 6    1  0.1719556E-004  0.5763632E+04  0.7818608E-02  0.7720420E-01
          2   -1    0    0  501    0  0.00000000000E+00  0.00000000000E+00  0.41846499523E+04  0.41846499523E+04  0.00000000000E+00 0.  1.
         -2   -1    0    0    0  501 -0.00000000000E+00 -0.00000000000E+00 -0.19846013725E+04  0.19846013725E+04  0.00000000000E+00 0. -1.
         23    2    1    2    0    0  0.18537846344E+04 -0.21827041627E+04  0.76206318403E+03  0.29647986521E+04  0.92605713516E+02 0.  0.
         13    1    3    3    0    0  0.95587988590E+03 -0.11153412085E+04  0.34346818759E+03  0.15085300008E+04  0.00000000000E+00 0. -1.
        -13    1    3    3    0    0  0.89790474854E+03 -0.10673629543E+04  0.41859499645E+03  0.14562686513E+04  0.00000000000E+00 0.  1.
         22    1    1    2    0    0 -0.18537846344E+04  0.21827041627E+04  0.14379853958E+04  0.32044526727E+04  0.00000000000E+00 0.  1.
<mgrwt>
<rscale>  0 0.57636315E+04</rscale>
<asrwt>0</asrwt>
<pdfrwt beam="1">  1        2 0.64379230E+00 0.57636315E+04</pdfrwt>
<pdfrwt beam="2">  1       -2 0.30532329E+00 0.57636315E+04</pdfrwt>
<totfact> 0.48110764E-03</totfact>
</mgrwt>
</event>
<event>
 6    1  0.1719556E-004  0.4039217E+04  0.7818608E-02  0.7996682E-01
         -2   -1    0    0    0  501 -0.00000000000E+00  0.00000000000E+00  0.12821450970E+04  0.12821450970E+04  0.00000000000E+00 0. -1.
          2   -1    0    0  501    0  0.00000000000E+00 -0.00000000000E+00 -0.31812456928E+04  0.31812456928E+04  0.00000000000E+00 0.  1.
         23    2    1    2    0    0 -0.13022703260E+04 -0.69592752291E+03 -0.24708589376E+04  0.28799986336E+04  0.95000636239E+02 0.  0.
         13    1    3    3    0    0 -0.75281969384E+03 -0.37903960945E+03 -0.13269311897E+04  0.15719907440E+04  0.00000000000E+00 0.  1.
        -13    1    3    3    0    0 -0.54945063213E+03 -0.31688791346E+03 -0.11439277479E+04  0.13080078896E+04  0.00000000000E+00 0. -1.
         22    1    1    2    0    0  0.13022703260E+04  0.69592752291E+03  0.57175834178E+03  0.15833921562E+04  0.00000000000E+00 0. -1.
<mgrwt>
<rscale>  0 0.40392170E+04</rscale>
<asrwt>0</asrwt>
<pdfrwt beam="1">  1        2 0.48942242E+00 0.40392170E+04</pdfrwt>
<pdfrwt beam="2">  1       -2 0.19725309E+00 0.40392170E+04</pdfrwt>
<totfact> 0.14530088E-01</totfact>
</mgrwt>
</event>
<event>
 6    1  0.1719556E-004  0.2586526E+04  0.7818608E-02  0.8372793E-01
          1   -1    0    0  501    0  0.00000000000E+00  0.00000000000E+00  0.17023508679E+04  0.17023508679E+04  0.00000000000E+00 0.  1.
         -1   -1    0    0    0  501 -0.00000000000E+00 -0.00000000000E+00 -0.98248170955E+03  0.98248170955E+03  0.00000000000E+00 0. -1.
         23    2    1    2    0    0 -0.72900976430E+03 -0.10142638523E+04  0.70358472288E+03  0.14356522136E+04  0.76677359962E+02 0.  0.
         11    1    3    3    0    0 -0.28046198614E+03 -0.33682578190E+03  0.26865561767E+03  0.51408790487E+03  0.00000000000E+00 0. -1.
        -11    1    3    3    0    0 -0.44854777816E+03 -0.67743807043E+03  0.43492910521E+03  0.92156430873E+03  0.00000000000E+00 0.  1.
         22    1    1    2    0    0  0.72900976430E+03  0.10142638523E+04  0.16284435456E+02  0.12491803638E+04  0.00000000000E+00 0. -1.
<mgrwt>
<rscale>  0 0.25865255E+04</rscale>
<asrwt>0</asrwt>
<pdfrwt beam="1">  1        1 0.26190013E+00 0.25865255E+04</pdfrwt>
<pdfrwt beam="2">  1       -1 0.15115103E+00 0.25865255E+04</pdfrwt>
<totfact> 0.14309504E+00</totfact>
</mgrwt>
</event>
<event>
 6    1  0.1719556E-004  0.1854760E+04  0.7818608E-02  0.8677709E-01
         -2   -1    0    0    0  501 -0.00000000000E+00  0.00000000000E+00  0.62635665990E+03  0.62635665990E+03  0.00000000000E+00 0. -1.
          2   -1    0    0  501    0  0.00000000000E+00 -0.00000000000E+00 -0.13730735058E+04  0.13730735058E+04  0.00000000000E+00 0.  1.
         23    2    1    2    0    0 -0.40189149401E+03 -0.70294775311E+03 -0.85668599706E+03  0.11822731853E+04  0.90590675353E+02 0.  0.
         11    1    3    3    0    0 -0.21462895607E+03 -0.43080906558E+03 -0.45662504656E+03  0.66345193716E+03  0.00000000000E+00 0.  1.
        -11    1    3    3    0    0 -0.18726253794E+03 -0.27213868753E+03 -0.40006095051E+03  0.51882124811E+03  0.00000000000E+00 0. -1.
         22    1    1    2    0    0  0.40189149401E+03  0.70294775311E+03  0.10996915112E+03  0.81715698049E+03  0.00000000000E+00 0. -1.
<mgrwt>
<rscale>  0 0.18547601E+04</rscale>
<asrwt>0</asrwt>
<pdfrwt beam="1">  1        2 0.21124208E+00 0.18547601E+04</pdfrwt>
<pdfrwt beam="2">  1       -2 0.96362564E-01 0.18547601E+04</pdfrwt>
<totfact> 0.12706923E+01</totfact>
</mgrwt>
</event>
<event>
 6    1  0.1719556E-004  0.4484579E+03  0.7818608E-02  0.1028183E+00
         -1   -1    0    0    0  501 -0.00000000000E+00  0.00000000000E+00  0.49211306107E+02  0.49211306107E+02  0.00000000000E+00 0. -1.
          1   -1    0    0  501    0  0.00000000000E+00 -0.00000000000E+00 -0.10216885271E+04  0.10216885271E+04  0.00000000000E+00 0.  1.
         23    2    1    2    0    0 -0.11813246097E+03  0.63328283737E+02 -0.90797706104E+03  0.92215165510E+03  0.89306112826E+02 0.  0.
         13    1    3    3    0    0 -0.98813308654E+02  0.66964059175E+02 -0.51374568178E+03  0.52743045109E+03  0.00000000000E+00 0.  1.
        -13    1    3    3    0    0 -0.19319152316E+02 -0.36357754374E+01 -0.39423137926E+03  0.39472120402E+03  0.00000000000E+00 0. -1.
         22    1    1    2    0    0  0.11813246097E+03 -0.63328283737E+02 -0.64500159967E+02  0.14874817811E+03  0.00000000000E+00 0. -1.
<mgrwt>
<rscale>  0 0.44845792E+03</rscale>
<asrwt>0</asrwt>
<pdfrwt beam="1">  1        1 0.15718285E+00 0.44845792E+03</pdfrwt>
<pdfrwt beam="2">  1       -1 0.75709702E-02 0.44845792E+03</pdfrwt>
<totfact> 0.14408367E+03</totfact>
</mgrwt>
</event>
<event>
 6    1  0.1719556E-004  0.5851860E+04  0.7818608E-02  0.7709045E-01
          2   -1    0    0  501    0  0.00000000000E+00  0.00000000000E+00  0.26632718124E+04  0.26632718124E+04  0.00000000000E+00 0. -1.
         -2   -1    0    0    0  501 -0.00000000000E+00 -0.00000000000E+00 -0.32144924489E+04  0.32144924489E+04  0.00000000000E+00 0.  1.
         23    2    1    2    0    0  0.13445254580E+04 -0.17446511275E+03 -0.28792163368E+04  0.31837429616E+04  0.90253799199E+02 0.  0.
         13    1    3    3    0    0  0.31192871365E+03 -0.65197306909E+02 -0.74694046308E+03  0.81207774665E+03  0.00000000000E+00 0.  1.
        -13    1    3    3    0    0  0.10325967443E+04 -0.10926780584E+03 -0.21322758738E+04  0.23716652149E+04  0.00000000000E+00 0. -1.
         22    1    1    2    0    0 -0.13445254580E+04  0.17446511275E+03  0.23279957003E+04  0.26940212997E+04  0.00000000000E+00 0. -1.
<mgrwt>
<rscale>  0 0.58518603E+04</rscale>
<asrwt>0</asrwt>
<pdfrwt beam="1">  1        2 0.40973413E+00 0.58518603E+04</pdfrwt>
<pdfrwt beam="2">  1       -2 0.49453730E+00 0.58518603E+04</pdfrwt>
<totfact> 0.34265656E-03</totfact>
</mgrwt>
</event>
<event>
 6    1  0.1719556E-004  0.1785809E+04  0.7818608E-02  0.8713883E-01
         -2   -1    0    0    0  501 -0.00000000000E+00  0.00000000000E+00  0.82930575494E+03  0.82930575494E+03  0.00000000000E+00 0. -1.
          2   -1    0    0  501    0  0.00000000000E+00 -0.00000000000E+00 -0.96138024123E+03  0.96138024123E+03  0.00000000000E+00 0.  1.
         23    2    1    2    0    0  0.83776759950E+02 -0.88078514467E+03 -0.16797897715E+03  0.90519734631E+03  0.91456450902E+02 0.  0.
         11    1    3    3    0    0  0.19792082658E+02 -0.19469471771E+03  0.10506573710E+01  0.19570095431E+03  0.00000000000E+00 0. -1.
        -11    1    3    3    0    0  0.63984677291E+02 -0.68609042697E+03 -0.16902963452E+03  0.70949639199E+03  0.00000000000E+00 0.  1.
         22    1    1    2    0    0 -0.83776759950E+02  0.88078514467E+03  0.35904490862E+02  0.88548864987E+03  0.00000000000E+00 0.  1.
<mgrwt>
<rscale>  0 0.17858087E+04</rscale>
<asrwt>0</asrwt>
<pdfrwt beam="1">  1        2 0.14790465E+00 0.17858087E+04</pdfrwt>
<pdfrwt beam="2">  1       -2 0.12758550E+00 0.17858087E+04</pdfrwt>
<totfact> 0.11485735E+01</totfact>
</mgrwt>
</event>
<event>
 6    1  0.1719556E-004  0.1817534E+04  0.7818608E-02  0.8697030E-01
          2   -1    0    0  501    0  0.00000000000E+00  0.00000000000E+00  0.73495397844E+03  0.73495397844E+03  0.00000000000E+00 0.  1.
         -2   -1    0    0    0  501 -0.00000000000E+00 -0.00000000000E+00 -0.11236864506E+04  0.11236864506E+04  0.00000000000E+00 0. -1.
         23    2    1    2    0    0 -0.14542966830E+03 -0.53054351996E+03 -0.93157643737E+03  0.10857848245E+04  0.92020712252E+02 0.  0.
         11    1    3    3    0    0  0.58767709351E+00 -0.14675706508E+03 -0.26310379243E+03  0.30126663789E+03  0.00000000000E+00 0. -1.
        -11    1    3    3    0    0 -0.14601734539E+03 -0.38378645488E+03 -0.66847264494E+03  0.78451818662E+03  0.00000000000E+00 0.  1.
         22    1    1    2    0    0  0.14542966830E+03  0.53054351996E+03  0.54284396517E+03  0.77285560457E+03  0.00000000000E+00 0.  1.
<mgrwt>
<rscale>  0 0.18175344E+04</rscale>
<asrwt>0</asrwt>
<pdfrwt beam="1">  1        2 0.11306984E+00 0.18175344E+04</pdfrwt>
<pdfrwt beam="2">  1       -2 0.17287484E+00 0.18175344E+04</pdfrwt>
<totfact> 0.73761717E+00</totfact>
</mgrwt>
</event>
<event>
 6    1  0.1719556E-004  0.3093883E+04  0.7818608E-02  0.8217419E-01
         -2   -1    0    0    0  501 -0.00000000000E+00  0.00000000000E+00  0.22161187793E+04  0.22161187793E+04  0.00000000000E+00 0. -1.
          2   -1    0    0  501    0  0.00000000000E+00 -0.00000000000E+00 -0.10798282994E+04  0.10798282994E+04  0.00000000000E+00 0.  1.
         23    2    1    2    0    0 -0.56928600412E+03 -0.34385415564E+02 -0.96173183243E+03  0.11217882679E+04  0.90619475250E+02 0.  0.
         13    1    3    3    0    0 -0.14263036505E+03  0.29075895632E+02 -0.22157658821E+03  0.26511320824E+03  0.00000000000E+00 0.  1.
        -13    1    3    3    0    0 -0.42665563908E+03 -0.63461311196E+02 -0.74015524422E+03  0.85667505971E+03  0.00000000000E+00 0. -1.
         22    1    1    2    0    0  0.56928600412E+03  0.34385415564E+02  0.20980223124E+04  0.21741588108E+04  0.00000000000E+00 0. -1.
<mgrwt>
<rscale>  0 0.30938829E+04</rscale>
<asrwt>0</asrwt>
<pdfrwt beam="1">  1        2 0.16612743E+00 0.30938829E+04</pdfrwt>
<pdfrwt beam="2">  1       -2 0.34094135E+00 0.30938829E+04</pdfrwt>
<totfact> 0.33776991E-01</totfact>
</mgrwt>
</event>
<event>
 6    1  0.1719556E-004  0.7842041E+03  0.7818608E-02  0.9583167E-01
         -1   -1    0    0    0  501 -0.00000000000E+00  0.00000000000E+00  0.19311445323E+03  0.19311445323E+03  0.00000000000E+00 0. -1.
          1   -1    0    0  501    0  0.00000000000E+00 -0.00000000000E+00 -0.79612903686E+03  0.79612903686E+03  0.00000000000E+00 0.  1.
         23    2    1    2    0    0 -0.25452499112E+03  0.17792908334E+03 -0.14705709261E+02  0.32399987947E+03  0.91202709420E+02 0.  0.
         11    1    3    3    0    0 -0.17502670761E+03  0.12639195606E+03  0.32204126409E+02  0.21828050918E+03  0.00000000000E+00 0.  1.
        -11    1    3    3    0    0 -0.79498283519E+02  0.51537127281E+02 -0.46909835670E+02  0.10571937029E+03  0.00000000000E+00 0. -1.
         22    1    1    2    0    0  0.25452499112E+03 -0.17792908334E+03 -0.58830887437E+03  0.66524361062E+03  0.00000000000E+00 0.  1.
<mgrwt>
<rscale>  0 0.78420412E+03</rscale>
<asrwt>0</asrwt>
<pdfrwt beam="1">  1        1 0.12248139E+00 0.78420412E+03</pdfrwt>
<pdfrwt beam="2">  1       -1 0.29709917E-01 0.78420412E+03</pdfrwt>
<totfact> 0.23360789E+02</totfact>
</mgrwt>
</event>
<event>
 6    1  0.1719556E-004  0.1188560E+04  0.7818608E-02  0.9122929E-01
         -2   -1    0    0    0  501 -0.00000000000E+00  0.00000000000E+00  0.32882079738E+03  0.32882079738E+03  0.00000000000E+00 0. -1.
          2   -1    0    0  501    0  0.00000000000E+00 -0.00000000000E+00 -0.10740462862E+04  0.10740462862E+04  0.00000000000E+00 0.  1.
         23    2    1    2    0    0 -0.47729905483E+03 -0.30292027405E+03 -0.17244401295E+03  0.59809773819E+03  0.91699981705E+02 0.  0.
         11    1    3    3    0    0 -0.37761387440E+03 -0.20368670619E+03 -0.10302149352E+03  0.44124136314E+03  0.00000000000E+00 0. -1.
        -11    1    3    3    0    0 -0.99685180433E+02 -0.99233567861E+02 -0.69422519436E+02  0.15685637505E+03  0.00000000000E+00 0.  1.
         22    1    1    2    0    0  0.47729905483E+03  0.30292027405E+03 -0.57278147587E+03  0.80476934539E+03  0.00000000000E+00 0.  1.
<mgrwt>
<rscale>  0 0.11885601E+04</rscale>
<asrwt>0</asrwt>
<pdfrwt beam="1">  1        2 0.16523789E+00 0.11885601E+04</pdfrwt>
<pdfrwt beam="2">  1       -2 0.50587815E-01 0.11885601E+04</pdfrwt>
<totfact> 0.82476121E+01</totfact>
</mgrwt>
</event>
<event>
 6    1  0.1719556E-004  0.2742429E+04  0.7818608E-02  0.8321368E-01
         -2   -1    0    0    0  501 -0.00000000000E+00  0.00000000000E+00  0.20758140570E+04  0.20758140570E+04  0.00000000000E+00 0. -1.
          2   -1    0    0  501    0  0.00000000000E+00 -0.00000000000E+00 -0.90577912493E+03  0.90577912493E+03  0.00000000000E+00 0.  1.
         23    2    1    2    0    0 -0.68964878415E+03  0.46496087561E+03 -0.59741071721E+03  0.10282196425E+04  0.92368863161E+02 0.  0.
         11    1    3    3    0    0 -0.45731079737E+03  0.34401430312E+03 -0.37100995698E+03  0.68200248850E+03  0.00000000000E+00 0. -1.
        -11    1    3    3    0    0 -0.23233798678E+03  0.12094657248E+03 -0.22640076024E+03  0.34621715401E+03  0.00000000000E+00 0.  1.
         22    1    1    2    0    0  0.68964878415E+03 -0.46496087561E+03  0.17674456493E+04  0.19533735394E+04  0.00000000000E+00 0. -1.
<mgrwt>
<rscale>  0 0.27424289E+04</rscale>
<asrwt>0</asrwt>
<pdfrwt beam="1">  1        2 0.13935064E+00 0.27424289E+04</pdfrwt>
<pdfrwt beam="2">  1       -2 0.31935601E+00 0.27424289E+04</pdfrwt>
<totfact> 0.61392297E-01</totfact>
</mgrwt>
</event>
<event>
 6    1  0.1719556E-004  0.2940718E+04  0.7818608E-02  0.8260865E-01
         -2   -1    0    0    0  501 -0.00000000000E+00  0.00000000000E+00  0.14999487136E+04  0.14999487136E+04  0.00000000000E+00 0. -1.
          2   -1    0    0  501    0  0.00000000000E+00 -0.00000000000E+00 -0.14413532703E+04  0.14413532703E+04  0.00000000000E+00 0.  1.
         23    2    1    2    0    0 -0.88718891129E+03 -0.11532087534E+04  0.23285276994E+03  0.14759145917E+04  0.84314153502E+02 0.  0.
         13    1    3    3    0    0 -0.38134912773E+03 -0.48989910685E+03  0.57331445590E+02  0.62347027737E+03  0.00000000000E+00 0. -1.
        -13    1    3    3    0    0 -0.50583978356E+03 -0.66330964652E+03  0.17552132435E+03  0.85244431436E+03  0.00000000000E+00 0.  1.
         22    1    1    2    0    0  0.88718891129E+03  0.11532087534E+04 -0.17425732670E+03  0.14653873921E+04  0.00000000000E+00 0. -1.
<mgrwt>
<rscale>  0 0.29407183E+04</rscale>
<asrwt>0</asrwt>
<pdfrwt beam="1">  1        2 0.22174666E+00 0.29407183E+04</pdfrwt>
<pdfrwt beam="2">  1       -2 0.23076134E+00 0.29407183E+04</pdfrwt>
<totfact> 0.99694672E-01</totfact>
</mgrwt>
</event>
<event>
 6    1  0.1719556E-004  0.1346899E+04  0.7818608E-02  0.8993179E-01
          2   -1    0    0  501    0  0.00000000000E+00  0.00000000000E+00  0.21829060718E+04  0.21829060718E+04  0.00000000000E+00 0.  1.
         -2   -1    0    0    0  501 -0.00000000000E+00 -0.00000000000E+00 -0.20776620206E+03  0.20776620206E+03  0.00000000000E+00 0. -1.
         23    2    1    2    0    0  0.41510251649E+03 -0.18736228214E+03  0.18651236651E+04  0.19221444846E+04  0.92403515021E+02 0.  0.
         11    1    3    3    0    0  0.17840810592E+03 -0.77441238272E+02  0.99057852889E+03  0.10094911686E+04  0.00000000000E+00 0.  1.
        -11    1    3    3    0    0  0.23669441057E+03 -0.10992104387E+03  0.87454513624E+03  0.91265331600E+03  0.00000000000E+00 0. -1.
         22    1    1    2    0    0 -0.41510251649E+03  0.18736228214E+03  0.11001620456E+03  0.46852778918E+03  0.00000000000E+00 0. -1.
<mgrwt>
<rscale>  0 0.13468988E+04</rscale>
<asrwt>0</asrwt>
<pdfrwt beam="1">  1        2 0.33583169E+00 0.13468988E+04</pdfrwt>
<pdfrwt beam="2">  1       -2 0.31964033E-01 0.13468988E+04</pdfrwt>
<totfact> 0.47035467E+01</totfact>
</mgrwt>
</event>
<event>
 6    1  0.1719556E-004  0.5108403E+04  0.7818608E-02  0.7811999E-01
          1   -1    0    0  501    0  0.00000000000E+00  0.00000000000E+00  0.25692113797E+04  0.25692113797E+04  0.00000000000E+00 0.  1.
         -1   -1    0    0    0  501 -0.00000000000E+00 -0.00000000000E+00 -0.25392792226E+04  0.25392792226E+04  0.00000000000E+00 0. -1.
         23    2    1    2    0    0 -0.50200229087E+03 -0.17483876212E+03  0.25124452623E+04  0.25697022673E+04  0.91725969818E+02 0.  0.
         13    1    3    3    0    0 -0.34802807675E+03 -0.14470178388E+03  0.15942530348E+04  0.16382017236E+04  0.00000000000E+00 0. -1.
        -13    1    3    3    0    0 -0.15397421412E+03 -0.30136978239E+02  0.91819222753E+03  0.93150054362E+03  0.00000000000E+00 0.  1.
         22    1    1    2    0    0  0.50200229087E+03  0.17483876212E+03 -0.24825131051E+04  0.25387883350E+04  0.00000000000E+00 0. -1.
<mgrwt>
<rscale>  0 0.51084029E+04</rscale>
<asrwt>0</asrwt>
<pdfrwt beam="1">  1        1 0.39526329E+00 0.51084029E+04</pdfrwt>
<pdfrwt beam="2">  1       -1 0.39065834E+00 0.51084029E+04</pdfrwt>
<totfact> 0.71928152E-03</totfact>
</mgrwt>
</event>
<event>
 6    1  0.1719556E-004  0.1309376E+04  0.7818608E-02  0.9022163E-01
         -2   -1    0    0    0  501 -0.00000000000E+00  0.00000000000E+00  0.85884663403E+03  0.85884663403E+03  0.00000000000E+00 0. -1.
          2   -1    0    0  501    0  0.00000000000E+00 -0.00000000000E+00 -0.49906042110E+03  0.49906042110E+03  0.00000000000E+00 0.  1.
         23    2    1    2    0    0  0.58568261027E+03 -0.14789164729E+03  0.43403619426E+03  0.74929460124E+03  0.90326752529E+02 0.  0.
         13    1    3    3    0    0  0.28246368081E+03 -0.24866328760E+02  0.20160152782E+03  0.34791844059E+03  0.00000000000E+00 0.  1.
        -13    1    3    3    0    0  0.30321892945E+03 -0.12302531853E+03  0.23243466643E+03  0.40137616065E+03  0.00000000000E+00 0. -1.
         22    1    1    2    0    0 -0.58568261027E+03  0.14789164729E+03 -0.74249981323E+02  0.60861245389E+03  0.00000000000E+00 0.  1.
<mgrwt>
<rscale>  0 0.13093760E+04</rscale>
<asrwt>0</asrwt>
<pdfrwt beam="1">  1        2 0.76778526E-01 0.13093760E+04</pdfrwt>
<pdfrwt beam="2">  1       -2 0.13213025E+00 0.13093760E+04</pdfrwt>
<totfact> 0.25178408E+01</totfact>
</mgrwt>
</event>
<event>
 6    1  0.1719556E-004  0.9468122E+03  0.7818608E-02  0.9368884E-01
          3   -1    0    0  501    0  0.00000000000E+00  0.00000000000E+00  0.65114032388E+03  0.65114032388E+03  0.00000000000E+00 0.  1.
         -3   -1    0    0    0  501 -0.00000000000E+00 -0.00000000000E+00 -0.34418596055E+03  0.34418596055E+03  0.00000000000E+00 0. -1.
         23    2    1    2    0    0 -0.21641499466E+03  0.41300489280E+03  0.20833855353E+03  0.51874096223E+03  0.90987590453E+02 0.  0.
         13    1    3    3    0    0 -0.10404750727E+03  0.21005608973E+03  0.55360054424E+02  0.24086132988E+03  0.00000000000E+00 0. -1.
        -13    1    3    3    0    0 -0.11236748739E+03  0.20294880306E+03  0.15297849910E+03  0.27787963235E+03  0.00000000000E+00 0.  1.
         22    1    1    2    0    0  0.21641499466E+03 -0.41300489280E+03  0.98615809800E+02  0.47658532220E+03  0.00000000000E+00 0.  1.
<mgrwt>
<rscale>  0 0.94681225E+03</rscale>
<asrwt>0</asrwt>
<pdfrwt beam="1">  1        3 0.10017543E+00 0.94681225E+03</pdfrwt>
<pdfrwt beam="2">  1       -3 0.52951686E-01 0.94681225E+03</pdfrwt>
<totfact> 0.80582638E+00</totfact>
</mgrwt>
</event>
<event>
 6    1  0.1719556E-004  0.1157289E+04  0.7818608E-02  0.9151085E-01
         -2   -1    0    0    0  501 -0.00000000000E+00  0.00000000000E+00  0.32296230542E+03  0.32296230542E+03  0.00000000000E+00 0. -1.
          2   -1    0    0  501    0  0.00000000000E+00 -0.00000000000E+00 -0.10367452610E+04  0.10367452610E+04  0.00000000000E+00 0.  1.
         23    2    1    2    0    0  0.19781734586E+02 -0.56853919368E+03 -0.45826008291E+03  0.73607300177E+03  0.90404803912E+02 0.  0.
         13    1    3    3    0    0 -0.30800117412E+02 -0.25701984539E+03 -0.17965089966E+03  0.31509092958E+03  0.00000000000E+00 0. -1.
        -13    1    3    3    0    0  0.50581851998E+02 -0.31151934829E+03 -0.27860918325E+03  0.42098207219E+03  0.00000000000E+00 0.  1.
         22    1    1    2    0    0 -0.19781734586E+02  0.56853919368E+03 -0.25552287268E+03  0.62363456466E+03  0.00000000000E+00 0.  1.
<mgrwt>
<rscale>  0 0.11572893E+04</rscale>
<asrwt>0</asrwt>
<pdfrwt beam="1">  1        2 0.15949927E+00 0.11572893E+04</pdfrwt>
<pdfrwt beam="2">  1       -2 0.49686509E-01 0.11572893E+04</pdfrwt>
<totfact> 0.90486492E+01</totfact>
</mgrwt>
</event>
<event>
 6    1  0.1719556E-004  0.1003604E+04  0.7818608E-02  0.9304601E-01
         -1   -1    0    0    0  501 -0.00000000000E+00  0.00000000000E+00  0.19315788620E+03  0.19315788620E+03  0.00000000000E+00 0. -1.
          1   -1    0    0  501    0  0.00000000000E+00 -0.00000000000E+00 -0.13036242650E+04  0.13036242650E+04  0.00000000000E+00 0.  1.
         23    2    1    2    0    0  0.36905184708E+03  0.23229991208E+03 -0.20172244266E+03  0.48882478283E+03  0.89973381918E+02 0.  0.
         11    1    3    3    0    0  0.74703597704E+02  0.89360595790E+02 -0.71349890819E+02  0.13658971597E+03  0.00000000000E+00 0.  1.
        -11    1    3    3    0    0  0.29434824937E+03  0.14293931629E+03 -0.13037255184E+03  0.35223506685E+03  0.00000000000E+00 0. -1.
         22    1    1    2    0    0 -0.36905184708E+03 -0.23229991208E+03 -0.90874393613E+03  0.10079573684E+04  0.00000000000E+00 0.  1.
<mgrwt>
<rscale>  0 0.10036041E+04</rscale>
<asrwt>0</asrwt>
<pdfrwt beam="1">  1        1 0.20055757E+00 0.10036041E+04</pdfrwt>
<pdfrwt beam="2">  1       -1 0.29716599E-01 0.10036041E+04</pdfrwt>
<totfact> 0.93437776E+01</totfact>
</mgrwt>
</event>
<event>
 6    1  0.1719556E-004  0.1209236E+04  0.7818608E-02  0.9104811E-01
          1   -1    0    0  501    0  0.00000000000E+00  0.00000000000E+00  0.12558580316E+04  0.12558580316E+04  0.00000000000E+00 0.  1.
         -1   -1    0    0    0  501 -0.00000000000E+00 -0.00000000000E+00 -0.29108615606E+03  0.29108615606E+03  0.00000000000E+00 0. -1.
         23    2    1    2    0    0 -0.58675585676E+03 -0.78323772260E+01  0.65320368659E+03  0.88255084187E+03  0.88753313914E+02 0.  0.
         13    1    3    3    0    0 -0.15862982404E+03  0.34634396396E+02  0.15787943818E+03  0.22647048260E+03  0.00000000000E+00 0. -1.
        -13    1    3    3    0    0 -0.42812603272E+03 -0.42466773622E+02  0.49532424841E+03  0.65608035927E+03  0.00000000000E+00 0.  1.
         22    1    1    2    0    0  0.58675585676E+03  0.78323772260E+01  0.31156818898E+03  0.66439334581E+03  0.00000000000E+00 0. -1.
<mgrwt>
<rscale>  0 0.12092359E+04</rscale>
<asrwt>0</asrwt>
<pdfrwt beam="1">  1        1 0.19320892E+00 0.12092359E+04</pdfrwt>
<pdfrwt beam="2">  1       -1 0.44782486E-01 0.12092359E+04</pdfrwt>
<totfact> 0.47548770E+01</totfact>
</mgrwt>
</event>
<event>
 6    1  0.1719556E-004  0.3077649E+04  0.7818608E-02  0.8221899E-01
         -2   -1    0    0    0  501 -0.00000000000E+00  0.00000000000E+00  0.69243379785E+03  0.69243379785E+03  0.00000000000E+00 0. -1.
          2   -1    0    0  501    0  0.00000000000E+00 -0.00000000000E+00 -0.34197930106E+04  0.34197930106E+04  0.00000000000E+00 0.  1.
         23    2    1    2    0    0 -0.11126925527E+04  0.13056966481E+03  0.42059568081E+02  0.11247841667E+04  0.90759353076E+02 0.  0.
         11    1    3    3    0    0 -0.34838474147E+03  0.31701513450E-01  0.23739739542E+02  0.34919264644E+03  0.00000000000E+00 0. -1.
        -11    1    3    3    0    0 -0.76430781122E+03  0.13053796330E+03  0.18319828539E+02  0.77559152025E+03  0.00000000000E+00 0.  1.
         22    1    1    2    0    0  0.11126925527E+04 -0.13056966481E+03 -0.27694187808E+04  0.29874426417E+04  0.00000000000E+00 0.  1.
<mgrwt>
<rscale>  0 0.30776486E+04</rscale>
<asrwt>0</asrwt>
<pdfrwt beam="1">  1        2 0.52612200E+00 0.30776486E+04</pdfrwt>
<pdfrwt beam="2">  1       -2 0.10652828E+00 0.30776486E+04</pdfrwt>
<totfact> 0.55750038E-01</totfact>
</mgrwt>
</event>
<event>
 6    1  0.1719556E-004  0.1533942E+04  0.7818608E-02  0.8862191E-01
          2   -1    0    0  501    0  0.00000000000E+00  0.00000000000E+00  0.13021558921E+04  0.13021558921E+04  0.00000000000E+00 0.  1.
         -2   -1    0    0    0  501 -0.00000000000E+00 -0.00000000000E+00 -0.45174646085E+03  0.45174646085E+03  0.00000000000E+00 0. -1.
         23    2    1    2    0    0 -0.63707714135E+03 -0.89223619466E+02  0.89844918265E+03  0.11088163463E+04  0.91840174796E+02 0.  0.
         13    1    3    3    0    0 -0.33822890013E+03 -0.23090865644E+02  0.53846665995E+03  0.63630049571E+03  0.00000000000E+00 0. -1.
        -13    1    3    3    0    0 -0.29884824121E+03 -0.66132753823E+02  0.35998252270E+03  0.47251585058E+03  0.00000000000E+00 0.  1.
         22    1    1    2    0    0  0.63707714135E+03  0.89223619466E+02 -0.48039751381E+02  0.64508600667E+03  0.00000000000E+00 0. -1.
<mgrwt>
<rscale>  0 0.15339417E+04</rscale>
<asrwt>0</asrwt>
<pdfrwt beam="1">  1        2 0.20033168E+00 0.15339417E+04</pdfrwt>
<pdfrwt beam="2">  1       -2 0.69499456E-01 0.15339417E+04</pdfrwt>
<totfact> 0.29997682E+01</totfact>
</mgrwt>
</event>
<event>
 6    1  0.1719556E-004  0.5470000E+04  0.7818608E-02  0.7759831E-01
          2   -1    0    0  501    0  0.00000000000E+00  0.00000000000E+00  0.15471281544E+04  0.15471281544E+04  0.00000000000E+00 0.  1.
         -2   -1    0    0    0  501 -0.00000000000E+00 -0.00000000000E+00 -0.48349090820E+04  0.48349090820E+04  0.00000000000E+00 0. -1.
         23    2    1    2    0    0 -0.13630534243E+04  0.14110554139E+04 -0.38663467847E+04  0.43366202937E+04  0.92984375627E+02 0.  0.
         13    1    3    3    0    0 -0.40502303544E+03  0.35993904699E+03 -0.10553943023E+04  0.11863628914E+04  0.00000000000E+00 0. -1.
        -13    1    3    3    0    0 -0.95803038886E+03  0.10511163669E+04 -0.28109524824E+04  0.31502574023E+04  0.00000000000E+00 0.  1.
         22    1    1    2    0    0  0.13630534243E+04 -0.14110554139E+04  0.57856585709E+03  0.20454169427E+04  0.00000000000E+00 0.  1.
<mgrwt>
<rscale>  0 0.54699996E+04</rscale>
<asrwt>0</asrwt>
<pdfrwt beam="1">  1        2 0.23801972E+00 0.54699996E+04</pdfrwt>
<pdfrwt beam="2">  1       -2 0.74383217E+00 0.54699996E+04</pdfrwt>
<totfact> 0.12915241E-03</totfact>
</mgrwt>
</event>
<event>
 6    1  0.1719556E-004  0.3559247E+04  0.7818608E-02  0.8099891E-01
         -2   -1    0    0    0  501 -0.00000000000E+00  0.00000000000E+00  0.15263254089E+04  0.15263254089E+04  0.00000000000E+00 0. -1.
          2   -1    0    0  501    0  0.00000000000E+00 -0.00000000000E+00 -0.20749574661E+04  0.20749574661E+04  0.00000000000E+00 0.  1.
         23    2    1    2    0    0 -0.53220208876E+02 -0.40690956051E+03 -0.20253642657E+04  0.20685905391E+04  0.92512855539E+02 0.  0.
         13    1    3    3    0    0 -0.77655752445E+02 -0.29838201076E+03 -0.14195868619E+04  0.14526834131E+04  0.00000000000E+00 0.  1.
        -13    1    3    3    0    0  0.24435543570E+02 -0.10852754975E+03 -0.60577740385E+03  0.61590712600E+03  0.00000000000E+00 0. -1.
         22    1    1    2    0    0  0.53220208876E+02  0.40690956051E+03  0.14767322085E+04  0.15326923359E+04  0.00000000000E+00 0. -1.
<mgrwt>
<rscale>  0 0.35592473E+04</rscale>
<asrwt>0</asrwt>
<pdfrwt beam="1">  1        2 0.31922423E+00 0.35592473E+04</pdfrwt>
<pdfrwt beam="2">  1       -2 0.23481929E+00 0.35592473E+04</pdfrwt>
<totfact> 0.39588770E-01</totfact>
</mgrwt>
</event>
<event>
 6    1  0.1719556E-004  0.1560935E+04  0.7818608E-02  0.8844913E-01
         -2   -1    0    0    0  501 -0.00000000000E+00  0.00000000000E+00  0.46124365369E+03  0.46124365369E+03  0.00000000000E+00 0. -1.
          2   -1    0    0  501    0  0.00000000000E+00 -0.00000000000E+00 -0.13206246931E+04  0.13206246931E+04  0.00000000000E+00 0.  1.
         23    2    1    2    0    0 -0.59037992464E+03 -0.18247199019E+03 -0.97039079527E+03  0.11540406248E+04  0.91142665812E+02 0.  0.
         13    1    3    3    0    0 -0.49893081773E+03 -0.13014592688E+03 -0.75516087543E+03  0.91440574744E+03  0.00000000000E+00 0.  1.
        -13    1    3    3    0    0 -0.91449106906E+02 -0.52326063317E+02 -0.21522991984E+03  0.23963487737E+03  0.00000000000E+00 0. -1.
         22    1    1    2    0    0  0.59037992464E+03  0.18247199019E+03  0.11100975585E+03  0.62782772200E+03  0.00000000000E+00 0. -1.
<mgrwt>
<rscale>  0 0.15609353E+04</rscale>
<asrwt>0</asrwt>
<pdfrwt beam="1">  1        2 0.20317303E+00 0.15609353E+04</pdfrwt>
<pdfrwt beam="2">  1       -2 0.70960562E-01 0.15609353E+04</pdfrwt>
<totfact> 0.27904607E+01</totfact>
</mgrwt>
</event>
<event>
 6    1  0.1719556E-004  0.8018969E+03  0.7818608E-02  0.9557275E-01
          2   -1    0    0  501    0  0.00000000000E+00  0.00000000000E+00  0.11197095994E+03  0.11197095994E+03  0.00000000000E+00 0.  1.
         -2   -1    0    0    0  501 -0.00000000000E+00 -0.00000000000E+00 -0.14357264214E+04  0.14357264214E+04  0.00000000000E+00 0. -1.
         23    2    1    2    0    0 -0.21102023898E+03  0.33367364955E+03 -0.72741072936E+03  0.83250881517E+03  0.89871644472E+02 0.  0.
         13    1    3    3    0    0 -0.10808905564E+03  0.23115640354E+03 -0.40213108216E+03  0.47626246344E+03  0.00000000000E+00 0.  1.
        -13    1    3    3    0    0 -0.10293118334E+03  0.10251724601E+03 -0.32527964720E+03  0.35624635172E+03  0.00000000000E+00 0. -1.
         22    1    1    2    0    0  0.21102023898E+03 -0.33367364955E+03 -0.59634473208E+03  0.71518856614E+03  0.00000000000E+00 0.  1.
<mgrwt>
<rscale>  0 0.80189692E+03</rscale>
<asrwt>0</asrwt>
<pdfrwt beam="1">  1        2 0.17226301E-01 0.80189692E+03</pdfrwt>
<pdfrwt beam="2">  1       -2 0.22088099E+00 0.80189692E+03</pdfrwt>
<totfact> 0.33678849E+01</totfact>
</mgrwt>
</event>
<event>
 6    1  0.1719556E-004  0.2116816E+04  0.7818608E-02  0.8553872E-01
         -2   -1    0    0    0  501 -0.00000000000E+00  0.00000000000E+00  0.75968481875E+03  0.75968481875E+03  0.00000000000E+00 0. -1.
          2   -1    0    0  501    0  0.00000000000E+00 -0.00000000000E+00 -0.14745950715E+04  0.14745950715E+04  0.00000000000E+00 0.  1.
         23    2    1    2    0    0  0.26596525642E+03  0.10116160008E+04 -0.51444023372E+03  0.11692481165E+04  0.91585769765E+02 0.  0.
         11    1    3    3    0    0  0.23961482780E+03  0.75936080699E+03 -0.38323958373E+03  0.88369490178E+03  0.00000000000E+00 0. -1.
        -11    1    3    3    0    0  0.26350428625E+02  0.25225519378E+03 -0.13120065000E+03  0.28555321472E+03  0.00000000000E+00 0.  1.
         22    1    1    2    0    0 -0.26596525642E+03 -0.10116160008E+04 -0.20047001907E+03  0.10650317738E+04  0.00000000000E+00 0.  1.
<mgrwt>
<rscale>  0 0.21168160E+04</rscale>
<asrwt>0</asrwt>
<pdfrwt beam="1">  1        2 0.22686078E+00 0.21168160E+04</pdfrwt>
<pdfrwt beam="2">  1       -2 0.11687459E+00 0.21168160E+04</pdfrwt>
<totfact> 0.68450053E+00</totfact>
</mgrwt>
</event>
<event>
 6    1  0.1719556E-004  0.3867330E+04  0.7818608E-02  0.8031858E-01
         -2   -1    0    0    0  501 -0.00000000000E+00  0.00000000000E+00  0.23518839119E+04  0.23518839119E+04  0.00000000000E+00 0. -1.
          2   -1    0    0  501    0  0.00000000000E+00 -0.00000000000E+00 -0.15898153502E+04  0.15898153502E+04  0.00000000000E+00 0.  1.
         23    2    1    2    0    0 -0.14626383195E+04  0.58337016280E+03 -0.76055852802E+03  0.17512598417E+04  0.93968920630E+02 0.  0.
         11    1    3    3    0    0 -0.43379485024E+03  0.13456519572E+03 -0.24493223116E+03  0.51602089285E+03  0.00000000000E+00 0. -1.
        -11    1    3    3    0    0 -0.10288434692E+04  0.44880496708E+03 -0.51562629686E+03  0.12352389488E+04  0.00000000000E+00 0.  1.
         22    1    1    2    0    0  0.14626383195E+04 -0.58337016280E+03  0.15226270897E+04  0.21904394205E+04  0.00000000000E+00 0. -1.
<mgrwt>
<rscale>  0 0.38673304E+04</rscale>
<asrwt>0</asrwt>
<pdfrwt beam="1">  1        2 0.24458698E+00 0.38673304E+04</pdfrwt>
<pdfrwt beam="2">  1       -2 0.36182829E+00 0.38673304E+04</pdfrwt>
<totfact> 0.11791492E-01</totfact>
</mgrwt>
</event>
<event>
 6    1  0.1719556E-004  0.1859137E+04  0.7818608E-02  0.8675468E-01
         -2   -1    0    0    0  501 -0.00000000000E+00  0.00000000000E+00  0.41488852790E+03  0.41488852790E+03  0.00000000000E+00 0. -1.
          2   -1    0    0  501    0  0.00000000000E+00 -0.00000000000E+00 -0.20827219470E+04  0.20827219470E+04  0.00000000000E+00 0.  1.
         23    2    1    2    0    0 -0.44267390946E+03 -0.63465435104E+03 -0.15224972354E+04  0.17102929140E+04  0.91420372035E+02 0.  0.
         13    1    3    3    0    0 -0.26143425206E+03 -0.44083133852E+03 -0.10489214113E+04  0.11674400474E+04  0.00000000000E+00 0. -1.
        -13    1    3    3    0    0 -0.18123965740E+03 -0.19382301252E+03 -0.47357582404E+03  0.54285286654E+03  0.00000000000E+00 0.  1.
         22    1    1    2    0    0  0.44267390946E+03  0.63465435104E+03 -0.14533618368E+03  0.78731756090E+03  0.00000000000E+00 0. -1.
<mgrwt>
<rscale>  0 0.18591368E+04</rscale>
<asrwt>0</asrwt>
<pdfrwt beam="1">  1        2 0.32041876E+00 0.18591368E+04</pdfrwt>
<pdfrwt beam="2">  1       -2 0.63829005E-01 0.18591368E+04</pdfrwt>
<totfact> 0.12815623E+01</totfact>
</mgrwt>
</event>
<event>
 6    1  0.1719556E-004  0.6553540E+03  0.7818608E-02  0.9796784E-01
          2   -1    0    0  501    0  0.00000000000E+00  0.00000000000E+00  0.17936298382E+04  0.17936298382E+04  0.00000000000E+00 0.  1.
         -2   -1    0    0    0  501 -0.00000000000E+00 -0.00000000000E+00 -0.59863080433E+02  0.59863080433E+02  0.00000000000E+00 0. -1.
         23    2    1    2    0    0  0.30839620920E+03  0.70574257303E+02  0.10421990375E+04  0.10929964628E+04  0.91506755171E+02 0.  0.
         13    1    3    3    0    0  0.12788405170E+03  0.63897580478E+02  0.56346104225E+03  0.58131366542E+03  0.00000000000E+00 0.  1.
        -13    1    3    3    0    0  0.18051215750E+03  0.66766768252E+01  0.47873799522E+03  0.51168279733E+03  0.00000000000E+00 0. -1.
         22    1    1    2    0    0 -0.30839620920E+03 -0.70574257303E+02  0.69156772025E+03  0.76049645583E+03  0.00000000000E+00 0. -1.
<mgrwt>
<rscale>  0 0.65535397E+03</rscale>
<asrwt>0</asrwt>
<pdfrwt beam="1">  1        2 0.27594301E+00 0.65535397E+03</pdfrwt>
<pdfrwt beam="2">  1       -2 0.92097060E-02 0.65535397E+03</pdfrwt>
<totfact> 0.69902082E+02</totfact>
</mgrwt>
</event>
<event>
 6    1  0.1719556E-004  0.2011409E+04  0.7818608E-02  0.8601305E-01
          2   -1    0    0  501    0  0.00000000000E+00  0.00000000000E+00  0.23511080319E+04  0.23511080319E+04  0.00000000000E+00 0.  1.
         -2   -1    0    0    0  501 -0.00000000000E+00 -0.00000000000E+00 -0.43019783662E+03  0.43019783662E+03  0.00000000000E+00 0. -1.
         23    2    1    2    0    0 -0.51739746129E+03  0.30449193301E+03 -0.14983707028E+03  0.62528877489E+03  0.90107902881E+02 0.  0.
         13    1    3    3    0    0 -0.17112133857E+03  0.53543211544E+02 -0.38587322388E+02  0.18340765924E+03  0.00000000000E+00 0. -1.
        -13    1    3    3    0    0 -0.34627612271E+03  0.25094872147E+03 -0.11124974789E+03  0.44188111565E+03  0.00000000000E+00 0.  1.
         22    1    1    2    0    0  0.51739746129E+03 -0.30449193301E+03  0.20707472655E+04  0.21560170936E+04  0.00000000000E+00 0.  1.
<mgrwt>
<rscale>  0 0.20114090E+04</rscale>
<asrwt>0</asrwt>
<pdfrwt beam="1">  1        2 0.36170892E+00 0.20114090E+04</pdfrwt>
<pdfrwt beam="2">  1       -2 0.66184284E-01 0.20114090E+04</pdfrwt>
<totfact> 0.82654604E+00</totfact>
</mgrwt>
</event>
<event>
 6    1  0.1719556E-004  0.1568346E+04  0.7818608E-02  0.8840234E-01
         -2   -1    0    0    0  501 -0.00000000000E+00  0.00000000000E+00  0.25415067828E+04  0.25415067828E+04  0.00000000000E+00 0. -1.
          2   -1    0    0  501    0  0.00000000000E+00 -0.00000000000E+00 -0.24195376877E+03  0.24195376877E+03  0.00000000000E+00 0.  1.
         23    2    1    2    0    0 -0.14347336456E+03  0.43301951397E+03  0.22798877682E+04  0.23268674858E+04  0.91288306296E+02 0.  0.
         11    1    3    3    0    0 -0.74417612704E+02  0.13143407553E+03  0.59943145105E+03  0.61816742214E+03  0.00000000000E+00 0. -1.
        -11    1    3    3    0    0 -0.69055751858E+02  0.30158543844E+03  0.16804563172E+04  0.17087000636E+04  0.00000000000E+00 0.  1.
         22    1    1    2    0    0  0.14347336456E+03 -0.43301951397E+03  0.19665245785E+02  0.45659306577E+03  0.00000000000E+00 0.  1.
<mgrwt>
<rscale>  0 0.15683458E+04</rscale>
<asrwt>0</asrwt>
<pdfrwt beam="1">  1        2 0.37223658E-01 0.15683458E+04</pdfrwt>
<pdfrwt beam="2">  1       -2 0.39100103E+00 0.15683458E+04</pdfrwt>
<totfact> 0.11493809E+00</totfact>
</mgrwt>
</event>
<event>
 6    1  0.1719556E-004  0.6082201E+03  0.7818608E-02  0.9888497E-01
          2   -1    0    0  501    0  0.00000000000E+00  0.00000000000E+00  0.15559363172E+03  0.15559363172E+03  0.00000000000E+00 0.  1.
         -2   -1    0    0    0  501 -0.00000000000E+00 -0.00000000000E+00 -0.59438749241E+03  0.59438749241E+03  0.00000000000E+00 0. -1.
         23    2    1    2    0    0  0.21390589723E+03 -0.20434208826E+03 -0.19103107427E+03  0.36410832094E+03  0.92577406222E+02 0.  0.
         13    1    3    3    0    0  0.76720869351E+02 -0.71573609411E+02 -0.12244579649E+03  0.16125088042E+03  0.00000000000E+00 0.  1.
        -13    1    3    3    0    0  0.13718502787E+03 -0.13276847885E+03 -0.68585277779E+02  0.20285744053E+03  0.00000000000E+00 0. -1.
         22    1    1    2    0    0 -0.21390589723E+03  0.20434208826E+03 -0.24776278643E+03  0.38587280319E+03  0.00000000000E+00 0. -1.
<mgrwt>
<rscale>  0 0.60822005E+03</rscale>
<asrwt>0</asrwt>
<pdfrwt beam="1">  1        2 0.23937481E-01 0.60822005E+03</pdfrwt>
<pdfrwt beam="2">  1       -2 0.91444232E-01 0.60822005E+03</pdfrwt>
<totfact> 0.23741121E+02</totfact>
</mgrwt>
</event>
<event>
 6    1  0.1719556E-004  0.1174978E+04  0.7818608E-02  0.9135044E-01
         -2   -1    0    0    0  501 -0.00000000000E+00  0.00000000000E+00  0.77145272369E+03  0.77145272369E+03  0.00000000000E+00 0. -1.
          2   -1    0    0  501    0  0.00000000000E+00 -0.00000000000E+00 -0.44739435833E+03  0.44739435833E+03  0.00000000000E+00 0.  1.
         23    2    1    2    0    0 -0.80346515101E+02 -0.11425151040E+03 -0.42530791216E+03  0.45657496001E+03  0.89804809664E+02 0.  0.
         11    1    3    3    0    0 -0.28296038535E+02 -0.66286470714E+02 -0.97698366341E+02  0.12140647751E+03  0.00000000000E+00 0.  1.
        -11    1    3    3    0    0 -0.52050476567E+02 -0.47965039684E+02 -0.32760954582E+03  0.33516848249E+03  0.00000000000E+00 0. -1.
         22    1    1    2    0    0  0.80346515101E+02  0.11425151040E+03  0.74936627752E+03  0.76227212201E+03  0.00000000000E+00 0. -1.
<mgrwt>
<rscale>  0 0.11749785E+04</rscale>
<asrwt>0</asrwt>
<pdfrwt beam="1">  1        2 0.68829901E-01 0.11749785E+04</pdfrwt>
<pdfrwt beam="2">  1       -2 0.11868503E+00 0.11749785E+04</pdfrwt>
<totfact> 0.37750253E+01</totfact>
</mgrwt>
</event>
<event>
 6    1  0.1719556E-004  0.2148727E+04  0.7818608E-02  0.8540077E-01
          2   -1    0    0  501    0  0.00000000000E+00  0.00000000000E+00  0.26949092046E+04  0.26949092046E+04  0.00000000000E+00 0.  1.
         -2   -1    0    0    0  501 -0.00000000000E+00 -0.00000000000E+00 -0.42831018230E+03  0.42831018230E+03  0.00000000000E+00 0. -1.
         23    2    1    2    0    0  0.34640839202E+03  0.49094990440E+03  0.24264959298E+04  0.25014496516E+04  0.91308703353E+02 0.  0.
         13    1    3    3    0    0  0.24359794764E+02  0.86022013303E+02  0.41046159012E+03  0.42008559049E+03  0.00000000000E+00 0.  1.
        -13    1    3    3    0    0  0.32204859726E+03  0.40492789110E+03  0.20160343397E+04  0.20813640611E+04  0.00000000000E+00 0. -1.
         22    1    1    2    0    0 -0.34640839202E+03 -0.49094990440E+03 -0.15989690753E+03  0.62176973530E+03  0.00000000000E+00 0. -1.
<mgrwt>
<rscale>  0 0.21487271E+04</rscale>
<asrwt>0</asrwt>
<pdfrwt beam="1">  1        2 0.41460141E+00 0.21487271E+04</pdfrwt>
<pdfrwt beam="2">  1       -2 0.65893876E-01 0.21487271E+04</pdfrwt>
<totfact> 0.52062133E+00</totfact>
</mgrwt>
</event>
<event>
 6    1  0.1719556E-004  0.2331238E+04  0.7818608E-02  0.8465705E-01
          2   -1    0    0  501    0  0.00000000000E+00  0.00000000000E+00  0.18383155391E+04  0.18383155391E+04  0.00000000000E+00 0.  1.
         -2   -1    0    0    0  501 -0.00000000000E+00 -0.00000000000E+00 -0.73908311066E+03  0.73908311066E+03  0.00000000000E+00 0. -1.
         23    2    1    2    0    0 -0.28268028136E+03 -0.70981624032E+02  0.17962072399E+04  0.18219382469E+04  0.90288394877E+02 0.  0.
         13    1    3    3    0    0 -0.14314078498E+03 -0.82042749644E+02  0.10008493835E+04  0.10143568335E+04  0.00000000000E+00 0. -1.
        -13    1    3    3    0    0 -0.13953949638E+03  0.11061125612E+02  0.79535785640E+03  0.80758141341E+03  0.00000000000E+00 0.  1.
         22    1    1    2    0    0  0.28268028136E+03  0.70981624032E+02 -0.69697481151E+03  0.75546040287E+03  0.00000000000E+00 0. -1.
<mgrwt>
<rscale>  0 0.23312383E+04</rscale>
<asrwt>0</asrwt>
<pdfrwt beam="1">  1        2 0.28281777E+00 0.23312383E+04</pdfrwt>
<pdfrwt beam="2">  1       -2 0.11370509E+00 0.23312383E+04</pdfrwt>
<totfact> 0.45041466E+00</totfact>
</mgrwt>
</event>
<event>
 6    1  0.1719556E-004  0.2411822E+04  0.7818608E-02  0.8435091E-01
          2   -1    0    0  501    0  0.00000000000E+00  0.00000000000E+00  0.19084108541E+04  0.19084108541E+04  0.00000000000E+00 0. -1.
         -2   -1    0    0    0  501 -0.00000000000E+00 -0.00000000000E+00 -0.76200670603E+03  0.76200670603E+03  0.00000000000E+00 0.  1.
         23    2    1    2    0    0 -0.11245577977E+04 -0.35155251750E+03  0.29886371945E+03  0.12190236814E+04  0.92085829428E+02 0.  0.
         11    1    3    3    0    0 -0.25899436735E+03 -0.60781723451E+02  0.33399691763E+02  0.26811945031E+03  0.00000000000E+00 0. -1.
        -11    1    3    3    0    0 -0.86556343039E+03 -0.29077079405E+03  0.26546402769E+03  0.95090423109E+03  0.00000000000E+00 0.  1.
         22    1    1    2    0    0  0.11245577977E+04  0.35155251750E+03  0.84754042858E+03  0.14513938787E+04  0.00000000000E+00 0.  1.
<mgrwt>
<rscale>  0 0.24118224E+04</rscale>
<asrwt>0</asrwt>
<pdfrwt beam="1">  1        2 0.29360167E+00 0.24118224E+04</pdfrwt>
<pdfrwt beam="2">  1       -2 0.11723180E+00 0.24118224E+04</pdfrwt>
<totfact> 0.37965321E+00</totfact>
</mgrwt>
</event>
<event>
 6    1  0.1719556E-004  0.1343587E+04  0.7818608E-02  0.8995697E-01
         -1   -1    0    0    0  501 -0.00000000000E+00  0.00000000000E+00  0.39330525389E+03  0.39330525389E+03  0.00000000000E+00 0. -1.
          1   -1    0    0  501    0  0.00000000000E+00 -0.00000000000E+00 -0.11474718773E+04  0.11474718773E+04  0.00000000000E+00 0.  1.
         23    2    1    2    0    0 -0.39074527325E+03 -0.31058627617E+03  0.13219286636E+03  0.52353632950E+03  0.86427026329E+02 0.  0.
         13    1    3    3    0    0 -0.49805956008E+02 -0.52575233042E+02  0.50370507668E+02  0.88215511255E+02  0.00000000000E+00 0. -1.
        -13    1    3    3    0    0 -0.34093931724E+03 -0.25801104313E+03  0.81822358688E+02  0.43532081824E+03  0.00000000000E+00 0.  1.
         22    1    1    2    0    0  0.39074527325E+03  0.31058627617E+03 -0.88635948975E+03  0.10172408017E+04  0.00000000000E+00 0.  1.
<mgrwt>
<rscale>  0 0.13435873E+04</rscale>
<asrwt>0</asrwt>
<pdfrwt beam="1">  1        1 0.17653413E+00 0.13435873E+04</pdfrwt>
<pdfrwt beam="2">  1       -1 0.60508501E-01 0.13435873E+04</pdfrwt>
<totfact> 0.31687840E+01</totfact>
</mgrwt>
</event>
<event>
 6    1  0.1719556E-004  0.2511461E+04  0.7818608E-02  0.8398914E-01
          1   -1    0    0  501    0  0.00000000000E+00  0.00000000000E+00  0.16569315032E+04  0.16569315032E+04  0.00000000000E+00 0. -1.
         -1   -1    0    0    0  501 -0.00000000000E+00 -0.00000000000E+00 -0.95167464837E+03  0.95167464837E+03  0.00000000000E+00 0.  1.
         23    2    1    2    0    0 -0.94646296985E+00  0.32504922491E+03  0.16111806980E+04  0.16461323056E+04  0.90501003349E+02 0.  0.
         11    1    3    3    0    0 -0.13421021728E+02  0.26310179906E+03  0.11023257308E+04  0.11333687384E+04  0.00000000000E+00 0.  1.
        -11    1    3    3    0    0  0.12474558758E+02  0.61947425849E+02  0.50885496724E+03  0.51276356722E+03  0.00000000000E+00 0. -1.
         22    1    1    2    0    0  0.94646296985E+00 -0.32504922491E+03 -0.90592384320E+03  0.96247384592E+03  0.00000000000E+00 0.  1.
<mgrwt>
<rscale>  0 0.25114615E+04</rscale>
<asrwt>0</asrwt>
<pdfrwt beam="1">  1        1 0.25491254E+00 0.25114615E+04</pdfrwt>
<pdfrwt beam="2">  1       -1 0.14641148E+00 0.25114615E+04</pdfrwt>
<totfact> 0.16854524E+00</totfact>
</mgrwt>
</event>
<event>
 6    1  0.1719556E-004  0.2380380E+04  0.7818608E-02  0.8446886E-01
          2   -1    0    0  501    0  0.00000000000E+00  0.00000000000E+00  0.15285041095E+04  0.15285041095E+04  0.00000000000E+00 0.  1.
         -2   -1    0    0    0  501 -0.00000000000E+00 -0.00000000000E+00 -0.92675721376E+03  0.92675721376E+03  0.00000000000E+00 0. -1.
         23    2    1    2    0    0  0.18341726568E+03  0.90235231606E+03  0.10760113984E+04  0.14194966713E+04  0.96377770257E+02 0.  0.
         13    1    3    3    0    0  0.30784731622E+02  0.35993505300E+03  0.38683336944E+03  0.52928347583E+03  0.00000000000E+00 0. -1.
        -13    1    3    3    0    0  0.15263253405E+03  0.54241726306E+03  0.68917802900E+03  0.89021319546E+03  0.00000000000E+00 0.  1.
         22    1    1    2    0    0 -0.18341726568E+03 -0.90235231606E+03 -0.47426450272E+03  0.10357646519E+04  0.00000000000E+00 0. -1.
<mgrwt>
<rscale>  0 0.23803800E+04</rscale>
<asrwt>0</asrwt>
<pdfrwt beam="1">  1        2 0.23515448E+00 0.23803800E+04</pdfrwt>
<pdfrwt beam="2">  1       -2 0.14257803E+00 0.23803800E+04</pdfrwt>
<totfact> 0.37737340E+00</totfact>
</mgrwt>
</event>
<event>
 6    1  0.1719556E-004  0.2857859E+04  0.7818608E-02  0.8285527E-01
          2   -1    0    0  501    0  0.00000000000E+00  0.00000000000E+00  0.92848041210E+03  0.92848041210E+03  0.00000000000E+00 0.  1.
         -2   -1    0    0    0  501 -0.00000000000E+00 -0.00000000000E+00 -0.21991192503E+04  0.21991192503E+04  0.00000000000E+00 0. -1.
         23    2    1    2    0    0 -0.34660614686E+03  0.11675979961E+04  0.17881981652E+03  0.12343613538E+04  0.90832392411E+02 0.  0.
         13    1    3    3    0    0 -0.23421603767E+03  0.64204637357E+03  0.83054539512E+02  0.68846114970E+03  0.00000000000E+00 0. -1.
        -13    1    3    3    0    0 -0.11239010920E+03  0.52555162249E+03  0.95765277006E+02  0.54590020409E+03  0.00000000000E+00 0.  1.
         22    1    1    2    0    0  0.34660614686E+03 -0.11675979961E+04 -0.14494586547E+04  0.18932383086E+04  0.00000000000E+00 0. -1.
<mgrwt>
<rscale>  0 0.28578587E+04</rscale>
<asrwt>0</asrwt>
<pdfrwt beam="1">  1        2 0.14284314E+00 0.28578587E+04</pdfrwt>
<pdfrwt beam="2">  1       -2 0.33832604E+00 0.28578587E+04</pdfrwt>
<totfact> 0.44754308E-01</totfact>
</mgrwt>
</event>
<event>
 6    1  0.1719556E-004  0.2767016E+04  0.7818608E-02  0.8313582E-01
          2   -1    0    0  501    0  0.00000000000E+00  0.00000000000E+00  0.20103142203E+04  0.20103142203E+04  0.00000000000E+00 0.  1.
         -2   -1    0    0    0  501 -0.00000000000E+00 -0.00000000000E+00 -0.95213676727E+03  0.95213676727E+03  0.00000000000E+00 0. -1.
         23    2    1    2    0    0 -0.10950278200E+04 -0.36437146519E+03 -0.28373077020E+03  0.11925441621E+04  0.99024933740E+02 0.  0.
         11    1    3    3    0    0 -0.60422305666E+03 -0.14989615856E+03 -0.14323293283E+03  0.63880359548E+03  0.00000000000E+00 0. -1.
        -11    1    3    3    0    0 -0.49080476333E+03 -0.21447530663E+03 -0.14049783738E+03  0.55374056666E+03  0.00000000000E+00 0.  1.
         22    1    1    2    0    0  0.10950278200E+04  0.36437146519E+03  0.13419082232E+04  0.17699068254E+04  0.00000000000E+00 0.  1.
<mgrwt>
<rscale>  0 0.27670158E+04</rscale>
<asrwt>0</asrwt>
<pdfrwt beam="1">  1        2 0.30927911E+00 0.27670158E+04</pdfrwt>
<pdfrwt beam="2">  1       -2 0.14648258E+00 0.27670158E+04</pdfrwt>
<totfact> 0.18353929E+00</totfact>
</mgrwt>
</event>
<event>
 6    1  0.1719556E-004  0.6520612E+03  0.7818608E-02  0.9802919E-01
         -1   -1    0    0    0  501 -0.00000000000E+00  0.00000000000E+00  0.80269935112E+02  0.80269935112E+02  0.00000000000E+00 0. -1.
          1   -1    0    0  501    0  0.00000000000E+00 -0.00000000000E+00 -0.13242311011E+04  0.13242311011E+04  0.00000000000E+00 0.  1.
         23    2    1    2    0    0 -0.14346216691E+03 -0.27720134541E+03 -0.55620647512E+03  0.64923386889E+03  0.12131361967E+03 0.  0.
         11    1    3    3    0    0 -0.17901280007E+02 -0.14448455085E+03 -0.18423804383E+03  0.23481886222E+03  0.00000000000E+00 0. -1.
        -11    1    3    3    0    0 -0.12556088690E+03 -0.13271679456E+03 -0.37196843129E+03  0.41441500667E+03  0.00000000000E+00 0.  1.
         22    1    1    2    0    0  0.14346216691E+03  0.27720134541E+03 -0.68775469092E+03  0.75526716737E+03  0.00000000000E+00 0.  1.
<mgrwt>
<rscale>  0 0.65206118E+03</rscale>
<asrwt>0</asrwt>
<pdfrwt beam="1">  1        1 0.20372785E+00 0.65206118E+03</pdfrwt>
<pdfrwt beam="2">  1       -1 0.12349221E-01 0.65206118E+03</pdfrwt>
<totfact> 0.39952064E+02</totfact>
</mgrwt>
</event>
<event>
 6    1  0.1719556E-004  0.5527183E+04  0.7818608E-02  0.7751960E-01
          2   -1    0    0  501    0  0.00000000000E+00  0.00000000000E+00  0.32488400523E+04  0.32488400523E+04  0.00000000000E+00 0.  1.
         -2   -1    0    0    0  501 -0.00000000000E+00 -0.00000000000E+00 -0.23508197965E+04  0.23508197965E+04  0.00000000000E+00 0. -1.
         23    2    1    2    0    0  0.27107276852E+04 -0.43363654832E+03  0.13140006409E+03  0.27494332336E+04  0.77665241459E+02 0.  0.
         13    1    3    3    0    0  0.35188777070E+03 -0.52164808023E+02 -0.87396393939E+01  0.35584062677E+03  0.00000000000E+00 0. -1.
        -13    1    3    3    0    0  0.23588399145E+04 -0.38147174029E+03  0.14013970348E+03  0.23935926068E+04  0.00000000000E+00 0.  1.
         22    1    1    2    0    0 -0.27107276852E+04  0.43363654832E+03  0.76662019173E+03  0.28502266152E+04  0.00000000000E+00 0.  1.
<mgrwt>
<rscale>  0 0.55271828E+04</rscale>
<asrwt>0</asrwt>
<pdfrwt beam="1">  1        2 0.49982154E+00 0.55271828E+04</pdfrwt>
<pdfrwt beam="2">  1       -2 0.36166459E+00 0.55271828E+04</pdfrwt>
<totfact> 0.11028540E-02</totfact>
</mgrwt>
</event>
<event>
 6    1  0.1719556E-004  0.2039554E+04  0.7818608E-02  0.8588348E-01
         -2   -1    0    0    0  501 -0.00000000000E+00  0.00000000000E+00  0.22694915958E+03  0.22694915958E+03  0.00000000000E+00 0. -1.
          2   -1    0    0  501    0  0.00000000000E+00 -0.00000000000E+00 -0.45822834704E+04  0.45822834704E+04  0.00000000000E+00 0.  1.
         23    2    1    2    0    0 -0.44330288738E+02  0.69066043548E+03 -0.39415756029E+04  0.40028993986E+04  0.90599947481E+02 0.  0.
         11    1    3    3    0    0  0.18013693398E+02  0.15218680459E+03 -0.10222894237E+04  0.10337122339E+04  0.00000000000E+00 0. -1.
        -11    1    3    3    0    0 -0.62343982136E+02  0.53847363089E+03 -0.29192861792E+04  0.29691871647E+04  0.00000000000E+00 0.  1.
         22    1    1    2    0    0  0.44330288738E+02 -0.69066043548E+03 -0.41375870795E+03  0.80633323138E+03  0.00000000000E+00 0. -1.
<mgrwt>
<rscale>  0 0.20395542E+04</rscale>
<asrwt>0</asrwt>
<pdfrwt beam="1">  1        2 0.70496664E+00 0.20395542E+04</pdfrwt>
<pdfrwt beam="2">  1       -2 0.34915258E-01 0.20395542E+04</pdfrwt>
<totfact> 0.73841144E-01</totfact>
</mgrwt>
</event>
<event>
 6    1  0.1719556E-004  0.3467511E+04  0.7818608E-02  0.8121533E-01
          2   -1    0    0  501    0  0.00000000000E+00  0.00000000000E+00  0.24590253535E+04  0.24590253535E+04  0.00000000000E+00 0.  1.
         -2   -1    0    0    0  501 -0.00000000000E+00 -0.00000000000E+00 -0.12223984457E+04  0.12223984457E+04  0.00000000000E+00 0. -1.
         23    2    1    2    0    0  0.74764193473E+03 -0.13839650125E+04  0.13900033394E+04  0.21009643886E+04  0.87260875199E+02 0.  0.
         13    1    3    3    0    0  0.20550191342E+03 -0.46004997320E+03  0.46467553939E+03  0.68541985029E+03  0.00000000000E+00 0. -1.
        -13    1    3    3    0    0  0.54214002130E+03 -0.92391503932E+03  0.92532780003E+03  0.14155445384E+04  0.00000000000E+00 0.  1.
         22    1    1    2    0    0 -0.74764193473E+03  0.13839650125E+04 -0.15337643160E+03  0.15804594105E+04  0.00000000000E+00 0. -1.
<mgrwt>
<rscale>  0 0.34675114E+04</rscale>
<asrwt>0</asrwt>
<pdfrwt beam="1">  1        2 0.37831159E+00 0.34675114E+04</pdfrwt>
<pdfrwt beam="2">  1       -2 0.18806130E+00 0.34675114E+04</pdfrwt>
<totfact> 0.48378063E-01</totfact>
</mgrwt>
</event>
<event>
 6    1  0.1719556E-004  0.1049094E+04  0.7818608E-02  0.9256279E-01
          1   -1    0    0  501    0  0.00000000000E+00  0.00000000000E+00  0.63733737022E+03  0.63733737022E+03  0.00000000000E+00 0.  1.
         -1   -1    0    0    0  501 -0.00000000000E+00 -0.00000000000E+00 -0.43171761295E+03  0.43171761295E+03  0.00000000000E+00 0. -1.
         23    2    1    2    0    0 -0.37071297134E+03 -0.22144355449E+03 -0.19781183064E+03  0.47810456133E+03  0.54672628204E+02 0.  0.
         11    1    3    3    0    0 -0.15177629975E+03 -0.10912846440E+03 -0.10965764147E+03  0.21672532210E+03  0.00000000000E+00 0. -1.
        -11    1    3    3    0    0 -0.21893667159E+03 -0.11231509009E+03 -0.88154189174E+02  0.26137923922E+03  0.00000000000E+00 0.  1.
         22    1    1    2    0    0  0.37071297134E+03  0.22144355449E+03  0.40343158792E+03  0.59095042184E+03  0.00000000000E+00 0.  1.
<mgrwt>
<rscale>  0 0.10490944E+04</rscale>
<asrwt>0</asrwt>
<pdfrwt beam="1">  1        1 0.98051903E-01 0.10490944E+04</pdfrwt>
<pdfrwt beam="2">  1       -1 0.66418095E-01 0.10490944E+04</pdfrwt>
<totfact> 0.72029042E+01</totfact>
</mgrwt>
</event>
<event>
 6    1  0.1719556E-004  0.2524683E+04  0.7818608E-02  0.8394245E-01
          2   -1    0    0  501    0  0.00000000000E+00  0.00000000000E+00  0.11701690862E+04  0.11701690862E+04  0.00000000000E+00 0.  1.
         -2   -1    0    0    0  501 -0.00000000000E+00 -0.00000000000E+00 -0.13617737838E+04  0.13617737838E+04  0.00000000000E+00 0. -1.
         23    2    1    2    0    0  0.97742834861E+03 -0.60692400167E+03  0.42091647329E+03  0.12285223295E+04  0.91506917815E+02 0.  0.
         13    1    3    3    0    0  0.49350043243E+03 -0.31994321028E+03  0.16796534331E+03  0.61165242676E+03  0.00000000000E+00 0.  1.
        -13    1    3    3    0    0  0.48392791619E+03 -0.28698079139E+03  0.25295112998E+03  0.61686990270E+03  0.00000000000E+00 0. -1.
         22    1    1    2    0    0 -0.97742834861E+03  0.60692400167E+03 -0.61252117090E+03  0.13034205405E+04  0.00000000000E+00 0. -1.
<mgrwt>
<rscale>  0 0.25246826E+04</rscale>
<asrwt>0</asrwt>
<pdfrwt beam="1">  1        2 0.18002601E+00 0.25246826E+04</pdfrwt>
<pdfrwt beam="2">  1       -2 0.20950366E+00 0.25246826E+04</pdfrwt>
<totfact> 0.20265997E+00</totfact>
</mgrwt>
</event>
<event>
 6    1  0.1719556E-004  0.3515224E+04  0.7818608E-02  0.8110191E-01
          2   -1    0    0  501    0  0.00000000000E+00  0.00000000000E+00  0.25030313198E+04  0.25030313198E+04  0.00000000000E+00 0. -1.
         -2   -1    0    0    0  501 -0.00000000000E+00 -0.00000000000E+00 -0.12341837867E+04  0.12341837867E+04  0.00000000000E+00 0.  1.
         23    2    1    2    0    0  0.16027347971E+03 -0.11026899501E+04  0.20783083029E+04  0.23599571597E+04  0.91758809781E+02 0.  0.
         13    1    3    3    0    0  0.85334967934E+02 -0.72523713031E+03  0.14413370478E+04  0.16157671359E+04  0.00000000000E+00 0.  1.
        -13    1    3    3    0    0  0.74938511776E+02 -0.37745281978E+03  0.63697125513E+03  0.74419002383E+03  0.00000000000E+00 0. -1.
         22    1    1    2    0    0 -0.16027347971E+03  0.11026899501E+04 -0.80946076981E+03  0.13772579469E+04  0.00000000000E+00 0.  1.
<mgrwt>
<rscale>  0 0.35152244E+04</rscale>
<asrwt>0</asrwt>
<pdfrwt beam="1">  1        2 0.38508174E+00 0.35152244E+04</pdfrwt>
<pdfrwt beam="2">  1       -2 0.18987443E+00 0.35152244E+04</pdfrwt>
<totfact> 0.44184324E-01</totfact>
</mgrwt>
</event>
<event>
 6    1  0.1719556E-004  0.8343444E+03  0.7818608E-02  0.9511594E-01
          2   -1    0    0  501    0  0.00000000000E+00  0.00000000000E+00  0.76198663901E+03  0.76198663901E+03  0.00000000000E+00 0.  1.
         -2   -1    0    0    0  501 -0.00000000000E+00 -0.00000000000E+00 -0.22839331317E+03  0.22839331317E+03  0.00000000000E+00 0. -1.
         23    2    1    2    0    0 -0.26716208066E+03 -0.59192101211E+02  0.63562363864E+03  0.69833634770E+03  0.93685443516E+02 0.  0.
         11    1    3    3    0    0 -0.18594724998E+03 -0.33342235061E+02  0.32187899917E+03  0.37322134789E+03  0.00000000000E+00 0. -1.
        -11    1    3    3    0    0 -0.81214830678E+02 -0.25849866150E+02  0.31374463947E+03  0.32511499981E+03  0.00000000000E+00 0.  1.
         22    1    1    2    0    0  0.26716208066E+03  0.59192101211E+02 -0.10203031281E+03  0.29204360448E+03  0.00000000000E+00 0. -1.
<mgrwt>
<rscale>  0 0.83434442E+03</rscale>
<asrwt>0</asrwt>
<pdfrwt beam="1">  1        2 0.11722871E+00 0.83434442E+03</pdfrwt>
<pdfrwt beam="2">  1       -2 0.35137433E-01 0.83434442E+03</pdfrwt>
<totfact> 0.28044161E+02</totfact>
</mgrwt>
</event>
<event>
 6    1  0.1719556E-004  0.1941738E+04  0.7818608E-02  0.8634355E-01
          2   -1    0    0  501    0  0.00000000000E+00  0.00000000000E+00  0.21960081173E+04  0.21960081173E+04  0.00000000000E+00 0.  1.
         -2   -1    0    0    0  501 -0.00000000000E+00 -0.00000000000E+00 -0.42922714288E+03  0.42922714288E+03  0.00000000000E+00 0. -1.
         23    2    1    2    0    0 -0.91183219908E+03 -0.26787260188E+03  0.11392026134E+04  0.14863549815E+04  0.90966182314E+02 0.  0.
         11    1    3    3    0    0 -0.67179996707E+03 -0.22825283303E+03  0.80619478491E+03  0.10739481285E+04  0.00000000000E+00 0. -1.
        -11    1    3    3    0    0 -0.24003223202E+03 -0.39619768849E+02  0.33300782853E+03  0.41240685294E+03  0.00000000000E+00 0.  1.
         22    1    1    2    0    0  0.91183219908E+03  0.26787260188E+03  0.62757836103E+03  0.11388802788E+04  0.00000000000E+00 0. -1.
<mgrwt>
<rscale>  0 0.19417377E+04</rscale>
<asrwt>0</asrwt>
<pdfrwt beam="1">  1        2 0.33784739E+00 0.19417377E+04</pdfrwt>
<pdfrwt beam="2">  1       -2 0.66034947E-01 0.19417377E+04</pdfrwt>
<totfact> 0.10224196E+01</totfact>
</mgrwt>
</event>
<event>
 6    1  0.1719556E-004  0.3385100E+04  0.7818608E-02  0.8141573E-01
         -1   -1    0    0    0  501 -0.00000000000E+00  0.00000000000E+00  0.87462337606E+03  0.87462337606E+03  0.00000000000E+00 0. -1.
          1   -1    0    0  501    0  0.00000000000E+00 -0.00000000000E+00 -0.32753819245E+04  0.32753819245E+04  0.00000000000E+00 0.  1.
         23    2    1    2    0    0  0.37795526135E+03 -0.97753438107E+03 -0.28287826041E+04  0.30179150930E+04  0.85888539840E+02 0.  0.
         11    1    3    3    0    0  0.19757175783E+03 -0.54718121918E+03 -0.16854141171E+04  0.17829926058E+04  0.00000000000E+00 0. -1.
        -11    1    3    3    0    0  0.18038350352E+03 -0.43035316189E+03 -0.11433684871E+04  0.12349224872E+04  0.00000000000E+00 0.  1.
         22    1    1    2    0    0 -0.37795526135E+03  0.97753438107E+03  0.42802405572E+03  0.11320902075E+04  0.00000000000E+00 0. -1.
<mgrwt>
<rscale>  0 0.33851001E+04</rscale>
<asrwt>0</asrwt>
<pdfrwt beam="1">  1        1 0.50390492E+00 0.33851001E+04</pdfrwt>
<pdfrwt beam="2">  1       -1 0.13455744E+00 0.33851001E+04</pdfrwt>
<totfact> 0.14251355E-01</totfact>
</mgrwt>
</event>
<event>
 6    1  0.1719556E-004  0.3078364E+04  0.7818608E-02  0.8221701E-01
          1   -1    0    0  501    0  0.00000000000E+00  0.00000000000E+00  0.16529349823E+04  0.16529349823E+04  0.00000000000E+00 0.  1.
         -1   -1    0    0    0  501 -0.00000000000E+00 -0.00000000000E+00 -0.14332577545E+04  0.14332577545E+04  0.00000000000E+00 0. -1.
         23    2    1    2    0    0 -0.10217069563E+04  0.35530982083E+03  0.12059790547E+04  0.16223206566E+04  0.86073568564E+02 0.  0.
         11    1    3    3    0    0 -0.12659649457E+03  0.44403766480E+02  0.19500484717E+03  0.23669655117E+03  0.00000000000E+00 0. -1.
        -11    1    3    3    0    0 -0.89511046176E+03  0.31090605435E+03  0.10109742075E+04  0.13856241055E+04  0.00000000000E+00 0.  1.
         22    1    1    2    0    0  0.10217069563E+04 -0.35530982083E+03 -0.98630182692E+03  0.14638720802E+04  0.00000000000E+00 0. -1.
<mgrwt>
<rscale>  0 0.30783644E+04</rscale>
<asrwt>0</asrwt>
<pdfrwt beam="1">  1        1 0.25429769E+00 0.30783644E+04</pdfrwt>
<pdfrwt beam="2">  1       -1 0.22050119E+00 0.30783644E+04</pdfrwt>
<totfact> 0.47385087E-01</totfact>
</mgrwt>
</event>
<event>
 6    1  0.1719556E-004  0.2708153E+04  0.7818608E-02  0.8332365E-01
         -2   -1    0    0    0  501 -0.00000000000E+00  0.00000000000E+00  0.94600291822E+03  0.94600291822E+03  0.00000000000E+00 0. -1.
          2   -1    0    0  501    0  0.00000000000E+00 -0.00000000000E+00 -0.19381788941E+04  0.19381788941E+04  0.00000000000E+00 0.  1.
         23    2    1    2    0    0  0.36664513122E+02 -0.39628004371E+03  0.88012204841E+03  0.97005484388E+03  0.89495365575E+02 0.  0.
         11    1    3    3    0    0  0.37353230839E+02 -0.16878930916E+03  0.29019916603E+03  0.33778787827E+03  0.00000000000E+00 0. -1.
        -11    1    3    3    0    0 -0.68871771696E+00 -0.22749073455E+03  0.58992288239E+03  0.63226696561E+03  0.00000000000E+00 0.  1.
         22    1    1    2    0    0 -0.36664513122E+02  0.39628004371E+03 -0.18722980243E+04  0.19141269684E+04  0.00000000000E+00 0.  1.
<mgrwt>
<rscale>  0 0.27081528E+04</rscale>
<asrwt>0</asrwt>
<pdfrwt beam="1">  1        2 0.29818137E+00 0.27081528E+04</pdfrwt>
<pdfrwt beam="2">  1       -2 0.14553891E+00 0.27081528E+04</pdfrwt>
<totfact> 0.20575039E+00</totfact>
</mgrwt>
</event>
<event>
 6    1  0.1719556E-004  0.1470734E+04  0.7818608E-02  0.8904151E-01
          1   -1    0    0  501    0  0.00000000000E+00  0.00000000000E+00  0.89262267854E+03  0.89262267854E+03  0.00000000000E+00 0.  1.
         -1   -1    0    0    0  501 -0.00000000000E+00 -0.00000000000E+00 -0.60581514364E+03  0.60581514364E+03  0.00000000000E+00 0. -1.
         23    2    1    2    0    0  0.12380138607E+03 -0.35717231806E+03 -0.49535957000E+03  0.62971218772E+03  0.90870720215E+02 0.  0.
         13    1    3    3    0    0  0.30116130285E+02 -0.15206128025E+02 -0.34677591581E+02  0.48381225601E+02  0.00000000000E+00 0.  1.
        -13    1    3    3    0    0  0.93685255785E+02 -0.34196619004E+03 -0.46068197842E+03  0.58133096212E+03  0.00000000000E+00 0. -1.
         22    1    1    2    0    0 -0.12380138607E+03  0.35717231806E+03  0.78216710490E+03  0.86872563446E+03  0.00000000000E+00 0.  1.
<mgrwt>
<rscale>  0 0.14707336E+04</rscale>
<asrwt>0</asrwt>
<pdfrwt beam="1">  1        1 0.13732657E+00 0.14707336E+04</pdfrwt>
<pdfrwt beam="2">  1       -1 0.93202330E-01 0.14707336E+04</pdfrwt>
<totfact> 0.20003623E+01</totfact>
</mgrwt>
</event>
<event>
 6    1  0.1719556E-004  0.2020964E+04  0.7818608E-02  0.8596881E-01
          3   -1    0    0  501    0  0.00000000000E+00  0.00000000000E+00  0.26377904188E+04  0.26377904188E+04  0.00000000000E+00 0.  1.
         -3   -1    0    0    0  501 -0.00000000000E+00 -0.00000000000E+00 -0.38709455651E+03  0.38709455651E+03  0.00000000000E+00 0. -1.
         23    2    1    2    0    0 -0.87619569540E+03  0.29282926494E+03  0.17329065798E+04  0.19658412481E+04  0.89992907210E+02 0.  0.
         11    1    3    3    0    0 -0.49823460926E+03  0.20880676825E+03  0.10493744535E+04  0.11802646890E+04  0.00000000000E+00 0. -1.
        -11    1    3    3    0    0 -0.37796108614E+03  0.84022496691E+02  0.68353212631E+03  0.78557655915E+03  0.00000000000E+00 0.  1.
         22    1    1    2    0    0  0.87619569540E+03 -0.29282926494E+03  0.51778928243E+03  0.10590437272E+04  0.00000000000E+00 0. -1.
<mgrwt>
<rscale>  0 0.20209644E+04</rscale>
<asrwt>0</asrwt>
<pdfrwt beam="1">  1        3 0.40581390E+00 0.20209644E+04</pdfrwt>
<pdfrwt beam="2">  1       -3 0.59553010E-01 0.20209644E+04</pdfrwt>
<totfact> 0.69512625E-02</totfact>
</mgrwt>
</event>
<event>
 6    1  0.1719556E-004  0.1892554E+04  0.7818608E-02  0.8658572E-01
         -2   -1    0    0    0  501 -0.00000000000E+00  0.00000000000E+00  0.42510970563E+03  0.42510970563E+03  0.00000000000E+00 0. -1.
          2   -1    0    0  501    0  0.00000000000E+00 -0.00000000000E+00 -0.21063732181E+04  0.21063732181E+04  0.00000000000E+00 0.  1.
         23    2    1    2    0    0 -0.40641697761E+03 -0.52902413060E+03 -0.17361067169E+04  0.18621182492E+04  0.91523500199E+02 0.  0.
         13    1    3    3    0    0 -0.20748296514E+03 -0.32635623053E+03 -0.10815100405E+04  0.11485736972E+04  0.00000000000E+00 0.  1.
        -13    1    3    3    0    0 -0.19893401247E+03 -0.20266790007E+03 -0.65459667636E+03  0.71354455203E+03  0.00000000000E+00 0. -1.
         22    1    1    2    0    0  0.40641697761E+03  0.52902413060E+03  0.54843204418E+02  0.66936467454E+03  0.00000000000E+00 0. -1.
<mgrwt>
<rscale>  0 0.18925535E+04</rscale>
<asrwt>0</asrwt>
<pdfrwt beam="1">  1        2 0.32405743E+00 0.18925535E+04</pdfrwt>
<pdfrwt beam="2">  1       -2 0.65401492E-01 0.18925535E+04</pdfrwt>
<totfact> 0.11766235E+01</totfact>
</mgrwt>
</event>
<event>
 6    1  0.1719556E-004  0.2264405E+04  0.7818608E-02  0.8492090E-01
          2   -1    0    0  501    0  0.00000000000E+00  0.00000000000E+00  0.19532442603E+04  0.19532442603E+04  0.00000000000E+00 0.  1.
         -2   -1    0    0    0  501 -0.00000000000E+00 -0.00000000000E+00 -0.65628351635E+03  0.65628351635E+03  0.00000000000E+00 0. -1.
         23    2    1    2    0    0  0.77130159127E+03 -0.13283080173E+03  0.15895772588E+04  0.17739593525E+04  0.87325576136E+02 0.  0.
         11    1    3    3    0    0  0.43693657508E+03 -0.41270340683E+02  0.82556063380E+03  0.93496907529E+03  0.00000000000E+00 0.  1.
        -11    1    3    3    0    0  0.33436501619E+03 -0.91560461044E+02  0.76401662497E+03  0.83899027724E+03  0.00000000000E+00 0. -1.
         22    1    1    2    0    0 -0.77130159127E+03  0.13283080173E+03 -0.29261651485E+03  0.83556842410E+03  0.00000000000E+00 0. -1.
<mgrwt>
<rscale>  0 0.22644046E+04</rscale>
<asrwt>0</asrwt>
<pdfrwt beam="1">  1        2 0.30049911E+00 0.22644046E+04</pdfrwt>
<pdfrwt beam="2">  1       -2 0.10096670E+00 0.22644046E+04</pdfrwt>
<totfact> 0.52067575E+00</totfact>
</mgrwt>
</event>
<event>
 6    1  0.1719556E-004  0.2350362E+04  0.7818608E-02  0.8458324E-01
          2   -1    0    0  501    0  0.00000000000E+00  0.00000000000E+00  0.76006351731E+03  0.76006351731E+03  0.00000000000E+00 0.  1.
         -2   -1    0    0    0  501 -0.00000000000E+00 -0.00000000000E+00 -0.18170201877E+04  0.18170201877E+04  0.00000000000E+00 0. -1.
         23    2    1    2    0    0 -0.58088803452E+03 -0.51907491733E+03 -0.14913391431E+04  0.16851432300E+04  0.93517845262E+02 0.  0.
         13    1    3    3    0    0 -0.40503381504E+03 -0.32191738809E+03 -0.10555142714E+04  0.11754971600E+04  0.00000000000E+00 0.  1.
        -13    1    3    3    0    0 -0.17585421948E+03 -0.19715752925E+03 -0.43582487174E+03  0.50964607001E+03  0.00000000000E+00 0. -1.
         22    1    1    2    0    0  0.58088803452E+03  0.51907491733E+03  0.43438247268E+03  0.89194047505E+03  0.00000000000E+00 0.  1.
<mgrwt>
<rscale>  0 0.23503623E+04</rscale>
<asrwt>0</asrwt>
<pdfrwt beam="1">  1        2 0.11693285E+00 0.23503623E+04</pdfrwt>
<pdfrwt beam="2">  1       -2 0.27954156E+00 0.23503623E+04</pdfrwt>
<totfact> 0.14104924E+00</totfact>
</mgrwt>
</event>
<event>
 6    1  0.1719556E-004  0.2762851E+04  0.7818608E-02  0.8314895E-01
          2   -1    0    0  501    0  0.00000000000E+00  0.00000000000E+00  0.23923512344E+04  0.23923512344E+04  0.00000000000E+00 0.  1.
         -2   -1    0    0    0  501 -0.00000000000E+00 -0.00000000000E+00 -0.79768227768E+03  0.79768227768E+03  0.00000000000E+00 0. -1.
         23    2    1    2    0    0  0.81870804394E+03  0.11069866174E+04  0.90426834214E+03  0.16497883236E+04  0.91640851493E+02 0.  0.
         13    1    3    3    0    0  0.56189288340E+03  0.70720797191E+03  0.62853877199E+03  0.11004216082E+04  0.00000000000E+00 0. -1.
        -13    1    3    3    0    0  0.25681516054E+03  0.39977864547E+03  0.27572957015E+03  0.54936671533E+03  0.00000000000E+00 0.  1.
         22    1    1    2    0    0 -0.81870804394E+03 -0.11069866174E+04  0.69040061462E+03  0.15402451886E+04  0.00000000000E+00 0. -1.
<mgrwt>
<rscale>  0 0.27628508E+04</rscale>
<asrwt>0</asrwt>
<pdfrwt beam="1">  1        2 0.36805403E+00 0.27628508E+04</pdfrwt>
<pdfrwt beam="2">  1       -2 0.12272035E+00 0.27628508E+04</pdfrwt>
<totfact> 0.17596493E+00</totfact>
</mgrwt>
</event>
<event>
 6    1  0.1719556E-004  0.1167546E+04  0.7818608E-02  0.9141747E-01
          2   -1    0    0  501    0  0.00000000000E+00  0.00000000000E+00  0.15718088865E+04  0.15718088865E+04  0.00000000000E+00 0. -1.
         -2   -1    0    0    0  501 -0.00000000000E+00 -0.00000000000E+00 -0.21681463982E+03  0.21681463982E+03  0.00000000000E+00 0.  1.
         23    2    1    2    0    0  0.13748565830E+03 -0.49243404391E+03  0.26139031786E+03  0.58141055962E+03  0.91212645659E+02 0.  0.
         11    1    3    3    0    0  0.66371438744E+02 -0.28894450203E+03  0.10275382872E+03  0.31377132190E+03  0.00000000000E+00 0.  1.
        -11    1    3    3    0    0  0.71114219557E+02 -0.20348954189E+03  0.15863648914E+03  0.26763923772E+03  0.00000000000E+00 0. -1.
         22    1    1    2    0    0 -0.13748565830E+03  0.49243404391E+03  0.10936039289E+04  0.12072129667E+04  0.00000000000E+00 0. -1.
<mgrwt>
<rscale>  0 0.11675464E+04</rscale>
<asrwt>0</asrwt>
<pdfrwt beam="1">  1        2 0.24181674E+00 0.11675464E+04</pdfrwt>
<pdfrwt beam="2">  1       -2 0.33356099E-01 0.11675464E+04</pdfrwt>
<totfact> 0.95978491E+01</totfact>
</mgrwt>
</event>
<event>
 6    1  0.1719556E-004  0.2217479E+04  0.7818608E-02  0.8511188E-01
          1   -1    0    0  501    0  0.00000000000E+00  0.00000000000E+00  0.10020362363E+04  0.10020362363E+04  0.00000000000E+00 0. -1.
         -1   -1    0    0    0  501 -0.00000000000E+00 -0.00000000000E+00 -0.12268049830E+04  0.12268049830E+04  0.00000000000E+00 0.  1.
         23    2    1    2    0    0  0.17208883149E+03  0.30572361034E+02 -0.12109940390E+04  0.12272477078E+04  0.95295008033E+02 0.  0.
         13    1    3    3    0    0  0.97051005953E+02  0.51919122537E+02 -0.89606260764E+03  0.90279714768E+03  0.00000000000E+00 0.  1.
        -13    1    3    3    0    0  0.75037825539E+02 -0.21346761503E+02 -0.31493143135E+03  0.32445056009E+03  0.00000000000E+00 0. -1.
         22    1    1    2    0    0 -0.17208883149E+03 -0.30572361034E+02  0.98622529225E+03  0.10015935115E+04  0.00000000000E+00 0. -1.
<mgrwt>
<rscale>  0 0.22174788E+04</rscale>
<asrwt>0</asrwt>
<pdfrwt beam="1">  1        1 0.15415942E+00 0.22174788E+04</pdfrwt>
<pdfrwt beam="2">  1       -1 0.18873923E+00 0.22174788E+04</pdfrwt>
<totfact> 0.24750149E+00</totfact>
</mgrwt>
</event>
<event>
 6    1  0.1719556E-004  0.2243585E+04  0.7818608E-02  0.8500503E-01
         -2   -1    0    0    0  501 -0.00000000000E+00  0.00000000000E+00  0.96963361922E+03  0.96963361922E+03  0.00000000000E+00 0. -1.
          2   -1    0    0  501    0  0.00000000000E+00 -0.00000000000E+00 -0.12978282190E+04  0.12978282190E+04  0.00000000000E+00 0.  1.
         23    2    1    2    0    0 -0.92944174175E+03  0.12000634629E+03 -0.78418106251E+03  0.12252588212E+04  0.89753916661E+02 0.  0.
         13    1    3    3    0    0 -0.21541992177E+02 -0.57617815240E+01 -0.65085417927E+01  0.23229650655E+02  0.00000000000E+00 0.  1.
        -13    1    3    3    0    0 -0.90789974957E+03  0.12576812781E+03 -0.77767252072E+03  0.12020291705E+04  0.00000000000E+00 0. -1.
         22    1    1    2    0    0  0.92944174175E+03 -0.12000634629E+03  0.45598646278E+03  0.10422030170E+04  0.00000000000E+00 0. -1.
<mgrwt>
<rscale>  0 0.22435845E+04</rscale>
<asrwt>0</asrwt>
<pdfrwt beam="1">  1        2 0.19966588E+00 0.22435845E+04</pdfrwt>
<pdfrwt beam="2">  1       -2 0.14917440E+00 0.22435845E+04</pdfrwt>
<totfact> 0.45917653E+00</totfact>
</mgrwt>
</event>
<event>
 6    1  0.1719556E-004  0.2866886E+04  0.7818608E-02  0.8282798E-01
          1   -1    0    0  501    0  0.00000000000E+00  0.00000000000E+00  0.15207706240E+04  0.15207706240E+04  0.00000000000E+00 0.  1.
         -1   -1    0    0    0  501 -0.00000000000E+00 -0.00000000000E+00 -0.13511304121E+04  0.13511304121E+04  0.00000000000E+00 0. -1.
         23    2    1    2    0    0 -0.13301892956E+04  0.51476762952E+03 -0.43260323613E+02  0.14297790189E+04  0.89483588986E+02 0.  0.
         13    1    3    3    0    0 -0.52271324822E+03  0.23399741746E+03 -0.49764958845E+02  0.57485692340E+03  0.00000000000E+00 0.  1.
        -13    1    3    3    0    0 -0.80747604739E+03  0.28077021206E+03  0.65046352320E+01  0.85492209550E+03  0.00000000000E+00 0. -1.
         22    1    1    2    0    0  0.13301892956E+04 -0.51476762952E+03  0.21290053552E+03  0.14421220172E+04  0.00000000000E+00 0.  1.
<mgrwt>
<rscale>  0 0.28668864E+04</rscale>
<asrwt>0</asrwt>
<pdfrwt beam="1">  1        1 0.23396471E+00 0.28668864E+04</pdfrwt>
<pdfrwt beam="2">  1       -1 0.20786622E+00 0.28668864E+04</pdfrwt>
<totfact> 0.72414101E-01</totfact>
</mgrwt>
</event>
<event>
 6    1  0.1719556E-004  0.2911598E+04  0.7818608E-02  0.8269435E-01
         -2   -1    0    0    0  501 -0.00000000000E+00  0.00000000000E+00  0.46683170688E+03  0.46683170688E+03  0.00000000000E+00 0. -1.
          2   -1    0    0  501    0  0.00000000000E+00 -0.00000000000E+00 -0.45398614424E+04  0.45398614424E+04  0.00000000000E+00 0.  1.
         23    2    1    2    0    0 -0.90645302377E+03  0.29345798863E+03 -0.39278845102E+04  0.40429287528E+04  0.96028638337E+02 0.  0.
         11    1    3    3    0    0 -0.78339804822E+02  0.39729812972E+02 -0.27114033034E+03  0.28501344142E+03  0.00000000000E+00 0. -1.
        -11    1    3    3    0    0 -0.82811321895E+03  0.25372817566E+03 -0.36567441799E+04  0.37579153114E+04  0.00000000000E+00 0.  1.
         22    1    1    2    0    0  0.90645302377E+03 -0.29345798863E+03 -0.14514522527E+03  0.96376439642E+03  0.00000000000E+00 0. -1.
<mgrwt>
<rscale>  0 0.29115984E+04</rscale>
<asrwt>0</asrwt>
<pdfrwt beam="1">  1        2 0.69844021E+00 0.29115984E+04</pdfrwt>
<pdfrwt beam="2">  1       -2 0.71820264E-01 0.29115984E+04</pdfrwt>
<totfact> 0.17034283E-01</totfact>
</mgrwt>
</event>
<event>
 6    1  0.1719556E-004  0.1180420E+04  0.7818608E-02  0.9130169E-01
          2   -1    0    0  501    0  0.00000000000E+00  0.00000000000E+00  0.88940471844E+03  0.88940471844E+03  0.00000000000E+00 0.  1.
         -2   -1    0    0    0  501 -0.00000000000E+00 -0.00000000000E+00 -0.39166433774E+03  0.39166433774E+03  0.00000000000E+00 0. -1.
         23    2    1    2    0    0  0.45543595099E+03 -0.36764317278E+03  0.20814400580E+03  0.62803807046E+03  0.92328125970E+02 0.  0.
         13    1    3    3    0    0  0.40108534883E+03 -0.32675673309E+03  0.15023330602E+03  0.53871092982E+03  0.00000000000E+00 0.  1.
        -13    1    3    3    0    0  0.54350602167E+02 -0.40886439688E+02  0.57910699784E+02  0.89327140645E+02  0.00000000000E+00 0. -1.
         22    1    1    2    0    0 -0.45543595099E+03  0.36764317278E+03  0.28959637490E+03  0.65303098572E+03  0.00000000000E+00 0.  1.
<mgrwt>
<rscale>  0 0.11804205E+04</rscale>
<asrwt>0</asrwt>
<pdfrwt beam="1">  1        2 0.13683149E+00 0.11804205E+04</pdfrwt>
<pdfrwt beam="2">  1       -2 0.60256052E-01 0.11804205E+04</pdfrwt>
<totfact> 0.75615880E+01</totfact>
</mgrwt>
</event>
<event>
 6    1  0.1719556E-004  0.1717987E+04  0.7818608E-02  0.8751172E-01
          1   -1    0    0  501    0  0.00000000000E+00  0.00000000000E+00  0.85812408066E+03  0.85812408066E+03  0.00000000000E+00 0.  1.
         -1   -1    0    0    0  501 -0.00000000000E+00 -0.00000000000E+00 -0.85986386560E+03  0.85986386560E+03  0.00000000000E+00 0. -1.
         23    2    1    2    0    0 -0.23729565559E+03  0.81505497742E+03 -0.11614519374E+03  0.86141778454E+03  0.89033977360E+02 0.  0.
         13    1    3    3    0    0 -0.13487043811E+03  0.46018140958E+03 -0.20984953967E+02  0.47999722196E+03  0.00000000000E+00 0.  1.
        -13    1    3    3    0    0 -0.10242521748E+03  0.35487356784E+03 -0.95160239778E+02  0.38142056258E+03  0.00000000000E+00 0. -1.
         22    1    1    2    0    0  0.23729565559E+03 -0.81505497742E+03  0.11440540881E+03  0.85657016171E+03  0.00000000000E+00 0.  1.
<mgrwt>
<rscale>  0 0.17179871E+04</rscale>
<asrwt>0</asrwt>
<pdfrwt beam="1">  1        1 0.13201909E+00 0.17179871E+04</pdfrwt>
<pdfrwt beam="2">  1       -1 0.13228675E+00 0.17179871E+04</pdfrwt>
<totfact> 0.90902347E+00</totfact>
</mgrwt>
</event>
<event>
 6    1  0.1719556E-004  0.1339530E+04  0.7818608E-02  0.8998792E-01
         -2   -1    0    0    0  501 -0.00000000000E+00  0.00000000000E+00  0.54121625013E+03  0.54121625013E+03  0.00000000000E+00 0. -1.
          2   -1    0    0  501    0  0.00000000000E+00 -0.00000000000E+00 -0.82884646611E+03  0.82884646611E+03  0.00000000000E+00 0.  1.
         23    2    1    2    0    0 -0.37960185816E+03  0.12944716813E+03 -0.68936322767E+03  0.80239771579E+03  0.88126582721E+02 0.  0.
         13    1    3    3    0    0 -0.24275607553E+03  0.44681769646E+02 -0.46222552964E+03  0.52400325666E+03  0.00000000000E+00 0. -1.
        -13    1    3    3    0    0 -0.13684578263E+03  0.84765398480E+02 -0.22713769803E+03  0.27839445912E+03  0.00000000000E+00 0.  1.
         22    1    1    2    0    0  0.37960185816E+03 -0.12944716813E+03  0.40173301169E+03  0.56766500045E+03  0.00000000000E+00 0. -1.
<mgrwt>
<rscale>  0 0.13395300E+04</rscale>
<asrwt>0</asrwt>
<pdfrwt beam="1">  1        2 0.12751484E+00 0.13395300E+04</pdfrwt>
<pdfrwt beam="2">  1       -2 0.83264039E-01 0.13395300E+04</pdfrwt>
<totfact> 0.40559348E+01</totfact>
</mgrwt>
</event>
<event>
 6    1  0.1719556E-004  0.2589702E+04  0.7818608E-02  0.8371708E-01
          1   -1    0    0  501    0  0.00000000000E+00  0.00000000000E+00  0.19443184533E+04  0.19443184533E+04  0.00000000000E+00 0.  1.
         -1   -1    0    0    0  501 -0.00000000000E+00 -0.00000000000E+00 -0.86232747795E+03  0.86232747795E+03  0.00000000000E+00 0. -1.
         23    2    1    2    0    0 -0.10094249333E+04 -0.45310405522E+03  0.12672611478E+04  0.16847871979E+04  0.91187195304E+02 0.  0.
         13    1    3    3    0    0 -0.72749634656E+03 -0.36980727445E+03  0.91993867245E+03  0.12297542501E+04  0.00000000000E+00 0. -1.
        -13    1    3    3    0    0 -0.28192858678E+03 -0.83296780767E+02  0.34732247532E+03  0.45503294781E+03  0.00000000000E+00 0.  1.
         22    1    1    2    0    0  0.10094249333E+04  0.45310405522E+03 -0.18527017239E+03  0.11218587334E+04  0.00000000000E+00 0. -1.
<mgrwt>
<rscale>  0 0.25897021E+04</rscale>
<asrwt>0</asrwt>
<pdfrwt beam="1">  1        1 0.29912591E+00 0.25897021E+04</pdfrwt>
<pdfrwt beam="2">  1       -1 0.13266577E+00 0.25897021E+04</pdfrwt>
<totfact> 0.13801750E+00</totfact>
</mgrwt>
</event>
<event>
 6    1  0.1719556E-004  0.2197155E+04  0.7818608E-02  0.8519613E-01
          2   -1    0    0  501    0  0.00000000000E+00  0.00000000000E+00  0.28100455023E+04  0.28100455023E+04  0.00000000000E+00 0.  1.
         -2   -1    0    0    0  501 -0.00000000000E+00 -0.00000000000E+00 -0.42948514909E+03  0.42948514909E+03  0.00000000000E+00 0. -1.
         23    2    1    2    0    0  0.10694400448E+04  0.59058491753E+02  0.84449076491E+03  0.13669122453E+04  0.89969547288E+02 0.  0.
         11    1    3    3    0    0  0.77319645972E+02 -0.27090366580E+01  0.91786468444E+02  0.12004341849E+03  0.00000000000E+00 0. -1.
        -11    1    3    3    0    0  0.99212039880E+03  0.61767528411E+02  0.75270429646E+03  0.12468688268E+04  0.00000000000E+00 0.  1.
         22    1    1    2    0    0 -0.10694400448E+04 -0.59058491753E+02  0.15360695883E+04  0.18726184061E+04  0.00000000000E+00 0. -1.
<mgrwt>
<rscale>  0 0.21971553E+04</rscale>
<asrwt>0</asrwt>
<pdfrwt beam="1">  1        2 0.43231468E+00 0.21971553E+04</pdfrwt>
<pdfrwt beam="2">  1       -2 0.66074640E-01 0.21971553E+04</pdfrwt>
<totfact> 0.43961415E+00</totfact>
</mgrwt>
</event>
<event>
 6    1  0.1719556E-004  0.1235159E+04  0.7818608E-02  0.9082626E-01
          1   -1    0    0  501    0  0.00000000000E+00  0.00000000000E+00  0.49693913284E+03  0.49693913284E+03  0.00000000000E+00 0.  1.
         -1   -1    0    0    0  501 -0.00000000000E+00 -0.00000000000E+00 -0.76750796472E+03  0.76750796472E+03  0.00000000000E+00 0. -1.
         23    2    1    2    0    0 -0.22544698540E+03  0.52181844096E+03  0.10132322622E+03  0.58516473254E+03  0.95029150696E+02 0.  0.
         11    1    3    3    0    0 -0.20131529861E+03  0.42462335871E+03  0.49850766794E+02  0.47256528139E+03  0.00000000000E+00 0. -1.
        -11    1    3    3    0    0 -0.24131686785E+02  0.97195082249E+02  0.51472459429E+02  0.11259945115E+03  0.00000000000E+00 0.  1.
         22    1    1    2    0    0  0.22544698540E+03 -0.52181844096E+03 -0.37189205809E+03  0.67928236502E+03  0.00000000000E+00 0. -1.
<mgrwt>
<rscale>  0 0.12351595E+04</rscale>
<asrwt>0</asrwt>
<pdfrwt beam="1">  1        1 0.76452175E-01 0.12351595E+04</pdfrwt>
<pdfrwt beam="2">  1       -1 0.11807815E+00 0.12351595E+04</pdfrwt>
<totfact> 0.28431060E+01</totfact>
</mgrwt>
</event>
<event>
 6    1  0.1719556E-004  0.1119528E+04  0.7818608E-02  0.9186365E-01
          1   -1    0    0  501    0  0.00000000000E+00  0.00000000000E+00  0.12284579742E+04  0.12284579742E+04  0.00000000000E+00 0.  1.
         -1   -1    0    0    0  501 -0.00000000000E+00 -0.00000000000E+00 -0.25506438943E+03  0.25506438943E+03  0.00000000000E+00 0. -1.
         23    2    1    2    0    0  0.51753720614E+03  0.12731006961E+03  0.69990573155E+03  0.88448294970E+03  0.91593895461E+02 0.  0.
         13    1    3    3    0    0  0.70753108145E+02  0.40015952279E+02  0.14989730370E+03  0.17051827001E+03  0.00000000000E+00 0. -1.
        -13    1    3    3    0    0  0.44678409799E+03  0.87294117326E+02  0.55000842785E+03  0.71396467969E+03  0.00000000000E+00 0.  1.
         22    1    1    2    0    0 -0.51753720614E+03 -0.12731006961E+03  0.27348785320E+03  0.59903941390E+03  0.00000000000E+00 0.  1.
<mgrwt>
<rscale>  0 0.11195283E+04</rscale>
<asrwt>0</asrwt>
<pdfrwt beam="1">  1        1 0.18899353E+00 0.11195283E+04</pdfrwt>
<pdfrwt beam="2">  1       -1 0.39240676E-01 0.11195283E+04</pdfrwt>
<totfact> 0.63912140E+01</totfact>
</mgrwt>
</event>
<event>
 6    1  0.1719556E-004  0.3136113E+04  0.7818608E-02  0.8205896E-01
          1   -1    0    0  501    0  0.00000000000E+00  0.00000000000E+00  0.23502655115E+04  0.23502655115E+04  0.00000000000E+00 0.  1.
         -1   -1    0    0    0  501 -0.00000000000E+00 -0.00000000000E+00 -0.10461799916E+04  0.10461799916E+04  0.00000000000E+00 0. -1.
         23    2    1    2    0    0  0.61992962111E+03  0.14308211309E+04  0.81660294106E+03  0.17626765145E+04  0.92877810392E+02 0.  0.
         11    1    3    3    0    0  0.41578305362E+03  0.85188421565E+03  0.47877512504E+03  0.10619829965E+04  0.00000000000E+00 0. -1.
        -11    1    3    3    0    0  0.20414656749E+03  0.57893691520E+03  0.33782781602E+03  0.70069351794E+03  0.00000000000E+00 0.  1.
         22    1    1    2    0    0 -0.61992962111E+03 -0.14308211309E+04  0.48748257877E+03  0.16337689886E+04  0.00000000000E+00 0.  1.
<mgrwt>
<rscale>  0 0.31361127E+04</rscale>
<asrwt>0</asrwt>
<pdfrwt beam="1">  1        1 0.36157931E+00 0.31361127E+04</pdfrwt>
<pdfrwt beam="2">  1       -1 0.16095077E+00 0.31361127E+04</pdfrwt>
<totfact> 0.41556520E-01</totfact>
</mgrwt>
</event>
<event>
 6    1  0.1719556E-004  0.1596483E+04  0.7818608E-02  0.8822712E-01
          1   -1    0    0  501    0  0.00000000000E+00  0.00000000000E+00  0.98475633787E+03  0.98475633787E+03  0.00000000000E+00 0.  1.
         -1   -1    0    0    0  501 -0.00000000000E+00 -0.00000000000E+00 -0.64705259636E+03  0.64705259636E+03  0.00000000000E+00 0. -1.
         23    2    1    2    0    0 -0.53700564328E+03 -0.57980245678E+03  0.75042369119E+02  0.79902027776E+03  0.90863068968E+02 0.  0.
         13    1    3    3    0    0 -0.17226684551E+03 -0.24620871856E+03  0.12004889147E+02  0.30073030529E+03  0.00000000000E+00 0. -1.
        -13    1    3    3    0    0 -0.36473879778E+03 -0.33359373821E+03  0.63037479971E+02  0.49828997246E+03  0.00000000000E+00 0.  1.
         22    1    1    2    0    0  0.53700564328E+03  0.57980245678E+03  0.26266137240E+03  0.83278865647E+03  0.00000000000E+00 0. -1.
<mgrwt>
<rscale>  0 0.15964826E+04</rscale>
<asrwt>0</asrwt>
<pdfrwt beam="1">  1        1 0.15150098E+00 0.15964826E+04</pdfrwt>
<pdfrwt beam="2">  1       -1 0.99546553E-01 0.15964826E+04</pdfrwt>
<totfact> 0.14381260E+01</totfact>
</mgrwt>
</event>
<event>
 6    1  0.1719556E-004  0.3620566E+04  0.7818608E-02  0.8085797E-01
          2   -1    0    0  501    0  0.00000000000E+00  0.00000000000E+00  0.37584625101E+04  0.37584625101E+04  0.00000000000E+00 0.  1.
         -2   -1    0    0    0  501 -0.00000000000E+00 -0.00000000000E+00 -0.87193238976E+03  0.87193238976E+03  0.00000000000E+00 0. -1.
         23    2    1    2    0    0 -0.15222945091E+04 -0.97662773410E+03  0.13743185757E+04  0.22728610063E+04  0.77222424175E+02 0.  0.
         13    1    3    3    0    0 -0.77363952200E+03 -0.45602935632E+03  0.70507124749E+03  0.11417558180E+04  0.00000000000E+00 0.  1.
        -13    1    3    3    0    0 -0.74865498715E+03 -0.52059837778E+03  0.66924732819E+03  0.11311051883E+04  0.00000000000E+00 0. -1.
         22    1    1    2    0    0  0.15222945091E+04  0.97662773410E+03  0.15122115446E+04  0.23575338936E+04  0.00000000000E+00 0.  1.
<mgrwt>
<rscale>  0 0.36205664E+04</rscale>
<asrwt>0</asrwt>
<pdfrwt beam="1">  1        2 0.57822499E+00 0.36205664E+04</pdfrwt>
<pdfrwt beam="2">  1       -2 0.13414345E+00 0.36205664E+04</pdfrwt>
<totfact> 0.17186109E-01</totfact>
</mgrwt>
</event>
<event>
 6    1  0.1719556E-004  0.1325828E+04  0.7818608E-02  0.9009330E-01
          1   -1    0    0  501    0  0.00000000000E+00  0.00000000000E+00  0.13912446929E+04  0.13912446929E+04  0.00000000000E+00 0.  1.
         -1   -1    0    0    0  501 -0.00000000000E+00 -0.00000000000E+00 -0.31587184492E+03  0.31587184492E+03  0.00000000000E+00 0. -1.
         23    2    1    2    0    0  0.59617118549E+03 -0.11808784885E+03  0.87028029809E+03  0.10656901769E+04  0.94567084329E+02 0.  0.
         13    1    3    3    0    0  0.28143651989E+03 -0.61614646625E+02  0.33179840636E+03  0.43942355635E+03  0.00000000000E+00 0.  1.
        -13    1    3    3    0    0  0.31473466560E+03 -0.56473202230E+02  0.53848189173E+03  0.62626662056E+03  0.00000000000E+00 0. -1.
         22    1    1    2    0    0 -0.59617118549E+03  0.11808784885E+03  0.20509254989E+03  0.64142636092E+03  0.00000000000E+00 0. -1.
<mgrwt>
<rscale>  0 0.13258281E+04</rscale>
<asrwt>0</asrwt>
<pdfrwt beam="1">  1        1 0.21403764E+00 0.13258281E+04</pdfrwt>
<pdfrwt beam="2">  1       -1 0.48595669E-01 0.13258281E+04</pdfrwt>
<totfact> 0.32374501E+01</totfact>
</mgrwt>
</event>
<event>
 6    1  0.1719556E-004  0.2765638E+04  0.7818608E-02  0.8314017E-01
         -2   -1    0    0    0  501 -0.00000000000E+00  0.00000000000E+00  0.11034029927E+04  0.11034029927E+04  0.00000000000E+00 0. -1.
          2   -1    0    0  501    0  0.00000000000E+00 -0.00000000000E+00 -0.17329912507E+04  0.17329912507E+04  0.00000000000E+00 0.  1.
         23    2    1    2    0    0  0.68121583710E+03  0.10354696090E+03  0.91273378484E+03  0.11471535046E+04  0.90006729540E+02 0.  0.
         11    1    3    3    0    0  0.53507239675E+03  0.84838191190E+02  0.65234134108E+03  0.84796769616E+03  0.00000000000E+00 0. -1.
        -11    1    3    3    0    0  0.14614344035E+03  0.18708769711E+02  0.26039244375E+03  0.29918580846E+03  0.00000000000E+00 0.  1.
         22    1    1    2    0    0 -0.68121583710E+03 -0.10354696090E+03 -0.15423220429E+04  0.16892407388E+04  0.00000000000E+00 0.  1.
<mgrwt>
<rscale>  0 0.27656375E+04</rscale>
<asrwt>0</asrwt>
<pdfrwt beam="1">  1        2 0.26661404E+00 0.27656375E+04</pdfrwt>
<pdfrwt beam="2">  1       -2 0.16975431E+00 0.27656375E+04</pdfrwt>
<totfact> 0.17557528E+00</totfact>
</mgrwt>
</event>
<event>
 6    1  0.1719556E-004  0.1631930E+04  0.7818608E-02  0.8801169E-01
          2   -1    0    0  501    0  0.00000000000E+00  0.00000000000E+00  0.81112675168E+03  0.81112675168E+03  0.00000000000E+00 0.  1.
         -2   -1    0    0    0  501 -0.00000000000E+00 -0.00000000000E+00 -0.82083161297E+03  0.82083161297E+03  0.00000000000E+00 0. -1.
         23    2    1    2    0    0  0.56395066356E+03  0.58325535722E+03  0.53938424714E+02  0.81815394680E+03  0.90770944434E+02 0.  0.
         13    1    3    3    0    0  0.19078919895E+03  0.24489170260E+03  0.49821329181E+02  0.31441156034E+03  0.00000000000E+00 0.  1.
        -13    1    3    3    0    0  0.37316146461E+03  0.33836365462E+03  0.41170955328E+01  0.50374238646E+03  0.00000000000E+00 0. -1.
         22    1    1    2    0    0 -0.56395066356E+03 -0.58325535722E+03 -0.63643286012E+02  0.81380441785E+03  0.00000000000E+00 0. -1.
<mgrwt>
<rscale>  0 0.16319295E+04</rscale>
<asrwt>0</asrwt>
<pdfrwt beam="1">  1        2 0.12478873E+00 0.16319295E+04</pdfrwt>
<pdfrwt beam="2">  1       -2 0.12628179E+00 0.16319295E+04</pdfrwt>
<totfact> 0.15115314E+01</totfact>
</mgrwt>
</event>
<event>
 6    1  0.1719556E-004  0.2768504E+04  0.7818608E-02  0.8313114E-01
         -3   -1    0    0    0  501 -0.00000000000E+00  0.00000000000E+00  0.19144316410E+04  0.19144316410E+04  0.00000000000E+00 0. -1.
          3   -1    0    0  501    0  0.00000000000E+00 -0.00000000000E+00 -0.10008996431E+04  0.10008996431E+04  0.00000000000E+00 0.  1.
         23    2    1    2    0    0 -0.11006481036E+04  0.78357487389E+03  0.76672908821E+03  0.15562996710E+04  0.93698134303E+02 0.  0.
         11    1    3    3    0    0 -0.46029862599E+03  0.34736572513E+03  0.27742246064E+03  0.63992264670E+03  0.00000000000E+00 0.  1.
        -11    1    3    3    0    0 -0.64034947763E+03  0.43620914876E+03  0.48930662757E+03  0.91637702434E+03  0.00000000000E+00 0. -1.
         22    1    1    2    0    0  0.11006481036E+04 -0.78357487389E+03  0.14680290977E+03  0.13590316131E+04  0.00000000000E+00 0. -1.
<mgrwt>
<rscale>  0 0.27685043E+04</rscale>
<asrwt>0</asrwt>
<pdfrwt beam="1">  1        3 0.15398456E+00 0.27685043E+04</pdfrwt>
<pdfrwt beam="2">  1       -3 0.29452794E+00 0.27685043E+04</pdfrwt>
<totfact> 0.27944691E-02</totfact>
</mgrwt>
</event>
<event>
 6    1  0.1719556E-004  0.2312590E+04  0.7818608E-02  0.8472973E-01
          2   -1    0    0  501    0  0.00000000000E+00  0.00000000000E+00  0.31888664648E+04  0.31888664648E+04  0.00000000000E+00 0.  1.
         -2   -1    0    0    0  501 -0.00000000000E+00 -0.00000000000E+00 -0.41927698653E+03  0.41927698653E+03  0.00000000000E+00 0. -1.
         23    2    1    2    0    0  0.75157120344E+03 -0.86234302378E+03  0.11430281525E+04  0.16196272933E+04  0.90467934377E+02 0.  0.
         13    1    3    3    0    0  0.76413984021E+02 -0.13426079918E+03  0.15839453297E+03  0.22125525356E+03  0.00000000000E+00 0. -1.
        -13    1    3    3    0    0  0.67515721942E+03 -0.72808222460E+03  0.98463361955E+03  0.13983720397E+04  0.00000000000E+00 0.  1.
         22    1    1    2    0    0 -0.75157120344E+03  0.86234302378E+03  0.16265613258E+04  0.19885161581E+04  0.00000000000E+00 0.  1.
<mgrwt>
<rscale>  0 0.23125902E+04</rscale>
<asrwt>0</asrwt>
<pdfrwt beam="1">  1        2 0.49059483E+00 0.23125902E+04</pdfrwt>
<pdfrwt beam="2">  1       -2 0.64504154E-01 0.23125902E+04</pdfrwt>
<totfact> 0.26540647E+00</totfact>
</mgrwt>
</event>
<event>
 6    1  0.1719556E-004  0.1270102E+04  0.7818608E-02  0.9053617E-01
         -3   -1    0    0    0  501 -0.00000000000E+00  0.00000000000E+00  0.12781750535E+04  0.12781750535E+04  0.00000000000E+00 0. -1.
          3   -1    0    0  501    0  0.00000000000E+00 -0.00000000000E+00 -0.31551988760E+03  0.31551988760E+03  0.00000000000E+00 0.  1.
         23    2    1    2    0    0 -0.12882273175E+03 -0.49968031351E+03  0.94130360824E+03  0.10772342931E+04  0.90030702577E+02 0.  0.
         13    1    3    3    0    0 -0.10806990780E+03 -0.47770421749E+03  0.84942828749E+03  0.98051457917E+03  0.00000000000E+00 0.  1.
        -13    1    3    3    0    0 -0.20752823953E+02 -0.21976096016E+02  0.91875320741E+02  0.96719713913E+02  0.00000000000E+00 0. -1.
         22    1    1    2    0    0  0.12882273175E+03  0.49968031351E+03  0.21351557650E+02  0.51646064800E+03  0.00000000000E+00 0.  1.
<mgrwt>
<rscale>  0 0.12701018E+04</rscale>
<asrwt>0</asrwt>
<pdfrwt beam="1">  1        3 0.48541522E-01 0.12701018E+04</pdfrwt>
<pdfrwt beam="2">  1       -3 0.19664231E+00 0.12701018E+04</pdfrwt>
<totfact> 0.16700853E+00</totfact>
</mgrwt>
</event>
<event>
 6    1  0.1719556E-004  0.3147297E+04  0.7818608E-02  0.8202876E-01
         -2   -1    0    0    0  501 -0.00000000000E+00  0.00000000000E+00  0.92737624943E+03  0.92737624943E+03  0.00000000000E+00 0. -1.
          2   -1    0    0  501    0  0.00000000000E+00 -0.00000000000E+00 -0.26702959510E+04  0.26702959510E+04  0.00000000000E+00 0.  1.
         23    2    1    2    0    0 -0.48509527694E+03  0.69015673585E+03 -0.23889365429E+04  0.25351414917E+04  0.91053991045E+02 0.  0.
         13    1    3    3    0    0 -0.38185213541E+03  0.54861236285E+03 -0.19951322850E+04  0.21041243814E+04  0.00000000000E+00 0.  1.
        -13    1    3    3    0    0 -0.10324314153E+03  0.14154437299E+03 -0.39380425794E+03  0.43101711030E+03  0.00000000000E+00 0. -1.
         22    1    1    2    0    0  0.48509527694E+03 -0.69015673585E+03  0.64601684131E+03  0.10625307087E+04  0.00000000000E+00 0. -1.
<mgrwt>
<rscale>  0 0.31472966E+04</rscale>
<asrwt>0</asrwt>
<pdfrwt beam="1">  1        2 0.41081476E+00 0.31472966E+04</pdfrwt>
<pdfrwt beam="2">  1       -2 0.14267327E+00 0.31472966E+04</pdfrwt>
<totfact> 0.79938605E-01</totfact>
</mgrwt>
</event>
<event>
 6    1  0.1719556E-004  0.2329301E+04  0.7818608E-02  0.8466457E-01
          2   -1    0    0  501    0  0.00000000000E+00  0.00000000000E+00  0.23317310269E+04  0.23317310269E+04  0.00000000000E+00 0.  1.
         -2   -1    0    0    0  501 -0.00000000000E+00 -0.00000000000E+00 -0.58171827599E+03  0.58171827599E+03  0.00000000000E+00 0. -1.
         23    2    1    2    0    0  0.19178408317E+02  0.10985609810E+04  0.40001364826E+03  0.11728454946E+04  0.91387062588E+02 0.  0.
         11    1    3    3    0    0 -0.18812146843E+02  0.87426342326E+03  0.33250561437E+03  0.93554818887E+03  0.00000000000E+00 0.  1.
        -11    1    3    3    0    0  0.37990555160E+02  0.22429755770E+03  0.67508033894E+02  0.23729730574E+03  0.00000000000E+00 0. -1.
         22    1    1    2    0    0 -0.19178408317E+02 -0.10985609810E+04  0.13499991026E+04  0.17406038083E+04  0.00000000000E+00 0.  1.
<mgrwt>
<rscale>  0 0.23293008E+04</rscale>
<asrwt>0</asrwt>
<pdfrwt beam="1">  1        2 0.35872785E+00 0.23293008E+04</pdfrwt>
<pdfrwt beam="2">  1       -2 0.89495121E-01 0.23293008E+04</pdfrwt>
<totfact> 0.42108016E+00</totfact>
</mgrwt>
</event>
<event>
 6    1  0.1719556E-004  0.2347640E+04  0.7818608E-02  0.8459371E-01
         -2   -1    0    0    0  501 -0.00000000000E+00  0.00000000000E+00  0.72379737694E+03  0.72379737694E+03  0.00000000000E+00 0. -1.
          2   -1    0    0  501    0  0.00000000000E+00 -0.00000000000E+00 -0.19036453692E+04  0.19036453692E+04  0.00000000000E+00 0.  1.
         23    2    1    2    0    0  0.10950192440E+04 -0.36297839454E+03 -0.35906848062E+03  0.12116392759E+04  0.91209108063E+02 0.  0.
         13    1    3    3    0    0  0.77702387618E+03 -0.30060005065E+03 -0.26116349580E+03  0.87311675401E+03  0.00000000000E+00 0. -1.
        -13    1    3    3    0    0  0.31799536784E+03 -0.62378343891E+02 -0.97904984821E+02  0.33852252186E+03  0.00000000000E+00 0.  1.
         22    1    1    2    0    0 -0.10950192440E+04  0.36297839454E+03 -0.82077951161E+03  0.14158034702E+04  0.00000000000E+00 0. -1.
<mgrwt>
<rscale>  0 0.23476401E+04</rscale>
<asrwt>0</asrwt>
<pdfrwt beam="1">  1        2 0.29286852E+00 0.23476401E+04</pdfrwt>
<pdfrwt beam="2">  1       -2 0.11135344E+00 0.23476401E+04</pdfrwt>
<totfact> 0.43535271E+00</totfact>
</mgrwt>
</event>
<event>
 6    1  0.1719556E-004  0.4052555E+04  0.7818608E-02  0.7994028E-01
         -2   -1    0    0    0  501 -0.00000000000E+00  0.00000000000E+00  0.13039742436E+04  0.13039742436E+04  0.00000000000E+00 0. -1.
          2   -1    0    0  501    0  0.00000000000E+00 -0.00000000000E+00 -0.31486815984E+04  0.31486815984E+04  0.00000000000E+00 0.  1.
         23    2    1    2    0    0  0.18263086422E+04 -0.81050949316E+03 -0.55961595489E+03  0.20769898719E+04  0.91586112501E+02 0.  0.
         13    1    3    3    0    0  0.14249123839E+04 -0.60150152628E+03 -0.45972419547E+03  0.16135444598E+04  0.00000000000E+00 0.  1.
        -13    1    3    3    0    0  0.40139625834E+03 -0.20900796688E+03 -0.99891759420E+02  0.46344541213E+03  0.00000000000E+00 0. -1.
         22    1    1    2    0    0 -0.18263086422E+04  0.81050949316E+03 -0.12850913999E+04  0.23756659700E+04  0.00000000000E+00 0. -1.
<mgrwt>
<rscale>  0 0.40525546E+04</rscale>
<asrwt>0</asrwt>
<pdfrwt beam="1">  1        2 0.48441255E+00 0.40525546E+04</pdfrwt>
<pdfrwt beam="2">  1       -2 0.20061142E+00 0.40525546E+04</pdfrwt>
<totfact> 0.14481650E-01</totfact>
</mgrwt>
</event>
<event>
 6    1  0.1719556E-004  0.1914416E+04  0.7818608E-02  0.8647714E-01
          4   -1    0    0  501    0  0.00000000000E+00  0.00000000000E+00  0.62878857885E+03  0.62878857885E+03  0.00000000000E+00 0.  1.
         -4   -1    0    0    0  501 -0.00000000000E+00 -0.00000000000E+00 -0.14571619378E+04  0.14571619378E+04  0.00000000000E+00 0. -1.
         23    2    1    2    0    0  0.67111830426E+03  0.55566158708E+03  0.11176444311E+02  0.87599041409E+03  0.89859417959E+02 0.  0.
         13    1    3    3    0    0  0.10894149644E+03  0.71946621846E+02 -0.27218278776E+02  0.13336191638E+03  0.00000000000E+00 0. -1.
        -13    1    3    3    0    0  0.56217680782E+03  0.48371496524E+03  0.38394723087E+02  0.74262849770E+03  0.00000000000E+00 0.  1.
         22    1    1    2    0    0 -0.67111830426E+03 -0.55566158708E+03 -0.83954980328E+03  0.12099601026E+04  0.00000000000E+00 0. -1.
<mgrwt>
<rscale>  0 0.19144156E+04</rscale>
<asrwt>0</asrwt>
<pdfrwt beam="1">  1        4 0.96736705E-01 0.19144156E+04</pdfrwt>
<pdfrwt beam="2">  1       -4 0.22417876E+00 0.19144156E+04</pdfrwt>
<totfact> 0.15342124E-01</totfact>
</mgrwt>
</event>
<event>
 6    1  0.1719556E-004  0.5405848E+04  0.7818608E-02  0.7768779E-01
          2   -1    0    0  501    0  0.00000000000E+00  0.00000000000E+00  0.30488377599E+04  0.30488377599E+04  0.00000000000E+00 0.  1.
         -2   -1    0    0    0  501 -0.00000000000E+00 -0.00000000000E+00 -0.23962565417E+04  0.23962565417E+04  0.00000000000E+00 0. -1.
         23    2    1    2    0    0  0.40203029621E+03  0.14951833987E+04 -0.19043069907E+04  0.24559674948E+04  0.90495665086E+02 0.  0.
         13    1    3    3    0    0  0.13603329887E+03  0.36861605987E+03 -0.45650570154E+03  0.60231247167E+03  0.00000000000E+00 0. -1.
        -13    1    3    3    0    0  0.26599699734E+03  0.11265673389E+04 -0.14478012892E+04  0.18536550231E+04  0.00000000000E+00 0.  1.
         22    1    1    2    0    0 -0.40203029621E+03 -0.14951833987E+04  0.25568882089E+04  0.29891268069E+04  0.00000000000E+00 0.  1.
<mgrwt>
<rscale>  0 0.54058477E+04</rscale>
<asrwt>0</asrwt>
<pdfrwt beam="1">  1        2 0.46905196E+00 0.54058477E+04</pdfrwt>
<pdfrwt beam="2">  1       -2 0.36865485E+00 0.54058477E+04</pdfrwt>
<totfact> 0.13539023E-02</totfact>
</mgrwt>
</event>
<event>
 6    1  0.1719556E-004  0.7316663E+03  0.7818608E-02  0.9664560E-01
         -1   -1    0    0    0  501 -0.00000000000E+00  0.00000000000E+00  0.50163601791E+03  0.50163601791E+03  0.00000000000E+00 0. -1.
          1   -1    0    0  501    0  0.00000000000E+00 -0.00000000000E+00 -0.26679480717E+03  0.26679480717E+03  0.00000000000E+00 0.  1.
         23    2    1    2    0    0 -0.23098014616E+03 -0.12341753246E+03  0.37895327483E+03  0.46951277234E+03  0.90845713439E+02 0.  0.
         13    1    3    3    0    0 -0.16225699473E+03 -0.39444716249E+02  0.20380959924E+03  0.26347973493E+03  0.00000000000E+00 0. -1.
        -13    1    3    3    0    0 -0.68723151428E+02 -0.83972816207E+02  0.17514367559E+03  0.20603303741E+03  0.00000000000E+00 0.  1.
         22    1    1    2    0    0  0.23098014616E+03  0.12341753246E+03 -0.14411206409E+03  0.29891805273E+03  0.00000000000E+00 0.  1.
<mgrwt>
<rscale>  0 0.73166628E+03</rscale>
<asrwt>0</asrwt>
<pdfrwt beam="1">  1        1 0.41045355E-01 0.73166628E+03</pdfrwt>
<pdfrwt beam="2">  1       -1 0.77174772E-01 0.73166628E+03</pdfrwt>
<totfact> 0.17448282E+02</totfact>
</mgrwt>
</event>
<event>
 6    1  0.1719556E-004  0.9298512E+03  0.7818608E-02  0.9389016E-01
          2   -1    0    0  501    0  0.00000000000E+00  0.00000000000E+00  0.19440461750E+04  0.19440461750E+04  0.00000000000E+00 0.  1.
         -2   -1    0    0    0  501 -0.00000000000E+00 -0.00000000000E+00 -0.11118862286E+03  0.11118862286E+03  0.00000000000E+00 0. -1.
         23    2    1    2    0    0  0.12740083487E+03 -0.11068108675E+03  0.18721911207E+04  0.18819477375E+04  0.90257512853E+02 0.  0.
         11    1    3    3    0    0  0.84494941999E+02 -0.12047246035E+03  0.14784143745E+04  0.14857193785E+04  0.00000000000E+00 0. -1.
        -11    1    3    3    0    0  0.42905892874E+02  0.97913735985E+01  0.39377674611E+03  0.39622835892E+03  0.00000000000E+00 0.  1.
         22    1    1    2    0    0 -0.12740083487E+03  0.11068108675E+03 -0.39333568503E+02  0.17328706040E+03  0.00000000000E+00 0. -1.
<mgrwt>
<rscale>  0 0.92985121E+03</rscale>
<asrwt>0</asrwt>
<pdfrwt beam="1">  1        2 0.29908400E+00 0.92985121E+03</pdfrwt>
<pdfrwt beam="2">  1       -2 0.17105943E-01 0.92985121E+03</pdfrwt>
<totfact> 0.20265035E+02</totfact>
</mgrwt>
</event>
<event>
 6    1  0.1719556E-004  0.3098070E+04  0.7818608E-02  0.8216268E-01
          2   -1    0    0  501    0  0.00000000000E+00  0.00000000000E+00  0.17272175410E+04  0.17272175410E+04  0.00000000000E+00 0.  1.
         -2   -1    0    0    0  501 -0.00000000000E+00 -0.00000000000E+00 -0.13892342248E+04  0.13892342248E+04  0.00000000000E+00 0. -1.
         23    2    1    2    0    0  0.84508616666E+03  0.77010575485E+03  0.12185360887E+04  0.16733278322E+04  0.89231899019E+02 0.  0.
         11    1    3    3    0    0  0.55674760915E+03  0.56117972450E+03  0.85601752015E+03  0.11651852120E+04  0.00000000000E+00 0. -1.
        -11    1    3    3    0    0  0.28833855751E+03  0.20892603035E+03  0.36251856855E+03  0.50814262019E+03  0.00000000000E+00 0.  1.
         22    1    1    2    0    0 -0.84508616666E+03 -0.77010575485E+03 -0.88055277247E+03  0.14431239336E+04  0.00000000000E+00 0. -1.
<mgrwt>
<rscale>  0 0.30980702E+04</rscale>
<asrwt>0</asrwt>
<pdfrwt beam="1">  1        2 0.26572578E+00 0.30980702E+04</pdfrwt>
<pdfrwt beam="2">  1       -2 0.21372834E+00 0.30980702E+04</pdfrwt>
<totfact> 0.87155099E-01</totfact>
</mgrwt>
</event>
<event>
 6    1  0.1719556E-004  0.3039041E+04  0.7818608E-02  0.8232670E-01
         -2   -1    0    0    0  501 -0.00000000000E+00  0.00000000000E+00  0.54056438317E+03  0.54056438317E+03  0.00000000000E+00 0. -1.
          2   -1    0    0  501    0  0.00000000000E+00 -0.00000000000E+00 -0.42713541340E+04  0.42713541340E+04  0.00000000000E+00 0.  1.
         23    2    1    2    0    0  0.97219169566E+03 -0.96981327290E+03 -0.84210627197E+03  0.16134522100E+04  0.91600126219E+02 0.  0.
         13    1    3    3    0    0  0.73615842947E+03 -0.67906406091E+03 -0.59959088854E+03  0.11672902234E+04  0.00000000000E+00 0. -1.
        -13    1    3    3    0    0  0.23603326620E+03 -0.29074921199E+03 -0.24251538343E+03  0.44616198653E+03  0.00000000000E+00 0.  1.
         22    1    1    2    0    0 -0.97219169566E+03  0.96981327290E+03 -0.28886834789E+04  0.31984663072E+04  0.00000000000E+00 0. -1.
<mgrwt>
<rscale>  0 0.30390406E+04</rscale>
<asrwt>0</asrwt>
<pdfrwt beam="1">  1        2 0.65713143E+00 0.30390406E+04</pdfrwt>
<pdfrwt beam="2">  1       -2 0.83163748E-01 0.30390406E+04</pdfrwt>
<totfact> 0.21722131E-01</totfact>
</mgrwt>
</event>
<event>
 6    1  0.1719556E-004  0.3365740E+04  0.7818608E-02  0.8146366E-01
         -1   -1    0    0    0  501 -0.00000000000E+00  0.00000000000E+00  0.79135070529E+03  0.79135070529E+03  0.00000000000E+00 0. -1.
          1   -1    0    0  501    0  0.00000000000E+00 -0.00000000000E+00 -0.35787556463E+04  0.35787556463E+04  0.00000000000E+00 0.  1.
         23    2    1    2    0    0 -0.22068443052E+03  0.41038962580E+03 -0.34927348876E+04  0.35247593243E+04  0.87235520522E+02 0.  0.
         11    1    3    3    0    0 -0.15065863924E+03  0.34530139666E+03 -0.26576063006E+04  0.26841762850E+04  0.00000000000E+00 0. -1.
        -11    1    3    3    0    0 -0.70025791275E+02  0.65088229148E+02 -0.83512858706E+03  0.84058303929E+03  0.00000000000E+00 0.  1.
         22    1    1    2    0    0  0.22068443052E+03 -0.41038962580E+03  0.70532994666E+03  0.84534702726E+03  0.00000000000E+00 0. -1.
<mgrwt>
<rscale>  0 0.33657396E+04</rscale>
<asrwt>0</asrwt>
<pdfrwt beam="1">  1        1 0.55057780E+00 0.33657396E+04</pdfrwt>
<pdfrwt beam="2">  1       -1 0.12174626E+00 0.33657396E+04</pdfrwt>
<totfact> 0.10648161E-01</totfact>
</mgrwt>
</event>
<event>
 6    1  0.1719556E-004  0.8134105E+03  0.7818608E-02  0.9540806E-01
          2   -1    0    0  501    0  0.00000000000E+00  0.00000000000E+00  0.56983949482E+03  0.56983949482E+03  0.00000000000E+00 0.  1.
         -2   -1    0    0    0  501 -0.00000000000E+00 -0.00000000000E+00 -0.29027321299E+03  0.29027321299E+03  0.00000000000E+00 0. -1.
         23    2    1    2    0    0 -0.37651993532E+03 -0.76721324916E+02  0.18227155514E+02  0.39540681982E+03  0.91437960225E+02 0.  0.
         13    1    3    3    0    0 -0.22782951377E+03 -0.12364726776E+02  0.40919352188E+02  0.23180501978E+03  0.00000000000E+00 0.  1.
        -13    1    3    3    0    0 -0.14869042155E+03 -0.64356598140E+02 -0.22692196675E+02  0.16360180003E+03  0.00000000000E+00 0. -1.
         22    1    1    2    0    0  0.37651993532E+03  0.76721324916E+02  0.26133912632E+03  0.46470588799E+03  0.00000000000E+00 0.  1.
<mgrwt>
<rscale>  0 0.81341045E+03</rscale>
<asrwt>0</asrwt>
<pdfrwt beam="1">  1        2 0.87667614E-01 0.81341045E+03</pdfrwt>
<pdfrwt beam="2">  1       -2 0.44657418E-01 0.81341045E+03</pdfrwt>
<totfact> 0.25249955E+02</totfact>
</mgrwt>
</event>
<event>
 6    1  0.1719556E-004  0.3193200E+04  0.7818608E-02  0.8190615E-01
          1   -1    0    0  501    0  0.00000000000E+00  0.00000000000E+00  0.14507950504E+04  0.14507950504E+04  0.00000000000E+00 0. -1.
         -1   -1    0    0    0  501 -0.00000000000E+00 -0.00000000000E+00 -0.17570581293E+04  0.17570581293E+04  0.00000000000E+00 0.  1.
         23    2    1    2    0    0 -0.10879875683E+04 -0.34091608829E+03 -0.12740673571E+04  0.17123312478E+04  0.94286497156E+02 0.  0.
         11    1    3    3    0    0 -0.55138978678E+03 -0.18886482897E+03 -0.58427884345E+03  0.82527715798E+03  0.00000000000E+00 0.  1.
        -11    1    3    3    0    0 -0.53659778149E+03 -0.15205125931E+03 -0.68978851370E+03  0.88705408978E+03  0.00000000000E+00 0. -1.
         22    1    1    2    0    0  0.10879875683E+04  0.34091608829E+03  0.96780427828E+03  0.14955219320E+04  0.00000000000E+00 0. -1.
<mgrwt>
<rscale>  0 0.31931998E+04</rscale>
<asrwt>0</asrwt>
<pdfrwt beam="1">  1        1 0.22319924E+00 0.31931998E+04</pdfrwt>
<pdfrwt beam="2">  1       -1 0.27031663E+00 0.31931998E+04</pdfrwt>
<totfact> 0.30470897E-01</totfact>
</mgrwt>
</event>
<event>
 6    1  0.1719556E-004  0.2740709E+04  0.7818608E-02  0.8321916E-01
         -2   -1    0    0    0  501 -0.00000000000E+00  0.00000000000E+00  0.32735766662E+04  0.32735766662E+04  0.00000000000E+00 0. -1.
          2   -1    0    0  501    0  0.00000000000E+00 -0.00000000000E+00 -0.57364502101E+03  0.57364502101E+03  0.00000000000E+00 0.  1.
         23    2    1    2    0    0 -0.30419177359E+03 -0.11603357260E+04  0.22770819831E+04  0.25753280324E+04  0.91106995813E+02 0.  0.
         13    1    3    3    0    0 -0.16458825479E+03 -0.79409270710E+03  0.15208735265E+04  0.17235802286E+04  0.00000000000E+00 0.  1.
        -13    1    3    3    0    0 -0.13960351880E+03 -0.36624301894E+03  0.75620845662E+03  0.85174780378E+03  0.00000000000E+00 0. -1.
         22    1    1    2    0    0  0.30419177359E+03  0.11603357260E+04  0.42284966206E+03  0.12718936547E+04  0.00000000000E+00 0.  1.
<mgrwt>
<rscale>  0 0.27407086E+04</rscale>
<asrwt>0</asrwt>
<pdfrwt beam="1">  1        2 0.88253082E-01 0.27407086E+04</pdfrwt>
<pdfrwt beam="2">  1       -2 0.50362717E+00 0.27407086E+04</pdfrwt>
<totfact> 0.71423361E-02</totfact>
</mgrwt>
</event>
<event>
 6    1  0.1719556E-004  0.5957596E+04  0.7818608E-02  0.7695682E-01
          2   -1    0    0  501    0  0.00000000000E+00  0.00000000000E+00  0.20119383331E+04  0.20119383331E+04  0.00000000000E+00 0.  1.
         -2   -1    0    0    0  501 -0.00000000000E+00 -0.00000000000E+00 -0.44102928490E+04  0.44102928490E+04  0.00000000000E+00 0. -1.
         23    2    1    2    0    0 -0.29761704976E+04 -0.17096044100E+02 -0.10847749543E+04  0.31690213256E+04  0.89868542496E+02 0.  0.
         11    1    3    3    0    0 -0.20266702761E+03 -0.13666732619E+02 -0.94452874147E+02  0.22401350204E+03  0.00000000000E+00 0.  1.
        -11    1    3    3    0    0 -0.27735034700E+04 -0.34293114808E+01 -0.99032208015E+03  0.29450078235E+04  0.00000000000E+00 0. -1.
         22    1    1    2    0    0  0.29761704976E+04  0.17096044100E+02 -0.13135795616E+04  0.32532098565E+04  0.00000000000E+00 0.  1.
<mgrwt>
<rscale>  0 0.59575959E+04</rscale>
<asrwt>0</asrwt>
<pdfrwt beam="1">  1        2 0.30952898E+00 0.59575959E+04</pdfrwt>
<pdfrwt beam="2">  1       -2 0.67850659E+00 0.59575959E+04</pdfrwt>
<totfact> 0.12225596E-03</totfact>
</mgrwt>
</event>
<event>
 6    1  0.1719556E-004  0.4132396E+04  0.7818608E-02  0.7978358E-01
          2   -1    0    0  501    0  0.00000000000E+00  0.00000000000E+00  0.20168741415E+04  0.20168741415E+04  0.00000000000E+00 0.  1.
         -2   -1    0    0    0  501 -0.00000000000E+00 -0.00000000000E+00 -0.21167282495E+04  0.21167282495E+04  0.00000000000E+00 0. -1.
         23    2    1    2    0    0 -0.10096867138E+04  0.14335424256E+04 -0.11414279272E+04  0.20941448242E+04  0.89853689426E+02 0.  0.
         13    1    3    3    0    0 -0.35464351247E+03  0.50023896929E+03 -0.34855455479E+03  0.70533773825E+03  0.00000000000E+00 0.  1.
        -13    1    3    3    0    0 -0.65504320129E+03  0.93330345633E+03 -0.79287337245E+03  0.13888070859E+04  0.00000000000E+00 0. -1.
         22    1    1    2    0    0  0.10096867138E+04 -0.14335424256E+04  0.10415738192E+04  0.20394575668E+04  0.00000000000E+00 0.  1.
<mgrwt>
<rscale>  0 0.41323961E+04</rscale>
<asrwt>0</asrwt>
<pdfrwt beam="1">  1        2 0.31028833E+00 0.41323961E+04</pdfrwt>
<pdfrwt beam="2">  1       -2 0.32565050E+00 0.41323961E+04</pdfrwt>
<totfact> 0.11272587E-01</totfact>
</mgrwt>
</event>
<event>
 6    1  0.1719556E-004  0.3713946E+04  0.7818608E-02  0.8064878E-01
         -2   -1    0    0    0  501 -0.00000000000E+00  0.00000000000E+00  0.20170105422E+04  0.20170105422E+04  0.00000000000E+00 0. -1.
          2   -1    0    0  501    0  0.00000000000E+00 -0.00000000000E+00 -0.17096336098E+04  0.17096336098E+04  0.00000000000E+00 0.  1.
         23    2    1    2    0    0 -0.18272341034E+04  0.26188847142E+03  0.34644297173E+03  0.18803245167E+04  0.90705653178E+02 0.  0.
         13    1    3    3    0    0 -0.29034638132E+03  0.69733080159E+02  0.37342779468E+02  0.30092890654E+03  0.00000000000E+00 0. -1.
        -13    1    3    3    0    0 -0.15368877221E+04  0.19215539126E+03  0.30910019226E+03  0.15793956102E+04  0.00000000000E+00 0.  1.
         22    1    1    2    0    0  0.18272341034E+04 -0.26188847142E+03 -0.39066039362E+02  0.18463196352E+04  0.00000000000E+00 0.  1.
<mgrwt>
<rscale>  0 0.37139462E+04</rscale>
<asrwt>0</asrwt>
<pdfrwt beam="1">  1        2 0.26302056E+00 0.37139462E+04</pdfrwt>
<pdfrwt beam="2">  1       -2 0.31030931E+00 0.37139462E+04</pdfrwt>
<totfact> 0.21487631E-01</totfact>
</mgrwt>
</event>
<event>
 6    1  0.1719556E-004  0.1904906E+04  0.7818608E-02  0.8652418E-01
          2   -1    0    0  501    0  0.00000000000E+00  0.00000000000E+00  0.92699419177E+03  0.92699419177E+03  0.00000000000E+00 0.  1.
         -2   -1    0    0    0  501 -0.00000000000E+00 -0.00000000000E+00 -0.97861051815E+03  0.97861051815E+03  0.00000000000E+00 0. -1.
         23    2    1    2    0    0  0.38762485222E+03 -0.57802050884E+03 -0.67317349753E+03  0.97249482803E+03  0.90680196691E+02 0.  0.
         11    1    3    3    0    0  0.14573519490E+03 -0.14399429906E+03 -0.20364718969E+03  0.28886897213E+03  0.00000000000E+00 0. -1.
        -11    1    3    3    0    0  0.24188965732E+03 -0.43402620978E+03 -0.46952630784E+03  0.68362585589E+03  0.00000000000E+00 0.  1.
         22    1    1    2    0    0 -0.38762485222E+03  0.57802050884E+03  0.62155717114E+03  0.93310988189E+03  0.00000000000E+00 0.  1.
<mgrwt>
<rscale>  0 0.19049055E+04</rscale>
<asrwt>0</asrwt>
<pdfrwt beam="1">  1        2 0.14261449E+00 0.19049055E+04</pdfrwt>
<pdfrwt beam="2">  1       -2 0.15055546E+00 0.19049055E+04</pdfrwt>
<totfact> 0.78093754E+00</totfact>
</mgrwt>
</event>
<event>
 6    1  0.1719556E-004  0.2303930E+04  0.7818608E-02  0.8476373E-01
          2   -1    0    0  501    0  0.00000000000E+00  0.00000000000E+00  0.13274159102E+04  0.13274159102E+04  0.00000000000E+00 0.  1.
         -2   -1    0    0    0  501 -0.00000000000E+00 -0.00000000000E+00 -0.99970463096E+03  0.99970463096E+03  0.00000000000E+00 0. -1.
         23    2    1    2    0    0  0.20826236151E+03 -0.80903662990E+03 -0.63422175490E+03  0.10530606360E+04  0.93733606300E+02 0.  0.
         11    1    3    3    0    0  0.10013366160E+03 -0.52256515290E+03 -0.44023289811E+03  0.69058387890E+03  0.00000000000E+00 0. -1.
        -11    1    3    3    0    0  0.10812869991E+03 -0.28647147700E+03 -0.19398885679E+03  0.36247675710E+03  0.00000000000E+00 0.  1.
         22    1    1    2    0    0 -0.20826236151E+03  0.80903662990E+03  0.96193303411E+03  0.12740599051E+04  0.00000000000E+00 0.  1.
<mgrwt>
<rscale>  0 0.23039304E+04</rscale>
<asrwt>0</asrwt>
<pdfrwt beam="1">  1        2 0.20421783E+00 0.23039304E+04</pdfrwt>
<pdfrwt beam="2">  1       -2 0.15380071E+00 0.23039304E+04</pdfrwt>
<totfact> 0.40485914E+00</totfact>
</mgrwt>
</event>
<event>
 6    1  0.1719556E-004  0.1272458E+04  0.7818608E-02  0.9051696E-01
         -1   -1    0    0    0  501 -0.00000000000E+00  0.00000000000E+00  0.11121779902E+04  0.11121779902E+04  0.00000000000E+00 0. -1.
          1   -1    0    0  501    0  0.00000000000E+00 -0.00000000000E+00 -0.36395901037E+03  0.36395901037E+03  0.00000000000E+00 0.  1.
         23    2    1    2    0    0 -0.57760079046E+02 -0.27494054345E+03  0.10340575317E+04  0.10753475211E+04  0.90381319821E+02 0.  0.
         13    1    3    3    0    0  0.81070813937E+00 -0.41480074752E+02  0.67158693086E+02  0.78940128617E+02  0.00000000000E+00 0. -1.
        -13    1    3    3    0    0 -0.58570787185E+02 -0.23346046870E+03  0.96689883866E+03  0.99640739246E+03  0.00000000000E+00 0.  1.
         22    1    1    2    0    0  0.57760079046E+02  0.27494054345E+03 -0.28583855188E+03  0.40078947953E+03  0.00000000000E+00 0.  1.
<mgrwt>
<rscale>  0 0.12724578E+04</rscale>
<asrwt>0</asrwt>
<pdfrwt beam="1">  1        1 0.55993694E-01 0.12724578E+04</pdfrwt>
<pdfrwt beam="2">  1       -1 0.17110430E+00 0.12724578E+04</pdfrwt>
<totfact> 0.16170964E+01</totfact>
</mgrwt>
</event>
<event>
 6    1  0.1719556E-004  0.1410260E+04  0.7818608E-02  0.8946425E-01
          3   -1    0    0  501    0  0.00000000000E+00  0.00000000000E+00  0.53628872009E+03  0.53628872009E+03  0.00000000000E+00 0.  1.
         -3   -1    0    0    0  501 -0.00000000000E+00 -0.00000000000E+00 -0.92712784315E+03  0.92712784315E+03  0.00000000000E+00 0. -1.
         23    2    1    2    0    0  0.59196825287E+03  0.24305868980E+03  0.10443918704E+03  0.65421662284E+03  0.87108591534E+02 0.  0.
         11    1    3    3    0    0  0.30015771149E+03  0.11205684016E+03  0.95118529608E+02  0.33421388641E+03  0.00000000000E+00 0. -1.
        -11    1    3    3    0    0  0.29181054138E+03  0.13100184964E+03  0.93206574354E+01  0.32000273644E+03  0.00000000000E+00 0.  1.
         22    1    1    2    0    0 -0.59196825287E+03 -0.24305868980E+03 -0.49527831010E+03  0.80919994040E+03  0.00000000000E+00 0. -1.
<mgrwt>
<rscale>  0 0.14102598E+04</rscale>
<asrwt>0</asrwt>
<pdfrwt beam="1">  1        3 0.82505957E-01 0.14102598E+04</pdfrwt>
<pdfrwt beam="2">  1       -3 0.14263505E+00 0.14102598E+04</pdfrwt>
<totfact> 0.12707664E+00</totfact>
</mgrwt>
</event>
<event>
 6    1  0.1719556E-004  0.1532032E+04  0.7818608E-02  0.8863427E-01
         -2   -1    0    0    0  501 -0.00000000000E+00  0.00000000000E+00  0.39482877677E+03  0.39482877677E+03  0.00000000000E+00 0. -1.
          2   -1    0    0  501    0  0.00000000000E+00 -0.00000000000E+00 -0.14861645821E+04  0.14861645821E+04  0.00000000000E+00 0.  1.
         23    2    1    2    0    0 -0.73833656166E+03 -0.97395391880E+01 -0.30978060333E+03  0.80578906633E+03  0.89979221627E+02 0.  0.
         13    1    3    3    0    0 -0.22934557848E+03  0.35239021892E+02 -0.79010440185E+02  0.24512003731E+03  0.00000000000E+00 0. -1.
        -13    1    3    3    0    0 -0.50899098317E+03 -0.44978561080E+02 -0.23077016314E+03  0.56066902902E+03  0.00000000000E+00 0.  1.
         22    1    1    2    0    0  0.73833656166E+03  0.97395391880E+01 -0.78155520199E+03  0.10752042925E+04  0.00000000000E+00 0. -1.
<mgrwt>
<rscale>  0 0.15320320E+04</rscale>
<asrwt>0</asrwt>
<pdfrwt beam="1">  1        2 0.22864071E+00 0.15320320E+04</pdfrwt>
<pdfrwt beam="2">  1       -2 0.60742888E-01 0.15320320E+04</pdfrwt>
<totfact> 0.31430139E+01</totfact>
</mgrwt>
</event>
<event>
 6    1  0.1719556E-004  0.3133095E+04  0.7818608E-02  0.8206714E-01
         -2   -1    0    0    0  501 -0.00000000000E+00  0.00000000000E+00  0.79248965717E+03  0.79248965717E+03  0.00000000000E+00 0. -1.
          2   -1    0    0  501    0  0.00000000000E+00 -0.00000000000E+00 -0.30966596390E+04  0.30966596390E+04  0.00000000000E+00 0.  1.
         23    2    1    2    0    0 -0.72879085697E+03  0.98725226086E+03 -0.23591633904E+04  0.26608059342E+04  0.91832331250E+02 0.  0.
         11    1    3    3    0    0 -0.66073935076E+03  0.86150347796E+03 -0.21288031094E+04  0.23896793531E+04  0.00000000000E+00 0. -1.
        -11    1    3    3    0    0 -0.68051506206E+02  0.12574878290E+03 -0.23036028104E+03  0.27112658110E+03  0.00000000000E+00 0.  1.
         22    1    1    2    0    0  0.72879085697E+03 -0.98725226086E+03  0.54993408646E+02  0.12283433619E+04  0.00000000000E+00 0. -1.
<mgrwt>
<rscale>  0 0.31330948E+04</rscale>
<asrwt>0</asrwt>
<pdfrwt beam="1">  1        2 0.47640917E+00 0.31330948E+04</pdfrwt>
<pdfrwt beam="2">  1       -2 0.12192149E+00 0.31330948E+04</pdfrwt>
<totfact> 0.65301901E-01</totfact>
</mgrwt>
</event>
<event>
 6    1  0.1719556E-004  0.7994484E+03  0.7818608E-02  0.9560816E-01
         -2   -1    0    0    0  501 -0.00000000000E+00  0.00000000000E+00  0.38081559587E+03  0.38081559587E+03  0.00000000000E+00 0. -1.
          2   -1    0    0  501    0  0.00000000000E+00 -0.00000000000E+00 -0.41957171684E+03  0.41957171684E+03  0.00000000000E+00 0.  1.
         23    2    1    2    0    0  0.22766057863E+03  0.48071316916E+02  0.29936298269E+03  0.38994277464E+03  0.91087768210E+02 0.  0.
         13    1    3    3    0    0  0.59556676604E+02  0.49068537655E+02  0.61521565658E+02  0.98689524048E+02  0.00000000000E+00 0.  1.
        -13    1    3    3    0    0  0.16810390203E+03 -0.99722073877E+00  0.23784141703E+03  0.29125325059E+03  0.00000000000E+00 0. -1.
         22    1    1    2    0    0 -0.22766057863E+03 -0.48071316916E+02 -0.33811910366E+03  0.41044453807E+03  0.00000000000E+00 0.  1.
<mgrwt>
<rscale>  0 0.79944844E+03</rscale>
<asrwt>0</asrwt>
<pdfrwt beam="1">  1        2 0.64549495E-01 0.79944844E+03</pdfrwt>
<pdfrwt beam="2">  1       -2 0.58587015E-01 0.79944844E+03</pdfrwt>
<totfact> 0.20673082E+02</totfact>
</mgrwt>
</event>
<event>
 6    1  0.1719556E-004  0.1143858E+04  0.7818608E-02  0.9163468E-01
         -2   -1    0    0    0  501 -0.00000000000E+00  0.00000000000E+00  0.39860426806E+03  0.39860426806E+03  0.00000000000E+00 0. -1.
          2   -1    0    0  501    0  0.00000000000E+00 -0.00000000000E+00 -0.82062102956E+03  0.82062102956E+03  0.00000000000E+00 0.  1.
         23    2    1    2    0    0 -0.25026721271E+03 -0.51683697560E+02  0.32951559237E+03  0.42543328377E+03  0.84309376584E+02 0.  0.
         11    1    3    3    0    0 -0.12745470294E+03  0.15794627693E+02  0.17103479088E+03  0.21388564996E+03  0.00000000000E+00 0.  1.
        -11    1    3    3    0    0 -0.12281250977E+03 -0.67478325252E+02  0.15848080148E+03  0.21154763382E+03  0.00000000000E+00 0. -1.
         22    1    1    2    0    0  0.25026721271E+03  0.51683697560E+02 -0.75153235386E+03  0.79379201385E+03  0.00000000000E+00 0.  1.
<mgrwt>
<rscale>  0 0.11438585E+04</rscale>
<asrwt>0</asrwt>
<pdfrwt beam="1">  1        2 0.12624939E+00 0.11438585E+04</pdfrwt>
<pdfrwt beam="2">  1       -2 0.61323735E-01 0.11438585E+04</pdfrwt>
<totfact> 0.81544790E+01</totfact>
</mgrwt>
</event>
<event>
 6    1  0.1719556E-004  0.1550832E+04  0.7818608E-02  0.8851337E-01
          1   -1    0    0  501    0  0.00000000000E+00  0.00000000000E+00  0.85178911595E+03  0.85178911595E+03  0.00000000000E+00 0.  1.
         -1   -1    0    0    0  501 -0.00000000000E+00 -0.00000000000E+00 -0.70589059733E+03  0.70589059733E+03  0.00000000000E+00 0. -1.
         23    2    1    2    0    0  0.49095266128E+03  0.59321535341E+03  0.43495857047E+02  0.78087518431E+03  0.12220962625E+03 0.  0.
         11    1    3    3    0    0  0.20267429164E+03  0.17572456931E+03 -0.22798674784E+02  0.26921324693E+03  0.00000000000E+00 0.  1.
        -11    1    3    3    0    0  0.28827836964E+03  0.41749078410E+03  0.66294531831E+02  0.51166193738E+03  0.00000000000E+00 0. -1.
         22    1    1    2    0    0 -0.49095266128E+03 -0.59321535341E+03  0.10240266157E+03  0.77680452897E+03  0.00000000000E+00 0. -1.
<mgrwt>
<rscale>  0 0.15508319E+04</rscale>
<asrwt>0</asrwt>
<pdfrwt beam="1">  1        1 0.13104448E+00 0.15508319E+04</pdfrwt>
<pdfrwt beam="2">  1       -1 0.10859855E+00 0.15508319E+04</pdfrwt>
<totfact> 0.15130163E+01</totfact>
</mgrwt>
</event>
<event>
 6    1  0.1719556E-004  0.1718812E+04  0.7818608E-02  0.8750707E-01
         -2   -1    0    0    0  501 -0.00000000000E+00  0.00000000000E+00  0.71866689312E+03  0.71866689312E+03  0.00000000000E+00 0.  1.
          2   -1    0    0  501    0  0.00000000000E+00 -0.00000000000E+00 -0.10277069133E+04  0.10277069133E+04  0.00000000000E+00 0. -1.
         23    2    1    2    0    0 -0.77541668595E+03  0.33296286261E+03 -0.33833600850E+01  0.84884313919E+03  0.91585605347E+02 0.  0.
         13    1    3    3    0    0 -0.93671910391E+02  0.55164068774E+02  0.27120186675E+02  0.11204019727E+03  0.00000000000E+00 0. -1.
        -13    1    3    3    0    0 -0.68174477556E+03  0.27779879384E+03 -0.30503546760E+02  0.73680294192E+03  0.00000000000E+00 0.  1.
         22    1    1    2    0    0  0.77541668595E+03 -0.33296286261E+03 -0.30565666009E+03  0.89753066721E+03  0.00000000000E+00 0. -1.
<mgrwt>
<rscale>  0 0.17188123E+04</rscale>
<asrwt>0</asrwt>
<pdfrwt beam="1">  1        2 0.15810876E+00 0.17188123E+04</pdfrwt>
<pdfrwt beam="2">  1       -2 0.11056414E+00 0.17188123E+04</pdfrwt>
<totfact> 0.14911474E+01</totfact>
</mgrwt>
</event>
<event>
 6    1  0.1719556E-004  0.2444323E+04  0.7818608E-02  0.8423094E-01
          2   -1    0    0  501    0  0.00000000000E+00  0.00000000000E+00  0.13549656397E+04  0.13549656397E+04  0.00000000000E+00 0.  1.
         -2   -1    0    0    0  501 -0.00000000000E+00 -0.00000000000E+00 -0.11023741369E+04  0.11023741369E+04  0.00000000000E+00 0. -1.
         23    2    1    2    0    0  0.10005636689E+04 -0.40511842270E+03 -0.44593947685E+03  0.11715738097E+04  0.92057496566E+02 0.  0.
         13    1    3    3    0    0  0.30866493362E+03 -0.13164197969E+03 -0.93595435047E+02  0.34837301492E+03  0.00000000000E+00 0. -1.
        -13    1    3    3    0    0  0.69189873529E+03 -0.27347644301E+03 -0.35234404181E+03  0.82320079481E+03  0.00000000000E+00 0.  1.
         22    1    1    2    0    0 -0.10005636689E+04  0.40511842270E+03  0.69853097961E+03  0.12857659668E+04  0.00000000000E+00 0.  1.
<mgrwt>
<rscale>  0 0.24443233E+04</rscale>
<asrwt>0</asrwt>
<pdfrwt beam="1">  1        2 0.20845625E+00 0.24443233E+04</pdfrwt>
<pdfrwt beam="2">  1       -2 0.16959602E+00 0.24443233E+04</pdfrwt>
<totfact> 0.29530093E+00</totfact>
</mgrwt>
</event>
<event>
 6    1  0.1719556E-004  0.1873148E+04  0.7818608E-02  0.8668339E-01
          1   -1    0    0  501    0  0.00000000000E+00  0.00000000000E+00  0.17170373784E+04  0.17170373784E+04  0.00000000000E+00 0.  1.
         -1   -1    0    0    0  501 -0.00000000000E+00 -0.00000000000E+00 -0.51086286640E+03  0.51086286640E+03  0.00000000000E+00 0. -1.
         23    2    1    2    0    0  0.82664054672E+02  0.18947804293E+03  0.16883257721E+04  0.17033002903E+04  0.89736788802E+02 0.  0.
         13    1    3    3    0    0  0.23885989987E+01  0.59044607599E+02  0.25218494482E+03  0.25901586339E+03  0.00000000000E+00 0. -1.
        -13    1    3    3    0    0  0.80275455673E+02  0.13043343533E+03  0.14361408273E+04  0.14442844269E+04  0.00000000000E+00 0.  1.
         22    1    1    2    0    0 -0.82664054672E+02 -0.18947804293E+03 -0.48215126012E+03  0.52459995456E+03  0.00000000000E+00 0. -1.
<mgrwt>
<rscale>  0 0.18731478E+04</rscale>
<asrwt>0</asrwt>
<pdfrwt beam="1">  1        1 0.26415959E+00 0.18731478E+04</pdfrwt>
<pdfrwt beam="2">  1       -1 0.78594288E-01 0.18731478E+04</pdfrwt>
<totfact> 0.70477843E+00</totfact>
</mgrwt>
</event>
<event>
 6    1  0.1719556E-004  0.9146889E+03  0.7818608E-02  0.9407404E-01
          2   -1    0    0  501    0  0.00000000000E+00  0.00000000000E+00  0.11139579894E+04  0.11139579894E+04  0.00000000000E+00 0.  1.
         -2   -1    0    0    0  501 -0.00000000000E+00 -0.00000000000E+00 -0.18776644473E+03  0.18776644473E+03  0.00000000000E+00 0. -1.
         23    2    1    2    0    0  0.17166643769E+03 -0.22427264129E+03 -0.36675975069E+02  0.29828961113E+03  0.88679092796E+02 0.  0.
         11    1    3    3    0    0  0.60811820271E+02 -0.15162353991E+03 -0.24525105707E+02  0.16519460085E+03  0.00000000000E+00 0. -1.
        -11    1    3    3    0    0  0.11085461742E+03 -0.72649101375E+02 -0.12150869362E+02  0.13309501028E+03  0.00000000000E+00 0.  1.
         22    1    1    2    0    0 -0.17166643769E+03  0.22427264129E+03  0.96286751978E+03  0.10034348231E+04  0.00000000000E+00 0.  1.
<mgrwt>
<rscale>  0 0.91468887E+03</rscale>
<asrwt>0</asrwt>
<pdfrwt beam="1">  1        2 0.17137815E+00 0.91468887E+03</pdfrwt>
<pdfrwt beam="2">  1       -2 0.28887146E-01 0.91468887E+03</pdfrwt>
<totfact> 0.23511997E+02</totfact>
</mgrwt>
</event>
<event>
 6    1  0.1719556E-004  0.1930394E+04  0.7818608E-02  0.8639874E-01
          1   -1    0    0  501    0  0.00000000000E+00  0.00000000000E+00  0.27319222975E+04  0.27319222975E+04  0.00000000000E+00 0.  1.
         -1   -1    0    0    0  501 -0.00000000000E+00 -0.00000000000E+00 -0.34100713924E+03  0.34100713924E+03  0.00000000000E+00 0. -1.
         23    2    1    2    0    0 -0.51686783968E+03 -0.60057943966E+03  0.20694704916E+04  0.22178418969E+04  0.90920498008E+02 0.  0.
         13    1    3    3    0    0 -0.41334707852E+03 -0.43563200938E+03  0.16321292692E+04  0.17391023564E+04  0.00000000000E+00 0.  1.
        -13    1    3    3    0    0 -0.10352076115E+03 -0.16494743028E+03  0.43734122245E+03  0.47873954046E+03  0.00000000000E+00 0. -1.
         22    1    1    2    0    0  0.51686783968E+03  0.60057943966E+03  0.32144466661E+03  0.85508753981E+03  0.00000000000E+00 0. -1.
<mgrwt>
<rscale>  0 0.19303937E+04</rscale>
<asrwt>0</asrwt>
<pdfrwt beam="1">  1        1 0.42029572E+00 0.19303937E+04</pdfrwt>
<pdfrwt beam="2">  1       -1 0.52462639E-01 0.19303937E+04</pdfrwt>
<totfact> 0.31867625E+00</totfact>
</mgrwt>
</event>
<event>
 6    1  0.1719556E-004  0.2958589E+04  0.7818608E-02  0.8255656E-01
          2   -1    0    0  501    0  0.00000000000E+00  0.00000000000E+00  0.13547256421E+04  0.13547256421E+04  0.00000000000E+00 0.  1.
         -2   -1    0    0    0  501 -0.00000000000E+00 -0.00000000000E+00 -0.16153176186E+04  0.16153176186E+04  0.00000000000E+00 0. -1.
         23    2    1    2    0    0  0.11540960602E+04  0.67226461918E+03  0.50484592065E+03  0.14306366838E+04  0.89299961205E+02 0.  0.
         13    1    3    3    0    0  0.62840395661E+03  0.41303601856E+03  0.30263651639E+03  0.81060418601E+03  0.00000000000E+00 0. -1.
        -13    1    3    3    0    0  0.52569210360E+03  0.25922860062E+03  0.20220940426E+03  0.62003249781E+03  0.00000000000E+00 0.  1.
         22    1    1    2    0    0 -0.11540960602E+04 -0.67226461918E+03 -0.76543789721E+03  0.15394065769E+04  0.00000000000E+00 0. -1.
<mgrwt>
<rscale>  0 0.29585890E+04</rscale>
<asrwt>0</asrwt>
<pdfrwt beam="1">  1        2 0.20841933E+00 0.29585890E+04</pdfrwt>
<pdfrwt beam="2">  1       -2 0.24851040E+00 0.29585890E+04</pdfrwt>
<totfact> 0.86620720E-01</totfact>
</mgrwt>
</event>
<event>
 6    1  0.1719556E-004  0.9203596E+03  0.7818608E-02  0.9400483E-01
         -2   -1    0    0    0  501 -0.00000000000E+00  0.00000000000E+00  0.17914757406E+03  0.17914757406E+03  0.00000000000E+00 0. -1.
          2   -1    0    0  501    0  0.00000000000E+00 -0.00000000000E+00 -0.11820726045E+04  0.11820726045E+04  0.00000000000E+00 0.  1.
         23    2    1    2    0    0 -0.27902494776E+03 -0.35567152992E+03 -0.59589461246E+03  0.75291851012E+03  0.86248101729E+02 0.  0.
         13    1    3    3    0    0 -0.25537838713E+03 -0.34804577852E+03 -0.58144345611E+03  0.72417572261E+03  0.00000000000E+00 0.  1.
        -13    1    3    3    0    0 -0.23646560633E+02 -0.76257514070E+01 -0.14451156346E+02  0.28742787513E+02  0.00000000000E+00 0. -1.
         22    1    1    2    0    0  0.27902494776E+03  0.35567152992E+03 -0.40703041798E+03  0.60830166844E+03  0.00000000000E+00 0. -1.
<mgrwt>
<rscale>  0 0.92035958E+03</rscale>
<asrwt>0</asrwt>
<pdfrwt beam="1">  1        2 0.18185732E+00 0.92035958E+03</pdfrwt>
<pdfrwt beam="2">  1       -2 0.27561165E-01 0.92035958E+03</pdfrwt>
<totfact> 0.23309875E+02</totfact>
</mgrwt>
</event>
<event>
 6    1  0.1719556E-004  0.2291137E+04  0.7818608E-02  0.8481424E-01
         -2   -1    0    0    0  501 -0.00000000000E+00  0.00000000000E+00  0.51208747222E+03  0.51208747222E+03  0.00000000000E+00 0. -1.
          2   -1    0    0  501    0  0.00000000000E+00 -0.00000000000E+00 -0.25627003138E+04  0.25627003138E+04  0.00000000000E+00 0.  1.
         23    2    1    2    0    0  0.10069458263E+04 -0.24076400962E+03 -0.37474350992E+03  0.11049032152E+04  0.92039183526E+02 0.  0.
         13    1    3    3    0    0  0.47379360076E+03 -0.15967068389E+03 -0.18976640060E+03  0.53477695370E+03  0.00000000000E+00 0. -1.
        -13    1    3    3    0    0  0.53315222557E+03 -0.81093325725E+02 -0.18497710932E+03  0.57012626153E+03  0.00000000000E+00 0.  1.
         22    1    1    2    0    0 -0.10069458263E+04  0.24076400962E+03 -0.16758693317E+04  0.19698845708E+04  0.00000000000E+00 0.  1.
<mgrwt>
<rscale>  0 0.22911366E+04</rscale>
<asrwt>0</asrwt>
<pdfrwt beam="1">  1        2 0.39426159E+00 0.22911366E+04</pdfrwt>
<pdfrwt beam="2">  1       -2 0.78782688E-01 0.22911366E+04</pdfrwt>
<totfact> 0.41545311E+00</totfact>
</mgrwt>
</event>
<event>
 6    1  0.1719556E-004  0.1516292E+04  0.7818608E-02  0.8873690E-01
         -2   -1    0    0    0  501 -0.00000000000E+00  0.00000000000E+00  0.57272172504E+03  0.57272172504E+03  0.00000000000E+00 0. -1.
          2   -1    0    0  501    0  0.00000000000E+00 -0.00000000000E+00 -0.10036035300E+04  0.10036035300E+04  0.00000000000E+00 0.  1.
         23    2    1    2    0    0  0.16900313040E+03  0.34387648029E+03  0.46092708494E+03  0.60568825394E+03  0.87128592014E+02 0.  0.
         13    1    3    3    0    0  0.39289788101E+02  0.16253608199E+03  0.16247725702E+03  0.23315343542E+03  0.00000000000E+00 0.  1.
        -13    1    3    3    0    0  0.12971334230E+03  0.18134039830E+03  0.29844982792E+03  0.37253481852E+03  0.00000000000E+00 0. -1.
         22    1    1    2    0    0 -0.16900313040E+03 -0.34387648029E+03 -0.89180888994E+03  0.97063700112E+03  0.00000000000E+00 0.  1.
<mgrwt>
<rscale>  0 0.15162922E+04</rscale>
<asrwt>0</asrwt>
<pdfrwt beam="1">  1        2 0.15440054E+00 0.15162922E+04</pdfrwt>
<pdfrwt beam="2">  1       -2 0.88111035E-01 0.15162922E+04</pdfrwt>
<totfact> 0.26837608E+01</totfact>
</mgrwt>
</event>
<event>
 6    1  0.1719556E-004  0.2323253E+04  0.7818608E-02  0.8468809E-01
         -1   -1    0    0    0  501 -0.00000000000E+00  0.00000000000E+00  0.49954471933E+03  0.49954471933E+03  0.00000000000E+00 0. -1.
          1   -1    0    0  501    0  0.00000000000E+00 -0.00000000000E+00 -0.27012117510E+04  0.27012117510E+04  0.00000000000E+00 0.  1.
         23    2    1    2    0    0  0.10054273620E+04 -0.43738389009E+03 -0.16233703035E+04  0.19611533268E+04  0.92749024542E+02 0.  0.
         11    1    3    3    0    0  0.81164350286E+03 -0.32775304363E+03 -0.13441205818E+04  0.16040097792E+04  0.00000000000E+00 0.  1.
        -11    1    3    3    0    0  0.19378385911E+03 -0.10963084646E+03 -0.27924972169E+03  0.35714354763E+03  0.00000000000E+00 0. -1.
         22    1    1    2    0    0 -0.10054273620E+04  0.43738389009E+03 -0.57829672812E+03  0.12396031435E+04  0.00000000000E+00 0. -1.
<mgrwt>
<rscale>  0 0.23232529E+04</rscale>
<asrwt>0</asrwt>
<pdfrwt beam="1">  1        1 0.41557103E+00 0.23232529E+04</pdfrwt>
<pdfrwt beam="2">  1       -1 0.76853034E-01 0.23232529E+04</pdfrwt>
<totfact> 0.15007245E+00</totfact>
</mgrwt>
</event>
<event>
 6    1  0.1719556E-004  0.2058706E+04  0.7818608E-02  0.8579655E-01
          2   -1    0    0  501    0  0.00000000000E+00  0.00000000000E+00  0.20376746949E+04  0.20376746949E+04  0.00000000000E+00 0.  1.
         -2   -1    0    0    0  501 -0.00000000000E+00 -0.00000000000E+00 -0.51998841676E+03  0.51998841676E+03  0.00000000000E+00 0. -1.
         23    2    1    2    0    0  0.78753025528E+03 -0.58314855239E+03  0.37780355152E+03  0.10544669277E+04  0.94333667743E+02 0.  0.
         11    1    3    3    0    0  0.11512073897E+03 -0.11133653464E+03  0.92259047269E+02  0.18482516141E+03  0.00000000000E+00 0.  1.
        -11    1    3    3    0    0  0.67240951630E+03 -0.47181201775E+03  0.28554450425E+03  0.86964176626E+03  0.00000000000E+00 0. -1.
         22    1    1    2    0    0 -0.78753025528E+03  0.58314855239E+03  0.11398827266E+04  0.15031961840E+04  0.00000000000E+00 0. -1.
<mgrwt>
<rscale>  0 0.20587057E+04</rscale>
<asrwt>0</asrwt>
<pdfrwt beam="1">  1        2 0.31348841E+00 0.20587057E+04</pdfrwt>
<pdfrwt beam="2">  1       -2 0.79998219E-01 0.20587057E+04</pdfrwt>
<totfact> 0.81364057E+00</totfact>
</mgrwt>
</event>
<event>
 6    1  0.1719556E-004  0.2807867E+04  0.7818608E-02  0.8300830E-01
         -2   -1    0    0    0  501 -0.00000000000E+00  0.00000000000E+00  0.72813057433E+03  0.72813057433E+03  0.00000000000E+00 0. -1.
          2   -1    0    0  501    0  0.00000000000E+00 -0.00000000000E+00 -0.27069717504E+04  0.27069717504E+04  0.00000000000E+00 0.  1.
         23    2    1    2    0    0  0.40884385004E+03 -0.53290227173E+03  0.51565326487E+03  0.85176327598E+03  0.92001433761E+02 0.  0.
         11    1    3    3    0    0  0.32785152524E+03 -0.36447602242E+03  0.39175356222E+03  0.62753505642E+03  0.00000000000E+00 0. -1.
        -11    1    3    3    0    0  0.80992324800E+02 -0.16842624931E+03  0.12389970264E+03  0.22422821956E+03  0.00000000000E+00 0.  1.
         22    1    1    2    0    0 -0.40884385004E+03  0.53290227173E+03 -0.24944944410E+04  0.25833390488E+04  0.00000000000E+00 0.  1.
<mgrwt>
<rscale>  0 0.28078667E+04</rscale>
<asrwt>0</asrwt>
<pdfrwt beam="1">  1        2 0.41645719E+00 0.28078667E+04</pdfrwt>
<pdfrwt beam="2">  1       -2 0.11202009E+00 0.28078667E+04</pdfrwt>
<totfact> 0.14372986E+00</totfact>
</mgrwt>
</event>
<event>
 6    1  0.1719556E-004  0.3168903E+04  0.7818608E-02  0.8197079E-01
          2   -1    0    0  501    0  0.00000000000E+00  0.00000000000E+00  0.27495868307E+04  0.27495868307E+04  0.00000000000E+00 0.  1.
         -2   -1    0    0    0  501 -0.00000000000E+00 -0.00000000000E+00 -0.91304113535E+03  0.91304113535E+03  0.00000000000E+00 0. -1.
         23    2    1    2    0    0 -0.39093999168E+03 -0.12924892462E+04  0.18739836826E+04  0.23117896591E+04  0.95885644187E+02 0.  0.
         11    1    3    3    0    0 -0.50951478659E+02 -0.11446259979E+03  0.21573995748E+03  0.24948240255E+03  0.00000000000E+00 0. -1.
        -11    1    3    3    0    0 -0.33998851302E+03 -0.11780266464E+04  0.16582437251E+04  0.20623072566E+04  0.00000000000E+00 0.  1.
         22    1    1    2    0    0  0.39093999168E+03  0.12924892462E+04 -0.37437987251E+02  0.13508383069E+04  0.00000000000E+00 0. -1.
<mgrwt>
<rscale>  0 0.31689026E+04</rscale>
<asrwt>0</asrwt>
<pdfrwt beam="1">  1        2 0.42301336E+00 0.31689026E+04</pdfrwt>
<pdfrwt beam="2">  1       -2 0.14046787E+00 0.31689026E+04</pdfrwt>
<totfact> 0.74517921E-01</totfact>
</mgrwt>
</event>
<event>
 6    1  0.1719556E-004  0.1302255E+04  0.7818608E-02  0.9027779E-01
         -2   -1    0    0    0  501 -0.00000000000E+00  0.00000000000E+00  0.43363397468E+03  0.43363397468E+03  0.00000000000E+00 0. -1.
          2   -1    0    0  501    0  0.00000000000E+00 -0.00000000000E+00 -0.97770737321E+03  0.97770737321E+03  0.00000000000E+00 0.  1.
         23    2    1    2    0    0 -0.31475444663E+03  0.31410767066E+03 -0.78452930854E+03  0.90581881120E+03  0.85366810461E+02 0.  0.
         11    1    3    3    0    0 -0.71923189530E+02  0.12445821174E+03 -0.27725316387E+03  0.31230131049E+03  0.00000000000E+00 0.  1.
        -11    1    3    3    0    0 -0.24283125710E+03  0.18964945892E+03 -0.50727614468E+03  0.59351750071E+03  0.00000000000E+00 0. -1.
         22    1    1    2    0    0  0.31475444663E+03 -0.31410767066E+03  0.24045591001E+03  0.50552253669E+03  0.00000000000E+00 0. -1.
<mgrwt>
<rscale>  0 0.13022552E+04</rscale>
<asrwt>0</asrwt>
<pdfrwt beam="1">  1        2 0.15041652E+00 0.13022552E+04</pdfrwt>
<pdfrwt beam="2">  1       -2 0.66712919E-01 0.13022552E+04</pdfrwt>
<totfact> 0.52682153E+01</totfact>
</mgrwt>
</event>
<event>
 6    1  0.1719556E-004  0.2994962E+04  0.7818608E-02  0.8245171E-01
          2   -1    0    0  501    0  0.00000000000E+00  0.00000000000E+00  0.18090067169E+04  0.18090067169E+04  0.00000000000E+00 0.  1.
         -2   -1    0    0    0  501 -0.00000000000E+00 -0.00000000000E+00 -0.12396027233E+04  0.12396027233E+04  0.00000000000E+00 0. -1.
         23    2    1    2    0    0  0.85537390920E+03 -0.96105208697E+03  0.10622024999E+04  0.16708808725E+04  0.91011542018E+02 0.  0.
         11    1    3    3    0    0  0.56368615490E+03 -0.59232200347E+03  0.62953886767E+03  0.10319431297E+04  0.00000000000E+00 0. -1.
        -11    1    3    3    0    0  0.29168775431E+03 -0.36873008349E+03  0.43266363222E+03  0.63893774276E+03  0.00000000000E+00 0.  1.
         22    1    1    2    0    0 -0.85537390920E+03  0.96105208697E+03 -0.49279850634E+03  0.13777285677E+04  0.00000000000E+00 0. -1.
<mgrwt>
<rscale>  0 0.29949622E+04</rscale>
<asrwt>0</asrwt>
<pdfrwt beam="1">  1        2 0.27830873E+00 0.29949622E+04</pdfrwt>
<pdfrwt beam="2">  1       -2 0.19070811E+00 0.29949622E+04</pdfrwt>
<totfact> 0.11200726E+00</totfact>
</mgrwt>
</event>
<event>
 6    1  0.1719556E-004  0.2308147E+04  0.7818608E-02  0.8474716E-01
          2   -1    0    0  501    0  0.00000000000E+00  0.00000000000E+00  0.36271461820E+04  0.36271461820E+04  0.00000000000E+00 0.  1.
         -2   -1    0    0    0  501 -0.00000000000E+00 -0.00000000000E+00 -0.36719919930E+03  0.36719919930E+03  0.00000000000E+00 0. -1.
         23    2    1    2    0    0 -0.66133065364E+03 -0.33335522195E+03  0.10418458712E+03  0.75284569216E+03  0.86245408923E+02 0.  0.
         11    1    3    3    0    0 -0.28939084535E+03 -0.16261870695E+03  0.87312339844E+02  0.34324240693E+03  0.00000000000E+00 0.  1.
        -11    1    3    3    0    0 -0.37193980828E+03 -0.17073651500E+03  0.16872247279E+02  0.40960328523E+03  0.00000000000E+00 0. -1.
         22    1    1    2    0    0  0.66133065364E+03  0.33335522195E+03  0.31557623956E+04  0.32414996892E+04  0.00000000000E+00 0.  1.
<mgrwt>
<rscale>  0 0.23081466E+04</rscale>
<asrwt>0</asrwt>
<pdfrwt beam="1">  1        2 0.55802247E+00 0.23081466E+04</pdfrwt>
<pdfrwt beam="2">  1       -2 0.56492187E-01 0.23081466E+04</pdfrwt>
<totfact> 0.17636722E+00</totfact>
</mgrwt>
</event>
<event>
 6    1  0.1719556E-004  0.2022493E+04  0.7818608E-02  0.8596176E-01
          2   -1    0    0  501    0  0.00000000000E+00  0.00000000000E+00  0.36867767279E+04  0.36867767279E+04  0.00000000000E+00 0.  1.
         -2   -1    0    0    0  501 -0.00000000000E+00 -0.00000000000E+00 -0.27737507198E+03  0.27737507198E+03  0.00000000000E+00 0. -1.
         23    2    1    2    0    0  0.59143191363E+03  0.78223524296E+03  0.21765366084E+04  0.23888296395E+04  0.86670380021E+02 0.  0.
         13    1    3    3    0    0  0.15600129176E+03  0.25506114540E+03  0.72907813713E+03  0.78800223411E+03  0.00000000000E+00 0. -1.
        -13    1    3    3    0    0  0.43543062187E+03  0.52717409756E+03  0.14474584713E+04  0.16008274054E+04  0.00000000000E+00 0.  1.
         22    1    1    2    0    0 -0.59143191363E+03 -0.78223524296E+03  0.12328650475E+04  0.15753221604E+04  0.00000000000E+00 0. -1.
<mgrwt>
<rscale>  0 0.20224935E+04</rscale>
<asrwt>0</asrwt>
<pdfrwt beam="1">  1        2 0.56719638E+00 0.20224935E+04</pdfrwt>
<pdfrwt beam="2">  1       -2 0.42673091E-01 0.20224935E+04</pdfrwt>
<totfact> 0.29021875E+00</totfact>
</mgrwt>
</event>
<event>
 6    1  0.1719556E-004  0.2264092E+04  0.7818608E-02  0.8492215E-01
         -2   -1    0    0    0  501 -0.00000000000E+00  0.00000000000E+00  0.72860991721E+03  0.72860991721E+03  0.00000000000E+00 0. -1.
          2   -1    0    0  501    0  0.00000000000E+00 -0.00000000000E+00 -0.17588669930E+04  0.17588669930E+04  0.00000000000E+00 0.  1.
         23    2    1    2    0    0 -0.16335669568E+03 -0.30707425308E+03 -0.16974465329E+04  0.17350662653E+04  0.90278491159E+02 0.  0.
         11    1    3    3    0    0 -0.87427548714E+02 -0.24700135568E+03 -0.11973144719E+04  0.12256488856E+04  0.00000000000E+00 0. -1.
        -11    1    3    3    0    0 -0.75929146961E+02 -0.60072897395E+02 -0.50013206095E+03  0.50941737971E+03  0.00000000000E+00 0.  1.
         22    1    1    2    0    0  0.16335669568E+03  0.30707425308E+03  0.66718945710E+03  0.75241064492E+03  0.00000000000E+00 0. -1.
<mgrwt>
<rscale>  0 0.22640918E+04</rscale>
<asrwt>0</asrwt>
<pdfrwt beam="1">  1        2 0.27059492E+00 0.22640918E+04</pdfrwt>
<pdfrwt beam="2">  1       -2 0.11209383E+00 0.22640918E+04</pdfrwt>
<totfact> 0.51905278E+00</totfact>
</mgrwt>
</event>
<event>
 6    1  0.1719556E-004  0.5795844E+03  0.7818608E-02  0.9948691E-01
          1   -1    0    0  501    0  0.00000000000E+00  0.00000000000E+00  0.63441559855E+03  0.63441559855E+03  0.00000000000E+00 0.  1.
         -1   -1    0    0    0  501 -0.00000000000E+00 -0.00000000000E+00 -0.13237305562E+03  0.13237305562E+03  0.00000000000E+00 0. -1.
         23    2    1    2    0    0 -0.25663640774E+03 -0.11743061282E+03  0.24417921919E+03  0.38449859631E+03  0.92539099181E+02 0.  0.
         11    1    3    3    0    0 -0.12098089837E+03 -0.15336588320E+02  0.13839861350E+03  0.18446074089E+03  0.00000000000E+00 0. -1.
        -11    1    3    3    0    0 -0.13565550937E+03 -0.10209402450E+03  0.10578060569E+03  0.20003785542E+03  0.00000000000E+00 0.  1.
         22    1    1    2    0    0  0.25663640774E+03  0.11743061282E+03  0.25786332375E+03  0.38229005786E+03  0.00000000000E+00 0. -1.
<mgrwt>
<rscale>  0 0.57958444E+03</rscale>
<asrwt>0</asrwt>
<pdfrwt beam="1">  1        1 0.97602399E-01 0.57958444E+03</pdfrwt>
<pdfrwt beam="2">  1       -1 0.20365086E-01 0.57958444E+03</pdfrwt>
<totfact> 0.63209769E+02</totfact>
</mgrwt>
</event>
<event>
 6    1  0.1719556E-004  0.3668484E+04  0.7818608E-02  0.8074982E-01
         -2   -1    0    0    0  501 -0.00000000000E+00  0.00000000000E+00  0.16458092132E+04  0.16458092132E+04  0.00000000000E+00 0. -1.
          2   -1    0    0  501    0  0.00000000000E+00 -0.00000000000E+00 -0.20442492267E+04  0.20442492267E+04  0.00000000000E+00 0.  1.
         23    2    1    2    0    0 -0.99279812219E+03 -0.40634928608E+03  0.12957402089E+04  0.16848117021E+04  0.94233375030E+02 0.  0.
         11    1    3    3    0    0 -0.49645638101E+03 -0.22920946230E+03  0.59640058343E+03  0.80913507634E+03  0.00000000000E+00 0.  1.
        -11    1    3    3    0    0 -0.49634174118E+03 -0.17713982378E+03  0.69933962544E+03  0.87567662577E+03  0.00000000000E+00 0. -1.
         22    1    1    2    0    0  0.99279812219E+03  0.40634928608E+03 -0.16941802224E+04  0.20052467378E+04  0.00000000000E+00 0.  1.
<mgrwt>
<rscale>  0 0.36684843E+04</rscale>
<asrwt>0</asrwt>
<pdfrwt beam="1">  1        2 0.31449988E+00 0.36684843E+04</pdfrwt>
<pdfrwt beam="2">  1       -2 0.25320142E+00 0.36684843E+04</pdfrwt>
<totfact> 0.31422707E-01</totfact>
</mgrwt>
</event>
<event>
 6    1  0.1719556E-004  0.4072218E+04  0.7818608E-02  0.7990134E-01
         -2   -1    0    0    0  501 -0.00000000000E+00  0.00000000000E+00  0.12164795175E+04  0.12164795175E+04  0.00000000000E+00 0. -1.
          2   -1    0    0  501    0  0.00000000000E+00 -0.00000000000E+00 -0.34079824234E+04  0.34079824234E+04  0.00000000000E+00 0.  1.
         23    2    1    2    0    0  0.22019971241E+03 -0.76704018989E+03 -0.32222758888E+04  0.33208778399E+04  0.91264220129E+02 0.  0.
         11    1    3    3    0    0  0.17775954986E+03 -0.46083697611E+03 -0.19494333536E+04  0.20110344543E+04  0.00000000000E+00 0. -1.
        -11    1    3    3    0    0  0.42440162549E+02 -0.30620321378E+03 -0.12728425352E+04  0.13098433856E+04  0.00000000000E+00 0.  1.
         22    1    1    2    0    0 -0.22019971241E+03  0.76704018989E+03  0.10307729828E+04  0.13035841010E+04  0.00000000000E+00 0. -1.
<mgrwt>
<rscale>  0 0.40722185E+04</rscale>
<asrwt>0</asrwt>
<pdfrwt beam="1">  1        2 0.52430498E+00 0.40722185E+04</pdfrwt>
<pdfrwt beam="2">  1       -2 0.18715070E+00 0.40722185E+04</pdfrwt>
<totfact> 0.11944530E-01</totfact>
</mgrwt>
</event>
<event>
 6    1  0.1719556E-004  0.1449796E+04  0.7818608E-02  0.8918542E-01
         -2   -1    0    0    0  501 -0.00000000000E+00  0.00000000000E+00  0.46331434959E+03  0.46331434959E+03  0.00000000000E+00 0. -1.
          2   -1    0    0  501    0  0.00000000000E+00 -0.00000000000E+00 -0.11341700389E+04  0.11341700389E+04  0.00000000000E+00 0.  1.
         23    2    1    2    0    0  0.10973531169E+03 -0.16105207575E+03  0.42878335700E+03  0.48070972819E+03  0.96161664926E+02 0.  0.
         13    1    3    3    0    0 -0.69644275774E+01 -0.67193466584E+02  0.13214917592E+03  0.14841452051E+03  0.00000000000E+00 0. -1.
        -13    1    3    3    0    0  0.11669973926E+03 -0.93858609165E+02  0.29663418108E+03  0.33229520768E+03  0.00000000000E+00 0.  1.
         22    1    1    2    0    0 -0.10973531169E+03  0.16105207575E+03 -0.10996390463E+04  0.11167746603E+04  0.00000000000E+00 0.  1.
<mgrwt>
<rscale>  0 0.14497962E+04</rscale>
<asrwt>0</asrwt>
<pdfrwt beam="1">  1        2 0.17448770E+00 0.14497962E+04</pdfrwt>
<pdfrwt beam="2">  1       -2 0.71279131E-01 0.14497962E+04</pdfrwt>
<totfact> 0.35971639E+01</totfact>
</mgrwt>
</event>
<event>
 6    1  0.1719556E-004  0.1802033E+04  0.7818608E-02  0.8705219E-01
          1   -1    0    0  501    0  0.00000000000E+00  0.00000000000E+00  0.21560453798E+04  0.21560453798E+04  0.00000000000E+00 0.  1.
         -1   -1    0    0    0  501 -0.00000000000E+00 -0.00000000000E+00 -0.37653697360E+03  0.37653697360E+03  0.00000000000E+00 0. -1.
         23    2    1    2    0    0 -0.73396717768E+03 -0.34848896043E+03  0.35224184906E+03  0.89025406752E+03  0.91244786428E+02 0.  0.
         11    1    3    3    0    0 -0.51818174797E+03 -0.28846693124E+03  0.24083575716E+03  0.64009948936E+03  0.00000000000E+00 0. -1.
        -11    1    3    3    0    0 -0.21578542971E+03 -0.60022029196E+02  0.11140609190E+03  0.25015457816E+03  0.00000000000E+00 0.  1.
         22    1    1    2    0    0  0.73396717768E+03  0.34848896043E+03  0.14272665571E+04  0.16423282859E+04  0.00000000000E+00 0.  1.
<mgrwt>
<rscale>  0 0.18020331E+04</rscale>
<asrwt>0</asrwt>
<pdfrwt beam="1">  1        1 0.33169928E+00 0.18020331E+04</pdfrwt>
<pdfrwt beam="2">  1       -1 0.57928766E-01 0.18020331E+04</pdfrwt>
<totfact> 0.66501285E+00</totfact>
</mgrwt>
</event>
<event>
 6    1  0.1719556E-004  0.1606551E+04  0.7818608E-02  0.8816534E-01
          1   -1    0    0  501    0  0.00000000000E+00  0.00000000000E+00  0.58219379773E+03  0.58219379773E+03  0.00000000000E+00 0.  1.
         -1   -1    0    0    0  501 -0.00000000000E+00 -0.00000000000E+00 -0.11083100619E+04  0.11083100619E+04  0.00000000000E+00 0. -1.
         23    2    1    2    0    0  0.35229106863E+03  0.70585822937E+03 -0.12011875332E+03  0.80327287742E+03  0.92054134528E+02 0.  0.
         13    1    3    3    0    0  0.23696472784E+03  0.42472904791E+03 -0.11304522947E+03  0.49932581576E+03  0.00000000000E+00 0. -1.
        -13    1    3    3    0    0  0.11532634079E+03  0.28112918146E+03 -0.70735238530E+01  0.30394706166E+03  0.00000000000E+00 0.  1.
         22    1    1    2    0    0 -0.35229106863E+03 -0.70585822937E+03 -0.40599751087E+03  0.88723098224E+03  0.00000000000E+00 0.  1.
<mgrwt>
<rscale>  0 0.16065506E+04</rscale>
<asrwt>0</asrwt>
<pdfrwt beam="1">  1        1 0.89568277E-01 0.16065506E+04</pdfrwt>
<pdfrwt beam="2">  1       -1 0.17050924E+00 0.16065506E+04</pdfrwt>
<totfact> 0.83676314E+00</totfact>
</mgrwt>
</event>
<event>
 6    1  0.1719556E-004  0.2052748E+04  0.7818608E-02  0.8582349E-01
          2   -1    0    0  501    0  0.00000000000E+00  0.00000000000E+00  0.71970247104E+03  0.71970247104E+03  0.00000000000E+00 0.  1.
         -2   -1    0    0    0  501 -0.00000000000E+00 -0.00000000000E+00 -0.14637204173E+04  0.14637204173E+04  0.00000000000E+00 0. -1.
         23    2    1    2    0    0  0.21311365158E+03  0.93682920481E+03  0.54829676628E+01  0.96489180241E+03  0.88992920765E+02 0.  0.
         11    1    3    3    0    0  0.39981149560E+02  0.31966652325E+03  0.29107475965E+02  0.32346935491E+03  0.00000000000E+00 0.  1.
        -11    1    3    3    0    0  0.17313250202E+03  0.61716268155E+03 -0.23624508302E+02  0.64142244750E+03  0.00000000000E+00 0. -1.
         22    1    1    2    0    0 -0.21311365158E+03 -0.93682920481E+03 -0.74950091396E+03  0.12185310860E+04  0.00000000000E+00 0. -1.
<mgrwt>
<rscale>  0 0.20527476E+04</rscale>
<asrwt>0</asrwt>
<pdfrwt beam="1">  1        2 0.11072346E+00 0.20527476E+04</pdfrwt>
<pdfrwt beam="2">  1       -2 0.22518776E+00 0.20527476E+04</pdfrwt>
<totfact> 0.33517512E+00</totfact>
</mgrwt>
</event>
<event>
 6    1  0.1719556E-004  0.2475623E+04  0.7818608E-02  0.8411722E-01
          1   -1    0    0  501    0  0.00000000000E+00  0.00000000000E+00  0.10937616209E+04  0.10937616209E+04  0.00000000000E+00 0.  1.
         -1   -1    0    0    0  501 -0.00000000000E+00 -0.00000000000E+00 -0.14008333797E+04  0.14008333797E+04  0.00000000000E+00 0. -1.
         23    2    1    2    0    0 -0.11933783559E+04 -0.13606059815E+03  0.14091328419E+03  0.12126609206E+04  0.89585534945E+02 0.  0.
         11    1    3    3    0    0 -0.80938751696E+03 -0.50020484082E+02  0.95912678948E+02  0.81658400879E+03  0.00000000000E+00 0.  1.
        -11    1    3    3    0    0 -0.38399083895E+03 -0.86040114069E+02  0.45000605245E+02  0.39607691184E+03  0.00000000000E+00 0. -1.
         22    1    1    2    0    0  0.11933783559E+04  0.13606059815E+03 -0.44798504301E+03  0.12819340800E+04  0.00000000000E+00 0. -1.
<mgrwt>
<rscale>  0 0.24756234E+04</rscale>
<asrwt>0</asrwt>
<pdfrwt beam="1">  1        1 0.16827102E+00 0.24756234E+04</pdfrwt>
<pdfrwt beam="2">  1       -1 0.21551283E+00 0.24756234E+04</pdfrwt>
<totfact> 0.13460914E+00</totfact>
</mgrwt>
</event>
<event>
 6    1  0.1719556E-004  0.2787424E+04  0.7818608E-02  0.8307183E-01
          2   -1    0    0  501    0  0.00000000000E+00  0.00000000000E+00  0.34465917641E+04  0.34465917641E+04  0.00000000000E+00 0. -1.
         -2   -1    0    0    0  501 -0.00000000000E+00 -0.00000000000E+00 -0.56358093122E+03  0.56358093122E+03  0.00000000000E+00 0.  1.
         23    2    1    2    0    0 -0.87180145329E+02  0.57145799841E+03 -0.37931766812E+03  0.69702436327E+03  0.88297496899E+02 0.  0.
         11    1    3    3    0    0 -0.38850536562E+02  0.90084038555E+02 -0.91132224416E+02  0.13390138356E+03  0.00000000000E+00 0. -1.
        -11    1    3    3    0    0 -0.48329608767E+02  0.48137395986E+03 -0.28818544370E+03  0.56312297971E+03  0.00000000000E+00 0.  1.
         22    1    1    2    0    0  0.87180145329E+02 -0.57145799841E+03  0.32623285010E+04  0.33131483320E+04  0.00000000000E+00 0. -1.
<mgrwt>
<rscale>  0 0.27874242E+04</rscale>
<asrwt>0</asrwt>
<pdfrwt beam="1">  1        2 0.53024487E+00 0.27874242E+04</pdfrwt>
<pdfrwt beam="2">  1       -2 0.86704761E-01 0.27874242E+04</pdfrwt>
<totfact> 0.88810800E-01</totfact>
</mgrwt>
</event>
<event>
 6    1  0.1719556E-004  0.2148165E+04  0.7818608E-02  0.8540318E-01
         -2   -1    0    0    0  501 -0.00000000000E+00  0.00000000000E+00  0.12731244056E+04  0.12731244056E+04  0.00000000000E+00 0. -1.
          2   -1    0    0  501    0  0.00000000000E+00 -0.00000000000E+00 -0.90615932559E+03  0.90615932559E+03  0.00000000000E+00 0.  1.
         23    2    1    2    0    0  0.98003353495E+03  0.32108205436E+03  0.48132709215E+03  0.11416720094E+04  0.90442203704E+02 0.  0.
         11    1    3    3    0    0  0.56324968628E+02  0.16042722032E+02  0.52200519301E+02  0.78452311861E+02  0.00000000000E+00 0. -1.
        -11    1    3    3    0    0  0.92370856633E+03  0.30503933233E+03  0.42912657285E+03  0.10632196976E+04  0.00000000000E+00 0.  1.
         22    1    1    2    0    0 -0.98003353495E+03 -0.32108205436E+03 -0.11436201217E+03  0.10376117217E+04  0.00000000000E+00 0.  1.
<mgrwt>
<rscale>  0 0.21481653E+04</rscale>
<asrwt>0</asrwt>
<pdfrwt beam="1">  1        2 0.13940913E+00 0.21481653E+04</pdfrwt>
<pdfrwt beam="2">  1       -2 0.19586529E+00 0.21481653E+04</pdfrwt>
<totfact> 0.37742948E+00</totfact>
</mgrwt>
</event>
<event>
 6    1  0.1719556E-004  0.3616081E+04  0.7818608E-02  0.8086818E-01
         -2   -1    0    0    0  501 -0.00000000000E+00  0.00000000000E+00  0.10262174501E+04  0.10262174501E+04  0.00000000000E+00 0. -1.
          2   -1    0    0  501    0  0.00000000000E+00 -0.00000000000E+00 -0.31854945210E+04  0.31854945210E+04  0.00000000000E+00 0.  1.
         23    2    1    2    0    0 -0.13659223080E+04  0.11664714270E+04 -0.13090496441E+04  0.22244309093E+04  0.89903048525E+02 0.  0.
         11    1    3    3    0    0 -0.96530210255E+03  0.77878815918E+03 -0.93135826280E+03  0.15510471817E+04  0.00000000000E+00 0. -1.
        -11    1    3    3    0    0 -0.40062020542E+03  0.38768326783E+03 -0.37769138125E+03  0.67338372761E+03  0.00000000000E+00 0.  1.
         22    1    1    2    0    0  0.13659223080E+04 -0.11664714270E+04 -0.85022742675E+03  0.19872810618E+04  0.00000000000E+00 0. -1.
<mgrwt>
<rscale>  0 0.36160808E+04</rscale>
<asrwt>0</asrwt>
<pdfrwt beam="1">  1        2 0.49007607E+00 0.36160808E+04</pdfrwt>
<pdfrwt beam="2">  1       -2 0.15787961E+00 0.36160808E+04</pdfrwt>
<totfact> 0.28148249E-01</totfact>
</mgrwt>
</event>
<event>
 6    1  0.1719556E-004  0.1803555E+04  0.7818608E-02  0.8704411E-01
         -2   -1    0    0    0  501 -0.00000000000E+00  0.00000000000E+00  0.19905233099E+03  0.19905233099E+03  0.00000000000E+00 0. -1.
          2   -1    0    0  501    0  0.00000000000E+00 -0.00000000000E+00 -0.40853711399E+04  0.40853711399E+04  0.00000000000E+00 0.  1.
         23    2    1    2    0    0  0.67707221682E+03  0.16049202301E+03 -0.59424707749E+03  0.91961727125E+03  0.91552499918E+02 0.  0.
         13    1    3    3    0    0  0.39091286903E+03  0.10346495937E+03 -0.40198164347E+03  0.57018164709E+03  0.00000000000E+00 0. -1.
        -13    1    3    3    0    0  0.28615934779E+03  0.57027063639E+02 -0.19226543401E+03  0.34943562416E+03  0.00000000000E+00 0.  1.
         22    1    1    2    0    0 -0.67707221682E+03 -0.16049202301E+03 -0.32920717314E+04  0.33648061996E+04  0.00000000000E+00 0. -1.
<mgrwt>
<rscale>  0 0.18035550E+04</rscale>
<asrwt>0</asrwt>
<pdfrwt beam="1">  1        2 0.62851866E+00 0.18035550E+04</pdfrwt>
<pdfrwt beam="2">  1       -2 0.30623434E-01 0.18035550E+04</pdfrwt>
<totfact> 0.27539699E+00</totfact>
</mgrwt>
</event>
<event>
 6    1  0.1719556E-004  0.1041589E+04  0.7818608E-02  0.9264071E-01
          2   -1    0    0  501    0  0.00000000000E+00  0.00000000000E+00  0.13043165731E+04  0.13043165731E+04  0.00000000000E+00 0.  1.
         -2   -1    0    0    0  501 -0.00000000000E+00 -0.00000000000E+00 -0.20794564784E+03  0.20794564784E+03  0.00000000000E+00 0. -1.
         23    2    1    2    0    0 -0.41410580437E+03  0.82302825801E+02  0.98504930476E+03  0.10756275045E+04  0.91624360205E+02 0.  0.
         13    1    3    3    0    0 -0.36455302120E+03  0.90529895877E+02  0.79856906325E+03  0.88250049070E+03  0.00000000000E+00 0.  1.
        -13    1    3    3    0    0 -0.49552783166E+02 -0.82270700767E+01  0.18648024151E+03  0.19312701384E+03  0.00000000000E+00 0. -1.
         22    1    1    2    0    0  0.41410580437E+03 -0.82302825801E+02  0.11132162048E+03  0.43663471636E+03  0.00000000000E+00 0. -1.
<mgrwt>
<rscale>  0 0.10415891E+04</rscale>
<asrwt>0</asrwt>
<pdfrwt beam="1">  1        2 0.20066408E+00 0.10415891E+04</pdfrwt>
<pdfrwt beam="2">  1       -2 0.31991639E-01 0.10415891E+04</pdfrwt>
<totfact> 0.14862515E+02</totfact>
</mgrwt>
</event>
<event>
 6    1  0.1719556E-004  0.1762367E+04  0.7818608E-02  0.8726572E-01
          2   -1    0    0  501    0  0.00000000000E+00  0.00000000000E+00  0.25255536745E+04  0.25255536745E+04  0.00000000000E+00 0.  1.
         -2   -1    0    0    0  501 -0.00000000000E+00 -0.00000000000E+00 -0.30745115508E+03  0.30745115508E+03  0.00000000000E+00 0. -1.
         23    2    1    2    0    0  0.34810566820E+03  0.64224729211E+03  0.32717751618E+03  0.80587471330E+03  0.93433323708E+02 0.  0.
         13    1    3    3    0    0  0.23378417382E+03  0.43483011753E+03  0.17230828311E+03  0.52289809281E+03  0.00000000000E+00 0.  1.
        -13    1    3    3    0    0  0.11432149438E+03  0.20741717459E+03  0.15486923307E+03  0.28297662049E+03  0.00000000000E+00 0. -1.
         22    1    1    2    0    0 -0.34810566820E+03 -0.64224729211E+03  0.18909250032E+04  0.20271301163E+04  0.00000000000E+00 0.  1.
<mgrwt>
<rscale>  0 0.17623670E+04</rscale>
<asrwt>0</asrwt>
<pdfrwt beam="1">  1        2 0.38854670E+00 0.17623670E+04</pdfrwt>
<pdfrwt beam="2">  1       -2 0.47300179E-01 0.17623670E+04</pdfrwt>
<totfact> 0.13513825E+01</totfact>
</mgrwt>
</event>
<event>
 6    1  0.1719556E-004  0.3161757E+04  0.7818608E-02  0.8198991E-01
          2   -1    0    0  501    0  0.00000000000E+00  0.00000000000E+00  0.15817816672E+04  0.15817816672E+04  0.00000000000E+00 0.  1.
         -2   -1    0    0    0  501 -0.00000000000E+00 -0.00000000000E+00 -0.15799754948E+04  0.15799754948E+04  0.00000000000E+00 0. -1.
         23    2    1    2    0    0 -0.11440455474E+04 -0.10988602658E+03 -0.10826565782E+04  0.15815753336E+04  0.91214671511E+02 0.  0.
         13    1    3    3    0    0 -0.81152446895E+03 -0.49379376896E+02 -0.72245783278E+03  0.10876376266E+04  0.00000000000E+00 0.  1.
        -13    1    3    3    0    0 -0.33252107840E+03 -0.60506649685E+02 -0.36019874544E+03  0.49393770706E+03  0.00000000000E+00 0. -1.
         22    1    1    2    0    0  0.11440455474E+04  0.10988602658E+03  0.10844627507E+04  0.15801818284E+04  0.00000000000E+00 0.  1.
<mgrwt>
<rscale>  0 0.31617566E+04</rscale>
<asrwt>0</asrwt>
<pdfrwt beam="1">  1        2 0.24335102E+00 0.31617566E+04</pdfrwt>
<pdfrwt beam="2">  1       -2 0.24307315E+00 0.31617566E+04</pdfrwt>
<totfact> 0.68383105E-01</totfact>
</mgrwt>
</event>
<event>
 6    1  0.1719556E-004  0.3239614E+04  0.7818608E-02  0.8178433E-01
          1   -1    0    0  501    0  0.00000000000E+00  0.00000000000E+00  0.20714682651E+04  0.20714682651E+04  0.00000000000E+00 0.  1.
         -1   -1    0    0    0  501 -0.00000000000E+00 -0.00000000000E+00 -0.12666257467E+04  0.12666257467E+04  0.00000000000E+00 0. -1.
         23    2    1    2    0    0  0.62253162085E+03 -0.13401926033E+04 -0.27756910513E+03  0.15063525575E+04  0.91605602993E+02 0.  0.
         13    1    3    3    0    0  0.25965396076E+03 -0.45539939562E+03 -0.10211521220E+03  0.53407518706E+03  0.00000000000E+00 0.  1.
        -13    1    3    3    0    0  0.36287766009E+03 -0.88479320767E+03 -0.17545389292E+03  0.97227737044E+03  0.00000000000E+00 0. -1.
         22    1    1    2    0    0 -0.62253162085E+03  0.13401926033E+04  0.10824116235E+04  0.18317414544E+04  0.00000000000E+00 0. -1.
<mgrwt>
<rscale>  0 0.32396142E+04</rscale>
<asrwt>0</asrwt>
<pdfrwt beam="1">  1        1 0.31868743E+00 0.32396142E+04</pdfrwt>
<pdfrwt beam="2">  1       -1 0.19486550E+00 0.32396142E+04</pdfrwt>
<totfact> 0.36302332E-01</totfact>
</mgrwt>
</event>
<event>
 6    1  0.1719556E-004  0.9321230E+03  0.7818608E-02  0.9386294E-01
          2   -1    0    0  501    0  0.00000000000E+00  0.00000000000E+00  0.59702295254E+03  0.59702295254E+03  0.00000000000E+00 0.  1.
         -2   -1    0    0    0  501 -0.00000000000E+00 -0.00000000000E+00 -0.36382744444E+03  0.36382744444E+03  0.00000000000E+00 0. -1.
         23    2    1    2    0    0 -0.26497471700E+03 -0.18102488445E+03  0.45904258374E+03  0.56843669817E+03  0.97049351907E+02 0.  0.
         11    1    3    3    0    0 -0.24073167659E+03 -0.12195191128E+03  0.39142573084E+03  0.47543465538E+03  0.00000000000E+00 0. -1.
        -11    1    3    3    0    0 -0.24243040413E+02 -0.59072973161E+02  0.67616852903E+02  0.93002042790E+02  0.00000000000E+00 0.  1.
         22    1    1    2    0    0  0.26497471700E+03  0.18102488445E+03 -0.22584707564E+03  0.39241369881E+03  0.00000000000E+00 0.  1.
<mgrwt>
<rscale>  0 0.93212303E+03</rscale>
<asrwt>0</asrwt>
<pdfrwt beam="1">  1        2 0.91849685E-01 0.93212303E+03</pdfrwt>
<pdfrwt beam="2">  1       -2 0.55973453E-01 0.93212303E+03</pdfrwt>
<totfact> 0.14988677E+02</totfact>
</mgrwt>
</event>
<event>
 6    1  0.1719556E-004  0.2727634E+04  0.7818608E-02  0.8326094E-01
         -1   -1    0    0    0  501 -0.00000000000E+00  0.00000000000E+00  0.95949135483E+03  0.95949135483E+03  0.00000000000E+00 0. -1.
          1   -1    0    0  501    0  0.00000000000E+00 -0.00000000000E+00 -0.19385231993E+04  0.19385231993E+04  0.00000000000E+00 0.  1.
         23    2    1    2    0    0  0.45002512332E+03  0.49644634669E+03  0.77016382796E+03  0.10248709165E+04  0.90699982455E+02 0.  0.
         13    1    3    3    0    0  0.20693883977E+02  0.50469260042E+02  0.40221092422E+02  0.67772555794E+02  0.00000000000E+00 0.  1.
        -13    1    3    3    0    0  0.42933123934E+03  0.44597708665E+03  0.72994273554E+03  0.95709836070E+03  0.00000000000E+00 0. -1.
         22    1    1    2    0    0 -0.45002512332E+03 -0.49644634669E+03 -0.17491956725E+04  0.18731436377E+04  0.00000000000E+00 0.  1.
<mgrwt>
<rscale>  0 0.27276336E+04</rscale>
<asrwt>0</asrwt>
<pdfrwt beam="1">  1        1 0.29823434E+00 0.27276336E+04</pdfrwt>
<pdfrwt beam="2">  1       -1 0.14761406E+00 0.27276336E+04</pdfrwt>
<totfact> 0.10408963E+00</totfact>
</mgrwt>
</event>
<event>
 6    1  0.1719556E-004  0.3497625E+04  0.7818608E-02  0.8114353E-01
         -2   -1    0    0    0  501 -0.00000000000E+00  0.00000000000E+00  0.92736524889E+03  0.92736524889E+03  0.00000000000E+00 0. -1.
          2   -1    0    0  501    0  0.00000000000E+00 -0.00000000000E+00 -0.32978859639E+04  0.32978859639E+04  0.00000000000E+00 0.  1.
         23    2    1    2    0    0 -0.16046583925E+04  0.62925429026E+03 -0.15352108022E+04  0.23098838410E+04  0.88326856075E+02 0.  0.
         13    1    3    3    0    0 -0.84370565003E+03  0.37810606799E+03 -0.82544949263E+03  0.12394233689E+04  0.00000000000E+00 0. -1.
        -13    1    3    3    0    0 -0.76095274246E+03  0.25114822227E+03 -0.70976130952E+03  0.10704604721E+04  0.00000000000E+00 0.  1.
         22    1    1    2    0    0  0.16046583925E+04 -0.62925429026E+03 -0.83530991289E+03  0.19153673718E+04  0.00000000000E+00 0. -1.
<mgrwt>
<rscale>  0 0.34976248E+04</rscale>
<asrwt>0</asrwt>
<pdfrwt beam="1">  1        2 0.50736707E+00 0.34976248E+04</pdfrwt>
<pdfrwt beam="2">  1       -2 0.14267158E+00 0.34976248E+04</pdfrwt>
<totfact> 0.31361018E-01</totfact>
</mgrwt>
</event>
<event>
 6    1  0.1719556E-004  0.2408248E+04  0.7818608E-02  0.8436422E-01
          1   -1    0    0  501    0  0.00000000000E+00  0.00000000000E+00  0.18030612314E+04  0.18030612314E+04  0.00000000000E+00 0.  1.
         -1   -1    0    0    0  501 -0.00000000000E+00 -0.00000000000E+00 -0.80414053873E+03  0.80414053873E+03  0.00000000000E+00 0. -1.
         23    2    1    2    0    0 -0.55598985301E+03 -0.91948529867E+03 -0.84008269997E+02  0.10816484052E+04  0.91257612607E+02 0.  0.
         13    1    3    3    0    0 -0.39261364910E+03 -0.61233532001E+03 -0.95043032114E+02  0.73357562633E+03  0.00000000000E+00 0.  1.
        -13    1    3    3    0    0 -0.16337620391E+03 -0.30714997866E+03  0.11034762117E+02  0.34807277884E+03  0.00000000000E+00 0. -1.
         22    1    1    2    0    0  0.55598985301E+03  0.91948529867E+03  0.10829289627E+04  0.15255533649E+04  0.00000000000E+00 0.  1.
<mgrwt>
<rscale>  0 0.24082480E+04</rscale>
<asrwt>0</asrwt>
<pdfrwt beam="1">  1        1 0.27739403E+00 0.24082480E+04</pdfrwt>
<pdfrwt beam="2">  1       -1 0.12371393E+00 0.24082480E+04</pdfrwt>
<totfact> 0.20846336E+00</totfact>
</mgrwt>
</event>
<event>
 6    1  0.1719556E-004  0.2540681E+04  0.7818608E-02  0.8388634E-01
          1   -1    0    0  501    0  0.00000000000E+00  0.00000000000E+00  0.19042701478E+04  0.19042701478E+04  0.00000000000E+00 0. -1.
         -1   -1    0    0    0  501 -0.00000000000E+00 -0.00000000000E+00 -0.84744559708E+03  0.84744559708E+03  0.00000000000E+00 0.  1.
         23    2    1    2    0    0 -0.79619441314E+02 -0.99028092488E+03  0.13836796868E+04  0.17058525389E+04  0.91475915809E+02 0.  0.
         11    1    3    3    0    0 -0.36900511148E+02 -0.23569738163E+03  0.27492370073E+03  0.36400267122E+03  0.00000000000E+00 0. -1.
        -11    1    3    3    0    0 -0.42718930165E+02 -0.75458354324E+03  0.11087559861E+04  0.13418498677E+04  0.00000000000E+00 0.  1.
         22    1    1    2    0    0  0.79619441314E+02  0.99028092488E+03 -0.32685513610E+03  0.10458632060E+04  0.00000000000E+00 0.  1.
<mgrwt>
<rscale>  0 0.25406813E+04</rscale>
<asrwt>0</asrwt>
<pdfrwt beam="1">  1        1 0.29296464E+00 0.25406813E+04</pdfrwt>
<pdfrwt beam="2">  1       -1 0.13037625E+00 0.25406813E+04</pdfrwt>
<totfact> 0.15423260E+00</totfact>
</mgrwt>
</event>
<event>
 6    1  0.1719556E-004  0.7226154E+03  0.7818608E-02  0.9679320E-01
         -2   -1    0    0    0  501 -0.00000000000E+00  0.00000000000E+00  0.16935574815E+03  0.16935574815E+03  0.00000000000E+00 0. -1.
          2   -1    0    0  501    0  0.00000000000E+00 -0.00000000000E+00 -0.77082272273E+03  0.77082272273E+03  0.00000000000E+00 0.  1.
         23    2    1    2    0    0  0.15430605989E+03 -0.20890298139E+03  0.11086989350E+02  0.27484158291E+03  0.89242134739E+02 0.  0.
         11    1    3    3    0    0  0.41169600536E+02 -0.10975496121E+03  0.35411544170E+02  0.12245433834E+03  0.00000000000E+00 0. -1.
        -11    1    3    3    0    0  0.11313645935E+03 -0.99148020186E+02 -0.24324554820E+02  0.15238724458E+03  0.00000000000E+00 0.  1.
         22    1    1    2    0    0 -0.15430605989E+03  0.20890298139E+03 -0.61255396393E+03  0.66533688796E+03  0.00000000000E+00 0.  1.
<mgrwt>
<rscale>  0 0.72261541E+03</rscale>
<asrwt>0</asrwt>
<pdfrwt beam="1">  1        2 0.11858811E+00 0.72261541E+03</pdfrwt>
<pdfrwt beam="2">  1       -2 0.26054730E-01 0.72261541E+03</pdfrwt>
<totfact> 0.48386248E+02</totfact>
</mgrwt>
</event>
<event>
 6    1  0.1719556E-004  0.2020025E+04  0.7818608E-02  0.8597315E-01
         -2   -1    0    0    0  501 -0.00000000000E+00  0.00000000000E+00  0.43990756486E+03  0.43990756486E+03  0.00000000000E+00 0. -1.
          2   -1    0    0  501    0  0.00000000000E+00 -0.00000000000E+00 -0.23189538021E+04  0.23189538021E+04  0.00000000000E+00 0.  1.
         23    2    1    2    0    0 -0.90256052672E+03 -0.38673343516E+03 -0.12524543678E+04  0.15940456626E+04  0.90340338702E+02 0.  0.
         11    1    3    3    0    0 -0.50285374256E+03 -0.24355785108E+03 -0.77026818261E+03  0.95157521320E+03  0.00000000000E+00 0. -1.
        -11    1    3    3    0    0 -0.39970678417E+03 -0.14317558408E+03 -0.48218618522E+03  0.64247044944E+03  0.00000000000E+00 0.  1.
         22    1    1    2    0    0  0.90256052672E+03  0.38673343516E+03 -0.62659186946E+03  0.11648157044E+04  0.00000000000E+00 0.  1.
<mgrwt>
<rscale>  0 0.20200251E+04</rscale>
<asrwt>0</asrwt>
<pdfrwt beam="1">  1        2 0.35676213E+00 0.20200251E+04</pdfrwt>
<pdfrwt beam="2">  1       -2 0.67678086E-01 0.20200251E+04</pdfrwt>
<totfact> 0.82083975E+00</totfact>
</mgrwt>
</event>
<event>
 6    1  0.1719556E-004  0.2805452E+04  0.7818608E-02  0.8301578E-01
         -1   -1    0    0    0  501 -0.00000000000E+00  0.00000000000E+00  0.57556665804E+03  0.57556665804E+03  0.00000000000E+00 0. -1.
          1   -1    0    0  501    0  0.00000000000E+00 -0.00000000000E+00 -0.34186133274E+04  0.34186133274E+04  0.00000000000E+00 0.  1.
         23    2    1    2    0    0  0.20099653181E+02  0.28392551701E+03 -0.33764178456E+04  0.33896119521E+04  0.90851651456E+02 0.  0.
         11    1    3    3    0    0 -0.11307469282E+01  0.21563595848E+03 -0.20606620309E+04  0.20719141273E+04  0.00000000000E+00 0.  1.
        -11    1    3    3    0    0  0.21230400109E+02  0.68289558533E+02 -0.13157558147E+04  0.13176978248E+04  0.00000000000E+00 0. -1.
         22    1    1    2    0    0 -0.20099653181E+02 -0.28392551701E+03  0.53337117624E+03  0.60456803332E+03  0.00000000000E+00 0. -1.
<mgrwt>
<rscale>  0 0.28054517E+04</rscale>
<asrwt>0</asrwt>
<pdfrwt beam="1">  1        1 0.52594053E+00 0.28054517E+04</pdfrwt>
<pdfrwt beam="2">  1       -1 0.88548714E-01 0.28054517E+04</pdfrwt>
<totfact> 0.31341169E-01</totfact>
</mgrwt>
</event>
<event>
 6    1  0.1719556E-004  0.4174910E+04  0.7818608E-02  0.7970162E-01
          4   -1    0    0  501    0  0.00000000000E+00  0.00000000000E+00  0.16575641842E+04  0.16575641842E+04  0.00000000000E+00 0.  1.
         -4   -1    0    0    0  501 -0.00000000000E+00 -0.00000000000E+00 -0.26288378001E+04  0.26288378001E+04  0.00000000000E+00 0. -1.
         23    2    1    2    0    0 -0.17075985146E+04 -0.10048883088E+04 -0.11572971265E+04  0.22963522495E+04  0.90574913200E+02 0.  0.
         11    1    3    3    0    0 -0.13049810155E+04 -0.72703119061E+03 -0.85232607132E+03  0.17198864889E+04  0.00000000000E+00 0.  1.
        -11    1    3    3    0    0 -0.40261749913E+03 -0.27785711815E+03 -0.30497105515E+03  0.57646576064E+03  0.00000000000E+00 0. -1.
         22    1    1    2    0    0  0.17075985146E+04  0.10048883088E+04  0.18602351062E+03  0.19900497347E+04  0.00000000000E+00 0. -1.
<mgrwt>
<rscale>  0 0.41749095E+04</rscale>
<asrwt>0</asrwt>
<pdfrwt beam="1">  1        4 0.25500988E+00 0.41749095E+04</pdfrwt>
<pdfrwt beam="2">  1       -4 0.40443658E+00 0.41749095E+04</pdfrwt>
<totfact> 0.56584232E-04</totfact>
</mgrwt>
</event>
<event>
 6    1  0.1719556E-004  0.2271990E+04  0.7818608E-02  0.8489048E-01
          2   -1    0    0  501    0  0.00000000000E+00  0.00000000000E+00  0.17401964612E+04  0.17401964612E+04  0.00000000000E+00 0. -1.
         -2   -1    0    0    0  501 -0.00000000000E+00 -0.00000000000E+00 -0.74157406471E+03  0.74157406471E+03  0.00000000000E+00 0.  1.
         23    2    1    2    0    0  0.44238694396E+03  0.66251336053E+03 -0.38086830000E+03  0.88877813962E+03  0.10117192520E+03 0.  0.
         11    1    3    3    0    0  0.26691292654E+03  0.43275949350E+03 -0.19221772659E+03  0.54357239075E+03  0.00000000000E+00 0. -1.
        -11    1    3    3    0    0  0.17547401742E+03  0.22975386703E+03 -0.18865057341E+03  0.34520574887E+03  0.00000000000E+00 0.  1.
         22    1    1    2    0    0 -0.44238694396E+03 -0.66251336053E+03  0.13794906965E+04  0.15929923863E+04  0.00000000000E+00 0. -1.
<mgrwt>
<rscale>  0 0.22719899E+04</rscale>
<asrwt>0</asrwt>
<pdfrwt beam="1">  1        2 0.26772253E+00 0.22719899E+04</pdfrwt>
<pdfrwt beam="2">  1       -2 0.11408832E+00 0.22719899E+04</pdfrwt>
<totfact> 0.50892630E+00</totfact>
</mgrwt>
</event>
<event>
 6    1  0.1719556E-004  0.4888025E+04  0.7818608E-02  0.7846016E-01
         -2   -1    0    0    0  501 -0.00000000000E+00  0.00000000000E+00  0.14126863499E+04  0.14126863499E+04  0.00000000000E+00 0. -1.
          2   -1    0    0  501    0  0.00000000000E+00 -0.00000000000E+00 -0.42282548245E+04  0.42282548245E+04  0.00000000000E+00 0.  1.
         23    2    1    2    0    0  0.17408354019E+04  0.15346599172E+04 -0.52680686471E+03  0.23814751652E+04  0.90606466004E+02 0.  0.
         11    1    3    3    0    0  0.69431041744E+03  0.64655492784E+03 -0.17817156896E+03  0.96532136538E+03  0.00000000000E+00 0. -1.
        -11    1    3    3    0    0  0.10465249845E+04  0.88810498932E+03 -0.34863529574E+03  0.14161537998E+04  0.00000000000E+00 0.  1.
         22    1    1    2    0    0 -0.17408354019E+04 -0.15346599172E+04 -0.22887616099E+04  0.32594660092E+04  0.00000000000E+00 0.  1.
<mgrwt>
<rscale>  0 0.48880253E+04</rscale>
<asrwt>0</asrwt>
<pdfrwt beam="1">  1        2 0.65050074E+00 0.48880253E+04</pdfrwt>
<pdfrwt beam="2">  1       -2 0.21733636E+00 0.48880253E+04</pdfrwt>
<totfact> 0.16475698E-02</totfact>
</mgrwt>
</event>
<event>
 6    1  0.1719556E-004  0.5504403E+04  0.7818608E-02  0.7755084E-01
          2   -1    0    0  501    0  0.00000000000E+00  0.00000000000E+00  0.46294185099E+04  0.46294185099E+04  0.00000000000E+00 0.  1.
         -2   -1    0    0    0  501 -0.00000000000E+00 -0.00000000000E+00 -0.16361908642E+04  0.16361908642E+04  0.00000000000E+00 0. -1.
         23    2    1    2    0    0 -0.10599351931E+04  0.40276747453E+02 -0.13928693635E+04  0.17530788419E+04  0.90086247409E+02 0.  0.
         11    1    3    3    0    0 -0.81904985749E+03  0.15295139802E+02 -0.10162010534E+04  0.13052743740E+04  0.00000000000E+00 0.  1.
        -11    1    3    3    0    0 -0.24088533564E+03  0.24981607651E+02 -0.37666831007E+03  0.44780446788E+03  0.00000000000E+00 0. -1.
         22    1    1    2    0    0  0.10599351931E+04 -0.40276747453E+02  0.43860970093E+04  0.45125305323E+04  0.00000000000E+00 0.  1.
<mgrwt>
<rscale>  0 0.55044027E+04</rscale>
<asrwt>0</asrwt>
<pdfrwt beam="1">  1        2 0.71221823E+00 0.55044027E+04</pdfrwt>
<pdfrwt beam="2">  1       -2 0.25172167E+00 0.55044027E+04</pdfrwt>
<totfact> 0.39470048E-03</totfact>
</mgrwt>
</event>
<event>
 6    1  0.1719556E-004  0.9086195E+03  0.7818608E-02  0.9414870E-01
          2   -1    0    0  501    0  0.00000000000E+00  0.00000000000E+00  0.56512387593E+03  0.56512387593E+03  0.00000000000E+00 0.  1.
         -2   -1    0    0    0  501 -0.00000000000E+00 -0.00000000000E+00 -0.36522494424E+03  0.36522494424E+03  0.00000000000E+00 0. -1.
         23    2    1    2    0    0  0.44300924658E+03  0.70172764296E+02  0.67956323888E+02  0.46281244601E+03  0.91629082846E+02 0.  0.
         11    1    3    3    0    0  0.10974745881E+03  0.56582622298E+02  0.30428227848E+02  0.12716908001E+03  0.00000000000E+00 0. -1.
        -11    1    3    3    0    0  0.33326178777E+03  0.13590141998E+02  0.37528096040E+02  0.33564336600E+03  0.00000000000E+00 0.  1.
         22    1    1    2    0    0 -0.44300924658E+03 -0.70172764296E+02  0.13194260780E+03  0.46753637415E+03  0.00000000000E+00 0. -1.
<mgrwt>
<rscale>  0 0.90861947E+03</rscale>
<asrwt>0</asrwt>
<pdfrwt beam="1">  1        2 0.86942135E-01 0.90861947E+03</pdfrwt>
<pdfrwt beam="2">  1       -2 0.56188453E-01 0.90861947E+03</pdfrwt>
<totfact> 0.15901390E+02</totfact>
</mgrwt>
</event>
<event>
 6    1  0.1719556E-004  0.1962042E+04  0.7818608E-02  0.8624576E-01
         -1   -1    0    0    0  501 -0.00000000000E+00  0.00000000000E+00  0.74949506532E+03  0.74949506532E+03  0.00000000000E+00 0. -1.
          1   -1    0    0  501    0  0.00000000000E+00 -0.00000000000E+00 -0.12840668346E+04  0.12840668346E+04  0.00000000000E+00 0.  1.
         23    2    1    2    0    0  0.16103946544E+02  0.36694723468E+03 -0.12078842934E+04  0.12665812187E+04  0.10165582757E+03 0.  0.
         11    1    3    3    0    0 -0.34414297510E+02  0.17174556848E+03 -0.46765706936E+03  0.49938363879E+03  0.00000000000E+00 0. -1.
        -11    1    3    3    0    0  0.50518244055E+02  0.19520166620E+03 -0.74022722401E+03  0.76719757992E+03  0.00000000000E+00 0.  1.
         22    1    1    2    0    0 -0.16103946544E+02 -0.36694723468E+03  0.67331252413E+03  0.76698068117E+03  0.00000000000E+00 0. -1.
<mgrwt>
<rscale>  0 0.19620415E+04</rscale>
<asrwt>0</asrwt>
<pdfrwt beam="1">  1        1 0.19754874E+00 0.19620415E+04</pdfrwt>
<pdfrwt beam="2">  1       -1 0.11530693E+00 0.19620415E+04</pdfrwt>
<totfact> 0.58950057E+00</totfact>
</mgrwt>
</event>
<event>
 6    1  0.1719556E-004  0.1302082E+04  0.7818608E-02  0.9027916E-01
          1   -1    0    0  501    0  0.00000000000E+00  0.00000000000E+00  0.11567673964E+04  0.11567673964E+04  0.00000000000E+00 0.  1.
         -1   -1    0    0    0  501 -0.00000000000E+00 -0.00000000000E+00 -0.36641297130E+03  0.36641297130E+03  0.00000000000E+00 0. -1.
         23    2    1    2    0    0  0.35966037094E+03  0.34914125563E+03 -0.82922437872E+02  0.51627040241E+03  0.91672236210E+02 0.  0.
         11    1    3    3    0    0  0.29755792647E+03  0.24156342322E+03 -0.42368966916E+02  0.38560178475E+03  0.00000000000E+00 0.  1.
        -11    1    3    3    0    0  0.62102444477E+02  0.10757783241E+03 -0.40553470956E+02  0.13066861766E+03  0.00000000000E+00 0. -1.
         22    1    1    2    0    0 -0.35966037094E+03 -0.34914125563E+03  0.87327686300E+03  0.10069099653E+04  0.00000000000E+00 0.  1.
<mgrwt>
<rscale>  0 0.13020823E+04</rscale>
<asrwt>0</asrwt>
<pdfrwt beam="1">  1        1 0.17796421E+00 0.13020823E+04</pdfrwt>
<pdfrwt beam="2">  1       -1 0.56371227E-01 0.13020823E+04</pdfrwt>
<totfact> 0.35968779E+01</totfact>
</mgrwt>
</event>
<event>
 6    1  0.1719556E-004  0.8193734E+03  0.7818608E-02  0.9532391E-01
         -2   -1    0    0    0  501 -0.00000000000E+00  0.00000000000E+00  0.59563321186E+03  0.59563321186E+03  0.00000000000E+00 0. -1.
          2   -1    0    0  501    0  0.00000000000E+00 -0.00000000000E+00 -0.28178952387E+03  0.28178952387E+03  0.00000000000E+00 0.  1.
         23    2    1    2    0    0  0.27161128430E+03  0.20078162112E+03  0.39800562224E+03  0.52932909845E+03  0.87720408093E+02 0.  0.
         11    1    3    3    0    0  0.61655655713E+02  0.46495087162E+02  0.41217572299E+02  0.87533429487E+02  0.00000000000E+00 0.  1.
        -11    1    3    3    0    0  0.20995562859E+03  0.15428653395E+03  0.35678804994E+03  0.44179566896E+03  0.00000000000E+00 0. -1.
         22    1    1    2    0    0 -0.27161128430E+03 -0.20078162112E+03 -0.84161934245E+02  0.34809363728E+03  0.00000000000E+00 0.  1.
<mgrwt>
<rscale>  0 0.81937342E+03</rscale>
<asrwt>0</asrwt>
<pdfrwt beam="1">  1        2 0.43352235E-01 0.81937342E+03</pdfrwt>
<pdfrwt beam="2">  1       -2 0.91635879E-01 0.81937342E+03</pdfrwt>
<totfact> 0.12014588E+02</totfact>
</mgrwt>
</event>
<event>
 6    1  0.1900194E-004  0.2643035E+04  0.7818608E-02  0.8353729E-01
          2   -1    0    0  501    0  0.00000000000E+00  0.00000000000E+00  0.93082208425E+03  0.93082208425E+03  0.00000000000E+00 0.  1.
         -2   -1    0    0    0  501 -0.00000000000E+00 -0.00000000000E+00 -0.18761996228E+04  0.18761996228E+04  0.00000000000E+00 0. -1.
         23    2    1    2    0    0  0.57298780602E+03 -0.46821580579E+03  0.68645101699E+03  0.10152612595E+04  0.10954158895E+03 0.  0.
         13    1    3    3    0    0  0.28830439355E+03 -0.30498145180E+03  0.37414159560E+03  0.56224108960E+03  0.00000000000E+00 0. -1.
        -13    1    3    3    0    0  0.28468341248E+03 -0.16323435399E+03  0.31230942139E+03  0.45302016992E+03  0.00000000000E+00 0.  1.
         22    1    1    2    0    0 -0.57298780602E+03  0.46821580579E+03 -0.16318285556E+04  0.17917604476E+04  0.00000000000E+00 0. -1.
<mgrwt>
<rscale>  0 0.26430347E+04</rscale>
<asrwt>0</asrwt>
<pdfrwt beam="1">  1        2 0.14320340E+00 0.26430347E+04</pdfrwt>
<pdfrwt beam="2">  1       -2 0.28864609E+00 0.26430347E+04</pdfrwt>
<totfact> 0.91897297E-01</totfact>
</mgrwt>
</event>
<event>
 6    1  0.1719556E-004  0.1683708E+04  0.7818608E-02  0.8770711E-01
         -2   -1    0    0    0  501 -0.00000000000E+00  0.00000000000E+00  0.28045094369E+03  0.28045094369E+03  0.00000000000E+00 0. -1.
          2   -1    0    0  501    0  0.00000000000E+00 -0.00000000000E+00 -0.25270657103E+04  0.25270657103E+04  0.00000000000E+00 0.  1.
         23    2    1    2    0    0  0.13084490591E+03 -0.19383824724E+03 -0.24707932879E+04  0.24835572970E+04  0.92432247912E+02 0.  0.
         13    1    3    3    0    0  0.10040591445E+03 -0.67378694833E+02 -0.12672174695E+04  0.12729734291E+04  0.00000000000E+00 0.  1.
        -13    1    3    3    0    0  0.30438991459E+02 -0.12645955241E+03 -0.12035758185E+04  0.12105838680E+04  0.00000000000E+00 0. -1.
         22    1    1    2    0    0 -0.13084490591E+03  0.19383824724E+03  0.22417852136E+03  0.32395935692E+03  0.00000000000E+00 0. -1.
<mgrwt>
<rscale>  0 0.16837078E+04</rscale>
<asrwt>0</asrwt>
<pdfrwt beam="1">  1        2 0.38877936E+00 0.16837078E+04</pdfrwt>
<pdfrwt beam="2">  1       -2 0.43146297E-01 0.16837078E+04</pdfrwt>
<totfact> 0.16321785E+01</totfact>
</mgrwt>
</event>
<event>
 6    1  0.1719556E-004  0.2379835E+04  0.7818608E-02  0.8447092E-01
         -2   -1    0    0    0  501 -0.00000000000E+00  0.00000000000E+00  0.22845389364E+04  0.22845389364E+04  0.00000000000E+00 0. -1.
          2   -1    0    0  501    0  0.00000000000E+00 -0.00000000000E+00 -0.61977679725E+03  0.61977679725E+03  0.00000000000E+00 0.  1.
         23    2    1    2    0    0  0.27027889852E+03  0.76294241666E+03 -0.22781385522E+03  0.84592419933E+03  0.92502887897E+02 0.  0.
         13    1    3    3    0    0  0.84725311066E+02  0.35289715164E+03 -0.12866635084E+03  0.38505818757E+03  0.00000000000E+00 0.  1.
        -13    1    3    3    0    0  0.18555358746E+03  0.41004526501E+03 -0.99147504372E+02  0.46086601177E+03  0.00000000000E+00 0. -1.
         22    1    1    2    0    0 -0.27027889852E+03 -0.76294241666E+03  0.18925759943E+04  0.20583915343E+04  0.00000000000E+00 0. -1.
<mgrwt>
<rscale>  0 0.23798355E+04</rscale>
<asrwt>0</asrwt>
<pdfrwt beam="1">  1        2 0.95350278E-01 0.23798355E+04</pdfrwt>
<pdfrwt beam="2">  1       -2 0.35146752E+00 0.23798355E+04</pdfrwt>
<totfact> 0.65455687E-01</totfact>
</mgrwt>
</event>
<event>
 6    1  0.1719556E-004  0.1173074E+04  0.7818608E-02  0.9136757E-01
         -2   -1    0    0    0  501 -0.00000000000E+00  0.00000000000E+00  0.53111558530E+03  0.53111558530E+03  0.00000000000E+00 0. -1.
          2   -1    0    0  501    0  0.00000000000E+00 -0.00000000000E+00 -0.64774123162E+03  0.64774123162E+03  0.00000000000E+00 0.  1.
         23    2    1    2    0    0  0.18388517390E+03 -0.25631865784E+03  0.43405068873E+03  0.54422508315E+03  0.90928154082E+02 0.  0.
         11    1    3    3    0    0  0.14603379360E+03 -0.15298275299E+03  0.23047258880E+03  0.31280538002E+03  0.00000000000E+00 0. -1.
        -11    1    3    3    0    0  0.37851380300E+02 -0.10333590485E+03  0.20357809993E+03  0.23141970312E+03  0.00000000000E+00 0.  1.
         22    1    1    2    0    0 -0.18388517390E+03  0.25631865784E+03 -0.55067633505E+03  0.63463173378E+03  0.00000000000E+00 0.  1.
<mgrwt>
<rscale>  0 0.11730737E+04</rscale>
<asrwt>0</asrwt>
<pdfrwt beam="1">  1        2 0.99652497E-01 0.11730737E+04</pdfrwt>
<pdfrwt beam="2">  1       -2 0.81710090E-01 0.11730737E+04</pdfrwt>
<totfact> 0.58854828E+01</totfact>
</mgrwt>
</event>
<event>
 6    1  0.1719556E-004  0.3331693E+04  0.7818608E-02  0.8154878E-01
         -2   -1    0    0    0  501 -0.00000000000E+00  0.00000000000E+00  0.89428428953E+03  0.89428428953E+03  0.00000000000E+00 0. -1.
          2   -1    0    0  501    0  0.00000000000E+00 -0.00000000000E+00 -0.31030898181E+04  0.31030898181E+04  0.00000000000E+00 0.  1.
         23    2    1    2    0    0  0.11950390029E+04  0.86763104880E+02  0.28112853726E+03  0.12341481474E+04  0.91882209678E+02 0.  0.
         11    1    3    3    0    0  0.69449515349E+03  0.61323286121E+02  0.20861859257E+03  0.72774018771E+03  0.00000000000E+00 0. -1.
        -11    1    3    3    0    0  0.50054384944E+03  0.25439818758E+02  0.72509944688E+02  0.50640795972E+03  0.00000000000E+00 0.  1.
         22    1    1    2    0    0 -0.11950390029E+04 -0.86763104880E+02 -0.24899340658E+04  0.27632259602E+04  0.00000000000E+00 0.  1.
<mgrwt>
<rscale>  0 0.33316929E+04</rscale>
<asrwt>0</asrwt>
<pdfrwt beam="1">  1        2 0.47739842E+00 0.33316929E+04</pdfrwt>
<pdfrwt beam="2">  1       -2 0.13758220E+00 0.33316929E+04</pdfrwt>
<totfact> 0.46852522E-01</totfact>
</mgrwt>
</event>
<event>
 6    1  0.1719556E-004  0.3816843E+03  0.7818608E-02  0.1050313E+00
          2   -1    0    0  501    0  0.00000000000E+00  0.00000000000E+00  0.53716392412E+03  0.53716392412E+03  0.00000000000E+00 0.  1.
         -2   -1    0    0    0  501 -0.00000000000E+00 -0.00000000000E+00 -0.67801892139E+02  0.67801892139E+02  0.00000000000E+00 0. -1.
         23    2    1    2    0    0 -0.87794791643E+02 -0.11386244381E+03  0.41938542195E+03  0.45274806729E+03  0.91782889160E+02 0.  0.
         11    1    3    3    0    0 -0.70779472247E+02 -0.68018935715E+02  0.15210286690E+03  0.18102925572E+03  0.00000000000E+00 0. -1.
        -11    1    3    3    0    0 -0.17015319396E+02 -0.45843508095E+02  0.26728255504E+03  0.27171881157E+03  0.00000000000E+00 0.  1.
         22    1    1    2    0    0  0.87794791643E+02  0.11386244381E+03  0.49976610030E+02  0.15221774897E+03  0.00000000000E+00 0. -1.
<mgrwt>
<rscale>  0 0.38168432E+03</rscale>
<asrwt>0</asrwt>
<pdfrwt beam="1">  1        2 0.82640601E-01 0.38168432E+03</pdfrwt>
<pdfrwt beam="2">  1       -2 0.10431061E-01 0.38168432E+03</pdfrwt>
<totfact> 0.35766249E+03</totfact>
</mgrwt>
</event>
<event>
 6    1  0.1719556E-004  0.1613898E+04  0.7818608E-02  0.8812055E-01
          1   -1    0    0  501    0  0.00000000000E+00  0.00000000000E+00  0.21016331608E+04  0.21016331608E+04  0.00000000000E+00 0. -1.
         -1   -1    0    0    0  501 -0.00000000000E+00 -0.00000000000E+00 -0.30983827979E+03  0.30983827979E+03  0.00000000000E+00 0.  1.
         23    2    1    2    0    0  0.41480627633E+03  0.63893492840E+03  0.12850987495E+04  0.14965708671E+04  0.89126173251E+02 0.  0.
         11    1    3    3    0    0  0.30708228595E+03  0.44956452995E+03  0.98909244442E+03  0.11290312930E+04  0.00000000000E+00 0.  1.
        -11    1    3    3    0    0  0.10772399038E+03  0.18937039845E+03  0.29600630505E+03  0.36753957411E+03  0.00000000000E+00 0. -1.
         22    1    1    2    0    0 -0.41480627633E+03 -0.63893492840E+03  0.50669613150E+03  0.91490057344E+03  0.00000000000E+00 0.  1.
<mgrwt>
<rscale>  0 0.16138976E+04</rscale>
<asrwt>0</asrwt>
<pdfrwt beam="1">  1        1 0.32332817E+00 0.16138976E+04</pdfrwt>
<pdfrwt beam="2">  1       -1 0.47667429E-01 0.16138976E+04</pdfrwt>
<totfact> 0.10714020E+01</totfact>
</mgrwt>
</event>
<event>
 6    1  0.1719556E-004  0.2683847E+04  0.7818608E-02  0.8340265E-01
         -2   -1    0    0    0  501 -0.00000000000E+00  0.00000000000E+00  0.58282541219E+03  0.58282541219E+03  0.00000000000E+00 0. -1.
          2   -1    0    0  501    0  0.00000000000E+00 -0.00000000000E+00 -0.30897059169E+04  0.30897059169E+04  0.00000000000E+00 0.  1.
         23    2    1    2    0    0 -0.10368121406E+04 -0.84526285587E+03 -0.13704857818E+04  0.19172986731E+04  0.91401385565E+02 0.  0.
         11    1    3    3    0    0 -0.69722472811E+03 -0.52475971824E+03 -0.85316987268E+03  0.12204072742E+04  0.00000000000E+00 0.  1.
        -11    1    3    3    0    0 -0.33958741251E+03 -0.32050313764E+03 -0.51731590909E+03  0.69689139883E+03  0.00000000000E+00 0. -1.
         22    1    1    2    0    0  0.10368121406E+04  0.84526285587E+03 -0.11363947230E+04  0.17552326561E+04  0.00000000000E+00 0. -1.
<mgrwt>
<rscale>  0 0.26838473E+04</rscale>
<asrwt>0</asrwt>
<pdfrwt beam="1">  1        2 0.47533937E+00 0.26838473E+04</pdfrwt>
<pdfrwt beam="2">  1       -2 0.89665448E-01 0.26838473E+04</pdfrwt>
<totfact> 0.14303062E+00</totfact>
</mgrwt>
</event>
<event>
 6    1  0.1719556E-004  0.1144618E+04  0.7818608E-02  0.9162763E-01
         -2   -1    0    0    0  501 -0.00000000000E+00  0.00000000000E+00  0.54103828165E+03  0.54103828165E+03  0.00000000000E+00 0. -1.
          2   -1    0    0  501    0  0.00000000000E+00 -0.00000000000E+00 -0.60538738275E+03  0.60538738275E+03  0.00000000000E+00 0.  1.
         23    2    1    2    0    0 -0.26796138075E+01  0.14613705601E+03  0.51796989399E+03  0.54604359312E+03  0.92236516803E+02 0.  0.
         11    1    3    3    0    0  0.16432689292E+02  0.12922928649E+03  0.30643923985E+03  0.33297935294E+03  0.00000000000E+00 0. -1.
        -11    1    3    3    0    0 -0.19112303100E+02  0.16907769514E+02  0.21153065414E+03  0.21306424017E+03  0.00000000000E+00 0.  1.
         22    1    1    2    0    0  0.26796138075E+01 -0.14613705601E+03 -0.58231899510E+03  0.60038207129E+03  0.00000000000E+00 0.  1.
<mgrwt>
<rscale>  0 0.11446183E+04</rscale>
<asrwt>0</asrwt>
<pdfrwt beam="1">  1        2 0.93136520E-01 0.11446183E+04</pdfrwt>
<pdfrwt beam="2">  1       -2 0.83236659E-01 0.11446183E+04</pdfrwt>
<totfact> 0.61426880E+01</totfact>
</mgrwt>
</event>
<event>
 6    1  0.1719556E-004  0.1400980E+04  0.7818608E-02  0.8953109E-01
         -2   -1    0    0    0  501 -0.00000000000E+00  0.00000000000E+00  0.31142338396E+03  0.31142338396E+03  0.00000000000E+00 0. -1.
          2   -1    0    0  501    0  0.00000000000E+00 -0.00000000000E+00 -0.15756248932E+04  0.15756248932E+04  0.00000000000E+00 0.  1.
         23    2    1    2    0    0 -0.51577367905E+03  0.25552353805E+03 -0.10400429275E+03  0.59191417303E+03  0.90723364254E+02 0.  0.
         11    1    3    3    0    0 -0.34631693675E+03  0.13787877591E+03 -0.35025780311E+02  0.37439655823E+03  0.00000000000E+00 0. -1.
        -11    1    3    3    0    0 -0.16945674231E+03  0.11764476214E+03 -0.68978512438E+02  0.21751761481E+03  0.00000000000E+00 0.  1.
         22    1    1    2    0    0  0.51577367905E+03 -0.25552353805E+03 -0.11601972165E+04  0.12951341041E+04  0.00000000000E+00 0.  1.
<mgrwt>
<rscale>  0 0.14009803E+04</rscale>
<asrwt>0</asrwt>
<pdfrwt beam="1">  1        2 0.24240383E+00 0.14009803E+04</pdfrwt>
<pdfrwt beam="2">  1       -2 0.47911289E-01 0.14009803E+04</pdfrwt>
<totfact> 0.46219544E+01</totfact>
</mgrwt>
</event>
<event>
 6    1  0.1719556E-004  0.2741063E+04  0.7818608E-02  0.8321803E-01
          2   -1    0    0  501    0  0.00000000000E+00  0.00000000000E+00  0.18608374291E+04  0.18608374291E+04  0.00000000000E+00 0.  1.
         -2   -1    0    0    0  501 -0.00000000000E+00 -0.00000000000E+00 -0.10094147304E+04  0.10094147304E+04  0.00000000000E+00 0. -1.
         23    2    1    2    0    0  0.10344116465E+04 -0.85917176703E+03  0.69502292397E+03  0.15165001627E+04  0.92370443720E+02 0.  0.
         11    1    3    3    0    0  0.64463443590E+03 -0.47652633143E+03  0.41536229303E+03  0.90286030756E+03  0.00000000000E+00 0.  1.
        -11    1    3    3    0    0  0.38977721058E+03 -0.38264543560E+03  0.27966063094E+03  0.61363985511E+03  0.00000000000E+00 0. -1.
         22    1    1    2    0    0 -0.10344116465E+04  0.85917176703E+03  0.15639977474E+03  0.13537519969E+04  0.00000000000E+00 0. -1.
<mgrwt>
<rscale>  0 0.27410631E+04</rscale>
<asrwt>0</asrwt>
<pdfrwt beam="1">  1        2 0.28628268E+00 0.27410631E+04</pdfrwt>
<pdfrwt beam="2">  1       -2 0.15529457E+00 0.27410631E+04</pdfrwt>
<totfact> 0.19067179E+00</totfact>
</mgrwt>
</event>
<event>
 6    1  0.1719556E-004  0.5278522E+03  0.7818608E-02  0.1006754E+00
         -1   -1    0    0    0  501 -0.00000000000E+00  0.00000000000E+00  0.12587589120E+03  0.12587589120E+03  0.00000000000E+00 0. -1.
          1   -1    0    0  501    0  0.00000000000E+00 -0.00000000000E+00 -0.55337836704E+03  0.55337836704E+03  0.00000000000E+00 0.  1.
         23    2    1    2    0    0  0.80246502051E+02 -0.24227349820E+03 -0.24474875732E+03  0.36535161306E+03  0.91890684696E+02 0.  0.
         13    1    3    3    0    0 -0.10850224778E+02 -0.11024339542E+03 -0.95837236532E+02  0.14647904122E+03  0.00000000000E+00 0. -1.
        -13    1    3    3    0    0  0.91096726829E+02 -0.13203010278E+03 -0.14891152079E+03  0.21887257184E+03  0.00000000000E+00 0.  1.
         22    1    1    2    0    0 -0.80246502051E+02  0.24227349820E+03 -0.18275371851E+03  0.31390264518E+03  0.00000000000E+00 0. -1.
<mgrwt>
<rscale>  0 0.52785223E+03</rscale>
<asrwt>0</asrwt>
<pdfrwt beam="1">  1        1 0.85135131E-01 0.52785223E+03</pdfrwt>
<pdfrwt beam="2">  1       -1 0.19365522E-01 0.52785223E+03</pdfrwt>
<totfact> 0.83535391E+02</totfact>
</mgrwt>
</event>
<event>
 6    1  0.1719556E-004  0.2939933E+04  0.7818608E-02  0.8261095E-01
          2   -1    0    0  501    0  0.00000000000E+00  0.00000000000E+00  0.24568864190E+04  0.24568864190E+04  0.00000000000E+00 0. -1.
         -2   -1    0    0    0  501 -0.00000000000E+00 -0.00000000000E+00 -0.87948756782E+03  0.87948756782E+03  0.00000000000E+00 0.  1.
         23    2    1    2    0    0  0.17032728124E+03  0.14548974324E+04  0.90761356836E+03  0.17256753041E+04  0.91950769817E+02 0.  0.
         13    1    3    3    0    0  0.74093338796E+02  0.10005379387E+04  0.62095278734E+03  0.11798933654E+04  0.00000000000E+00 0.  1.
        -13    1    3    3    0    0  0.96233942443E+02  0.45435949368E+03  0.28666078102E+03  0.54578193864E+03  0.00000000000E+00 0. -1.
         22    1    1    2    0    0 -0.17032728124E+03 -0.14548974324E+04  0.66978528282E+03  0.16106986828E+04  0.00000000000E+00 0. -1.
<mgrwt>
<rscale>  0 0.29399327E+04</rscale>
<asrwt>0</asrwt>
<pdfrwt beam="1">  1        2 0.37798252E+00 0.29399327E+04</pdfrwt>
<pdfrwt beam="2">  1       -2 0.13530578E+00 0.29399327E+04</pdfrwt>
<totfact> 0.12438097E+00</totfact>
</mgrwt>
</event>
<event>
 6    1  0.1719556E-004  0.3210565E+04  0.7818608E-02  0.8186033E-01
         -2   -1    0    0    0  501 -0.00000000000E+00  0.00000000000E+00  0.91485322539E+03  0.91485322539E+03  0.00000000000E+00 0. -1.
          2   -1    0    0  501    0  0.00000000000E+00 -0.00000000000E+00 -0.28167711318E+04  0.28167711318E+04  0.00000000000E+00 0.  1.
         23    2    1    2    0    0  0.14025046780E+03  0.12068800316E+04  0.26536020374E+03  0.12470068794E+04  0.91545153547E+02 0.  0.
         11    1    3    3    0    0  0.22136440416E+02  0.57571139576E+03  0.11468300825E+03  0.58744006127E+03  0.00000000000E+00 0. -1.
        -11    1    3    3    0    0  0.11811402738E+03  0.63116863582E+03  0.15067719549E+03  0.65956681811E+03  0.00000000000E+00 0.  1.
         22    1    1    2    0    0 -0.14025046780E+03 -0.12068800316E+04 -0.21672781102E+04  0.24846174778E+04  0.00000000000E+00 0.  1.
<mgrwt>
<rscale>  0 0.32105652E+04</rscale>
<asrwt>0</asrwt>
<pdfrwt beam="1">  1        2 0.43334940E+00 0.32105652E+04</pdfrwt>
<pdfrwt beam="2">  1       -2 0.14074665E+00 0.32105652E+04</pdfrwt>
<totfact> 0.67284858E-01</totfact>
</mgrwt>
</event>
<event>
 6    1  0.1719556E-004  0.2694201E+04  0.7818608E-02  0.8336889E-01
          2   -1    0    0  501    0  0.00000000000E+00  0.00000000000E+00  0.22906677731E+04  0.22906677731E+04  0.00000000000E+00 0. -1.
         -2   -1    0    0    0  501 -0.00000000000E+00 -0.00000000000E+00 -0.79220563844E+03  0.79220563844E+03  0.00000000000E+00 0.  1.
         23    2    1    2    0    0  0.50336610400E+03 -0.67596818811E+03 -0.44961423842E+03  0.96030139123E+03  0.98566589707E+02 0.  0.
         11    1    3    3    0    0  0.47706752080E+03 -0.59168101732E+03 -0.40904443931E+03  0.86313220250E+03  0.00000000000E+00 0. -1.
        -11    1    3    3    0    0  0.26298583200E+02 -0.84287170790E+02 -0.40569799118E+02  0.97169188731E+02  0.00000000000E+00 0.  1.
         22    1    1    2    0    0 -0.50336610400E+03  0.67596818811E+03  0.19480763730E+04  0.21225720203E+04  0.00000000000E+00 0. -1.
<mgrwt>
<rscale>  0 0.26942011E+04</rscale>
<asrwt>0</asrwt>
<pdfrwt beam="1">  1        2 0.35241042E+00 0.26942011E+04</pdfrwt>
<pdfrwt beam="2">  1       -2 0.12187779E+00 0.26942011E+04</pdfrwt>
<totfact> 0.20574196E+00</totfact>
</mgrwt>
</event>
<event>
 6    1  0.1719556E-004  0.1152920E+04  0.7818608E-02  0.9155094E-01
          1   -1    0    0  501    0  0.00000000000E+00  0.00000000000E+00  0.32828805100E+03  0.32828805100E+03  0.00000000000E+00 0.  1.
         -1   -1    0    0    0  501 -0.00000000000E+00 -0.00000000000E+00 -0.10122396270E+04  0.10122396270E+04  0.00000000000E+00 0. -1.
         23    2    1    2    0    0 -0.19295122275E+03 -0.46613235952E+03 -0.65961827993E+03  0.83545178245E+03  0.91508768062E+02 0.  0.
         11    1    3    3    0    0 -0.68624865413E+02 -0.84164254278E+02 -0.17552436884E+03  0.20640202980E+03  0.00000000000E+00 0.  1.
        -11    1    3    3    0    0 -0.12432635733E+03 -0.38196810524E+03 -0.48409391110E+03  0.62904975265E+03  0.00000000000E+00 0. -1.
         22    1    1    2    0    0  0.19295122275E+03  0.46613235952E+03 -0.24333296056E+02  0.50507589553E+03  0.00000000000E+00 0.  1.
<mgrwt>
<rscale>  0 0.11529201E+04</rscale>
<asrwt>0</asrwt>
<pdfrwt beam="1">  1        1 0.50505854E-01 0.11529201E+04</pdfrwt>
<pdfrwt beam="2">  1       -1 0.15572917E+00 0.11529201E+04</pdfrwt>
<totfact> 0.24374187E+01</totfact>
</mgrwt>
</event>
<event>
 6    1  0.1719556E-004  0.2865484E+04  0.7818608E-02  0.8283222E-01
          2   -1    0    0  501    0  0.00000000000E+00  0.00000000000E+00  0.19272309423E+04  0.19272309423E+04  0.00000000000E+00 0.  1.
         -2   -1    0    0    0  501 -0.00000000000E+00 -0.00000000000E+00 -0.10651294030E+04  0.10651294030E+04  0.00000000000E+00 0. -1.
         23    2    1    2    0    0  0.14291359979E+04 -0.59981724554E+02  0.37837200380E+03  0.14823862490E+04  0.90973128830E+02 0.  0.
         11    1    3    3    0    0  0.39619863356E+03 -0.53092481346E+02  0.86662727923E+02  0.40902640162E+03  0.00000000000E+00 0. -1.
        -11    1    3    3    0    0  0.10329373643E+04 -0.68892432083E+01  0.29170927588E+03  0.10733598474E+04  0.00000000000E+00 0.  1.
         22    1    1    2    0    0 -0.14291359979E+04  0.59981724554E+02  0.48372953554E+03  0.15099740963E+04  0.00000000000E+00 0.  1.
<mgrwt>
<rscale>  0 0.28654845E+04</rscale>
<asrwt>0</asrwt>
<pdfrwt beam="1">  1        2 0.29649707E+00 0.28654845E+04</pdfrwt>
<pdfrwt beam="2">  1       -2 0.16386606E+00 0.28654845E+04</pdfrwt>
<totfact> 0.14978271E+00</totfact>
</mgrwt>
</event>
<event>
 6    1  0.1719556E-004  0.2056580E+04  0.7818608E-02  0.8580615E-01
         -1   -1    0    0    0  501 -0.00000000000E+00  0.00000000000E+00  0.14470817321E+04  0.14470817321E+04  0.00000000000E+00 0. -1.
          1   -1    0    0  501    0  0.00000000000E+00 -0.00000000000E+00 -0.73069809146E+03  0.73069809146E+03  0.00000000000E+00 0.  1.
         23    2    1    2    0    0 -0.17036554456E+03  0.95682056769E+03  0.94234729310E+01  0.97598004978E+03  0.88984482978E+02 0.  0.
         11    1    3    3    0    0 -0.13274387060E+03  0.49218224909E+03  0.31099068880E+01  0.50977835676E+03  0.00000000000E+00 0.  1.
        -11    1    3    3    0    0 -0.37621673959E+02  0.46463831860E+03  0.63135660430E+01  0.46620169303E+03  0.00000000000E+00 0. -1.
         22    1    1    2    0    0  0.17036554456E+03 -0.95682056769E+03  0.70696016773E+03  0.12017997738E+04  0.00000000000E+00 0. -1.
<mgrwt>
<rscale>  0 0.20565795E+04</rscale>
<asrwt>0</asrwt>
<pdfrwt beam="1">  1        1 0.11241509E+00 0.20565795E+04</pdfrwt>
<pdfrwt beam="2">  1       -1 0.22262796E+00 0.20565795E+04</pdfrwt>
<totfact> 0.24880798E+00</totfact>
</mgrwt>
</event>
<event>
 6    1  0.1719556E-004  0.1783855E+04  0.7818608E-02  0.8714933E-01
          1   -1    0    0  501    0  0.00000000000E+00  0.00000000000E+00  0.61727573318E+03  0.61727573318E+03  0.00000000000E+00 0.  1.
         -1   -1    0    0    0  501 -0.00000000000E+00 -0.00000000000E+00 -0.12887833453E+04  0.12887833453E+04  0.00000000000E+00 0. -1.
         23    2    1    2    0    0 -0.52854335782E+02  0.86595046093E+03 -0.12635780795E+03  0.88143617685E+03  0.91102451333E+02 0.  0.
         11    1    3    3    0    0 -0.22714608354E+02  0.34183649969E+03 -0.50707864031E+01  0.34262787223E+03  0.00000000000E+00 0.  1.
        -11    1    3    3    0    0 -0.30139727428E+02  0.52411396124E+03 -0.12128702155E+03  0.53880830462E+03  0.00000000000E+00 0. -1.
         22    1    1    2    0    0  0.52854335782E+02 -0.86595046093E+03 -0.54514980420E+03  0.10246229017E+04  0.00000000000E+00 0.  1.
<mgrwt>
<rscale>  0 0.17838550E+04</rscale>
<asrwt>0</asrwt>
<pdfrwt beam="1">  1        1 0.94965498E-01 0.17838550E+04</pdfrwt>
<pdfrwt beam="2">  1       -1 0.19827436E+00 0.17838550E+04</pdfrwt>
<totfact> 0.48029237E+00</totfact>
</mgrwt>
</event>
<event>
 6    1  0.1719556E-004  0.2667236E+04  0.7818608E-02  0.8345715E-01
         -2   -1    0    0    0  501 -0.00000000000E+00  0.00000000000E+00  0.71652222716E+03  0.71652222716E+03  0.00000000000E+00 0. -1.
          2   -1    0    0  501    0  0.00000000000E+00 -0.00000000000E+00 -0.24821792008E+04  0.24821792008E+04  0.00000000000E+00 0.  1.
         23    2    1    2    0    0  0.82134466795E+03  0.73248394574E+03  0.16736651225E+02  0.11039301210E+04  0.85098779630E+02 0.  0.
         11    1    3    3    0    0  0.45889344006E+03  0.36731211210E+03  0.37614095814E+02  0.58899592294E+03  0.00000000000E+00 0. -1.
        -11    1    3    3    0    0  0.36245122789E+03  0.36517183364E+03 -0.20877444589E+02  0.51493419810E+03  0.00000000000E+00 0.  1.
         22    1    1    2    0    0 -0.82134466795E+03 -0.73248394574E+03 -0.17823936248E+04  0.20947713069E+04  0.00000000000E+00 0.  1.
<mgrwt>
<rscale>  0 0.26672357E+04</rscale>
<asrwt>0</asrwt>
<pdfrwt beam="1">  1        2 0.38187373E+00 0.26672357E+04</pdfrwt>
<pdfrwt beam="2">  1       -2 0.11023419E+00 0.26672357E+04</pdfrwt>
<totfact> 0.20492685E+00</totfact>
</mgrwt>
</event>
<event>
 6    1  0.1719556E-004  0.1131924E+04  0.7818608E-02  0.9174623E-01
          2   -1    0    0  501    0  0.00000000000E+00  0.00000000000E+00  0.17604912987E+04  0.17604912987E+04  0.00000000000E+00 0.  1.
         -2   -1    0    0    0  501 -0.00000000000E+00 -0.00000000000E+00 -0.18194533721E+03  0.18194533721E+03  0.00000000000E+00 0. -1.
         23    2    1    2    0    0  0.25384296026E+03 -0.17564883701E+03  0.16008208503E+04  0.16329452255E+04  0.92703573326E+02 0.  0.
         13    1    3    3    0    0  0.71009642738E+02 -0.46358258019E+02  0.68097193220E+03  0.68623190679E+03  0.00000000000E+00 0. -1.
        -13    1    3    3    0    0  0.18283331752E+03 -0.12929057899E+03  0.91984891807E+03  0.94671331875E+03  0.00000000000E+00 0.  1.
         22    1    1    2    0    0 -0.25384296026E+03  0.17564883701E+03 -0.22274888794E+02  0.30949141036E+03  0.00000000000E+00 0. -1.
<mgrwt>
<rscale>  0 0.11319243E+04</rscale>
<asrwt>0</asrwt>
<pdfrwt beam="1">  1        2 0.27084480E+00 0.11319243E+04</pdfrwt>
<pdfrwt beam="2">  1       -2 0.27991591E-01 0.11319243E+04</pdfrwt>
<totfact> 0.10492331E+02</totfact>
</mgrwt>
</event>
<event>
 6    1  0.1719556E-004  0.2186182E+04  0.7818608E-02  0.8524201E-01
          1   -1    0    0  501    0  0.00000000000E+00  0.00000000000E+00  0.72271292553E+03  0.72271292553E+03  0.00000000000E+00 0.  1.
         -1   -1    0    0    0  501 -0.00000000000E+00 -0.00000000000E+00 -0.16532819300E+04  0.16532819300E+04  0.00000000000E+00 0. -1.
         23    2    1    2    0    0  0.15257387843E+03  0.47116610329E+03  0.59080262981E+03  0.77604237658E+03  0.88981669917E+02 0.  0.
         11    1    3    3    0    0  0.46712971643E+02  0.27342757577E+03  0.29668456080E+03  0.40616064498E+03  0.00000000000E+00 0. -1.
        -11    1    3    3    0    0  0.10586090679E+03  0.19773852752E+03  0.29411806901E+03  0.36988173160E+03  0.00000000000E+00 0.  1.
         22    1    1    2    0    0 -0.15257387843E+03 -0.47116610329E+03 -0.15213716343E+04  0.15999524789E+04  0.00000000000E+00 0. -1.
<mgrwt>
<rscale>  0 0.21861823E+04</rscale>
<asrwt>0</asrwt>
<pdfrwt beam="1">  1        1 0.11118661E+00 0.21861823E+04</pdfrwt>
<pdfrwt beam="2">  1       -1 0.25435106E+00 0.21861823E+04</pdfrwt>
<totfact> 0.15464661E+00</totfact>
</mgrwt>
</event>
<event>
 6    1  0.1719556E-004  0.1053752E+04  0.7818608E-02  0.9251479E-01
         -1   -1    0    0    0  501 -0.00000000000E+00  0.00000000000E+00  0.25059952424E+03  0.25059952424E+03  0.00000000000E+00 0. -1.
          1   -1    0    0  501    0  0.00000000000E+00 -0.00000000000E+00 -0.11077374233E+04  0.11077374233E+04  0.00000000000E+00 0.  1.
         23    2    1    2    0    0 -0.20232060595E+03  0.53777849594E+02  0.18601515277E+03  0.29438489305E+03  0.90747691427E+02 0.  0.
         11    1    3    3    0    0 -0.45558223780E+02  0.32989656320E+02  0.99069940729E+02  0.11392419556E+03  0.00000000000E+00 0.  1.
        -11    1    3    3    0    0 -0.15676238217E+03  0.20788193275E+02  0.86945212043E+02  0.18046069749E+03  0.00000000000E+00 0. -1.
         22    1    1    2    0    0  0.20232060595E+03 -0.53777849594E+02 -0.10431530518E+04  0.10639520545E+04  0.00000000000E+00 0.  1.
<mgrwt>
<rscale>  0 0.10537523E+04</rscale>
<asrwt>0</asrwt>
<pdfrwt beam="1">  1        1 0.17042114E+00 0.10537523E+04</pdfrwt>
<pdfrwt beam="2">  1       -1 0.38553773E-01 0.10537523E+04</pdfrwt>
<totfact> 0.81379557E+01</totfact>
</mgrwt>
</event>
<event>
 6    1  0.1719556E-004  0.1193151E+04  0.7818608E-02  0.9118873E-01
          1   -1    0    0  501    0  0.00000000000E+00  0.00000000000E+00  0.11311308503E+04  0.11311308503E+04  0.00000000000E+00 0.  1.
         -1   -1    0    0    0  501 -0.00000000000E+00 -0.00000000000E+00 -0.31464292018E+03  0.31464292018E+03  0.00000000000E+00 0. -1.
         23    2    1    2    0    0  0.10455917890E+03 -0.34005458571E+03 -0.16489704407E+03  0.40189340822E+03  0.88076860046E+02 0.  0.
         11    1    3    3    0    0  0.36153857322E+02 -0.17897498641E+03 -0.12815350653E+03  0.22307502863E+03  0.00000000000E+00 0.  1.
        -11    1    3    3    0    0  0.68405321582E+02 -0.16107959929E+03 -0.36743537533E+02  0.17881837959E+03  0.00000000000E+00 0. -1.
         22    1    1    2    0    0 -0.10455917890E+03  0.34005458571E+03  0.98138497418E+03  0.10438803623E+04  0.00000000000E+00 0.  1.
<mgrwt>
<rscale>  0 0.11931510E+04</rscale>
<asrwt>0</asrwt>
<pdfrwt beam="1">  1        1 0.17402013E+00 0.11931510E+04</pdfrwt>
<pdfrwt beam="2">  1       -1 0.48406604E-01 0.11931510E+04</pdfrwt>
<totfact> 0.50768501E+01</totfact>
</mgrwt>
</event>
<event>
 6    1  0.1719556E-004  0.3057101E+04  0.7818608E-02  0.8227611E-01
          2   -1    0    0  501    0  0.00000000000E+00  0.00000000000E+00  0.31294500828E+04  0.31294500828E+04  0.00000000000E+00 0.  1.
         -2   -1    0    0    0  501 -0.00000000000E+00 -0.00000000000E+00 -0.74660617031E+03  0.74660617031E+03  0.00000000000E+00 0. -1.
         23    2    1    2    0    0  0.13386108403E+04 -0.51005180750E+03  0.18638573217E+04  0.23524490500E+04  0.89557740750E+02 0.  0.
         11    1    3    3    0    0  0.11340460381E+04 -0.45596305188E+03  0.15504288856E+04  0.19742827687E+04  0.00000000000E+00 0. -1.
        -11    1    3    3    0    0  0.20456480217E+03 -0.54088755624E+02  0.31342843605E+03  0.37816628127E+03  0.00000000000E+00 0.  1.
         22    1    1    2    0    0 -0.13386108403E+04  0.51005180750E+03  0.51898659083E+03  0.15236072032E+04  0.00000000000E+00 0. -1.
<mgrwt>
<rscale>  0 0.30571011E+04</rscale>
<asrwt>0</asrwt>
<pdfrwt beam="1">  1        2 0.48145385E+00 0.30571011E+04</pdfrwt>
<pdfrwt beam="2">  1       -2 0.11486249E+00 0.30571011E+04</pdfrwt>
<totfact> 0.72541397E-01</totfact>
</mgrwt>
</event>
<event>
 6    1  0.1719556E-004  0.4057260E+04  0.7818608E-02  0.7993094E-01
          2   -1    0    0  501    0  0.00000000000E+00  0.00000000000E+00  0.33457002734E+04  0.33457002734E+04  0.00000000000E+00 0.  1.
         -2   -1    0    0    0  501 -0.00000000000E+00 -0.00000000000E+00 -0.12300386014E+04  0.12300386014E+04  0.00000000000E+00 0. -1.
         23    2    1    2    0    0 -0.38645759225E+03  0.77724327015E+03  0.31249216539E+04  0.32445505776E+04  0.92285077904E+02 0.  0.
         13    1    3    3    0    0 -0.21392674064E+03  0.48958021141E+03  0.17820086416E+04  0.18603785186E+04  0.00000000000E+00 0.  1.
        -13    1    3    3    0    0 -0.17253085161E+03  0.28766305874E+03  0.13429130123E+04  0.13841720590E+04  0.00000000000E+00 0. -1.
         22    1    1    2    0    0  0.38645759225E+03 -0.77724327015E+03 -0.10092599819E+04  0.13311882972E+04  0.00000000000E+00 0. -1.
<mgrwt>
<rscale>  0 0.40572604E+04</rscale>
<asrwt>0</asrwt>
<pdfrwt beam="1">  1        2 0.51472312E+00 0.40572604E+04</pdfrwt>
<pdfrwt beam="2">  1       -2 0.18923671E+00 0.40572604E+04</pdfrwt>
<totfact> 0.12765205E-01</totfact>
</mgrwt>
</event>
<event>
 6    1  0.1719556E-004  0.1849223E+04  0.7818608E-02  0.8680553E-01
         -2   -1    0    0    0  501 -0.00000000000E+00  0.00000000000E+00  0.65724285953E+03  0.65724285953E+03  0.00000000000E+00 0. -1.
          2   -1    0    0  501    0  0.00000000000E+00 -0.00000000000E+00 -0.13007460053E+04  0.13007460053E+04  0.00000000000E+00 0.  1.
         23    2    1    2    0    0  0.71599558462E+03  0.18628889995E+03 -0.90581870014E+03  0.11730285591E+04  0.90195629203E+02 0.  0.
         11    1    3    3    0    0  0.21169118519E+03  0.93135356444E+02 -0.25125763527E+03  0.34149341398E+03  0.00000000000E+00 0. -1.
        -11    1    3    3    0    0  0.50430439943E+03  0.93153543501E+02 -0.65456106486E+03  0.83153514513E+03  0.00000000000E+00 0.  1.
         22    1    1    2    0    0 -0.71599558462E+03 -0.18628889995E+03  0.26231555439E+03  0.78496030570E+03  0.00000000000E+00 0. -1.
<mgrwt>
<rscale>  0 0.18492226E+04</rscale>
<asrwt>0</asrwt>
<pdfrwt beam="1">  1        2 0.20011477E+00 0.18492226E+04</pdfrwt>
<pdfrwt beam="2">  1       -2 0.10111429E+00 0.18492226E+04</pdfrwt>
<totfact> 0.12496064E+01</totfact>
</mgrwt>
</event>
<event>
 6    1  0.1719556E-004  0.2840999E+04  0.7818608E-02  0.8290652E-01
         -2   -1    0    0    0  501 -0.00000000000E+00  0.00000000000E+00  0.38209566994E+03  0.38209566994E+03  0.00000000000E+00 0. -1.
          2   -1    0    0  501    0  0.00000000000E+00 -0.00000000000E+00 -0.52809248835E+04  0.52809248835E+04  0.00000000000E+00 0.  1.
         23    2    1    2    0    0  0.11453233678E+04 -0.57886302794E+03 -0.36591960587E+04  0.38787732666E+04  0.91204362270E+02 0.  0.
         11    1    3    3    0    0  0.33338045933E+03 -0.12310536060E+03 -0.99739664353E+03  0.10588189293E+04  0.00000000000E+00 0. -1.
        -11    1    3    3    0    0  0.81194290848E+03 -0.45575766734E+03 -0.26617994152E+04  0.28199543374E+04  0.00000000000E+00 0.  1.
         22    1    1    2    0    0 -0.11453233678E+04  0.57886302794E+03 -0.12396331548E+04  0.17842472868E+04  0.00000000000E+00 0.  1.
<mgrwt>
<rscale>  0 0.28409988E+04</rscale>
<asrwt>0</asrwt>
<pdfrwt beam="1">  1        2 0.81244997E+00 0.28409988E+04</pdfrwt>
<pdfrwt beam="2">  1       -2 0.58783950E-01 0.28409988E+04</pdfrwt>
<totfact> 0.32862872E-02</totfact>
</mgrwt>
</event>
<event>
 6    1  0.1719556E-004  0.2669004E+04  0.7818608E-02  0.8345133E-01
          1   -1    0    0  501    0  0.00000000000E+00  0.00000000000E+00  0.36317753283E+04  0.36317753283E+04  0.00000000000E+00 0.  1.
         -1   -1    0    0    0  501 -0.00000000000E+00 -0.00000000000E+00 -0.49036511442E+03  0.49036511442E+03  0.00000000000E+00 0. -1.
         23    2    1    2    0    0  0.70066117026E+03  0.72141172639E+03  0.29237771362E+04  0.30931967557E+04  0.89624065172E+02 0.  0.
         13    1    3    3    0    0  0.30791838586E+03  0.35978323183E+03  0.14770010064E+04  0.15510608239E+04  0.00000000000E+00 0. -1.
        -13    1    3    3    0    0  0.39274278440E+03  0.36162849456E+03  0.14467761297E+04  0.15421359319E+04  0.00000000000E+00 0.  1.
         22    1    1    2    0    0 -0.70066117026E+03 -0.72141172639E+03  0.21763307769E+03  0.10289436870E+04  0.00000000000E+00 0. -1.
<mgrwt>
<rscale>  0 0.26690043E+04</rscale>
<asrwt>0</asrwt>
<pdfrwt beam="1">  1        1 0.55873465E+00 0.26690043E+04</pdfrwt>
<pdfrwt beam="2">  1       -1 0.75440789E-01 0.26690043E+04</pdfrwt>
<totfact> 0.30330394E-01</totfact>
</mgrwt>
</event>
<event>
 6    1  0.1719556E-004  0.3592666E+04  0.7818608E-02  0.8092174E-01
         -2   -1    0    0    0  501 -0.00000000000E+00  0.00000000000E+00  0.25529024886E+04  0.25529024886E+04  0.00000000000E+00 0. -1.
          2   -1    0    0  501    0  0.00000000000E+00 -0.00000000000E+00 -0.12639776772E+04  0.12639776772E+04  0.00000000000E+00 0.  1.
         23    2    1    2    0    0  0.57560001571E+03  0.17859451825E+03 -0.11515663681E+04  0.13030765582E+04  0.93231091317E+02 0.  0.
         11    1    3    3    0    0  0.25994355705E+03  0.12936024130E+03 -0.54403057458E+03  0.61666359626E+03  0.00000000000E+00 0. -1.
        -11    1    3    3    0    0  0.31565645866E+03  0.49234276953E+02 -0.60753579353E+03  0.68641296196E+03  0.00000000000E+00 0.  1.
         22    1    1    2    0    0 -0.57560001571E+03 -0.17859451825E+03  0.24404911795E+04  0.25138036075E+04  0.00000000000E+00 0. -1.
<mgrwt>
<rscale>  0 0.35926657E+04</rscale>
<asrwt>0</asrwt>
<pdfrwt beam="1">  1        2 0.19445810E+00 0.35926657E+04</pdfrwt>
<pdfrwt beam="2">  1       -2 0.39275423E+00 0.35926657E+04</pdfrwt>
<totfact> 0.11705083E-01</totfact>
</mgrwt>
</event>
<event>
 6    1  0.1719556E-004  0.1860448E+04  0.7818608E-02  0.8674799E-01
          2   -1    0    0  501    0  0.00000000000E+00  0.00000000000E+00  0.80831817878E+03  0.80831817878E+03  0.00000000000E+00 0.  1.
         -2   -1    0    0    0  501 -0.00000000000E+00 -0.00000000000E+00 -0.10705144913E+04  0.10705144913E+04  0.00000000000E+00 0. -1.
         23    2    1    2    0    0  0.32493735773E+03 -0.18660409176E+03 -0.98872112350E+03  0.10613709435E+04  0.92376653953E+02 0.  0.
         13    1    3    3    0    0  0.16968816706E+03 -0.14985270617E+03 -0.57847472195E+03  0.62119474525E+03  0.00000000000E+00 0. -1.
        -13    1    3    3    0    0  0.15524919067E+03 -0.36751385590E+02 -0.41024640154E+03  0.44017619827E+03  0.00000000000E+00 0.  1.
         22    1    1    2    0    0 -0.32493735773E+03  0.18660409176E+03  0.72652481095E+03  0.81746172658E+03  0.00000000000E+00 0.  1.
<mgrwt>
<rscale>  0 0.18604476E+04</rscale>
<asrwt>0</asrwt>
<pdfrwt beam="1">  1        2 0.12435664E+00 0.18604476E+04</pdfrwt>
<pdfrwt beam="2">  1       -2 0.16469454E+00 0.18604476E+04</pdfrwt>
<totfact> 0.74241865E+00</totfact>
</mgrwt>
</event>
<event>
 6    1  0.1719556E-004  0.4123162E+04  0.7818608E-02  0.7980152E-01
          2   -1    0    0  501    0  0.00000000000E+00  0.00000000000E+00  0.28614823067E+04  0.28614823067E+04  0.00000000000E+00 0.  1.
         -2   -1    0    0    0  501 -0.00000000000E+00 -0.00000000000E+00 -0.14852845334E+04  0.14852845334E+04  0.00000000000E+00 0. -1.
         23    2    1    2    0    0 -0.57365930644E+03 -0.80042866703E+03  0.25965862447E+04  0.27786089807E+04  0.92933796017E+02 0.  0.
         11    1    3    3    0    0 -0.47780805575E+03 -0.70354619421E+03  0.21664446377E+04  0.23273934247E+04  0.00000000000E+00 0.  1.
        -11    1    3    3    0    0 -0.95851250690E+02 -0.96882472821E+02  0.43014160708E+03  0.45121555596E+03  0.00000000000E+00 0. -1.
         22    1    1    2    0    0  0.57365930644E+03  0.80042866703E+03 -0.12203884714E+04  0.15681578594E+04  0.00000000000E+00 0. -1.
<mgrwt>
<rscale>  0 0.41231616E+04</rscale>
<asrwt>0</asrwt>
<pdfrwt beam="1">  1        2 0.44022804E+00 0.41231616E+04</pdfrwt>
<pdfrwt beam="2">  1       -2 0.22850531E+00 0.41231616E+04</pdfrwt>
<totfact> 0.14471741E-01</totfact>
</mgrwt>
</event>
<event>
 6    1  0.1719556E-004  0.3139238E+04  0.7818608E-02  0.8205051E-01
         -2   -1    0    0    0  501 -0.00000000000E+00  0.00000000000E+00  0.10878280088E+04  0.10878280088E+04  0.00000000000E+00 0. -1.
          2   -1    0    0  501    0  0.00000000000E+00 -0.00000000000E+00 -0.22647918836E+04  0.22647918836E+04  0.00000000000E+00 0.  1.
         23    2    1    2    0    0 -0.12841846216E+04  0.35201212834E+02  0.37138940075E+03  0.13407135493E+04  0.95986803670E+02 0.  0.
         13    1    3    3    0    0 -0.50313139981E+03  0.10221150094E+02  0.97074261477E+02  0.51251252631E+03  0.00000000000E+00 0.  1.
        -13    1    3    3    0    0 -0.78105322177E+03  0.24980062740E+02  0.27431513927E+03  0.82820102294E+03  0.00000000000E+00 0. -1.
         22    1    1    2    0    0  0.12841846216E+04 -0.35201212834E+02 -0.15483532756E+04  0.20119063432E+04  0.00000000000E+00 0.  1.
<mgrwt>
<rscale>  0 0.31392382E+04</rscale>
<asrwt>0</asrwt>
<pdfrwt beam="1">  1        2 0.34842952E+00 0.31392382E+04</pdfrwt>
<pdfrwt beam="2">  1       -2 0.16735816E+00 0.31392382E+04</pdfrwt>
<totfact> 0.89423835E-01</totfact>
</mgrwt>
</event>
<event>
 6    1  0.1719556E-004  0.3566233E+04  0.7818608E-02  0.8098270E-01
          1   -1    0    0  501    0  0.00000000000E+00  0.00000000000E+00  0.87304219489E+03  0.87304219489E+03  0.00000000000E+00 0.  1.
         -1   -1    0    0    0  501 -0.00000000000E+00 -0.00000000000E+00 -0.36418686165E+04  0.36418686165E+04  0.00000000000E+00 0. -1.
         23    2    1    2    0    0 -0.82578876205E+03  0.43976860199E+03 -0.33052801534E+04  0.34364368389E+04  0.94327899959E+02 0.  0.
         11    1    3    3    0    0 -0.59859700347E+03  0.28931013448E+03 -0.24644288983E+04  0.25525337454E+04  0.00000000000E+00 0.  1.
        -11    1    3    3    0    0 -0.22719175858E+03  0.15045846751E+03 -0.84085125511E+03  0.88390309357E+03  0.00000000000E+00 0. -1.
         22    1    1    2    0    0  0.82578876205E+03 -0.43976860199E+03  0.53645373182E+03  0.10784739724E+04  0.00000000000E+00 0.  1.
<mgrwt>
<rscale>  0 0.35662333E+04</rscale>
<asrwt>0</asrwt>
<pdfrwt beam="1">  1        1 0.13431418E+00 0.35662333E+04</pdfrwt>
<pdfrwt beam="2">  1       -1 0.56028750E+00 0.35662333E+04</pdfrwt>
<totfact> 0.10293911E-02</totfact>
</mgrwt>
</event>
<event>
 6    1  0.1719556E-004  0.3068365E+04  0.7818608E-02  0.8224474E-01
         -2   -1    0    0    0  501 -0.00000000000E+00  0.00000000000E+00  0.15078433660E+04  0.15078433660E+04  0.00000000000E+00 0. -1.
          2   -1    0    0  501    0  0.00000000000E+00 -0.00000000000E+00 -0.15609815387E+04  0.15609815387E+04  0.00000000000E+00 0.  1.
         23    2    1    2    0    0 -0.71652054868E+02  0.14139425509E+04  0.56093427719E+03  0.15256293475E+04  0.92358477309E+02 0.  0.
         11    1    3    3    0    0 -0.68316492426E+02  0.53887849712E+03  0.19511328126E+03  0.57717100613E+03  0.00000000000E+00 0.  1.
        -11    1    3    3    0    0 -0.33355624420E+01  0.87506405376E+03  0.36582099593E+03  0.94845834132E+03  0.00000000000E+00 0. -1.
         22    1    1    2    0    0  0.71652054868E+02 -0.14139425509E+04 -0.61407244992E+03  0.15431955572E+04  0.00000000000E+00 0.  1.
<mgrwt>
<rscale>  0 0.30683648E+04</rscale>
<asrwt>0</asrwt>
<pdfrwt beam="1">  1        2 0.24015101E+00 0.30683648E+04</pdfrwt>
<pdfrwt beam="2">  1       -2 0.23197590E+00 0.30683648E+04</pdfrwt>
<totfact> 0.82966295E-01</totfact>
</mgrwt>
</event>
<event>
 6    1  0.1719556E-004  0.4627557E+04  0.7818608E-02  0.7888678E-01
          2   -1    0    0  501    0  0.00000000000E+00  0.00000000000E+00  0.34257070477E+04  0.34257070477E+04  0.00000000000E+00 0.  1.
         -2   -1    0    0    0  501 -0.00000000000E+00 -0.00000000000E+00 -0.15627639847E+04  0.15627639847E+04  0.00000000000E+00 0. -1.
         23    2    1    2    0    0  0.11175322915E+04 -0.32135131406E+03 -0.12227657564E+04  0.16909349813E+04  0.10936144827E+03 0.  0.
         13    1    3    3    0    0  0.73388168353E+02  0.12462104071E+01 -0.56218057300E+02  0.92454563226E+02  0.00000000000E+00 0.  1.
        -13    1    3    3    0    0  0.10441441231E+04 -0.32259752447E+03 -0.11665476991E+04  0.15984804181E+04  0.00000000000E+00 0. -1.
         22    1    1    2    0    0 -0.11175322915E+04  0.32135131406E+03  0.30857088195E+04  0.32975360511E+04  0.00000000000E+00 0.  1.
<mgrwt>
<rscale>  0 0.46275573E+04</rscale>
<asrwt>0</asrwt>
<pdfrwt beam="1">  1        2 0.52703185E+00 0.46275573E+04</pdfrwt>
<pdfrwt beam="2">  1       -2 0.24042523E+00 0.46275573E+04</pdfrwt>
<totfact> 0.50465917E-02</totfact>
</mgrwt>
</event>
<event>
 6    1  0.1719556E-004  0.1183230E+04  0.7818608E-02  0.9127664E-01
          2   -1    0    0  501    0  0.00000000000E+00  0.00000000000E+00  0.30061749325E+04  0.30061749325E+04  0.00000000000E+00 0.  1.
         -2   -1    0    0    0  501 -0.00000000000E+00 -0.00000000000E+00 -0.11642970010E+03  0.11642970010E+03  0.00000000000E+00 0. -1.
         23    2    1    2    0    0  0.27691649890E+03 -0.39103878487E+03  0.23524415152E+04  0.24026814679E+04  0.96452448866E+02 0.  0.
         11    1    3    3    0    0  0.16269741941E+03 -0.27458566467E+03  0.13619120790E+04  0.13988110124E+04  0.00000000000E+00 0.  1.
        -11    1    3    3    0    0  0.11421907949E+03 -0.11645312020E+03  0.99052943623E+03  0.10038704555E+04  0.00000000000E+00 0. -1.
         22    1    1    2    0    0 -0.27691649890E+03  0.39103878487E+03  0.53730371720E+03  0.71992316475E+03  0.00000000000E+00 0. -1.
<mgrwt>
<rscale>  0 0.11832296E+04</rscale>
<asrwt>0</asrwt>
<pdfrwt beam="1">  1        2 0.46248839E+00 0.11832296E+04</pdfrwt>
<pdfrwt beam="2">  1       -2 0.17912264E-01 0.11832296E+04</pdfrwt>
<totfact> 0.44850186E+01</totfact>
</mgrwt>
</event>
<event>
 6    1  0.1719556E-004  0.3598909E+04  0.7818608E-02  0.8090742E-01
          2   -1    0    0  501    0  0.00000000000E+00  0.00000000000E+00  0.88725185455E+03  0.88725185455E+03  0.00000000000E+00 0. -1.
         -2   -1    0    0    0  501 -0.00000000000E+00 -0.00000000000E+00 -0.36495120784E+04  0.36495120784E+04  0.00000000000E+00 0.  1.
         23    2    1    2    0    0 -0.11239734528E+04 -0.13288957097E+04 -0.81159329841E+03  0.19224989150E+04  0.89656380146E+02 0.  0.
         13    1    3    3    0    0 -0.24842401757E+03 -0.26911359233E+03 -0.13492504693E+03  0.39030934702E+03  0.00000000000E+00 0.  1.
        -13    1    3    3    0    0 -0.87554943519E+03 -0.10597821174E+04 -0.67666825148E+03  0.15321895680E+04  0.00000000000E+00 0. -1.
         22    1    1    2    0    0  0.11239734528E+04  0.13288957097E+04 -0.19506669254E+04  0.26142650179E+04  0.00000000000E+00 0.  1.
<mgrwt>
<rscale>  0 0.35989089E+04</rscale>
<asrwt>0</asrwt>
<pdfrwt beam="1">  1        2 0.13650029E+00 0.35989089E+04</pdfrwt>
<pdfrwt beam="2">  1       -2 0.56146339E+00 0.35989089E+04</pdfrwt>
<totfact> 0.18177867E-02</totfact>
</mgrwt>
</event>
<event>
 6    1  0.1719556E-004  0.5581456E+04  0.7818608E-02  0.7744579E-01
          1   -1    0    0  501    0  0.00000000000E+00  0.00000000000E+00  0.34062022773E+04  0.34062022773E+04  0.00000000000E+00 0.  1.
         -1   -1    0    0    0  501 -0.00000000000E+00 -0.00000000000E+00 -0.22864650891E+04  0.22864650891E+04  0.00000000000E+00 0. -1.
         23    2    1    2    0    0 -0.83691183776E+03 -0.24998252132E+04 -0.37163125971E+03  0.26638512003E+04  0.91901596677E+02 0.  0.
         11    1    3    3    0    0 -0.41457940660E+03 -0.13064675556E+04 -0.15229322697E+03  0.13791036166E+04  0.00000000000E+00 0.  1.
        -11    1    3    3    0    0 -0.42233243115E+03 -0.11933576576E+04 -0.21933803275E+03  0.12847475837E+04  0.00000000000E+00 0. -1.
         22    1    1    2    0    0  0.83691183776E+03  0.24998252132E+04  0.14913684479E+04  0.30288161661E+04  0.00000000000E+00 0.  1.
<mgrwt>
<rscale>  0 0.55814559E+04</rscale>
<asrwt>0</asrwt>
<pdfrwt beam="1">  1        1 0.52403112E+00 0.55814559E+04</pdfrwt>
<pdfrwt beam="2">  1       -1 0.35176386E+00 0.55814559E+04</pdfrwt>
<totfact> 0.30847201E-03</totfact>
</mgrwt>
</event>
<event>
 6    1  0.1719556E-004  0.5231162E+04  0.7818608E-02  0.7793805E-01
         -2   -1    0    0    0  501 -0.00000000000E+00  0.00000000000E+00  0.17192828103E+04  0.17192828103E+04  0.00000000000E+00 0. -1.
          2   -1    0    0  501    0  0.00000000000E+00 -0.00000000000E+00 -0.39791385516E+04  0.39791385516E+04  0.00000000000E+00 0.  1.
         23    2    1    2    0    0  0.20064242813E+04  0.14796033228E+04 -0.19894261306E+04  0.31908136247E+04  0.92254373756E+02 0.  0.
         13    1    3    3    0    0  0.15348909023E+04  0.11781294830E+04 -0.15554877992E+04  0.24826239051E+04  0.00000000000E+00 0. -1.
        -13    1    3    3    0    0  0.47153337898E+03  0.30147383972E+03 -0.43393833135E+03  0.70818971960E+03  0.00000000000E+00 0.  1.
         22    1    1    2    0    0 -0.20064242813E+04 -0.14796033228E+04 -0.27042961076E+03  0.25076077372E+04  0.00000000000E+00 0.  1.
<mgrwt>
<rscale>  0 0.52311622E+04</rscale>
<asrwt>0</asrwt>
<pdfrwt beam="1">  1        2 0.61217516E+00 0.52311622E+04</pdfrwt>
<pdfrwt beam="2">  1       -2 0.26450505E+00 0.52311622E+04</pdfrwt>
<totfact> 0.13249978E-02</totfact>
</mgrwt>
</event>
<event>
 6    1  0.1719556E-004  0.3495883E+04  0.7818608E-02  0.8114766E-01
         -1   -1    0    0    0  501 -0.00000000000E+00  0.00000000000E+00  0.12831704985E+04  0.12831704985E+04  0.00000000000E+00 0. -1.
          1   -1    0    0  501    0  0.00000000000E+00 -0.00000000000E+00 -0.23810550523E+04  0.23810550523E+04  0.00000000000E+00 0.  1.
         23    2    1    2    0    0 -0.13969285752E+04 -0.87781751955E+03 -0.11506809158E+04  0.20135406937E+04  0.91140075071E+02 0.  0.
         11    1    3    3    0    0 -0.61154320502E+03 -0.33153118541E+03 -0.49103189239E+03  0.85147538886E+03  0.00000000000E+00 0. -1.
        -11    1    3    3    0    0 -0.78538537016E+03 -0.54628633415E+03 -0.65964902345E+03  0.11620653048E+04  0.00000000000E+00 0.  1.
         22    1    1    2    0    0  0.13969285752E+04  0.87781751955E+03  0.52796362080E+02  0.16506848571E+04  0.00000000000E+00 0. -1.
<mgrwt>
<rscale>  0 0.34958831E+04</rscale>
<asrwt>0</asrwt>
<pdfrwt beam="1">  1        1 0.36631616E+00 0.34958831E+04</pdfrwt>
<pdfrwt beam="2">  1       -1 0.19741085E+00 0.34958831E+04</pdfrwt>
<totfact> 0.20955135E-01</totfact>
</mgrwt>
</event>
<event>
 6    1  0.1719556E-004  0.1495674E+04  0.7818608E-02  0.8887335E-01
         -2   -1    0    0    0  501 -0.00000000000E+00  0.00000000000E+00  0.45780741787E+03  0.45780741787E+03  0.00000000000E+00 0. -1.
          2   -1    0    0  501    0  0.00000000000E+00 -0.00000000000E+00 -0.12216053906E+04  0.12216053906E+04  0.00000000000E+00 0.  1.
         23    2    1    2    0    0  0.11606312077E+03  0.22145141714E+03  0.40482002477E+03  0.48434820678E+03  0.90567956788E+02 0.  0.
         13    1    3    3    0    0  0.10119155436E+03  0.10516060747E+03  0.18953993537E+03  0.23921511478E+03  0.00000000000E+00 0. -1.
        -13    1    3    3    0    0  0.14871566407E+02  0.11629080967E+03  0.21528008940E+03  0.24513309200E+03  0.00000000000E+00 0.  1.
         22    1    1    2    0    0 -0.11606312077E+03 -0.22145141714E+03 -0.11686179975E+04  0.11950646017E+04  0.00000000000E+00 0.  1.
<mgrwt>
<rscale>  0 0.14956738E+04</rscale>
<asrwt>0</asrwt>
<pdfrwt beam="1">  1        2 0.18793929E+00 0.14956738E+04</pdfrwt>
<pdfrwt beam="2">  1       -2 0.70431911E-01 0.14956738E+04</pdfrwt>
<totfact> 0.32595487E+01</totfact>
</mgrwt>
</event>
<event>
 6    1  0.1719556E-004  0.1986405E+04  0.7818608E-02  0.8613003E-01
          1   -1    0    0  501    0  0.00000000000E+00  0.00000000000E+00  0.13919186749E+04  0.13919186749E+04  0.00000000000E+00 0.  1.
         -1   -1    0    0    0  501 -0.00000000000E+00 -0.00000000000E+00 -0.70869876494E+03  0.70869876494E+03  0.00000000000E+00 0. -1.
         23    2    1    2    0    0  0.97464744744E+02 -0.95514355428E+03  0.60174630645E+03  0.11370633242E+04  0.94951567354E+02 0.  0.
         13    1    3    3    0    0  0.10803214068E+03 -0.67397701133E+03  0.40429075595E+03  0.79332652204E+03  0.00000000000E+00 0. -1.
        -13    1    3    3    0    0 -0.10567395936E+02 -0.28116654295E+03  0.19745555050E+03  0.34373680215E+03  0.00000000000E+00 0.  1.
         22    1    1    2    0    0 -0.97464744744E+02  0.95514355428E+03  0.81473603539E+02  0.96355411567E+03  0.00000000000E+00 0.  1.
<mgrwt>
<rscale>  0 0.19864048E+04</rscale>
<asrwt>0</asrwt>
<pdfrwt beam="1">  1        1 0.21414133E+00 0.19864048E+04</pdfrwt>
<pdfrwt beam="2">  1       -1 0.10903058E+00 0.19864048E+04</pdfrwt>
<totfact> 0.56341020E+00</totfact>
</mgrwt>
</event>
<event>
 6    1  0.1719556E-004  0.8473543E+03  0.7818608E-02  0.9493895E-01
          1   -1    0    0  501    0  0.00000000000E+00  0.00000000000E+00  0.51457078248E+03  0.51457078248E+03  0.00000000000E+00 0.  1.
         -1   -1    0    0    0  501 -0.00000000000E+00 -0.00000000000E+00 -0.34883897595E+03  0.34883897595E+03  0.00000000000E+00 0. -1.
         23    2    1    2    0    0 -0.34458804935E+03  0.58527849560E+02  0.32004015629E+03  0.48133973901E+03  0.84236629660E+02 0.  0.
         13    1    3    3    0    0 -0.36837094860E+02 -0.13011415097E+02  0.62557422021E+02  0.73754318724E+02  0.00000000000E+00 0. -1.
        -13    1    3    3    0    0 -0.30775095449E+03  0.71539264658E+02  0.25748273427E+03  0.40758542028E+03  0.00000000000E+00 0.  1.
         22    1    1    2    0    0  0.34458804935E+03 -0.58527849560E+02 -0.15430834977E+03  0.38207001942E+03  0.00000000000E+00 0. -1.
<mgrwt>
<rscale>  0 0.84735434E+03</rscale>
<asrwt>0</asrwt>
<pdfrwt beam="1">  1        1 0.79164735E-01 0.84735434E+03</pdfrwt>
<pdfrwt beam="2">  1       -1 0.53667535E-01 0.84735434E+03</pdfrwt>
<totfact> 0.15072719E+02</totfact>
</mgrwt>
</event>
<event>
 6    1  0.1719556E-004  0.2423424E+04  0.7818608E-02  0.8430786E-01
         -2   -1    0    0    0  501 -0.00000000000E+00  0.00000000000E+00  0.79208762482E+03  0.79208762482E+03  0.00000000000E+00 0. -1.
          2   -1    0    0  501    0  0.00000000000E+00 -0.00000000000E+00 -0.18536409364E+04  0.18536409364E+04  0.00000000000E+00 0.  1.
         23    2    1    2    0    0 -0.24278945678E+03  0.33523452664E+03 -0.17728105601E+04  0.18227973479E+04  0.91673230662E+02 0.  0.
         11    1    3    3    0    0 -0.12754032663E+03  0.13947852801E+03 -0.98125504819E+03  0.99929088072E+03  0.00000000000E+00 0.  1.
        -11    1    3    3    0    0 -0.11524913016E+03  0.19575599863E+03 -0.79155551194E+03  0.82350646718E+03  0.00000000000E+00 0. -1.
         22    1    1    2    0    0  0.24278945678E+03 -0.33523452664E+03  0.71125724857E+03  0.82293121330E+03  0.00000000000E+00 0. -1.
<mgrwt>
<rscale>  0 0.24234241E+04</rscale>
<asrwt>0</asrwt>
<pdfrwt beam="1">  1        2 0.28517553E+00 0.24234241E+04</pdfrwt>
<pdfrwt beam="2">  1       -2 0.12185964E+00 0.24234241E+04</pdfrwt>
<totfact> 0.36956335E+00</totfact>
</mgrwt>
</event>
<event>
 6    1  0.1812433E-004  0.3492745E+04  0.7818608E-02  0.8115511E-01
          2   -1    0    0  501    0  0.00000000000E+00  0.00000000000E+00  0.30961524259E+04  0.30961524259E+04  0.00000000000E+00 0.  1.
         -2   -1    0    0    0  501 -0.00000000000E+00 -0.00000000000E+00 -0.98503433328E+03  0.98503433328E+03  0.00000000000E+00 0. -1.
         23    2    1    2    0    0 -0.60713031817E+03  0.98782210550E+03 -0.46814456327E+03  0.12532907951E+04  0.84727502748E+02 0.  0.
         11    1    3    3    0    0 -0.43737945202E+03  0.63566427632E+03 -0.30601924689E+03  0.83007086246E+03  0.00000000000E+00 0.  1.
        -11    1    3    3    0    0 -0.16975086615E+03  0.35215782917E+03 -0.16212531638E+03  0.42321993268E+03  0.00000000000E+00 0. -1.
         22    1    1    2    0    0  0.60713031817E+03 -0.98782210550E+03  0.25792626559E+04  0.28278959641E+04  0.00000000000E+00 0.  1.
<mgrwt>
<rscale>  0 0.34927447E+04</rscale>
<asrwt>0</asrwt>
<pdfrwt beam="1">  1        2 0.47633114E+00 0.34927447E+04</pdfrwt>
<pdfrwt beam="2">  1       -2 0.15154374E+00 0.34927447E+04</pdfrwt>
<totfact> 0.36249555E-01</totfact>
</mgrwt>
</event>
<event>
 6    1  0.1719556E-004  0.1212049E+04  0.7818608E-02  0.9102375E-01
          2   -1    0    0  501    0  0.00000000000E+00  0.00000000000E+00  0.12462214670E+04  0.12462214670E+04  0.00000000000E+00 0.  1.
         -2   -1    0    0    0  501 -0.00000000000E+00 -0.00000000000E+00 -0.29470324952E+03  0.29470324952E+03  0.00000000000E+00 0. -1.
         23    2    1    2    0    0  0.51625703021E+02  0.38975914205E+03  0.10587835150E+04  0.11333915939E+04  0.94744769960E+02 0.  0.
         13    1    3    3    0    0 -0.55083040261E+01  0.26084455902E+03  0.62518999250E+03  0.67744575583E+03  0.00000000000E+00 0. -1.
        -13    1    3    3    0    0  0.57134007047E+02  0.12891458303E+03  0.43359352248E+03  0.45594583803E+03  0.00000000000E+00 0.  1.
         22    1    1    2    0    0 -0.51625703021E+02 -0.38975914205E+03 -0.10726529748E+03  0.40753312266E+03  0.00000000000E+00 0. -1.
<mgrwt>
<rscale>  0 0.12120487E+04</rscale>
<asrwt>0</asrwt>
<pdfrwt beam="1">  1        2 0.19172638E+00 0.12120487E+04</pdfrwt>
<pdfrwt beam="2">  1       -2 0.45338962E-01 0.12120487E+04</pdfrwt>
<totfact> 0.80831756E+01</totfact>
</mgrwt>
</event>
<event>
 6    1  0.1719556E-004  0.3232290E+04  0.7818608E-02  0.8180341E-01
          2   -1    0    0  501    0  0.00000000000E+00  0.00000000000E+00  0.18362525996E+04  0.18362525996E+04  0.00000000000E+00 0.  1.
         -2   -1    0    0    0  501 -0.00000000000E+00 -0.00000000000E+00 -0.14224209975E+04  0.14224209975E+04  0.00000000000E+00 0. -1.
         23    2    1    2    0    0  0.14339911113E+04  0.72897222897E+03  0.63393811476E+02  0.16123025384E+04  0.88145801211E+02 0.  0.
         11    1    3    3    0    0  0.89581060451E+03  0.50280954794E+03  0.43200776365E+02  0.10281830517E+04  0.00000000000E+00 0. -1.
        -11    1    3    3    0    0  0.53818050675E+03  0.22616268103E+03  0.20193035112E+02  0.58411948675E+03  0.00000000000E+00 0.  1.
         22    1    1    2    0    0 -0.14339911113E+04 -0.72897222897E+03  0.35043779058E+03  0.16463710587E+04  0.00000000000E+00 0. -1.
<mgrwt>
<rscale>  0 0.32322897E+04</rscale>
<asrwt>0</asrwt>
<pdfrwt beam="1">  1        2 0.28250040E+00 0.32322897E+04</pdfrwt>
<pdfrwt beam="2">  1       -2 0.21883400E+00 0.32322897E+04</pdfrwt>
<totfact> 0.69560311E-01</totfact>
</mgrwt>
</event>
<event>
 6    1  0.1719556E-004  0.2808380E+04  0.7818608E-02  0.8300671E-01
          2   -1    0    0  501    0  0.00000000000E+00  0.00000000000E+00  0.18904456790E+04  0.18904456790E+04  0.00000000000E+00 0.  1.
         -2   -1    0    0    0  501 -0.00000000000E+00 -0.00000000000E+00 -0.10430076519E+04  0.10430076519E+04  0.00000000000E+00 0. -1.
         23    2    1    2    0    0 -0.72699349102E+03  0.20397229747E+03  0.16589544170E+04  0.18249935503E+04  0.91364472799E+02 0.  0.
         13    1    3    3    0    0 -0.18838464593E+03  0.92889234825E+02  0.42697779999E+03  0.47584369960E+03  0.00000000000E+00 0. -1.
        -13    1    3    3    0    0 -0.53860884509E+03  0.11108306264E+03  0.12319766170E+04  0.13491498507E+04  0.00000000000E+00 0.  1.
         22    1    1    2    0    0  0.72699349102E+03 -0.20397229747E+03 -0.81151638993E+03  0.11084597806E+04  0.00000000000E+00 0. -1.
<mgrwt>
<rscale>  0 0.28083798E+04</rscale>
<asrwt>0</asrwt>
<pdfrwt beam="1">  1        2 0.29083780E+00 0.28083798E+04</pdfrwt>
<pdfrwt beam="2">  1       -2 0.16046272E+00 0.28083798E+04</pdfrwt>
<totfact> 0.16706638E+00</totfact>
</mgrwt>
</event>
<event>
 6    1  0.1719556E-004  0.1538520E+04  0.7818608E-02  0.8859234E-01
          2   -1    0    0  501    0  0.00000000000E+00  0.00000000000E+00  0.81281306714E+03  0.81281306714E+03  0.00000000000E+00 0.  1.
         -2   -1    0    0    0  501 -0.00000000000E+00 -0.00000000000E+00 -0.72804057357E+03  0.72804057357E+03  0.00000000000E+00 0. -1.
         23    2    1    2    0    0  0.36641948327E+03  0.23081206020E+03  0.67595207727E+03  0.80802982489E+03  0.91997512437E+02 0.  0.
         11    1    3    3    0    0  0.20563064124E+03  0.93695318461E+02  0.41209955409E+03  0.46998810176E+03  0.00000000000E+00 0. -1.
        -11    1    3    3    0    0  0.16078884203E+03  0.13711674174E+03  0.26385252318E+03  0.33804172313E+03  0.00000000000E+00 0.  1.
         22    1    1    2    0    0 -0.36641948327E+03 -0.23081206020E+03 -0.59117958369E+03  0.73282381582E+03  0.00000000000E+00 0. -1.
<mgrwt>
<rscale>  0 0.15385199E+04</rscale>
<asrwt>0</asrwt>
<pdfrwt beam="1">  1        2 0.12504817E+00 0.15385199E+04</pdfrwt>
<pdfrwt beam="2">  1       -2 0.11200624E+00 0.15385199E+04</pdfrwt>
<totfact> 0.20430040E+01</totfact>
</mgrwt>
</event>
<event>
 6    1  0.1719556E-004  0.8524400E+03  0.7818608E-02  0.9487068E-01
         -2   -1    0    0    0  501 -0.00000000000E+00  0.00000000000E+00  0.18077385455E+03  0.18077385455E+03  0.00000000000E+00 0. -1.
          2   -1    0    0  501    0  0.00000000000E+00 -0.00000000000E+00 -0.10049211461E+04  0.10049211461E+04  0.00000000000E+00 0.  1.
         23    2    1    2    0    0 -0.45602161865E+02  0.20456632555E+03  0.91525390217E+02  0.24634235183E+03  0.91546264456E+02 0.  0.
         11    1    3    3    0    0  0.17784828695E+02  0.10896957272E+03  0.66666362943E+02  0.12897702066E+03  0.00000000000E+00 0. -1.
        -11    1    3    3    0    0 -0.63386990559E+02  0.95596752827E+02  0.24859027274E+02  0.11736533117E+03  0.00000000000E+00 0.  1.
         22    1    1    2    0    0  0.45602161865E+02 -0.20456632555E+03 -0.91567268180E+03  0.93935264886E+03  0.00000000000E+00 0.  1.
<mgrwt>
<rscale>  0 0.85243995E+03</rscale>
<asrwt>0</asrwt>
<pdfrwt beam="1">  1        2 0.15460326E+00 0.85243995E+03</pdfrwt>
<pdfrwt beam="2">  1       -2 0.27811362E-01 0.85243995E+03</pdfrwt>
<totfact> 0.29591417E+02</totfact>
</mgrwt>
</event>
<event>
 6    1  0.1719556E-004  0.2319574E+04  0.7818608E-02  0.8470243E-01
         -2   -1    0    0    0  501 -0.00000000000E+00  0.00000000000E+00  0.57938954214E+03  0.57938954214E+03  0.00000000000E+00 0. -1.
          2   -1    0    0  501    0  0.00000000000E+00 -0.00000000000E+00 -0.23215907154E+04  0.23215907154E+04  0.00000000000E+00 0.  1.
         23    2    1    2    0    0  0.68402668372E+03 -0.48857363467E+03 -0.18685351598E+04  0.20509467424E+04  0.91445046242E+02 0.  0.
         13    1    3    3    0    0  0.50815110382E+03 -0.33040829023E+03 -0.12650024321E+04  0.14027181954E+04  0.00000000000E+00 0.  1.
        -13    1    3    3    0    0  0.17587557990E+03 -0.15816534444E+03 -0.60353272772E+03  0.64822854706E+03  0.00000000000E+00 0. -1.
         22    1    1    2    0    0 -0.68402668372E+03  0.48857363467E+03  0.12633398656E+03  0.85003351504E+03  0.00000000000E+00 0. -1.
<mgrwt>
<rscale>  0 0.23195736E+04</rscale>
<asrwt>0</asrwt>
<pdfrwt beam="1">  1        2 0.35716780E+00 0.23195736E+04</pdfrwt>
<pdfrwt beam="2">  1       -2 0.89136852E-01 0.23195736E+04</pdfrwt>
<totfact> 0.43102058E+00</totfact>
</mgrwt>
</event>
<event>
 6    1  0.1719556E-004  0.1480525E+04  0.7818608E-02  0.8897508E-01
         -2   -1    0    0    0  501 -0.00000000000E+00  0.00000000000E+00  0.41479532606E+03  0.41479532606E+03  0.00000000000E+00 0. -1.
          2   -1    0    0  501    0  0.00000000000E+00 -0.00000000000E+00 -0.13211059013E+04  0.13211059013E+04  0.00000000000E+00 0.  1.
         23    2    1    2    0    0 -0.31398213393E+03  0.57076699958E+02  0.32165504877E+03  0.46714510271E+03  0.11366638239E+03 0.  0.
         11    1    3    3    0    0 -0.17561331115E+03  0.28551508017E+02  0.25499397175E+03  0.31092949247E+03  0.00000000000E+00 0.  1.
        -11    1    3    3    0    0 -0.13836882278E+03  0.28525191941E+02  0.66661077020E+02  0.15621561023E+03  0.00000000000E+00 0. -1.
         22    1    1    2    0    0  0.31398213393E+03 -0.57076699958E+02 -0.12279656240E+04  0.12687561247E+04  0.00000000000E+00 0.  1.
<mgrwt>
<rscale>  0 0.14805250E+04</rscale>
<asrwt>0</asrwt>
<pdfrwt beam="1">  1        2 0.20324706E+00 0.14805250E+04</pdfrwt>
<pdfrwt beam="2">  1       -2 0.63814665E-01 0.14805250E+04</pdfrwt>
<totfact> 0.35313961E+01</totfact>
</mgrwt>
</event>
<event>
 6    1  0.1719556E-004  0.2778610E+03  0.7818608E-02  0.1096863E+00
          2   -1    0    0  501    0  0.00000000000E+00  0.00000000000E+00  0.19205650462E+03  0.19205650462E+03  0.00000000000E+00 0.  1.
         -2   -1    0    0    0  501 -0.00000000000E+00 -0.00000000000E+00 -0.10050005854E+03  0.10050005854E+03  0.00000000000E+00 0. -1.
         23    2    1    2    0    0 -0.30210922807E+01 -0.87225709939E+02 -0.41399426316E+02  0.13351343858E+03  0.92165472432E+02 0.  0.
         11    1    3    3    0    0  0.19668884230E+02 -0.92274540972E+02 -0.52262369511E+02  0.10785551069E+03  0.00000000000E+00 0. -1.
        -11    1    3    3    0    0 -0.22689976511E+02  0.50488310325E+01  0.10862943195E+02  0.25657927892E+02  0.00000000000E+00 0.  1.
         22    1    1    2    0    0  0.30210922807E+01  0.87225709939E+02  0.13295587240E+03  0.15904312459E+03  0.00000000000E+00 0. -1.
<mgrwt>
<rscale>  0 0.27786104E+03</rscale>
<asrwt>0</asrwt>
<pdfrwt beam="1">  1        2 0.29547155E-01 0.27786104E+03</pdfrwt>
<pdfrwt beam="2">  1       -2 0.15461547E-01 0.27786104E+03</pdfrwt>
<totfact> 0.57649712E+03</totfact>
</mgrwt>
</event>
<event>
 6    1  0.1719556E-004  0.1536905E+04  0.7818608E-02  0.8860276E-01
          2   -1    0    0  501    0  0.00000000000E+00  0.00000000000E+00  0.24379730899E+04  0.24379730899E+04  0.00000000000E+00 0.  1.
         -2   -1    0    0    0  501 -0.00000000000E+00 -0.00000000000E+00 -0.24221734626E+03  0.24221734626E+03  0.00000000000E+00 0. -1.
         23    2    1    2    0    0  0.71348011320E+02 -0.58417618434E+03  0.19560434189E+04  0.20447265492E+04  0.91915456618E+02 0.  0.
         11    1    3    3    0    0  0.25637181996E+02 -0.40303755956E+03  0.12085146901E+04  0.12742073205E+04  0.00000000000E+00 0. -1.
        -11    1    3    3    0    0  0.45710829324E+02 -0.18113862478E+03  0.74752872883E+03  0.77051922866E+03  0.00000000000E+00 0.  1.
         22    1    1    2    0    0 -0.71348011320E+02  0.58417618434E+03  0.23971232477E+03  0.63546388703E+03  0.00000000000E+00 0. -1.
<mgrwt>
<rscale>  0 0.15369052E+04</rscale>
<asrwt>0</asrwt>
<pdfrwt beam="1">  1        2 0.37507277E+00 0.15369052E+04</pdfrwt>
<pdfrwt beam="2">  1       -2 0.37264209E-01 0.15369052E+04</pdfrwt>
<totfact> 0.24785807E+01</totfact>
</mgrwt>
</event>
<event>
 6    1  0.1719556E-004  0.2209660E+04  0.7818608E-02  0.8514418E-01
          2   -1    0    0  501    0  0.00000000000E+00  0.00000000000E+00  0.88632727384E+03  0.88632727384E+03  0.00000000000E+00 0.  1.
         -2   -1    0    0    0  501 -0.00000000000E+00 -0.00000000000E+00 -0.13771992242E+04  0.13771992242E+04  0.00000000000E+00 0. -1.
         23    2    1    2    0    0 -0.66240089264E+03 -0.85247546864E+03 -0.14479603057E+02  0.10835099576E+04  0.91075803630E+02 0.  0.
         11    1    3    3    0    0 -0.21788233223E+03 -0.23190908090E+03 -0.33203903352E+02  0.31993285498E+03  0.00000000000E+00 0. -1.
        -11    1    3    3    0    0 -0.44451856042E+03 -0.62056638774E+03  0.18724300295E+02  0.76357710257E+03  0.00000000000E+00 0.  1.
         22    1    1    2    0    0  0.66240089264E+03  0.85247546864E+03 -0.47639234729E+03  0.11800165405E+04  0.00000000000E+00 0. -1.
<mgrwt>
<rscale>  0 0.22096599E+04</rscale>
<asrwt>0</asrwt>
<pdfrwt beam="1">  1        2 0.13635804E+00 0.22096599E+04</pdfrwt>
<pdfrwt beam="2">  1       -2 0.21187680E+00 0.22096599E+04</pdfrwt>
<totfact> 0.30459468E+00</totfact>
</mgrwt>
</event>
<event>
 6    1  0.1719556E-004  0.4262060E+04  0.7818608E-02  0.7953671E-01
         -1   -1    0    0    0  501 -0.00000000000E+00  0.00000000000E+00  0.14414467121E+04  0.14414467121E+04  0.00000000000E+00 0.  1.
          1   -1    0    0  501    0  0.00000000000E+00 -0.00000000000E+00 -0.31505074496E+04  0.31505074496E+04  0.00000000000E+00 0. -1.
         23    2    1    2    0    0 -0.94717571211E+03 -0.18368656119E+04 -0.14106009634E+04  0.25038221394E+04  0.90072870424E+02 0.  0.
         11    1    3    3    0    0 -0.16590266297E+03 -0.38685701685E+03 -0.31229621799E+03  0.52412877505E+03  0.00000000000E+00 0.  1.
        -11    1    3    3    0    0 -0.78127304915E+03 -0.14500085951E+04 -0.10983047454E+04  0.19796933644E+04  0.00000000000E+00 0. -1.
         22    1    1    2    0    0  0.94717571211E+03  0.18368656119E+04 -0.29845977411E+03  0.20881320223E+04  0.00000000000E+00 0. -1.
<mgrwt>
<rscale>  0 0.42620599E+04</rscale>
<asrwt>0</asrwt>
<pdfrwt beam="1">  1        1 0.48469345E+00 0.42620599E+04</pdfrwt>
<pdfrwt beam="2">  1       -1 0.22176103E+00 0.42620599E+04</pdfrwt>
<totfact> 0.37957871E-02</totfact>
</mgrwt>
</event>
<event>
 6    1  0.1719556E-004  0.4937136E+04  0.7818608E-02  0.7838278E-01
         -2   -1    0    0    0  501 -0.00000000000E+00  0.00000000000E+00  0.22283848586E+04  0.22283848586E+04  0.00000000000E+00 0.  1.
          2   -1    0    0  501    0  0.00000000000E+00 -0.00000000000E+00 -0.27346383697E+04  0.27346383697E+04  0.00000000000E+00 0. -1.
         23    2    1    2    0    0 -0.19068205658E+03 -0.24327926452E+04 -0.62267599423E+03  0.25199935732E+04  0.88331840719E+02 0.  0.
         13    1    3    3    0    0 -0.59640416288E+02 -0.55761574666E+03 -0.10858410383E+03  0.57121170137E+03  0.00000000000E+00 0. -1.
        -13    1    3    3    0    0 -0.13104164029E+03 -0.18751768985E+04 -0.51409189040E+03  0.19487818718E+04  0.00000000000E+00 0.  1.
         22    1    1    2    0    0  0.19068205658E+03  0.24327926452E+04  0.11642248320E+03  0.24430296551E+04  0.00000000000E+00 0.  1.
<mgrwt>
<rscale>  0 0.49371355E+04</rscale>
<asrwt>0</asrwt>
<pdfrwt beam="1">  1        2 0.42071360E+00 0.49371355E+04</pdfrwt>
<pdfrwt beam="2">  1       -2 0.34282844E+00 0.49371355E+04</pdfrwt>
<totfact> 0.31974306E-02</totfact>
</mgrwt>
</event>
<event>
 6    1  0.1719556E-004  0.3526071E+04  0.7818608E-02  0.8107639E-01
          1   -1    0    0  501    0  0.00000000000E+00  0.00000000000E+00  0.15604691241E+04  0.15604691241E+04  0.00000000000E+00 0.  1.
         -1   -1    0    0    0  501 -0.00000000000E+00 -0.00000000000E+00 -0.19918970725E+04  0.19918970725E+04  0.00000000000E+00 0. -1.
         23    2    1    2    0    0  0.10993665828E+04 -0.13698327419E+04 -0.75833041465E+02  0.17603013647E+04  0.88665777049E+02 0.  0.
         13    1    3    3    0    0  0.14604019373E+03 -0.16381257860E+03  0.17550138242E+02  0.22015972938E+03  0.00000000000E+00 0.  1.
        -13    1    3    3    0    0  0.95332638907E+03 -0.12060201633E+04 -0.93383179707E+02  0.15401416353E+04  0.00000000000E+00 0. -1.
         22    1    1    2    0    0 -0.10993665828E+04  0.13698327419E+04 -0.35559490691E+03  0.17920648320E+04  0.00000000000E+00 0. -1.
<mgrwt>
<rscale>  0 0.35260708E+04</rscale>
<asrwt>0</asrwt>
<pdfrwt beam="1">  1        1 0.24007217E+00 0.35260708E+04</pdfrwt>
<pdfrwt beam="2">  1       -1 0.30644570E+00 0.35260708E+04</pdfrwt>
<totfact> 0.14502392E-01</totfact>
</mgrwt>
</event>
<event>
 6    1  0.1719556E-004  0.1365016E+04  0.7818608E-02  0.8979538E-01
          2   -1    0    0  501    0  0.00000000000E+00  0.00000000000E+00  0.10957240609E+04  0.10957240609E+04  0.00000000000E+00 0.  1.
         -2   -1    0    0    0  501 -0.00000000000E+00 -0.00000000000E+00 -0.42512286163E+03  0.42512286163E+03  0.00000000000E+00 0. -1.
         23    2    1    2    0    0 -0.64384699024E+03  0.19697405968E+03  0.43849022977E+03  0.80865788218E+03  0.91192991957E+02 0.  0.
         13    1    3    3    0    0 -0.48660835187E+03  0.14513961238E+03  0.28199807647E+03  0.58084086489E+03  0.00000000000E+00 0.  1.
        -13    1    3    3    0    0 -0.15723863836E+03  0.51834447300E+02  0.15649215330E+03  0.22781701729E+03  0.00000000000E+00 0. -1.
         22    1    1    2    0    0  0.64384699024E+03 -0.19697405968E+03  0.23211096948E+03  0.71218904034E+03  0.00000000000E+00 0.  1.
<mgrwt>
<rscale>  0 0.13650163E+04</rscale>
<asrwt>0</asrwt>
<pdfrwt beam="1">  1        2 0.16857293E+00 0.13650163E+04</pdfrwt>
<pdfrwt beam="2">  1       -2 0.65403518E-01 0.13650163E+04</pdfrwt>
<totfact> 0.46079533E+01</totfact>
</mgrwt>
</event>
<event>
 6    1  0.1719556E-004  0.2026548E+04  0.7818608E-02  0.8594308E-01
         -2   -1    0    0    0  501 -0.00000000000E+00  0.00000000000E+00  0.42052209781E+03  0.42052209781E+03  0.00000000000E+00 0. -1.
          2   -1    0    0  501    0  0.00000000000E+00 -0.00000000000E+00 -0.24415468459E+04  0.24415468459E+04  0.00000000000E+00 0.  1.
         23    2    1    2    0    0 -0.79782276055E+02  0.75512072041E+03 -0.69899606805E+02  0.76839709002E+03  0.94739743222E+02 0.  0.
         11    1    3    3    0    0 -0.62045566700E+02  0.29771363980E+03  0.72166633264E+01  0.30419589724E+03  0.00000000000E+00 0.  1.
        -11    1    3    3    0    0 -0.17736709355E+02  0.45740708062E+03 -0.77116270132E+02  0.46420119278E+03  0.00000000000E+00 0. -1.
         22    1    1    2    0    0  0.79782276055E+02 -0.75512072041E+03 -0.19511251413E+04  0.20936718537E+04  0.00000000000E+00 0.  1.
<mgrwt>
<rscale>  0 0.20265482E+04</rscale>
<asrwt>0</asrwt>
<pdfrwt beam="1">  1        2 0.37562258E+00 0.20265482E+04</pdfrwt>
<pdfrwt beam="2">  1       -2 0.64695709E-01 0.20265482E+04</pdfrwt>
<totfact> 0.76956177E+00</totfact>
</mgrwt>
</event>
<event>
 6    1  0.1719556E-004  0.3088469E+04  0.7818608E-02  0.8218910E-01
         -1   -1    0    0    0  501 -0.00000000000E+00  0.00000000000E+00  0.12211635309E+04  0.12211635309E+04  0.00000000000E+00 0.  1.
          1   -1    0    0  501    0  0.00000000000E+00 -0.00000000000E+00 -0.19527767946E+04  0.19527767946E+04  0.00000000000E+00 0. -1.
         23    2    1    2    0    0 -0.97933403553E+03 -0.59252232884E+03 -0.14293898061E+04  0.18333919427E+04  0.89403212669E+02 0.  0.
         13    1    3    3    0    0 -0.68509332675E+03 -0.39484871822E+03 -0.92525683463E+03  0.12171107537E+04  0.00000000000E+00 0.  1.
        -13    1    3    3    0    0 -0.29424070878E+03 -0.19767361063E+03 -0.50413297149E+03  0.61628118906E+03  0.00000000000E+00 0. -1.
         22    1    1    2    0    0  0.97933403553E+03  0.59252232884E+03  0.69777654244E+03  0.13405483828E+04  0.00000000000E+00 0.  1.
<mgrwt>
<rscale>  0 0.30884688E+04</rscale>
<asrwt>0</asrwt>
<pdfrwt beam="1">  1        1 0.30042720E+00 0.30884688E+04</pdfrwt>
<pdfrwt beam="2">  1       -1 0.18787131E+00 0.30884688E+04</pdfrwt>
<totfact> 0.49566084E-01</totfact>
</mgrwt>
</event>
<event>
 6    1  0.1719556E-004  0.2853375E+04  0.7818608E-02  0.8286886E-01
         -2   -1    0    0    0  501 -0.00000000000E+00  0.00000000000E+00  0.16730855253E+04  0.16730855253E+04  0.00000000000E+00 0. -1.
          2   -1    0    0  501    0  0.00000000000E+00 -0.00000000000E+00 -0.12165771991E+04  0.12165771991E+04  0.00000000000E+00 0.  1.
         23    2    1    2    0    0 -0.10631725968E+04  0.83384782160E+03 -0.23024240988E+03  0.13739896945E+04  0.95905960193E+02 0.  0.
         13    1    3    3    0    0 -0.60792585382E+03  0.41851938729E+03 -0.11193963744E+03  0.74650037088E+03  0.00000000000E+00 0. -1.
        -13    1    3    3    0    0 -0.45524674295E+03  0.41532843431E+03 -0.11830277245E+03  0.62748932364E+03  0.00000000000E+00 0.  1.
         22    1    1    2    0    0  0.10631725968E+04 -0.83384782160E+03  0.68675073600E+03  0.15156730299E+04  0.00000000000E+00 0. -1.
<mgrwt>
<rscale>  0 0.28533753E+04</rscale>
<asrwt>0</asrwt>
<pdfrwt beam="1">  1        2 0.18716572E+00 0.28533753E+04</pdfrwt>
<pdfrwt beam="2">  1       -2 0.25739777E+00 0.28533753E+04</pdfrwt>
<totfact> 0.92834605E-01</totfact>
</mgrwt>
</event>
<event>
 6    1  0.1719556E-004  0.3811900E+04  0.7818608E-02  0.8043606E-01
         -1   -1    0    0    0  501 -0.00000000000E+00  0.00000000000E+00  0.19150687911E+04  0.19150687911E+04  0.00000000000E+00 0. -1.
          1   -1    0    0  501    0  0.00000000000E+00 -0.00000000000E+00 -0.18968746162E+04  0.18968746162E+04  0.00000000000E+00 0.  1.
         23    2    1    2    0    0  0.15439542162E+04 -0.18402300711E+03 -0.10907442970E+04  0.19021257136E+04  0.10344090011E+03 0.  0.
         13    1    3    3    0    0  0.66660026780E+03 -0.38832569719E+02 -0.42941476480E+03  0.79388974406E+03  0.00000000000E+00 0. -1.
        -13    1    3    3    0    0  0.87735394838E+03 -0.14519043740E+03 -0.66132953225E+03  0.11082359695E+04  0.00000000000E+00 0.  1.
         22    1    1    2    0    0 -0.15439542162E+04  0.18402300711E+03  0.11089384720E+04  0.19098176938E+04  0.00000000000E+00 0. -1.
<mgrwt>
<rscale>  0 0.38119000E+04</rscale>
<asrwt>0</asrwt>
<pdfrwt beam="1">  1        1 0.29182686E+00 0.38119000E+04</pdfrwt>
<pdfrwt beam="2">  1       -1 0.29462597E+00 0.38119000E+04</pdfrwt>
<totfact> 0.99582176E-02</totfact>
</mgrwt>
</event>
<event>
 6    1  0.1719556E-004  0.3326758E+04  0.7818608E-02  0.8156120E-01
          2   -1    0    0  501    0  0.00000000000E+00  0.00000000000E+00  0.30548860434E+04  0.30548860434E+04  0.00000000000E+00 0.  1.
         -2   -1    0    0    0  501 -0.00000000000E+00 -0.00000000000E+00 -0.90570657988E+03  0.90570657988E+03  0.00000000000E+00 0. -1.
         23    2    1    2    0    0 -0.12654749298E+04 -0.57733171043E+03  0.21587090912E+04  0.25696111297E+04  0.90209289140E+02 0.  0.
         11    1    3    3    0    0 -0.16846473124E+03 -0.50236397250E+02  0.30604348990E+03  0.35294005014E+03  0.00000000000E+00 0. -1.
        -11    1    3    3    0    0 -0.10970101985E+04 -0.52709531318E+03  0.18526656013E+04  0.22166710796E+04  0.00000000000E+00 0.  1.
         22    1    1    2    0    0  0.12654749298E+04  0.57733171043E+03 -0.95296276085E+01  0.13909814936E+04  0.00000000000E+00 0. -1.
<mgrwt>
<rscale>  0 0.33267584E+04</rscale>
<asrwt>0</asrwt>
<pdfrwt beam="1">  1        2 0.46998246E+00 0.33267584E+04</pdfrwt>
<pdfrwt beam="2">  1       -2 0.13933948E+00 0.33267584E+04</pdfrwt>
<totfact> 0.48680181E-01</totfact>
</mgrwt>
</event>
<event>
 6    1  0.1719556E-004  0.3143858E+04  0.7818608E-02  0.8203804E-01
         -1   -1    0    0    0  501 -0.00000000000E+00  0.00000000000E+00  0.12619919840E+04  0.12619919840E+04  0.00000000000E+00 0. -1.
          1   -1    0    0  501    0  0.00000000000E+00 -0.00000000000E+00 -0.19579840589E+04  0.19579840589E+04  0.00000000000E+00 0.  1.
         23    2    1    2    0    0  0.97493905998E+03  0.73932902740E+03 -0.13568153709E+04  0.18293643035E+04  0.92261708609E+02 0.  0.
         13    1    3    3    0    0  0.26412490133E+03  0.23783045092E+03 -0.35066803944E+03  0.49929286073E+03  0.00000000000E+00 0. -1.
        -13    1    3    3    0    0  0.71081415865E+03  0.50149857648E+03 -0.10061473314E+04  0.13300714428E+04  0.00000000000E+00 0.  1.
         22    1    1    2    0    0 -0.97493905998E+03 -0.73932902740E+03  0.66082329594E+03  0.13906117394E+04  0.00000000000E+00 0. -1.
<mgrwt>
<rscale>  0 0.31438576E+04</rscale>
<asrwt>0</asrwt>
<pdfrwt beam="1">  1        1 0.30122831E+00 0.31438576E+04</pdfrwt>
<pdfrwt beam="2">  1       -1 0.19415261E+00 0.31438576E+04</pdfrwt>
<totfact> 0.44210409E-01</totfact>
</mgrwt>
</event>
<event>
 6    1  0.1719556E-004  0.2378030E+04  0.7818608E-02  0.8447775E-01
          2   -1    0    0  501    0  0.00000000000E+00  0.00000000000E+00  0.78600281599E+03  0.78600281599E+03  0.00000000000E+00 0. -1.
         -2   -1    0    0    0  501 -0.00000000000E+00 -0.00000000000E+00 -0.17986655055E+04  0.17986655055E+04  0.00000000000E+00 0.  1.
         23    2    1    2    0    0  0.11245573937E+04  0.36619924278E+03 -0.39486470951E+03  0.12503499332E+04  0.93410916874E+02 0.  0.
         13    1    3    3    0    0  0.55329422601E+03  0.13929227089E+03 -0.16287179194E+03  0.59334986128E+03  0.00000000000E+00 0. -1.
        -13    1    3    3    0    0  0.57126316773E+03  0.22690697189E+03 -0.23199291757E+03  0.65700007192E+03  0.00000000000E+00 0.  1.
         22    1    1    2    0    0 -0.11245573937E+04 -0.36619924278E+03 -0.61779797998E+03  0.13343183883E+04  0.00000000000E+00 0. -1.
<mgrwt>
<rscale>  0 0.23780296E+04</rscale>
<asrwt>0</asrwt>
<pdfrwt beam="1">  1        2 0.12092351E+00 0.23780296E+04</pdfrwt>
<pdfrwt beam="2">  1       -2 0.27671777E+00 0.23780296E+04</pdfrwt>
<totfact> 0.14009822E+00</totfact>
</mgrwt>
</event>
<event>
 6    1  0.1719556E-004  0.1156198E+04  0.7818608E-02  0.9152084E-01
          1   -1    0    0  501    0  0.00000000000E+00  0.00000000000E+00  0.13910928573E+04  0.13910928573E+04  0.00000000000E+00 0.  1.
         -1   -1    0    0    0  501 -0.00000000000E+00 -0.00000000000E+00 -0.24024179811E+03  0.24024179811E+03  0.00000000000E+00 0. -1.
         23    2    1    2    0    0 -0.24492683477E+03  0.13426237345E+03 -0.12918200226E+03  0.32118192474E+03  0.91947266167E+02 0.  0.
         13    1    3    3    0    0 -0.14046895711E+02  0.22946085451E+02 -0.43082936836E+02  0.50793479533E+02  0.00000000000E+00 0.  1.
        -13    1    3    3    0    0 -0.23087993906E+03  0.11131628800E+03 -0.86099065424E+02  0.27038844520E+03  0.00000000000E+00 0. -1.
         22    1    1    2    0    0  0.24492683477E+03 -0.13426237345E+03  0.12800330614E+04  0.13101527307E+04  0.00000000000E+00 0.  1.
<mgrwt>
<rscale>  0 0.11561983E+04</rscale>
<asrwt>0</asrwt>
<pdfrwt beam="1">  1        1 0.21401428E+00 0.11561983E+04</pdfrwt>
<pdfrwt beam="2">  1       -1 0.36960277E-01 0.11561983E+04</pdfrwt>
<totfact> 0.54403319E+01</totfact>
</mgrwt>
</event>
<event>
 6    1  0.1719556E-004  0.2313887E+04  0.7818608E-02  0.8472466E-01
          1   -1    0    0  501    0  0.00000000000E+00  0.00000000000E+00  0.66342489456E+03  0.66342489456E+03  0.00000000000E+00 0. -1.
         -1   -1    0    0    0  501 -0.00000000000E+00 -0.00000000000E+00 -0.20175881143E+04  0.20175881143E+04  0.00000000000E+00 0.  1.
         23    2    1    2    0    0  0.53171858577E+03 -0.10072331676E+04 -0.45512466937E+03  0.12299742005E+04  0.91949774246E+02 0.  0.
         11    1    3    3    0    0  0.10442239480E+03 -0.16132073784E+03 -0.10972114510E+03  0.22128521567E+03  0.00000000000E+00 0.  1.
        -11    1    3    3    0    0  0.42729619098E+03 -0.84591242972E+03 -0.34540352427E+03  0.10086889848E+04  0.00000000000E+00 0. -1.
         22    1    1    2    0    0 -0.53171858577E+03  0.10072331676E+04 -0.89903855042E+03  0.14510388084E+04  0.00000000000E+00 0.  1.
<mgrwt>
<rscale>  0 0.23138869E+04</rscale>
<asrwt>0</asrwt>
<pdfrwt beam="1">  1        1 0.10206537E+00 0.23138869E+04</pdfrwt>
<pdfrwt beam="2">  1       -1 0.31039818E+00 0.23138869E+04</pdfrwt>
<totfact> 0.75418228E-01</totfact>
</mgrwt>
</event>
<event>
 6    1  0.1719556E-004  0.2379842E+04  0.7818608E-02  0.8447089E-01
          1   -1    0    0  501    0  0.00000000000E+00  0.00000000000E+00  0.23856890407E+04  0.23856890407E+04  0.00000000000E+00 0.  1.
         -1   -1    0    0    0  501 -0.00000000000E+00 -0.00000000000E+00 -0.59350212889E+03  0.59350212889E+03  0.00000000000E+00 0. -1.
         23    2    1    2    0    0 -0.32969669743E+03 -0.11263209767E+04  0.11299677346E+04  0.16316626565E+04  0.90537773313E+02 0.  0.
         11    1    3    3    0    0 -0.14896760818E+03 -0.66562275369E+03  0.66546795338E+03  0.95293892538E+03  0.00000000000E+00 0. -1.
        -11    1    3    3    0    0 -0.18072908925E+03 -0.46069822304E+03  0.46449978117E+03  0.67872373107E+03  0.00000000000E+00 0.  1.
         22    1    1    2    0    0  0.32969669743E+03  0.11263209767E+04  0.66221917721E+03  0.13475285131E+04  0.00000000000E+00 0.  1.
<mgrwt>
<rscale>  0 0.23798416E+04</rscale>
<asrwt>0</asrwt>
<pdfrwt beam="1">  1        1 0.36702908E+00 0.23798416E+04</pdfrwt>
<pdfrwt beam="2">  1       -1 0.91308021E-01 0.23798416E+04</pdfrwt>
<totfact> 0.17064254E+00</totfact>
</mgrwt>
</event>
<event>
 6    1  0.1719556E-004  0.1491163E+04  0.7818608E-02  0.8890351E-01
         -2   -1    0    0    0  501 -0.00000000000E+00  0.00000000000E+00  0.31971200196E+03  0.31971200196E+03  0.00000000000E+00 0. -1.
          2   -1    0    0  501    0  0.00000000000E+00 -0.00000000000E+00 -0.17387262310E+04  0.17387262310E+04  0.00000000000E+00 0.  1.
         23    2    1    2    0    0  0.16689740678E+03 -0.62397458718E+03 -0.20575354819E+03  0.68395632709E+03  0.90899422089E+02 0.  0.
         13    1    3    3    0    0  0.50344959856E+02 -0.12610294408E+03 -0.90103867451E+01  0.13607995649E+03  0.00000000000E+00 0. -1.
        -13    1    3    3    0    0  0.11655244692E+03 -0.49787164310E+03 -0.19674316145E+03  0.54787637060E+03  0.00000000000E+00 0.  1.
         22    1    1    2    0    0 -0.16689740678E+03  0.62397458718E+03 -0.12132606808E+04  0.13744819058E+04  0.00000000000E+00 0.  1.
<mgrwt>
<rscale>  0 0.14911628E+04</rscale>
<asrwt>0</asrwt>
<pdfrwt beam="1">  1        2 0.26749634E+00 0.14911628E+04</pdfrwt>
<pdfrwt beam="2">  1       -2 0.49186462E-01 0.14911628E+04</pdfrwt>
<totfact> 0.35303084E+01</totfact>
</mgrwt>
</event>
<event>
 6    1  0.1719556E-004  0.1078654E+04  0.7818608E-02  0.9226251E-01
         -2   -1    0    0    0  501 -0.00000000000E+00  0.00000000000E+00  0.89242361052E+03  0.89242361052E+03  0.00000000000E+00 0. -1.
          2   -1    0    0  501    0  0.00000000000E+00 -0.00000000000E+00 -0.32593653075E+03  0.32593653075E+03  0.00000000000E+00 0.  1.
         23    2    1    2    0    0  0.24420211095E+03  0.40566121356E+03  0.11629810025E+02  0.48893414710E+03  0.12134931621E+03 0.  0.
         11    1    3    3    0    0  0.71802059159E+02  0.10148551333E+03  0.56272873091E+02  0.13646054874E+03  0.00000000000E+00 0. -1.
        -11    1    3    3    0    0  0.17240005180E+03  0.30417570022E+03 -0.44643063066E+02  0.35247359837E+03  0.00000000000E+00 0.  1.
         22    1    1    2    0    0 -0.24420211095E+03 -0.40566121356E+03  0.55485726974E+03  0.72942599416E+03  0.00000000000E+00 0. -1.
<mgrwt>
<rscale>  0 0.10786537E+04</rscale>
<asrwt>0</asrwt>
<pdfrwt beam="1">  1        2 0.50144082E-01 0.10786537E+04</pdfrwt>
<pdfrwt beam="2">  1       -2 0.13729594E+00 0.10786537E+04</pdfrwt>
<totfact> 0.37553599E+01</totfact>
</mgrwt>
</event>
<event>
 6    1  0.1854823E-004  0.2557000E+04  0.7818608E-02  0.8382956E-01
         -2   -1    0    0    0  501 -0.00000000000E+00  0.00000000000E+00  0.81364611510E+03  0.81364611510E+03  0.00000000000E+00 0. -1.
          2   -1    0    0  501    0  0.00000000000E+00 -0.00000000000E+00 -0.20089355427E+04  0.20089355427E+04  0.00000000000E+00 0.  1.
         23    2    1    2    0    0 -0.81847708348E+03  0.16889604848E+03 -0.16642872818E+04  0.18642552006E+04  0.84644463781E+02 0.  0.
         11    1    3    3    0    0 -0.26364235537E+03  0.95117345463E+02 -0.55754238072E+03  0.62402572643E+03  0.00000000000E+00 0. -1.
        -11    1    3    3    0    0 -0.55483472811E+03  0.73778703015E+02 -0.11067449011E+04  0.12402294742E+04  0.00000000000E+00 0.  1.
         22    1    1    2    0    0  0.81847708348E+03 -0.16889604848E+03  0.46899785418E+03  0.95832645721E+03  0.00000000000E+00 0. -1.
<mgrwt>
<rscale>  0 0.25570003E+04</rscale>
<asrwt>0</asrwt>
<pdfrwt beam="1">  1        2 0.30906701E+00 0.25570003E+04</pdfrwt>
<pdfrwt beam="2">  1       -2 0.12517633E+00 0.25570003E+04</pdfrwt>
<totfact> 0.28014827E+00</totfact>
</mgrwt>
</event>
<event>
 6    1  0.1719556E-004  0.2856168E+04  0.7818608E-02  0.8286039E-01
          2   -1    0    0  501    0  0.00000000000E+00  0.00000000000E+00  0.12260045619E+04  0.12260045619E+04  0.00000000000E+00 0.  1.
         -2   -1    0    0    0  501 -0.00000000000E+00 -0.00000000000E+00 -0.16634719204E+04  0.16634719204E+04  0.00000000000E+00 0. -1.
         23    2    1    2    0    0  0.19335050941E+03 -0.85394587419E+03 -0.13583964038E+04  0.16187608249E+04  0.92400449011E+02 0.  0.
         11    1    3    3    0    0  0.18340904629E+03 -0.62998208088E+03 -0.10231186257E+04  0.12154373792E+04  0.00000000000E+00 0. -1.
        -11    1    3    3    0    0  0.99414631244E+01 -0.22396379330E+03 -0.33527777812E+03  0.40332344576E+03  0.00000000000E+00 0.  1.
         22    1    1    2    0    0 -0.19335050941E+03  0.85394587419E+03  0.92092904525E+03  0.12707156574E+04  0.00000000000E+00 0.  1.
<mgrwt>
<rscale>  0 0.28561682E+04</rscale>
<asrwt>0</asrwt>
<pdfrwt beam="1">  1        2 0.18861609E+00 0.28561682E+04</pdfrwt>
<pdfrwt beam="2">  1       -2 0.25591876E+00 0.28561682E+04</pdfrwt>
<totfact> 0.93555547E-01</totfact>
</mgrwt>
</event>
<event>
 6    1  0.1719556E-004  0.2653479E+04  0.7818608E-02  0.8350259E-01
          2   -1    0    0  501    0  0.00000000000E+00  0.00000000000E+00  0.17042388983E+04  0.17042388983E+04  0.00000000000E+00 0.  1.
         -2   -1    0    0    0  501 -0.00000000000E+00 -0.00000000000E+00 -0.10328588784E+04  0.10328588784E+04  0.00000000000E+00 0. -1.
         23    2    1    2    0    0 -0.85311412979E+03 -0.61153002931E+03 -0.49833974888E+03  0.11654689934E+04  0.90569167086E+02 0.  0.
         11    1    3    3    0    0 -0.84147827051E+03 -0.60751880315E+03 -0.48025904340E+03  0.11435967492E+04  0.00000000000E+00 0. -1.
        -11    1    3    3    0    0 -0.11635859274E+02 -0.40112261528E+01 -0.18080705481E+02  0.21872244215E+02  0.00000000000E+00 0.  1.
         22    1    1    2    0    0  0.85311412979E+03  0.61153002931E+03  0.11697197687E+04  0.15716287833E+04  0.00000000000E+00 0.  1.
<mgrwt>
<rscale>  0 0.26534794E+04</rscale>
<asrwt>0</asrwt>
<pdfrwt beam="1">  1        2 0.26219060E+00 0.26534794E+04</pdfrwt>
<pdfrwt beam="2">  1       -2 0.15890137E+00 0.26534794E+04</pdfrwt>
<totfact> 0.22050249E+00</totfact>
</mgrwt>
</event>
<event>
 6    1  0.1719556E-004  0.3598742E+04  0.7818608E-02  0.8090780E-01
         -1   -1    0    0    0  501 -0.00000000000E+00  0.00000000000E+00  0.17713494292E+04  0.17713494292E+04  0.00000000000E+00 0. -1.
          1   -1    0    0  501    0  0.00000000000E+00 -0.00000000000E+00 -0.18278357685E+04  0.18278357685E+04  0.00000000000E+00 0.  1.
         23    2    1    2    0    0 -0.16116427772E+04 -0.59578390757E+03 -0.55867752357E+03  0.18090603720E+04  0.90708039999E+02 0.  0.
         13    1    3    3    0    0 -0.14127379940E+03 -0.64991449662E+02 -0.26708708682E+02  0.15778317415E+03  0.00000000000E+00 0.  1.
        -13    1    3    3    0    0 -0.14703689778E+04 -0.53079245790E+03 -0.53196881489E+03  0.16512771979E+04  0.00000000000E+00 0. -1.
         22    1    1    2    0    0  0.16116427772E+04  0.59578390757E+03  0.50219118426E+03  0.17901248256E+04  0.00000000000E+00 0.  1.
<mgrwt>
<rscale>  0 0.35987419E+04</rscale>
<asrwt>0</asrwt>
<pdfrwt beam="1">  1        1 0.28120550E+00 0.35987419E+04</pdfrwt>
<pdfrwt beam="2">  1       -1 0.27251530E+00 0.35987419E+04</pdfrwt>
<totfact> 0.15705235E-01</totfact>
</mgrwt>
</event>
<event>
 6    1  0.1719556E-004  0.1757947E+04  0.7818608E-02  0.8728988E-01
          1   -1    0    0  501    0  0.00000000000E+00  0.00000000000E+00  0.11213760351E+04  0.11213760351E+04  0.00000000000E+00 0.  1.
         -1   -1    0    0    0  501 -0.00000000000E+00 -0.00000000000E+00 -0.68896978771E+03  0.68896978771E+03  0.00000000000E+00 0. -1.
         23    2    1    2    0    0 -0.24479371954E+03 -0.74290510196E+03  0.62437942046E+03  0.10049355828E+04  0.90630619684E+02 0.  0.
         11    1    3    3    0    0 -0.37141347039E+02 -0.64421918498E+02  0.33437709800E+02  0.81533696589E+02  0.00000000000E+00 0. -1.
        -11    1    3    3    0    0 -0.20765237250E+03 -0.67848318346E+03  0.59094171066E+03  0.92340188620E+03  0.00000000000E+00 0.  1.
         22    1    1    2    0    0  0.24479371954E+03  0.74290510196E+03 -0.19197317302E+03  0.80541024007E+03  0.00000000000E+00 0. -1.
<mgrwt>
<rscale>  0 0.17579468E+04</rscale>
<asrwt>0</asrwt>
<pdfrwt beam="1">  1        1 0.17251939E+00 0.17579468E+04</pdfrwt>
<pdfrwt beam="2">  1       -1 0.10599535E+00 0.17579468E+04</pdfrwt>
<totfact> 0.96373656E+00</totfact>
</mgrwt>
</event>
<event>
 6    1  0.1719556E-004  0.2154455E+04  0.7818608E-02  0.8537628E-01
          1   -1    0    0  501    0  0.00000000000E+00  0.00000000000E+00  0.88430738344E+03  0.88430738344E+03  0.00000000000E+00 0.  1.
         -1   -1    0    0    0  501 -0.00000000000E+00 -0.00000000000E+00 -0.13122348791E+04  0.13122348791E+04  0.00000000000E+00 0. -1.
         23    2    1    2    0    0 -0.23902202265E+03  0.66633200123E+03  0.61096355947E+03  0.93939291278E+03  0.89736895503E+02 0.  0.
         11    1    3    3    0    0 -0.15086930604E+03  0.29012887497E+03  0.26997238796E+03  0.42405353655E+03  0.00000000000E+00 0. -1.
        -11    1    3    3    0    0 -0.88152716607E+02  0.37620312626E+03  0.34099117151E+03  0.51533937623E+03  0.00000000000E+00 0.  1.
         22    1    1    2    0    0  0.23902202265E+03 -0.66633200123E+03 -0.10388910551E+04  0.12571493498E+04  0.00000000000E+00 0. -1.
<mgrwt>
<rscale>  0 0.21544549E+04</rscale>
<asrwt>0</asrwt>
<pdfrwt beam="1">  1        1 0.13604729E+00 0.21544549E+04</pdfrwt>
<pdfrwt beam="2">  1       -1 0.20188229E+00 0.21544549E+04</pdfrwt>
<totfact> 0.25064733E+00</totfact>
</mgrwt>
</event>
<event>
 6    1  0.1719556E-004  0.2015506E+04  0.7818608E-02  0.8599405E-01
         -2   -1    0    0    0  501 -0.00000000000E+00  0.00000000000E+00  0.86884775010E+03  0.86884775010E+03  0.00000000000E+00 0. -1.
          2   -1    0    0  501    0  0.00000000000E+00 -0.00000000000E+00 -0.11688653987E+04  0.11688653987E+04  0.00000000000E+00 0.  1.
         23    2    1    2    0    0 -0.63701402959E+03 -0.68065104978E+03 -0.53161161988E+03  0.10771359821E+04  0.92402836346E+02 0.  0.
         13    1    3    3    0    0 -0.42046860258E+03 -0.47456778358E+03 -0.40594391886E+03  0.75286047328E+03  0.00000000000E+00 0.  1.
        -13    1    3    3    0    0 -0.21654542701E+03 -0.20608326620E+03 -0.12566770103E+03  0.32427550886E+03  0.00000000000E+00 0. -1.
         22    1    1    2    0    0  0.63701402959E+03  0.68065104978E+03  0.23159397133E+03  0.96057716662E+03  0.00000000000E+00 0. -1.
<mgrwt>
<rscale>  0 0.20155060E+04</rscale>
<asrwt>0</asrwt>
<pdfrwt beam="1">  1        2 0.17982545E+00 0.20155060E+04</pdfrwt>
<pdfrwt beam="2">  1       -2 0.13366888E+00 0.20155060E+04</pdfrwt>
<totfact> 0.74254479E+00</totfact>
</mgrwt>
</event>
<event>
 6    1  0.1719556E-004  0.1813597E+04  0.7818608E-02  0.8699102E-01
          2   -1    0    0  501    0  0.00000000000E+00  0.00000000000E+00  0.22576231882E+04  0.22576231882E+04  0.00000000000E+00 0.  1.
         -2   -1    0    0    0  501 -0.00000000000E+00 -0.00000000000E+00 -0.36422515160E+03  0.36422515160E+03  0.00000000000E+00 0. -1.
         23    2    1    2    0    0  0.58029311047E+03  0.63679093389E+03  0.55015326741E+03  0.10260572202E+04  0.88780706626E+02 0.  0.
         13    1    3    3    0    0  0.47199739091E+03  0.49589227489E+03  0.39655224676E+03  0.79116646146E+03  0.00000000000E+00 0. -1.
        -13    1    3    3    0    0  0.10829571956E+03  0.14089865900E+03  0.15360102065E+03  0.23489075871E+03  0.00000000000E+00 0.  1.
         22    1    1    2    0    0 -0.58029311047E+03 -0.63679093389E+03  0.13432447692E+04  0.15957911196E+04  0.00000000000E+00 0.  1.
<mgrwt>
<rscale>  0 0.18135966E+04</rscale>
<asrwt>0</asrwt>
<pdfrwt beam="1">  1        2 0.34732664E+00 0.18135966E+04</pdfrwt>
<pdfrwt beam="2">  1       -2 0.56034640E-01 0.18135966E+04</pdfrwt>
<totfact> 0.13517496E+01</totfact>
</mgrwt>
</event>
<event>
 6    1  0.1719556E-004  0.2622982E+04  0.7818608E-02  0.8360436E-01
          2   -1    0    0  501    0  0.00000000000E+00  0.00000000000E+00  0.28076067825E+04  0.28076067825E+04  0.00000000000E+00 0.  1.
         -2   -1    0    0    0  501 -0.00000000000E+00 -0.00000000000E+00 -0.61262449608E+03  0.61262449608E+03  0.00000000000E+00 0. -1.
         23    2    1    2    0    0  0.41856785634E+03  0.12271181118E+04  0.85536997778E+03  0.15559407840E+04  0.90972600383E+02 0.  0.
         11    1    3    3    0    0  0.14544499812E+03  0.30999103459E+03  0.24212653332E+03  0.41937327901E+03  0.00000000000E+00 0. -1.
        -11    1    3    3    0    0  0.27312285821E+03  0.91712707716E+03  0.61324344446E+03  0.11365675050E+04  0.00000000000E+00 0.  1.
         22    1    1    2    0    0 -0.41856785634E+03 -0.12271181118E+04  0.13396123086E+04  0.18642904945E+04  0.00000000000E+00 0.  1.
<mgrwt>
<rscale>  0 0.26229820E+04</rscale>
<asrwt>0</asrwt>
<pdfrwt beam="1">  1        2 0.43193950E+00 0.26229820E+04</pdfrwt>
<pdfrwt beam="2">  1       -2 0.94249924E-01 0.26229820E+04</pdfrwt>
<totfact> 0.19174553E+00</totfact>
</mgrwt>
</event>
<event>
 6    1  0.1719556E-004  0.1369921E+04  0.7818608E-02  0.8975884E-01
          2   -1    0    0  501    0  0.00000000000E+00  0.00000000000E+00  0.42831252986E+03  0.42831252986E+03  0.00000000000E+00 0.  1.
         -2   -1    0    0    0  501 -0.00000000000E+00 -0.00000000000E+00 -0.10953931231E+04  0.10953931231E+04  0.00000000000E+00 0. -1.
         23    2    1    2    0    0  0.31568113261E+03 -0.42486741038E+03  0.14316164296E+03  0.55589401054E+03  0.91411164812E+02 0.  0.
         13    1    3    3    0    0  0.26094067869E+03 -0.34267728668E+03  0.78381543208E+02  0.43779153363E+03  0.00000000000E+00 0. -1.
        -13    1    3    3    0    0  0.54740453920E+02 -0.82190123704E+02  0.64780099751E+02  0.11810247692E+03  0.00000000000E+00 0.  1.
         22    1    1    2    0    0 -0.31568113261E+03  0.42486741038E+03 -0.81024223620E+03  0.96781164242E+03  0.00000000000E+00 0. -1.
<mgrwt>
<rscale>  0 0.13699206E+04</rscale>
<asrwt>0</asrwt>
<pdfrwt beam="1">  1        2 0.65894238E-01 0.13699206E+04</pdfrwt>
<pdfrwt beam="2">  1       -2 0.16852201E+00 0.13699206E+04</pdfrwt>
<totfact> 0.15655535E+01</totfact>
</mgrwt>
</event>
<event>
 6    1  0.1719556E-004  0.8534456E+03  0.7818608E-02  0.9485724E-01
         -2   -1    0    0    0  501 -0.00000000000E+00  0.00000000000E+00  0.18749290239E+03  0.18749290239E+03  0.00000000000E+00 0. -1.
          2   -1    0    0  501    0  0.00000000000E+00 -0.00000000000E+00 -0.97119591264E+03  0.97119591264E+03  0.00000000000E+00 0.  1.
         23    2    1    2    0    0  0.39292024994E+03  0.14575315201E+02 -0.18898124883E+03  0.44574229802E+03  0.91506946224E+02 0.  0.
         11    1    3    3    0    0  0.36705759105E+03  0.33024573044E+01 -0.19675403207E+03  0.41647848745E+03  0.00000000000E+00 0. -1.
        -11    1    3    3    0    0  0.25862658890E+02  0.11272857897E+02  0.77727832339E+01  0.29263810572E+02  0.00000000000E+00 0.  1.
         22    1    1    2    0    0 -0.39292024994E+03 -0.14575315201E+02 -0.59472176141E+03  0.71294651701E+03  0.00000000000E+00 0.  1.
<mgrwt>
<rscale>  0 0.85344558E+03</rscale>
<asrwt>0</asrwt>
<pdfrwt beam="1">  1        2 0.14941475E+00 0.85344558E+03</pdfrwt>
<pdfrwt beam="2">  1       -2 0.28845063E-01 0.85344558E+03</pdfrwt>
<totfact> 0.29085147E+02</totfact>
</mgrwt>
</event>
<event>
 6    1  0.1719556E-004  0.2040232E+04  0.7818608E-02  0.8588038E-01
         -1   -1    0    0    0  501 -0.00000000000E+00  0.00000000000E+00  0.82471304796E+03  0.82471304796E+03  0.00000000000E+00 0. -1.
          1   -1    0    0  501    0  0.00000000000E+00 -0.00000000000E+00 -0.12618168887E+04  0.12618168887E+04  0.00000000000E+00 0.  1.
         23    2    1    2    0    0  0.24904761142E+03  0.30149625219E+03  0.74234192897E+03  0.84394512003E+03  0.90813673381E+02 0.  0.
         13    1    3    3    0    0  0.14142926934E+03  0.21307848731E+03  0.40509431337E+03  0.47906793120E+03  0.00000000000E+00 0.  1.
        -13    1    3    3    0    0  0.10761834208E+03  0.88417764882E+02  0.33724761560E+03  0.36487718883E+03  0.00000000000E+00 0. -1.
         22    1    1    2    0    0 -0.24904761142E+03 -0.30149625219E+03 -0.11794457697E+04  0.12425848167E+04  0.00000000000E+00 0.  1.
<mgrwt>
<rscale>  0 0.20402322E+04</rscale>
<asrwt>0</asrwt>
<pdfrwt beam="1">  1        1 0.19412567E+00 0.20402322E+04</pdfrwt>
<pdfrwt beam="2">  1       -1 0.12687893E+00 0.20402322E+04</pdfrwt>
<totfact> 0.48027945E+00</totfact>
</mgrwt>
</event>
<event>
 6    1  0.1719556E-004  0.2596304E+03  0.7818608E-02  0.1107365E+00
         -2   -1    0    0    0  501 -0.00000000000E+00  0.00000000000E+00  0.46944855202E+02  0.46944855202E+02  0.00000000000E+00 0. -1.
          2   -1    0    0  501    0  0.00000000000E+00 -0.00000000000E+00 -0.35897407047E+03  0.35897407047E+03  0.00000000000E+00 0.  1.
         23    2    1    2    0    0  0.68690364049E+02  0.71577857292E+02 -0.26281105266E+03  0.29517515250E+03  0.90647479173E+02 0.  0.
         11    1    3    3    0    0  0.12723851532E+02 -0.19702391973E+02 -0.79470164798E+02  0.82858842258E+02  0.00000000000E+00 0. -1.
        -11    1    3    3    0    0  0.55966512516E+02  0.91280249265E+02 -0.18334088787E+03  0.21231631024E+03  0.00000000000E+00 0.  1.
         22    1    1    2    0    0 -0.68690364049E+02 -0.71577857292E+02 -0.49218162604E+02  0.11074377318E+03  0.00000000000E+00 0. -1.
<mgrwt>
<rscale>  0 0.25963040E+03</rscale>
<asrwt>0</asrwt>
<pdfrwt beam="1">  1        2 0.55226779E-01 0.25963040E+03</pdfrwt>
<pdfrwt beam="2">  1       -2 0.72222856E-02 0.25963040E+03</pdfrwt>
<totfact> 0.98708740E+03</totfact>
</mgrwt>
</event>
<event>
 6    1  0.1719556E-004  0.1594955E+04  0.7818608E-02  0.8823653E-01
          1   -1    0    0  501    0  0.00000000000E+00  0.00000000000E+00  0.10140982759E+04  0.10140982759E+04  0.00000000000E+00 0.  1.
         -1   -1    0    0    0  501 -0.00000000000E+00 -0.00000000000E+00 -0.62712895133E+03  0.62712895133E+03  0.00000000000E+00 0. -1.
         23    2    1    2    0    0 -0.70730906078E+03  0.11656947935E+03 -0.15921389547E+03  0.74001101521E+03  0.91611610266E+02 0.  0.
         11    1    3    3    0    0 -0.18911425047E+03 -0.77364392775E+01 -0.29525825865E+02  0.19156154786E+03  0.00000000000E+00 0.  1.
        -11    1    3    3    0    0 -0.51819481031E+03  0.12430591863E+03 -0.12968806961E+03  0.54844946735E+03  0.00000000000E+00 0. -1.
         22    1    1    2    0    0  0.70730906078E+03 -0.11656947935E+03  0.54618322008E+03  0.90121621206E+03  0.00000000000E+00 0.  1.
<mgrwt>
<rscale>  0 0.15949550E+04</rscale>
<asrwt>0</asrwt>
<pdfrwt beam="1">  1        1 0.15601512E+00 0.15949550E+04</pdfrwt>
<pdfrwt beam="2">  1       -1 0.96481377E-01 0.15949550E+04</pdfrwt>
<totfact> 0.14646638E+01</totfact>
</mgrwt>
</event>
<event>
 6    1  0.1719556E-004  0.2388765E+04  0.7818608E-02  0.8443722E-01
         -2   -1    0    0    0  501 -0.00000000000E+00  0.00000000000E+00  0.11273581026E+04  0.11273581026E+04  0.00000000000E+00 0. -1.
          2   -1    0    0  501    0  0.00000000000E+00 -0.00000000000E+00 -0.12653912685E+04  0.12653912685E+04  0.00000000000E+00 0.  1.
         23    2    1    2    0    0 -0.16500484126E+02  0.10848450558E+04 -0.56508462184E+03  0.12267588021E+04  0.91953616434E+02 0.  0.
         13    1    3    3    0    0 -0.50898176761E+02  0.84831870603E+03 -0.44020606544E+03  0.95708757773E+03  0.00000000000E+00 0.  1.
        -13    1    3    3    0    0  0.34397692635E+02  0.23652634979E+03 -0.12487855641E+03  0.26967122437E+03  0.00000000000E+00 0. -1.
         22    1    1    2    0    0  0.16500484126E+02 -0.10848450558E+04  0.42705145593E+03  0.11659905691E+04  0.00000000000E+00 0. -1.
<mgrwt>
<rscale>  0 0.23887646E+04</rscale>
<asrwt>0</asrwt>
<pdfrwt beam="1">  1        2 0.19467558E+00 0.23887646E+04</pdfrwt>
<pdfrwt beam="2">  1       -2 0.17343971E+00 0.23887646E+04</pdfrwt>
<totfact> 0.31419486E+00</totfact>
</mgrwt>
</event>
<event>
 6    1  0.1719556E-004  0.1852259E+04  0.7818608E-02  0.8678992E-01
         -1   -1    0    0    0  501 -0.00000000000E+00  0.00000000000E+00  0.42373458870E+03  0.42373458870E+03  0.00000000000E+00 0.  1.
          1   -1    0    0  501    0  0.00000000000E+00 -0.00000000000E+00 -0.20241822219E+04  0.20241822219E+04  0.00000000000E+00 0. -1.
         23    2    1    2    0    0  0.45807149619E+03  0.75610262452E+03 -0.44770203337E+03  0.99521481352E+03  0.92166913491E+02 0.  0.
         11    1    3    3    0    0  0.28025237120E+03  0.38185131145E+03 -0.21741474100E+03  0.52117270192E+03  0.00000000000E+00 0. -1.
        -11    1    3    3    0    0  0.17781912498E+03  0.37425131307E+03 -0.23028729237E+03  0.47404211160E+03  0.00000000000E+00 0.  1.
         22    1    1    2    0    0 -0.45807149619E+03 -0.75610262452E+03 -0.11527455998E+04  0.14527019971E+04  0.00000000000E+00 0. -1.
<mgrwt>
<rscale>  0 0.18522592E+04</rscale>
<asrwt>0</asrwt>
<pdfrwt beam="1">  1        1 0.31141266E+00 0.18522592E+04</pdfrwt>
<pdfrwt beam="2">  1       -1 0.65189935E-01 0.18522592E+04</pdfrwt>
<totfact> 0.64309822E+00</totfact>
</mgrwt>
</event>
<event>
 6    1  0.1719556E-004  0.8302129E+03  0.7818608E-02  0.9517286E-01
          2   -1    0    0  501    0  0.00000000000E+00  0.00000000000E+00  0.78861836202E+03  0.78861836202E+03  0.00000000000E+00 0.  1.
         -2   -1    0    0    0  501 -0.00000000000E+00 -0.00000000000E+00 -0.21850029469E+03  0.21850029469E+03  0.00000000000E+00 0. -1.
         23    2    1    2    0    0 -0.15159093640E+03  0.16883999441E+03  0.70278908444E+03  0.74427201987E+03  0.92420704599E+02 0.  0.
         11    1    3    3    0    0 -0.50858016042E+02  0.53920305820E+01  0.18844953857E+03  0.19526607585E+03  0.00000000000E+00 0.  1.
        -11    1    3    3    0    0 -0.10073292035E+03  0.16344796383E+03  0.51433954587E+03  0.54900594402E+03  0.00000000000E+00 0. -1.
         22    1    1    2    0    0  0.15159093640E+03 -0.16883999441E+03 -0.13267101712E+03  0.26284663683E+03  0.00000000000E+00 0. -1.
<mgrwt>
<rscale>  0 0.83021285E+03</rscale>
<asrwt>0</asrwt>
<pdfrwt beam="1">  1        2 0.12132590E+00 0.83021285E+03</pdfrwt>
<pdfrwt beam="2">  1       -2 0.33615430E-01 0.83021285E+03</pdfrwt>
<totfact> 0.29166635E+02</totfact>
</mgrwt>
</event>
<event>
 6    1  0.1719556E-004  0.1862097E+04  0.7818608E-02  0.8673957E-01
         -1   -1    0    0    0  501 -0.00000000000E+00  0.00000000000E+00  0.55350360652E+03  0.55350360652E+03  0.00000000000E+00 0. -1.
          1   -1    0    0  501    0  0.00000000000E+00 -0.00000000000E+00 -0.15661167980E+04  0.15661167980E+04  0.00000000000E+00 0.  1.
         23    2    1    2    0    0 -0.32464922464E+03  0.83751023604E+03 -0.23918266791E+03  0.93428699601E+03  0.94145248145E+02 0.  0.
         13    1    3    3    0    0 -0.16334394908E+03  0.37696424882E+03 -0.15501118284E+03  0.43910335616E+03  0.00000000000E+00 0. -1.
        -13    1    3    3    0    0 -0.16130527556E+03  0.46054598722E+03 -0.84171485069E+02  0.49518363984E+03  0.00000000000E+00 0.  1.
         22    1    1    2    0    0  0.32464922464E+03 -0.83751023604E+03 -0.77343052354E+03  0.11853334085E+04  0.00000000000E+00 0. -1.
<mgrwt>
<rscale>  0 0.18620970E+04</rscale>
<asrwt>0</asrwt>
<pdfrwt beam="1">  1        1 0.24094104E+00 0.18620970E+04</pdfrwt>
<pdfrwt beam="2">  1       -1 0.85154402E-01 0.18620970E+04</pdfrwt>
<totfact> 0.75361828E+00</totfact>
</mgrwt>
</event>
<event>
 6    1  0.1719556E-004  0.7802898E+03  0.7818608E-02  0.9588993E-01
         -3   -1    0    0    0  501 -0.00000000000E+00  0.00000000000E+00  0.22889426047E+03  0.22889426047E+03  0.00000000000E+00 0.  1.
          3   -1    0    0  501    0  0.00000000000E+00 -0.00000000000E+00 -0.66499277734E+03  0.66499277734E+03  0.00000000000E+00 0. -1.
         23    2    1    2    0    0 -0.13513170044E+02  0.19202476509E+03  0.16067237689E+03  0.26683710693E+03  0.91270547098E+02 0.  0.
         11    1    3    3    0    0 -0.41938061511E+02  0.57826235359E+02  0.81812110365E+02  0.10860891262E+03  0.00000000000E+00 0. -1.
        -11    1    3    3    0    0  0.28424891467E+02  0.13419852974E+03  0.78860266521E+02  0.15822819431E+03  0.00000000000E+00 0.  1.
         22    1    1    2    0    0  0.13513170044E+02 -0.19202476509E+03 -0.59677089376E+03  0.62704993088E+03  0.00000000000E+00 0. -1.
<mgrwt>
<rscale>  0 0.78028977E+03</rscale>
<asrwt>0</asrwt>
<pdfrwt beam="1">  1        3 0.10230658E+00 0.78028977E+03</pdfrwt>
<pdfrwt beam="2">  1       -3 0.35214502E-01 0.78028977E+03</pdfrwt>
<totfact> 0.17435522E+01</totfact>
</mgrwt>
</event>
<event>
 6    1  0.1719556E-004  0.3202249E+04  0.7818608E-02  0.8188223E-01
          2   -1    0    0  501    0  0.00000000000E+00  0.00000000000E+00  0.11752829132E+04  0.11752829132E+04  0.00000000000E+00 0.  1.
         -2   -1    0    0    0  501 -0.00000000000E+00 -0.00000000000E+00 -0.21812619981E+04  0.21812619981E+04  0.00000000000E+00 0. -1.
         23    2    1    2    0    0 -0.10520352152E+04 -0.82603403096E+03 -0.14233205074E+04  0.19553724818E+04  0.92357791057E+02 0.  0.
         13    1    3    3    0    0 -0.12854130402E+03 -0.12769270347E+03 -0.15959063102E+03  0.24144867543E+03  0.00000000000E+00 0.  1.
        -13    1    3    3    0    0 -0.92349391116E+03 -0.69834132749E+03 -0.12637298763E+04  0.17139238063E+04  0.00000000000E+00 0. -1.
         22    1    1    2    0    0  0.10520352152E+04  0.82603403096E+03  0.41734142247E+03  0.14011724295E+04  0.00000000000E+00 0.  1.
<mgrwt>
<rscale>  0 0.32022492E+04</rscale>
<asrwt>0</asrwt>
<pdfrwt beam="1">  1        2 0.18081276E+00 0.32022492E+04</pdfrwt>
<pdfrwt beam="2">  1       -2 0.33557877E+00 0.32022492E+04</pdfrwt>
<totfact> 0.31610274E-01</totfact>
</mgrwt>
</event>
<event>
 6    1  0.1719556E-004  0.1353245E+04  0.7818608E-02  0.8988375E-01
         -2   -1    0    0    0  501 -0.00000000000E+00  0.00000000000E+00  0.15275948334E+03  0.15275948334E+03  0.00000000000E+00 0. -1.
          2   -1    0    0  501    0  0.00000000000E+00 -0.00000000000E+00 -0.29969874057E+04  0.29969874057E+04  0.00000000000E+00 0.  1.
         23    2    1    2    0    0 -0.39571306369E+03 -0.49509919533E+02 -0.26917139132E+04  0.27227801645E+04  0.95749530151E+02 0.  0.
         13    1    3    3    0    0 -0.33098768608E+03 -0.89708189471E+01 -0.22974679538E+04  0.23212049291E+04  0.00000000000E+00 0.  1.
        -13    1    3    3    0    0 -0.64725377615E+02 -0.40539100586E+02 -0.39424595941E+03  0.40157523541E+03  0.00000000000E+00 0. -1.
         22    1    1    2    0    0  0.39571306369E+03  0.49509919533E+02 -0.15251400916E+03  0.42696672458E+03  0.00000000000E+00 0. -1.
<mgrwt>
<rscale>  0 0.13532454E+04</rscale>
<asrwt>0</asrwt>
<pdfrwt beam="1">  1        2 0.46107501E+00 0.13532454E+04</pdfrwt>
<pdfrwt beam="2">  1       -2 0.23501458E-01 0.13532454E+04</pdfrwt>
<totfact> 0.27673786E+01</totfact>
</mgrwt>
</event>
<event>
 6    1  0.1719556E-004  0.5260610E+04  0.7818608E-02  0.7789517E-01
         -2   -1    0    0    0  501 -0.00000000000E+00  0.00000000000E+00  0.19583135211E+04  0.19583135211E+04  0.00000000000E+00 0. -1.
          2   -1    0    0  501    0  0.00000000000E+00 -0.00000000000E+00 -0.35328892697E+04  0.35328892697E+04  0.00000000000E+00 0.  1.
         23    2    1    2    0    0 -0.58140783977E+03 -0.13322737657E+04  0.14996995007E+04  0.20905915558E+04  0.92119477787E+02 0.  0.
         11    1    3    3    0    0 -0.25917218106E+03 -0.65454847118E+03  0.66982254192E+03  0.97173358397E+03  0.00000000000E+00 0. -1.
        -11    1    3    3    0    0 -0.32223565871E+03 -0.67772529450E+03  0.82987695876E+03  0.11188579719E+04  0.00000000000E+00 0.  1.
         22    1    1    2    0    0  0.58140783977E+03  0.13322737657E+04 -0.30742752493E+04  0.34006112349E+04  0.00000000000E+00 0.  1.
<mgrwt>
<rscale>  0 0.52606102E+04</rscale>
<asrwt>0</asrwt>
<pdfrwt beam="1">  1        2 0.54352142E+00 0.52606102E+04</pdfrwt>
<pdfrwt beam="2">  1       -2 0.30127900E+00 0.52606102E+04</pdfrwt>
<totfact> 0.17121895E-02</totfact>
</mgrwt>
</event>
<event>
 6    1  0.1719556E-004  0.3862886E+04  0.7818608E-02  0.8032793E-01
         -1   -1    0    0    0  501 -0.00000000000E+00  0.00000000000E+00  0.17542976965E+04  0.17542976965E+04  0.00000000000E+00 0. -1.
          1   -1    0    0  501    0  0.00000000000E+00 -0.00000000000E+00 -0.21264764839E+04  0.21264764839E+04  0.00000000000E+00 0.  1.
         23    2    1    2    0    0  0.18081394881E+04 -0.69116951888E+02 -0.86182727433E+03  0.20062339162E+04  0.89903916795E+02 0.  0.
         13    1    3    3    0    0  0.10506260071E+04 -0.84087955675E+02 -0.50837017879E+03  0.11701820498E+04  0.00000000000E+00 0.  1.
        -13    1    3    3    0    0  0.75751348102E+03  0.14971003787E+02 -0.35345709554E+03  0.83605186637E+03  0.00000000000E+00 0. -1.
         22    1    1    2    0    0 -0.18081394881E+04  0.69116951888E+02  0.48964848692E+03  0.18745402642E+04  0.00000000000E+00 0. -1.
<mgrwt>
<rscale>  0 0.38628864E+04</rscale>
<asrwt>0</asrwt>
<pdfrwt beam="1">  1        1 0.32715023E+00 0.38628864E+04</pdfrwt>
<pdfrwt beam="2">  1       -1 0.26989196E+00 0.38628864E+04</pdfrwt>
<totfact> 0.10015688E-01</totfact>
</mgrwt>
</event>
<event>
 6    1  0.1719556E-004  0.3552515E+04  0.7818608E-02  0.8101456E-01
         -1   -1    0    0    0  501 -0.00000000000E+00  0.00000000000E+00  0.15981202476E+04  0.15981202476E+04  0.00000000000E+00 0. -1.
          1   -1    0    0  501    0  0.00000000000E+00 -0.00000000000E+00 -0.19742511027E+04  0.19742511027E+04  0.00000000000E+00 0.  1.
         23    2    1    2    0    0 -0.68086759551E+03 -0.15398454682E+03  0.14530672457E+04  0.16145006663E+04  0.88972230150E+02 0.  0.
         11    1    3    3    0    0 -0.24327470483E+03 -0.40356503613E+02  0.42394646189E+03  0.49045064170E+03  0.00000000000E+00 0. -1.
        -11    1    3    3    0    0 -0.43759289069E+03 -0.11362804321E+03  0.10291207838E+04  0.11240500246E+04  0.00000000000E+00 0.  1.
         22    1    1    2    0    0  0.68086759551E+03  0.15398454682E+03 -0.18291981008E+04  0.19578706840E+04  0.00000000000E+00 0.  1.
<mgrwt>
<rscale>  0 0.35525150E+04</rscale>
<asrwt>0</asrwt>
<pdfrwt beam="1">  1        1 0.30373094E+00 0.35525150E+04</pdfrwt>
<pdfrwt beam="2">  1       -1 0.24586465E+00 0.35525150E+04</pdfrwt>
<totfact> 0.18699755E-01</totfact>
</mgrwt>
</event>
<event>
 6    1  0.1719556E-004  0.2786943E+04  0.7818608E-02  0.8307333E-01
         -1   -1    0    0    0  501 -0.00000000000E+00  0.00000000000E+00  0.71850788253E+03  0.71850788253E+03  0.00000000000E+00 0. -1.
          1   -1    0    0  501    0  0.00000000000E+00 -0.00000000000E+00 -0.27024939537E+04  0.27024939537E+04  0.00000000000E+00 0.  1.
         23    2    1    2    0    0 -0.51784521440E+03 -0.96968324116E+03 -0.20412278343E+04  0.23202176278E+04  0.91375677195E+02 0.  0.
         11    1    3    3    0    0 -0.50003630542E+03 -0.91304215890E+03 -0.19636937264E+04  0.22225605372E+04  0.00000000000E+00 0.  1.
        -11    1    3    3    0    0 -0.17808908979E+02 -0.56641082258E+02 -0.77534107948E+02  0.97657090545E+02  0.00000000000E+00 0. -1.
         22    1    1    2    0    0  0.51784521440E+03  0.96968324116E+03  0.57241763106E+02  0.11007842085E+04  0.00000000000E+00 0. -1.
<mgrwt>
<rscale>  0 0.27869433E+04</rscale>
<asrwt>0</asrwt>
<pdfrwt beam="1">  1        1 0.41576830E+00 0.27869433E+04</pdfrwt>
<pdfrwt beam="2">  1       -1 0.11053967E+00 0.27869433E+04</pdfrwt>
<totfact> 0.63870132E-01</totfact>
</mgrwt>
</event>
<event>
 6    1  0.1719556E-004  0.6492697E+03  0.7818608E-02  0.9808150E-01
         -2   -1    0    0    0  501 -0.00000000000E+00  0.00000000000E+00  0.45950080305E+03  0.45950080305E+03  0.00000000000E+00 0.  1.
          2   -1    0    0  501    0  0.00000000000E+00 -0.00000000000E+00 -0.22935278036E+03  0.22935278036E+03  0.00000000000E+00 0. -1.
         23    2    1    2    0    0 -0.24972613889E+03  0.11728248750E+02 -0.97640904247E+02  0.27660817484E+03  0.66915169725E+02 0.  0.
         13    1    3    3    0    0 -0.59153927240E+02  0.30828299407E+02 -0.17291703679E+02  0.68909898914E+02  0.00000000000E+00 0. -1.
        -13    1    3    3    0    0 -0.19057221165E+03 -0.19100050657E+02 -0.80349200568E+02  0.20769827592E+03  0.00000000000E+00 0.  1.
         22    1    1    2    0    0  0.24972613889E+03 -0.11728248750E+02  0.32778892694E+03  0.41224540857E+03  0.00000000000E+00 0.  1.
<mgrwt>
<rscale>  0 0.64926970E+03</rscale>
<asrwt>0</asrwt>
<pdfrwt beam="1">  1        2 0.35285043E-01 0.64926970E+03</pdfrwt>
<pdfrwt beam="2">  1       -2 0.70692431E-01 0.64926970E+03</pdfrwt>
<totfact> 0.27245642E+02</totfact>
</mgrwt>
</event>
<event>
 6    1  0.1719556E-004  0.1914720E+04  0.7818608E-02  0.8647564E-01
         -2   -1    0    0    0  501 -0.00000000000E+00  0.00000000000E+00  0.10882760567E+04  0.10882760567E+04  0.00000000000E+00 0. -1.
          2   -1    0    0  501    0  0.00000000000E+00 -0.00000000000E+00 -0.84219303380E+03  0.84219303380E+03  0.00000000000E+00 0.  1.
         23    2    1    2    0    0  0.26243085741E+02  0.89723263011E+03 -0.20601617829E+03  0.92542740985E+03  0.90874270790E+02 0.  0.
         13    1    3    3    0    0  0.58721140342E+02  0.48965439362E+03 -0.12161489976E+03  0.50793678874E+03  0.00000000000E+00 0. -1.
        -13    1    3    3    0    0 -0.32478054601E+02  0.40757823650E+03 -0.84401278533E+02  0.41749062111E+03  0.00000000000E+00 0.  1.
         22    1    1    2    0    0 -0.26243085741E+02 -0.89723263011E+03  0.45209920115E+03  0.10050416806E+04  0.00000000000E+00 0. -1.
<mgrwt>
<rscale>  0 0.19147204E+04</rscale>
<asrwt>0</asrwt>
<pdfrwt beam="1">  1        2 0.12956816E+00 0.19147204E+04</pdfrwt>
<pdfrwt beam="2">  1       -2 0.16742709E+00 0.19147204E+04</pdfrwt>
<totfact> 0.66828875E+00</totfact>
</mgrwt>
</event>
<event>
 6    1  0.1719556E-004  0.1557223E+04  0.7818608E-02  0.8847267E-01
          2   -1    0    0  501    0  0.00000000000E+00  0.00000000000E+00  0.36676330349E+03  0.36676330349E+03  0.00000000000E+00 0.  1.
         -2   -1    0    0    0  501 -0.00000000000E+00 -0.00000000000E+00 -0.16529345444E+04  0.16529345444E+04  0.00000000000E+00 0. -1.
         23    2    1    2    0    0  0.68358849100E+03 -0.98312771644E+02 -0.18665271507E+03  0.72127587689E+03  0.91875069765E+02 0.  0.
         11    1    3    3    0    0  0.18952277618E+03  0.12434653363E+02 -0.39423453195E+02  0.19397863789E+03  0.00000000000E+00 0.  1.
        -11    1    3    3    0    0  0.49406571482E+03 -0.11074742501E+03 -0.14722926187E+03  0.52729723900E+03  0.00000000000E+00 0. -1.
         22    1    1    2    0    0 -0.68358849100E+03  0.98312771644E+02 -0.10995185258E+04  0.12984219710E+04  0.00000000000E+00 0. -1.
<mgrwt>
<rscale>  0 0.15572228E+04</rscale>
<asrwt>0</asrwt>
<pdfrwt beam="1">  1        2 0.56425124E-01 0.15572228E+04</pdfrwt>
<pdfrwt beam="2">  1       -2 0.25429762E+00 0.15572228E+04</pdfrwt>
<totfact> 0.51039526E+00</totfact>
</mgrwt>
</event>
<event>
 6    1  0.1719556E-004  0.6435700E+03  0.7818608E-02  0.9818920E-01
         -2   -1    0    0    0  501 -0.00000000000E+00  0.00000000000E+00  0.16661008882E+03  0.16661008882E+03  0.00000000000E+00 0. -1.
          2   -1    0    0  501    0  0.00000000000E+00 -0.00000000000E+00 -0.62148451019E+03  0.62148451019E+03  0.00000000000E+00 0.  1.
         23    2    1    2    0    0 -0.18933206179E+03 -0.43618462906E+02  0.71929488418E+02  0.22660411885E+03  0.91795290991E+02 0.  0.
         13    1    3    3    0    0 -0.12084506270E+03 -0.40695640564E+02  0.89561610014E+02  0.15582344601E+03  0.00000000000E+00 0. -1.
        -13    1    3    3    0    0 -0.68486999099E+02 -0.29228223417E+01 -0.17632121596E+02  0.70780672842E+02  0.00000000000E+00 0.  1.
         22    1    1    2    0    0  0.18933206179E+03  0.43618462906E+02 -0.52680390979E+03  0.56149048015E+03  0.00000000000E+00 0.  1.
<mgrwt>
<rscale>  0 0.64357001E+03</rscale>
<asrwt>0</asrwt>
<pdfrwt beam="1">  1        2 0.95613003E-01 0.64357001E+03</pdfrwt>
<pdfrwt beam="2">  1       -2 0.25632321E-01 0.64357001E+03</pdfrwt>
<totfact> 0.65457793E+02</totfact>
</mgrwt>
</event>
<event>
 6    1  0.1719556E-004  0.1194799E+04  0.7818608E-02  0.9117421E-01
          2   -1    0    0  501    0  0.00000000000E+00  0.00000000000E+00  0.11357476227E+04  0.11357476227E+04  0.00000000000E+00 0.  1.
         -2   -1    0    0    0  501 -0.00000000000E+00 -0.00000000000E+00 -0.31423014081E+03  0.31423014081E+03  0.00000000000E+00 0. -1.
         23    2    1    2    0    0  0.26591020812E+03 -0.24762965573E+03  0.98331345452E+03  0.10522258031E+04  0.90802564705E+02 0.  0.
         13    1    3    3    0    0  0.19515607308E+03 -0.22909263988E+03  0.77006884051E+03  0.82678615713E+03  0.00000000000E+00 0.  1.
        -13    1    3    3    0    0  0.70754135040E+02 -0.18537015843E+02  0.21324461402E+03  0.22543964600E+03  0.00000000000E+00 0. -1.
         22    1    1    2    0    0 -0.26591020812E+03  0.24762965573E+03 -0.16179597267E+03  0.39775196033E+03  0.00000000000E+00 0. -1.
<mgrwt>
<rscale>  0 0.11947990E+04</rscale>
<asrwt>0</asrwt>
<pdfrwt beam="1">  1        2 0.17473040E+00 0.11947990E+04</pdfrwt>
<pdfrwt beam="2">  1       -2 0.48343099E-01 0.11947990E+04</pdfrwt>
<totfact> 0.82837117E+01</totfact>
</mgrwt>
</event>
<event>
 6    1  0.1719556E-004  0.1070171E+04  0.7818608E-02  0.9234763E-01
         -2   -1    0    0    0  501 -0.00000000000E+00  0.00000000000E+00  0.23656659640E+03  0.23656659640E+03  0.00000000000E+00 0. -1.
          2   -1    0    0  501    0  0.00000000000E+00 -0.00000000000E+00 -0.12102998570E+04  0.12102998570E+04  0.00000000000E+00 0.  1.
         23    2    1    2    0    0 -0.31213092510E+03  0.41071243820E+02 -0.10698620710E+04  0.11176958142E+04  0.74340573175E+02 0.  0.
         11    1    3    3    0    0 -0.22940393914E+03 -0.34336143001E+01 -0.77223773904E+03  0.80559858651E+03  0.00000000000E+00 0. -1.
        -11    1    3    3    0    0 -0.82726985959E+02  0.44504858120E+02 -0.29762433193E+03  0.31209722774E+03  0.00000000000E+00 0.  1.
         22    1    1    2    0    0  0.31213092510E+03 -0.41071243820E+02  0.96128810397E+02  0.32917063912E+03  0.00000000000E+00 0. -1.
<mgrwt>
<rscale>  0 0.10701710E+04</rscale>
<asrwt>0</asrwt>
<pdfrwt beam="1">  1        2 0.18619997E+00 0.10701710E+04</pdfrwt>
<pdfrwt beam="2">  1       -2 0.36394862E-01 0.10701710E+04</pdfrwt>
<totfact> 0.13185371E+02</totfact>
</mgrwt>
</event>
<event>
 6    1  0.1719556E-004  0.3765335E+04  0.7818608E-02  0.8053635E-01
          2   -1    0    0  501    0  0.00000000000E+00  0.00000000000E+00  0.25844795490E+04  0.25844795490E+04  0.00000000000E+00 0.  1.
         -2   -1    0    0    0  501 -0.00000000000E+00 -0.00000000000E+00 -0.13714314448E+04  0.13714314448E+04  0.00000000000E+00 0. -1.
         23    2    1    2    0    0 -0.15218027943E+04  0.42669649501E+03  0.16794794938E+04  0.23080299650E+04  0.91636815297E+02 0.  0.
         11    1    3    3    0    0 -0.17033688775E+03  0.78303898914E+02  0.19485370960E+03  0.27039623529E+03  0.00000000000E+00 0. -1.
        -11    1    3    3    0    0 -0.13514659065E+04  0.34839259610E+03  0.14846257842E+04  0.20376337297E+04  0.00000000000E+00 0.  1.
         22    1    1    2    0    0  0.15218027943E+04 -0.42669649501E+03 -0.46643138957E+03  0.16478810287E+04  0.00000000000E+00 0. -1.
<mgrwt>
<rscale>  0 0.37653348E+04</rscale>
<asrwt>0</asrwt>
<pdfrwt beam="1">  1        2 0.39761224E+00 0.37653348E+04</pdfrwt>
<pdfrwt beam="2">  1       -2 0.21098945E+00 0.37653348E+04</pdfrwt>
<totfact> 0.28195136E-01</totfact>
</mgrwt>
</event>
<event>
 6    1  0.1719556E-004  0.1493613E+04  0.7818608E-02  0.8888711E-01
         -1   -1    0    0    0  501 -0.00000000000E+00  0.00000000000E+00  0.61003692660E+03  0.61003692660E+03  0.00000000000E+00 0. -1.
          1   -1    0    0  501    0  0.00000000000E+00 -0.00000000000E+00 -0.91423940936E+03  0.91423940936E+03  0.00000000000E+00 0.  1.
         23    2    1    2    0    0 -0.43628573909E+03 -0.55252436016E+03 -0.39871575076E+03  0.81395164082E+03  0.88964088172E+02 0.  0.
         13    1    3    3    0    0 -0.41566709817E+03 -0.51756244023E+03 -0.39668820711E+03  0.77331206489E+03  0.00000000000E+00 0.  1.
        -13    1    3    3    0    0 -0.20618640913E+02 -0.34961919931E+02 -0.20275436455E+01  0.40639575927E+02  0.00000000000E+00 0. -1.
         22    1    1    2    0    0  0.43628573909E+03  0.55252436016E+03  0.94513267998E+02  0.71032469514E+03  0.00000000000E+00 0. -1.
<mgrwt>
<rscale>  0 0.14936128E+04</rscale>
<asrwt>0</asrwt>
<pdfrwt beam="1">  1        1 0.14065222E+00 0.14936128E+04</pdfrwt>
<pdfrwt beam="2">  1       -1 0.93851835E-01 0.14936128E+04</pdfrwt>
<totfact> 0.18872442E+01</totfact>
</mgrwt>
</event>
<event>
 6    1  0.1719556E-004  0.5792079E+04  0.7818608E-02  0.7716730E-01
          2   -1    0    0  501    0  0.00000000000E+00  0.00000000000E+00  0.40104424864E+04  0.40104424864E+04  0.00000000000E+00 0.  1.
         -2   -1    0    0    0  501 -0.00000000000E+00 -0.00000000000E+00 -0.20913018423E+04  0.20913018423E+04  0.00000000000E+00 0. -1.
         23    2    1    2    0    0  0.12352281561E+03 -0.21159791780E+04 -0.11180313715E+04  0.23980921286E+04  0.90696978227E+02 0.  0.
         11    1    3    3    0    0  0.11296749002E+03 -0.13549840113E+04 -0.74763621247E+03  0.15516775538E+04  0.00000000000E+00 0. -1.
        -11    1    3    3    0    0  0.10555325595E+02 -0.76099516669E+03 -0.37039515901E+03  0.84641457480E+03  0.00000000000E+00 0.  1.
         22    1    1    2    0    0 -0.12352281561E+03  0.21159791780E+04  0.30371720155E+04  0.37036522001E+04  0.00000000000E+00 0.  1.
<mgrwt>
<rscale>  0 0.57920793E+04</rscale>
<asrwt>0</asrwt>
<pdfrwt beam="1">  1        2 0.61699115E+00 0.57920793E+04</pdfrwt>
<pdfrwt beam="2">  1       -2 0.32173875E+00 0.57920793E+04</pdfrwt>
<totfact> 0.53315455E-03</totfact>
</mgrwt>
</event>
<event>
 6    1  0.1719556E-004  0.3830373E+04  0.7818608E-02  0.8039668E-01
          2   -1    0    0  501    0  0.00000000000E+00  0.00000000000E+00  0.16967971424E+04  0.16967971424E+04  0.00000000000E+00 0.  1.
         -2   -1    0    0    0  501 -0.00000000000E+00 -0.00000000000E+00 -0.21616845106E+04  0.21616845106E+04  0.00000000000E+00 0. -1.
         23    2    1    2    0    0  0.97553666709E+03  0.13102640905E+04  0.77235047791E+03  0.18092815009E+04  0.92252442466E+02 0.  0.
         13    1    3    3    0    0  0.49780644984E+03  0.60742354275E+03  0.33990460318E+03  0.85575099243E+03  0.00000000000E+00 0. -1.
        -13    1    3    3    0    0  0.47773021725E+03  0.70284054774E+03  0.43244587473E+03  0.95353050848E+03  0.00000000000E+00 0.  1.
         22    1    1    2    0    0 -0.97553666709E+03 -0.13102640905E+04 -0.12372378461E+04  0.20492001521E+04  0.00000000000E+00 0. -1.
<mgrwt>
<rscale>  0 0.38303734E+04</rscale>
<asrwt>0</asrwt>
<pdfrwt beam="1">  1        2 0.26104572E+00 0.38303734E+04</pdfrwt>
<pdfrwt beam="2">  1       -2 0.33256685E+00 0.38303734E+04</pdfrwt>
<totfact> 0.15755910E-01</totfact>
</mgrwt>
</event>
<event>
 6    1  0.1719556E-004  0.2470687E+04  0.7818608E-02  0.8413503E-01
          1   -1    0    0  501    0  0.00000000000E+00  0.00000000000E+00  0.12285655560E+04  0.12285655560E+04  0.00000000000E+00 0.  1.
         -1   -1    0    0    0  501 -0.00000000000E+00 -0.00000000000E+00 -0.12421593238E+04  0.12421593238E+04  0.00000000000E+00 0. -1.
         23    2    1    2    0    0  0.82362797622E+03 -0.40181493824E+03 -0.83330590960E+03  0.12411939598E+04  0.79658138181E+02 0.  0.
         13    1    3    3    0    0  0.58731579329E+03 -0.26576224129E+03 -0.54246823929E+03  0.84252074193E+03  0.00000000000E+00 0.  1.
        -13    1    3    3    0    0  0.23631218294E+03 -0.13605269695E+03 -0.29083767031E+03  0.39867321784E+03  0.00000000000E+00 0. -1.
         22    1    1    2    0    0 -0.82362797622E+03  0.40181493824E+03  0.81971214180E+03  0.12295309200E+04  0.00000000000E+00 0.  1.
<mgrwt>
<rscale>  0 0.24706875E+04</rscale>
<asrwt>0</asrwt>
<pdfrwt beam="1">  1        1 0.18901008E+00 0.24706875E+04</pdfrwt>
<pdfrwt beam="2">  1       -1 0.19110144E+00 0.24706875E+04</pdfrwt>
<totfact> 0.15746792E+00</totfact>
</mgrwt>
</event>
<event>
 6    1  0.1719556E-004  0.1552144E+04  0.7818608E-02  0.8850499E-01
         -2   -1    0    0    0  501 -0.00000000000E+00  0.00000000000E+00  0.12536135574E+04  0.12536135574E+04  0.00000000000E+00 0. -1.
          2   -1    0    0  501    0  0.00000000000E+00 -0.00000000000E+00 -0.48044158050E+03  0.48044158050E+03  0.00000000000E+00 0.  1.
         23    2    1    2    0    0 -0.35333358195E+03 -0.42047395537E+03  0.99621529895E+03  0.11412724704E+04  0.91733105224E+02 0.  0.
         13    1    3    3    0    0 -0.11833600432E+03 -0.10041536053E+03  0.21784797530E+03  0.26747784000E+03  0.00000000000E+00 0.  1.
        -13    1    3    3    0    0 -0.23499757764E+03 -0.32005859485E+03  0.77836732365E+03  0.87379463042E+03  0.00000000000E+00 0. -1.
         22    1    1    2    0    0  0.35333358195E+03  0.42047395537E+03 -0.22304332210E+03  0.59278266744E+03  0.00000000000E+00 0.  1.
<mgrwt>
<rscale>  0 0.15521444E+04</rscale>
<asrwt>0</asrwt>
<pdfrwt beam="1">  1        2 0.73914090E-01 0.15521444E+04</pdfrwt>
<pdfrwt beam="2">  1       -2 0.19286362E+00 0.15521444E+04</pdfrwt>
<totfact> 0.91963101E+00</totfact>
</mgrwt>
</event>
<event>
 6    1  0.1719556E-004  0.2970351E+04  0.7818608E-02  0.8252248E-01
          2   -1    0    0  501    0  0.00000000000E+00  0.00000000000E+00  0.96862827359E+03  0.96862827359E+03  0.00000000000E+00 0.  1.
         -2   -1    0    0    0  501 -0.00000000000E+00 -0.00000000000E+00 -0.22771851327E+04  0.22771851327E+04  0.00000000000E+00 0. -1.
         23    2    1    2    0    0  0.11674750311E+04  0.57919133021E+03  0.12012143174E+03  0.13120134673E+04  0.92139213589E+02 0.  0.
         13    1    3    3    0    0  0.76053495176E+03  0.40898087607E+03  0.46222742916E+02  0.86476315359E+03  0.00000000000E+00 0. -1.
        -13    1    3    3    0    0  0.40694007938E+03  0.17021045415E+03  0.73898688822E+02  0.44725031371E+03  0.00000000000E+00 0.  1.
         22    1    1    2    0    0 -0.11674750311E+04 -0.57919133021E+03 -0.14286782909E+04  0.19337999390E+04  0.00000000000E+00 0. -1.
<mgrwt>
<rscale>  0 0.29703508E+04</rscale>
<asrwt>0</asrwt>
<pdfrwt beam="1">  1        2 0.14901973E+00 0.29703508E+04</pdfrwt>
<pdfrwt beam="2">  1       -2 0.35033618E+00 0.29703508E+04</pdfrwt>
<totfact> 0.35060380E-01</totfact>
</mgrwt>
</event>
<event>
 6    1  0.1719556E-004  0.1612813E+04  0.7818608E-02  0.8812715E-01
          2   -1    0    0  501    0  0.00000000000E+00  0.00000000000E+00  0.90518522032E+03  0.90518522032E+03  0.00000000000E+00 0.  1.
         -2   -1    0    0    0  501 -0.00000000000E+00 -0.00000000000E+00 -0.71840690482E+03  0.71840690482E+03  0.00000000000E+00 0. -1.
         23    2    1    2    0    0  0.67798130660E+03 -0.97695420285E+02  0.51823934819E+03  0.86262598697E+03  0.79677626395E+02 0.  0.
         11    1    3    3    0    0  0.40584491628E+03 -0.79820783582E+02  0.35281590216E+03  0.54365477499E+03  0.00000000000E+00 0. -1.
        -11    1    3    3    0    0  0.27213639032E+03 -0.17874636704E+02  0.16542344604E+03  0.31897121198E+03  0.00000000000E+00 0.  1.
         22    1    1    2    0    0 -0.67798130660E+03  0.97695420285E+02 -0.33146103270E+03  0.76096613817E+03  0.00000000000E+00 0. -1.
<mgrwt>
<rscale>  0 0.16128128E+04</rscale>
<asrwt>0</asrwt>
<pdfrwt beam="1">  1        2 0.13925927E+00 0.16128128E+04</pdfrwt>
<pdfrwt beam="2">  1       -2 0.11052414E+00 0.16128128E+04</pdfrwt>
<totfact> 0.18099170E+01</totfact>
</mgrwt>
</event>
<event>
 6    1  0.1719556E-004  0.3237643E+04  0.7818608E-02  0.8178946E-01
          2   -1    0    0  501    0  0.00000000000E+00  0.00000000000E+00  0.17044326572E+04  0.17044326572E+04  0.00000000000E+00 0.  1.
         -2   -1    0    0    0  501 -0.00000000000E+00 -0.00000000000E+00 -0.15375106740E+04  0.15375106740E+04  0.00000000000E+00 0. -1.
         23    2    1    2    0    0 -0.12789231643E+04 -0.82354480937E+03  0.63436381038E+03  0.16506003843E+04  0.90518900927E+02 0.  0.
         11    1    3    3    0    0 -0.10302064813E+04 -0.70271204081E+03  0.50721212059E+03  0.13462517379E+04  0.00000000000E+00 0. -1.
        -11    1    3    3    0    0 -0.24871668298E+03 -0.12083276856E+03  0.12715168979E+03  0.30434864640E+03  0.00000000000E+00 0.  1.
         22    1    1    2    0    0  0.12789231643E+04  0.82354480937E+03 -0.46744182720E+03  0.15913429470E+04  0.00000000000E+00 0. -1.
<mgrwt>
<rscale>  0 0.32376432E+04</rscale>
<asrwt>0</asrwt>
<pdfrwt beam="1">  1        2 0.26222041E+00 0.32376432E+04</pdfrwt>
<pdfrwt beam="2">  1       -2 0.23654010E+00 0.32376432E+04</pdfrwt>
<totfact> 0.63714400E-01</totfact>
</mgrwt>
</event>
<event>
 6    1  0.1719556E-004  0.3143872E+04  0.7818608E-02  0.8203800E-01
          2   -1    0    0  501    0  0.00000000000E+00  0.00000000000E+00  0.16142050089E+04  0.16142050089E+04  0.00000000000E+00 0.  1.
         -2   -1    0    0    0  501 -0.00000000000E+00 -0.00000000000E+00 -0.15307735283E+04  0.15307735283E+04  0.00000000000E+00 0. -1.
         23    2    1    2    0    0  0.13134875187E+04  0.42910031038E+03 -0.70517609785E+03  0.15539793384E+04  0.90564435972E+02 0.  0.
         13    1    3    3    0    0  0.86271474660E+03  0.25007072529E+03 -0.42299114685E+03  0.99284118164E+03  0.00000000000E+00 0.  1.
        -13    1    3    3    0    0  0.45077277206E+03  0.17902958509E+03 -0.28218495100E+03  0.56113815673E+03  0.00000000000E+00 0. -1.
         22    1    1    2    0    0 -0.13134875187E+04 -0.42910031038E+03  0.78860757839E+03  0.15909991988E+04  0.00000000000E+00 0.  1.
<mgrwt>
<rscale>  0 0.31438717E+04</rscale>
<asrwt>0</asrwt>
<pdfrwt beam="1">  1        2 0.24833923E+00 0.31438717E+04</pdfrwt>
<pdfrwt beam="2">  1       -2 0.23550362E+00 0.31438717E+04</pdfrwt>
<totfact> 0.73176361E-01</totfact>
</mgrwt>
</event>
<event>
 6    1  0.1719556E-004  0.3113477E+04  0.7818608E-02  0.8212049E-01
         -1   -1    0    0    0  501 -0.00000000000E+00  0.00000000000E+00  0.15420975957E+04  0.15420975957E+04  0.00000000000E+00 0. -1.
          1   -1    0    0  501    0  0.00000000000E+00 -0.00000000000E+00 -0.15715186699E+04  0.15715186699E+04  0.00000000000E+00 0.  1.
         23    2    1    2    0    0 -0.27286623014E+03 -0.30074922597E+03  0.14867927698E+04  0.15439632794E+04  0.91453766291E+02 0.  0.
         13    1    3    3    0    0 -0.64651535890E+01 -0.45256608646E+02  0.12762073284E+03  0.13556183198E+03  0.00000000000E+00 0.  1.
        -13    1    3    3    0    0 -0.26640107655E+03 -0.25549261732E+03  0.13591720369E+04  0.14084014474E+04  0.00000000000E+00 0. -1.
         22    1    1    2    0    0  0.27286623014E+03  0.30074922597E+03 -0.15162138440E+04  0.15696529862E+04  0.00000000000E+00 0.  1.
<mgrwt>
<rscale>  0 0.31134773E+04</rscale>
<asrwt>0</asrwt>
<pdfrwt beam="1">  1        1 0.24177210E+00 0.31134773E+04</pdfrwt>
<pdfrwt beam="2">  1       -1 0.23724578E+00 0.31134773E+04</pdfrwt>
<totfact> 0.41592948E-01</totfact>
</mgrwt>
</event>
<event>
 6    1  0.1719556E-004  0.2727376E+04  0.7818608E-02  0.8326177E-01
         -2   -1    0    0    0  501 -0.00000000000E+00  0.00000000000E+00  0.11528439364E+04  0.11528439364E+04  0.00000000000E+00 0. -1.
          2   -1    0    0  501    0  0.00000000000E+00 -0.00000000000E+00 -0.16130930552E+04  0.16130930552E+04  0.00000000000E+00 0.  1.
         23    2    1    2    0    0  0.29359460567E+03 -0.86547728954E+03  0.79389007568E+03  0.12141271287E+04  0.92706532504E+02 0.  0.
         11    1    3    3    0    0  0.21755757306E+03 -0.66388760962E+03  0.65591597600E+03  0.95828170356E+03  0.00000000000E+00 0.  1.
        -11    1    3    3    0    0  0.76037032612E+02 -0.20158967991E+03  0.13797409968E+03  0.25584542513E+03  0.00000000000E+00 0. -1.
         22    1    1    2    0    0 -0.29359460567E+03  0.86547728954E+03 -0.12541391945E+04  0.15518098628E+04  0.00000000000E+00 0.  1.
<mgrwt>
<rscale>  0 0.27273757E+04</rscale>
<asrwt>0</asrwt>
<pdfrwt beam="1">  1        2 0.24816816E+00 0.27273757E+04</pdfrwt>
<pdfrwt beam="2">  1       -2 0.17736061E+00 0.27273757E+04</pdfrwt>
<totfact> 0.18157542E+00</totfact>
</mgrwt>
</event>
<event>
 6    1  0.1719556E-004  0.1121498E+04  0.7818608E-02  0.9184488E-01
          2   -1    0    0  501    0  0.00000000000E+00  0.00000000000E+00  0.24397446215E+04  0.24397446215E+04  0.00000000000E+00 0.  1.
         -2   -1    0    0    0  501 -0.00000000000E+00 -0.00000000000E+00 -0.12888203783E+03  0.12888203783E+03  0.00000000000E+00 0. -1.
         23    2    1    2    0    0  0.37444704771E+03  0.19624699318E+03  0.33377979562E+03  0.54685025610E+03  0.94407503765E+02 0.  0.
         11    1    3    3    0    0  0.27389904882E+03  0.11388609850E+03  0.18635777028E+03  0.35031407468E+03  0.00000000000E+00 0. -1.
        -11    1    3    3    0    0  0.10054799889E+03  0.82360894681E+02  0.14742202534E+03  0.19653618142E+03  0.00000000000E+00 0.  1.
         22    1    1    2    0    0 -0.37444704771E+03 -0.19624699318E+03  0.19770827880E+04  0.20217764032E+04  0.00000000000E+00 0.  1.
<mgrwt>
<rscale>  0 0.11214977E+04</rscale>
<asrwt>0</asrwt>
<pdfrwt beam="1">  1        2 0.37534529E+00 0.11214977E+04</pdfrwt>
<pdfrwt beam="2">  1       -2 0.19828008E-01 0.11214977E+04</pdfrwt>
<totfact> 0.81759999E+01</totfact>
</mgrwt>
</event>
<event>
 6    1  0.1719556E-004  0.3553371E+04  0.7818608E-02  0.8101257E-01
         -2   -1    0    0    0  501 -0.00000000000E+00  0.00000000000E+00  0.12533221040E+04  0.12533221040E+04  0.00000000000E+00 0. -1.
          2   -1    0    0  501    0  0.00000000000E+00 -0.00000000000E+00 -0.25185950090E+04  0.25185950090E+04  0.00000000000E+00 0.  1.
         23    2    1    2    0    0  0.81205750647E+03  0.29896249848E+03  0.10126635422E+04  0.13351548294E+04  0.91296217825E+02 0.  0.
         13    1    3    3    0    0  0.36169550584E+03  0.15790358057E+03  0.52153033236E+03  0.65402680929E+03  0.00000000000E+00 0.  1.
        -13    1    3    3    0    0  0.45036200063E+03  0.14105891791E+03  0.49113320987E+03  0.68112802010E+03  0.00000000000E+00 0. -1.
         22    1    1    2    0    0 -0.81205750647E+03 -0.29896249848E+03 -0.22779364473E+04  0.24367622837E+04  0.00000000000E+00 0.  1.
<mgrwt>
<rscale>  0 0.35533707E+04</rscale>
<asrwt>0</asrwt>
<pdfrwt beam="1">  1        2 0.38747616E+00 0.35533707E+04</pdfrwt>
<pdfrwt beam="2">  1       -2 0.19281879E+00 0.35533707E+04</pdfrwt>
<totfact> 0.41224022E-01</totfact>
</mgrwt>
</event>
<event>
 6    1  0.1719556E-004  0.3139412E+04  0.7818608E-02  0.8205004E-01
         -2   -1    0    0    0  501 -0.00000000000E+00  0.00000000000E+00  0.13943719884E+04  0.13943719884E+04  0.00000000000E+00 0. -1.
          2   -1    0    0  501    0  0.00000000000E+00 -0.00000000000E+00 -0.17670873400E+04  0.17670873400E+04  0.00000000000E+00 0.  1.
         23    2    1    2    0    0 -0.44219418967E+03 -0.99550937939E+02 -0.16985119417E+04  0.17603231149E+04  0.91370466521E+02 0.  0.
         11    1    3    3    0    0 -0.21587215127E+03 -0.90553531259E+02 -0.94036138298E+03  0.96906153485E+03  0.00000000000E+00 0. -1.
        -11    1    3    3    0    0 -0.22632203840E+03 -0.89974066797E+01 -0.75815055873E+03  0.79126158007E+03  0.00000000000E+00 0.  1.
         22    1    1    2    0    0  0.44219418967E+03  0.99550937939E+02  0.13257965900E+04  0.14011362135E+04  0.00000000000E+00 0. -1.
<mgrwt>
<rscale>  0 0.31394121E+04</rscale>
<asrwt>0</asrwt>
<pdfrwt beam="1">  1        2 0.27185959E+00 0.31394121E+04</pdfrwt>
<pdfrwt beam="2">  1       -2 0.21451877E+00 0.31394121E+04</pdfrwt>
<totfact> 0.81582323E-01</totfact>
</mgrwt>
</event>
<event>
 6    1  0.1719556E-004  0.3473090E+04  0.7818608E-02  0.8120197E-01
         -1   -1    0    0    0  501 -0.00000000000E+00  0.00000000000E+00  0.97496645253E+03  0.97496645253E+03  0.00000000000E+00 0. -1.
          1   -1    0    0  501    0  0.00000000000E+00 -0.00000000000E+00 -0.30930179164E+04  0.30930179164E+04  0.00000000000E+00 0.  1.
         23    2    1    2    0    0  0.43088081645E+03 -0.27970836028E+03  0.88173072530E+03  0.10245343156E+04  0.91249367429E+02 0.  0.
         11    1    3    3    0    0  0.37234689822E+03 -0.27316600890E+03  0.76001584617E+03  0.88931769771E+03  0.00000000000E+00 0.  1.
        -11    1    3    3    0    0  0.58533918233E+02 -0.65423513821E+01  0.12171487913E+03  0.13521661787E+03  0.00000000000E+00 0. -1.
         22    1    1    2    0    0 -0.43088081645E+03  0.27970836028E+03 -0.29997821891E+04  0.30434500533E+04  0.00000000000E+00 0.  1.
<mgrwt>
<rscale>  0 0.34730901E+04</rscale>
<asrwt>0</asrwt>
<pdfrwt beam="1">  1        1 0.47584890E+00 0.34730901E+04</pdfrwt>
<pdfrwt beam="2">  1       -1 0.14999484E+00 0.34730901E+04</pdfrwt>
<totfact> 0.14557858E-01</totfact>
</mgrwt>
</event>
<event>
 6    1  0.1967204E-004  0.4011388E+04  0.7818608E-02  0.8002253E-01
          2   -1    0    0  501    0  0.00000000000E+00  0.00000000000E+00  0.25430010887E+04  0.25430010887E+04  0.00000000000E+00 0.  1.
         -2   -1    0    0    0  501 -0.00000000000E+00 -0.00000000000E+00 -0.15819133928E+04  0.15819133928E+04  0.00000000000E+00 0. -1.
         23    2    1    2    0    0 -0.15527449118E+04 -0.12679489461E+04  0.48159146395E+03  0.20636944720E+04  0.90516544205E+02 0.  0.
         13    1    3    3    0    0 -0.54669519190E+03 -0.50110673058E+03  0.18901142429E+03  0.76531621360E+03  0.00000000000E+00 0.  1.
        -13    1    3    3    0    0 -0.10060497199E+04 -0.76684221549E+03  0.29258003966E+03  0.12983782584E+04  0.00000000000E+00 0. -1.
         22    1    1    2    0    0  0.15527449118E+04  0.12679489461E+04  0.47949623203E+03  0.20612200095E+04  0.00000000000E+00 0.  1.
<mgrwt>
<rscale>  0 0.40113875E+04</rscale>
<asrwt>0</asrwt>
<pdfrwt beam="1">  1        2 0.39123094E+00 0.40113875E+04</pdfrwt>
<pdfrwt beam="2">  1       -2 0.24337129E+00 0.40113875E+04</pdfrwt>
<totfact> 0.18286384E-01</totfact>
</mgrwt>
</event>
<event>
 6    1  0.1719556E-004  0.2443424E+04  0.7818608E-02  0.8423423E-01
          2   -1    0    0  501    0  0.00000000000E+00  0.00000000000E+00  0.26668787457E+04  0.26668787457E+04  0.00000000000E+00 0.  1.
         -2   -1    0    0    0  501 -0.00000000000E+00 -0.00000000000E+00 -0.55967303154E+03  0.55967303154E+03  0.00000000000E+00 0. -1.
         23    2    1    2    0    0  0.91951737856E+02  0.44608132797E+01  0.26615220863E+04  0.26646428333E+04  0.90258474940E+02 0.  0.
         13    1    3    3    0    0 -0.17565119584E+01  0.57578282600E+01  0.12493230808E+04  0.12493375838E+04  0.00000000000E+00 0.  1.
        -13    1    3    3    0    0  0.93708249815E+02 -0.12970149803E+01  0.14121990055E+04  0.14153052495E+04  0.00000000000E+00 0. -1.
         22    1    1    2    0    0 -0.91951737856E+02 -0.44608132797E+01 -0.55431637209E+03  0.56190894398E+03  0.00000000000E+00 0. -1.
<mgrwt>
<rscale>  0 0.24434239E+04</rscale>
<asrwt>0</asrwt>
<pdfrwt beam="1">  1        2 0.41028903E+00 0.24434239E+04</pdfrwt>
<pdfrwt beam="2">  1       -2 0.86103544E-01 0.24434239E+04</pdfrwt>
<totfact> 0.29127873E+00</totfact>
</mgrwt>
</event>
<event>
 6    1  0.2155333E-004  0.3468015E+04  0.7818608E-02  0.8121412E-01
         -2   -1    0    0    0  501 -0.00000000000E+00  0.00000000000E+00  0.14481103342E+04  0.14481103342E+04  0.00000000000E+00 0. -1.
          2   -1    0    0  501    0  0.00000000000E+00 -0.00000000000E+00 -0.20763484817E+04  0.20763484817E+04  0.00000000000E+00 0.  1.
         23    2    1    2    0    0 -0.45488971978E+03  0.35249385065E+03  0.13467207445E+04  0.14673639719E+04  0.91234262295E+02 0.  0.
         11    1    3    3    0    0 -0.13383970718E+03  0.15859984377E+03  0.49166431120E+03  0.53366728639E+03  0.00000000000E+00 0. -1.
        -11    1    3    3    0    0 -0.32105001261E+03  0.19389400688E+03  0.85505643330E+03  0.93369668556E+03  0.00000000000E+00 0.  1.
         22    1    1    2    0    0  0.45488971978E+03 -0.35249385065E+03 -0.19749588920E+04  0.20570948439E+04  0.00000000000E+00 0.  1.
<mgrwt>
<rscale>  0 0.34680148E+04</rscale>
<asrwt>0</asrwt>
<pdfrwt beam="1">  1        2 0.31943823E+00 0.34680148E+04</pdfrwt>
<pdfrwt beam="2">  1       -2 0.22278620E+00 0.34680148E+04</pdfrwt>
<totfact> 0.47364588E-01</totfact>
</mgrwt>
</event>
<event>
 6    1  0.1719556E-004  0.1177709E+04  0.7818608E-02  0.9132595E-01
          1   -1    0    0  501    0  0.00000000000E+00  0.00000000000E+00  0.91742806476E+03  0.91742806476E+03  0.00000000000E+00 0.  1.
         -1   -1    0    0    0  501 -0.00000000000E+00 -0.00000000000E+00 -0.37795809507E+03  0.37795809507E+03  0.00000000000E+00 0. -1.
         23    2    1    2    0    0  0.31131470282E+03 -0.27498035408E+03  0.72457496958E+03  0.84063908694E+03  0.95572740003E+02 0.  0.
         13    1    3    3    0    0  0.20225103580E+03 -0.11520015084E+03  0.39297007931E+03  0.45672972256E+03  0.00000000000E+00 0. -1.
        -13    1    3    3    0    0  0.10906366702E+03 -0.15978020323E+03  0.33160489027E+03  0.38390936438E+03  0.00000000000E+00 0.  1.
         22    1    1    2    0    0 -0.31131470282E+03  0.27498035408E+03 -0.18510499989E+03  0.45474707289E+03  0.00000000000E+00 0. -1.
<mgrwt>
<rscale>  0 0.11777086E+04</rscale>
<asrwt>0</asrwt>
<pdfrwt beam="1">  1        1 0.14114278E+00 0.11777086E+04</pdfrwt>
<pdfrwt beam="2">  1       -1 0.58147399E-01 0.11777086E+04</pdfrwt>
<totfact> 0.52305642E+01</totfact>
</mgrwt>
</event>
<event>
 6    1  0.1719556E-004  0.1458171E+04  0.7818608E-02  0.8912756E-01
         -2   -1    0    0    0  501 -0.00000000000E+00  0.00000000000E+00  0.42426980338E+03  0.42426980338E+03  0.00000000000E+00 0. -1.
          2   -1    0    0  501    0  0.00000000000E+00 -0.00000000000E+00 -0.12528947316E+04  0.12528947316E+04  0.00000000000E+00 0.  1.
         23    2    1    2    0    0  0.38872067636E+03  0.53337662317E+03 -0.76451565645E+03  0.10140624425E+04  0.90796816759E+02 0.  0.
         13    1    3    3    0    0  0.11811703270E+03  0.17540607985E+03 -0.31079400179E+03  0.37591466826E+03  0.00000000000E+00 0. -1.
        -13    1    3    3    0    0  0.27060364367E+03  0.35797054333E+03 -0.45372165466E+03  0.63814777423E+03  0.00000000000E+00 0.  1.
         22    1    1    2    0    0 -0.38872067636E+03 -0.53337662317E+03 -0.64109271808E+02  0.66310209252E+03  0.00000000000E+00 0.  1.
<mgrwt>
<rscale>  0 0.14581706E+04</rscale>
<asrwt>0</asrwt>
<pdfrwt beam="1">  1        2 0.19275304E+00 0.14581706E+04</pdfrwt>
<pdfrwt beam="2">  1       -2 0.65272277E-01 0.14581706E+04</pdfrwt>
<totfact> 0.36944912E+01</totfact>
</mgrwt>
</event>
<event>
 6    1  0.1719556E-004  0.2446420E+04  0.7818608E-02  0.8422326E-01
          1   -1    0    0  501    0  0.00000000000E+00  0.00000000000E+00  0.18196465405E+04  0.18196465405E+04  0.00000000000E+00 0.  1.
         -1   -1    0    0    0  501 -0.00000000000E+00 -0.00000000000E+00 -0.82227073930E+03  0.82227073930E+03  0.00000000000E+00 0. -1.
         23    2    1    2    0    0  0.11585692422E+03 -0.70963833036E+03  0.15657173107E+04  0.17253904345E+04  0.92152416922E+02 0.  0.
         13    1    3    3    0    0  0.77685391958E+02 -0.24757399436E+03  0.50462364240E+03  0.56742657964E+03  0.00000000000E+00 0.  1.
        -13    1    3    3    0    0  0.38171532266E+02 -0.46206433600E+03  0.10610936683E+04  0.11579638549E+04  0.00000000000E+00 0. -1.
         22    1    1    2    0    0 -0.11585692422E+03  0.70963833036E+03 -0.56834150942E+03  0.91652684529E+03  0.00000000000E+00 0. -1.
<mgrwt>
<rscale>  0 0.24464195E+04</rscale>
<asrwt>0</asrwt>
<pdfrwt beam="1">  1        1 0.27994562E+00 0.24464195E+04</pdfrwt>
<pdfrwt beam="2">  1       -1 0.12650319E+00 0.24464195E+04</pdfrwt>
<totfact> 0.19150503E+00</totfact>
</mgrwt>
</event>
<event>
 6    1  0.1719556E-004  0.3077675E+04  0.7818608E-02  0.8221892E-01
         -2   -1    0    0    0  501 -0.00000000000E+00  0.00000000000E+00  0.72066175793E+03  0.72066175793E+03  0.00000000000E+00 0. -1.
          2   -1    0    0  501    0  0.00000000000E+00 -0.00000000000E+00 -0.32858982987E+04  0.32858982987E+04  0.00000000000E+00 0.  1.
         23    2    1    2    0    0  0.77608392636E+03  0.35785257286E+03  0.38009695053E+03  0.93974508022E+03  0.91007688365E+02 0.  0.
         11    1    3    3    0    0  0.30938997596E+03  0.16831006795E+03  0.11485326799E+03  0.37046148162E+03  0.00000000000E+00 0.  1.
        -11    1    3    3    0    0  0.46669395040E+03  0.18954250491E+03  0.26524368253E+03  0.56928359860E+03  0.00000000000E+00 0. -1.
         22    1    1    2    0    0 -0.77608392636E+03 -0.35785257286E+03 -0.29453334913E+04  0.30668149764E+04  0.00000000000E+00 0.  1.
<mgrwt>
<rscale>  0 0.30776753E+04</rscale>
<asrwt>0</asrwt>
<pdfrwt beam="1">  1        2 0.50552282E+00 0.30776753E+04</pdfrwt>
<pdfrwt beam="2">  1       -2 0.11087104E+00 0.30776753E+04</pdfrwt>
<totfact> 0.62348515E-01</totfact>
</mgrwt>
</event>
<event>
 6    1  0.2336506E-004  0.2919373E+04  0.7818608E-02  0.8267137E-01
          2   -1    0    0  501    0  0.00000000000E+00  0.00000000000E+00  0.10151692647E+04  0.10151692647E+04  0.00000000000E+00 0.  1.
         -2   -1    0    0    0  501 -0.00000000000E+00 -0.00000000000E+00 -0.20988470389E+04  0.20988470389E+04  0.00000000000E+00 0. -1.
         23    2    1    2    0    0  0.99445072289E+03 -0.14084580266E+03  0.58591191032E+03  0.11656068253E+04  0.81097004148E+02 0.  0.
         13    1    3    3    0    0  0.51069934128E+03 -0.84209765326E+02  0.25694245017E+03  0.57786202891E+03  0.00000000000E+00 0. -1.
        -13    1    3    3    0    0  0.48375138161E+03 -0.56636037331E+02  0.32896946016E+03  0.58774479636E+03  0.00000000000E+00 0.  1.
         22    1    1    2    0    0 -0.99445072289E+03  0.14084580266E+03 -0.16695896845E+04  0.19484094783E+04  0.00000000000E+00 0. -1.
<mgrwt>
<rscale>  0 0.29193732E+04</rscale>
<asrwt>0</asrwt>
<pdfrwt beam="1">  1        2 0.15617989E+00 0.29193732E+04</pdfrwt>
<pdfrwt beam="2">  1       -2 0.32289954E+00 0.29193732E+04</pdfrwt>
<totfact> 0.48758085E-01</totfact>
</mgrwt>
</event>
<event>
 6    1  0.1719556E-004  0.2726290E+04  0.7818608E-02  0.8326525E-01
         -1   -1    0    0    0  501 -0.00000000000E+00  0.00000000000E+00  0.15490379219E+04  0.15490379219E+04  0.00000000000E+00 0.  1.
          1   -1    0    0  501    0  0.00000000000E+00 -0.00000000000E+00 -0.11995600337E+04  0.11995600337E+04  0.00000000000E+00 0. -1.
         23    2    1    2    0    0  0.11715601837E+04  0.62425329778E+03 -0.12995413070E+03  0.13371800499E+04  0.94429688191E+02 0.  0.
         11    1    3    3    0    0  0.39861493492E+03  0.23024707429E+03 -0.28399744841E+01  0.46034296673E+03  0.00000000000E+00 0.  1.
        -11    1    3    3    0    0  0.77294524880E+03  0.39400622349E+03 -0.12711415621E+03  0.87683708321E+03  0.00000000000E+00 0. -1.
         22    1    1    2    0    0 -0.11715601837E+04 -0.62425329778E+03  0.47943201890E+03  0.14114179057E+04  0.00000000000E+00 0.  1.
<mgrwt>
<rscale>  0 0.27262898E+04</rscale>
<asrwt>0</asrwt>
<pdfrwt beam="1">  1        1 0.18454770E+00 0.27262898E+04</pdfrwt>
<pdfrwt beam="2">  1       -1 0.23831353E+00 0.27262898E+04</pdfrwt>
<totfact> 0.77483324E-01</totfact>
</mgrwt>
</event>
<event>
 6    1  0.1719556E-004  0.2058961E+04  0.7818608E-02  0.8579540E-01
         -1   -1    0    0    0  501 -0.00000000000E+00  0.00000000000E+00  0.31444040918E+03  0.31444040918E+03  0.00000000000E+00 0. -1.
          1   -1    0    0  501    0  0.00000000000E+00 -0.00000000000E+00 -0.33705272438E+04  0.33705272438E+04  0.00000000000E+00 0.  1.
         23    2    1    2    0    0  0.13663385789E+03  0.31504738804E+03 -0.32640973545E+04  0.32834803627E+04  0.94805509776E+02 0.  0.
         13    1    3    3    0    0  0.13479411527E+03  0.25917613965E+03 -0.24269957247E+04  0.24445142611E+04  0.00000000000E+00 0. -1.
        -13    1    3    3    0    0  0.18397426260E+01  0.55871248386E+02 -0.83710162978E+03  0.83896610160E+03  0.00000000000E+00 0.  1.
         22    1    1    2    0    0 -0.13663385789E+03 -0.31504738804E+03  0.20801051992E+03  0.40148729025E+03  0.00000000000E+00 0. -1.
<mgrwt>
<rscale>  0 0.20589609E+04</rscale>
<asrwt>0</asrwt>
<pdfrwt beam="1">  1        1 0.51854267E+00 0.20589609E+04</pdfrwt>
<pdfrwt beam="2">  1       -1 0.48375446E-01 0.20589609E+04</pdfrwt>
<totfact> 0.12477762E+00</totfact>
</mgrwt>
</event>
<event>
 6    1  0.1719556E-004  0.3166492E+04  0.7818608E-02  0.8197723E-01
          2   -1    0    0  501    0  0.00000000000E+00  0.00000000000E+00  0.14913581398E+04  0.14913581398E+04  0.00000000000E+00 0.  1.
         -2   -1    0    0    0  501 -0.00000000000E+00 -0.00000000000E+00 -0.16807956876E+04  0.16807956876E+04  0.00000000000E+00 0. -1.
         23    2    1    2    0    0 -0.30353446383E+03 -0.53782199608E+03 -0.15536922806E+04  0.16746303231E+04  0.95085993241E+02 0.  0.
         13    1    3    3    0    0 -0.16843318357E+03 -0.35526979028E+03 -0.88446718215E+03  0.96791970612E+03  0.00000000000E+00 0. -1.
        -13    1    3    3    0    0 -0.13510128026E+03 -0.18255220580E+03 -0.66922509843E+03  0.70671061697E+03  0.00000000000E+00 0.  1.
         22    1    1    2    0    0  0.30353446383E+03  0.53782199608E+03  0.13642547327E+04  0.14975235043E+04  0.00000000000E+00 0.  1.
<mgrwt>
<rscale>  0 0.31664923E+04</rscale>
<asrwt>0</asrwt>
<pdfrwt beam="1">  1        2 0.22943972E+00 0.31664923E+04</pdfrwt>
<pdfrwt beam="2">  1       -2 0.25858395E+00 0.31664923E+04</pdfrwt>
<totfact> 0.61698442E-01</totfact>
</mgrwt>
</event>
<event>
 6    1  0.1719556E-004  0.4495524E+04  0.7818608E-02  0.7911421E-01
          2   -1    0    0  501    0  0.00000000000E+00  0.00000000000E+00  0.31728093342E+04  0.31728093342E+04  0.00000000000E+00 0.  1.
         -2   -1    0    0    0  501 -0.00000000000E+00 -0.00000000000E+00 -0.15924166308E+04  0.15924166308E+04  0.00000000000E+00 0. -1.
         23    2    1    2    0    0 -0.64592408773E+03 -0.15922022267E+03  0.30654172873E+04  0.31379991765E+04  0.87673714042E+02 0.  0.
         11    1    3    3    0    0 -0.38300991190E+03 -0.65299846424E+02  0.19343259550E+04  0.19729616222E+04  0.00000000000E+00 0.  1.
        -11    1    3    3    0    0 -0.26291417583E+03 -0.93920376245E+02  0.11310913323E+04  0.11650375543E+04  0.00000000000E+00 0. -1.
         22    1    1    2    0    0  0.64592408773E+03  0.15922022267E+03 -0.14850245839E+04  0.16272267885E+04  0.00000000000E+00 0. -1.
<mgrwt>
<rscale>  0 0.44955242E+04</rscale>
<asrwt>0</asrwt>
<pdfrwt beam="1">  1        2 0.48812451E+00 0.44955242E+04</pdfrwt>
<pdfrwt beam="2">  1       -2 0.24498717E+00 0.44955242E+04</pdfrwt>
<totfact> 0.70579159E-02</totfact>
</mgrwt>
</event>
<event>
 6    1  0.1719556E-004  0.3201555E+04  0.7818608E-02  0.8188407E-01
         -1   -1    0    0    0  501 -0.00000000000E+00  0.00000000000E+00  0.12708049553E+04  0.12708049553E+04  0.00000000000E+00 0. -1.
          1   -1    0    0  501    0  0.00000000000E+00 -0.00000000000E+00 -0.20164291658E+04  0.20164291658E+04  0.00000000000E+00 0.  1.
         23    2    1    2    0    0 -0.83637247918E+03 -0.10975881609E+04 -0.12035371464E+04  0.18333073858E+04  0.91080256325E+02 0.  0.
         13    1    3    3    0    0 -0.10859373375E+03 -0.13713239326E+03 -0.19452981326E+03  0.26160990145E+03  0.00000000000E+00 0. -1.
        -13    1    3    3    0    0 -0.72777874543E+03 -0.96045576767E+03 -0.10090073331E+04  0.15716974843E+04  0.00000000000E+00 0.  1.
         22    1    1    2    0    0  0.83637247918E+03  0.10975881609E+04  0.45791293582E+03  0.14539267353E+04  0.00000000000E+00 0. -1.
<mgrwt>
<rscale>  0 0.32015547E+04</rscale>
<asrwt>0</asrwt>
<pdfrwt beam="1">  1        1 0.31021987E+00 0.32015547E+04</pdfrwt>
<pdfrwt beam="2">  1       -1 0.19550845E+00 0.32015547E+04</pdfrwt>
<totfact> 0.39287620E-01</totfact>
</mgrwt>
</event>
<event>
 6    1  0.1719556E-004  0.2170510E+04  0.7818608E-02  0.8530804E-01
         -2   -1    0    0    0  501 -0.00000000000E+00  0.00000000000E+00  0.90630880811E+03  0.90630880811E+03  0.00000000000E+00 0. -1.
          2   -1    0    0  501    0  0.00000000000E+00 -0.00000000000E+00 -0.12995330455E+04  0.12995330455E+04  0.00000000000E+00 0.  1.
         23    2    1    2    0    0  0.99280786236E+03 -0.37708009916E+03  0.21202925214E+02  0.10658389037E+04  0.87784689912E+02 0.  0.
         13    1    3    3    0    0  0.73428859261E+03 -0.29138523958E+03  0.52283570197E+02  0.79171880538E+03  0.00000000000E+00 0. -1.
        -13    1    3    3    0    0  0.25851926975E+03 -0.85694859574E+02 -0.31080644983E+02  0.27412009828E+03  0.00000000000E+00 0.  1.
         22    1    1    2    0    0 -0.99280786236E+03  0.37708009916E+03 -0.41442716259E+03  0.11400029499E+04  0.00000000000E+00 0.  1.
<mgrwt>
<rscale>  0 0.21705098E+04</rscale>
<asrwt>0</asrwt>
<pdfrwt beam="1">  1        2 0.19992816E+00 0.21705098E+04</pdfrwt>
<pdfrwt beam="2">  1       -2 0.13943212E+00 0.21705098E+04</pdfrwt>
<totfact> 0.55022960E+00</totfact>
</mgrwt>
</event>
<event>
 6    1  0.1719556E-004  0.4243391E+03  0.7818608E-02  0.1035663E+00
          1   -1    0    0  501    0  0.00000000000E+00  0.00000000000E+00  0.17631606651E+03  0.17631606651E+03  0.00000000000E+00 0.  1.
         -1   -1    0    0    0  501 -0.00000000000E+00 -0.00000000000E+00 -0.25531372303E+03  0.25531372303E+03  0.00000000000E+00 0. -1.
         23    2    1    2    0    0  0.10114959418E+03  0.67926067512E+02  0.12262421283E+03  0.19605269122E+03  0.92491994854E+02 0.  0.
         13    1    3    3    0    0  0.87269092491E+02  0.40695435833E+02  0.13262442506E+03  0.16389402407E+03  0.00000000000E+00 0. -1.
        -13    1    3    3    0    0  0.13880501689E+02  0.27230631679E+02 -0.10000212226E+02  0.32158667157E+02  0.00000000000E+00 0.  1.
         22    1    1    2    0    0 -0.10114959418E+03 -0.67926067512E+02 -0.20162186935E+03  0.23557709832E+03  0.00000000000E+00 0. -1.
<mgrwt>
<rscale>  0 0.42433907E+03</rscale>
<asrwt>0</asrwt>
<pdfrwt beam="1">  1        1 0.27125549E-01 0.42433907E+03</pdfrwt>
<pdfrwt beam="2">  1       -1 0.39279034E-01 0.42433907E+03</pdfrwt>
<totfact> 0.11039408E+03</totfact>
</mgrwt>
</event>
<event>
 6    1  0.1719556E-004  0.1209429E+04  0.7818608E-02  0.9104643E-01
          2   -1    0    0  501    0  0.00000000000E+00  0.00000000000E+00  0.81592749590E+03  0.81592749590E+03  0.00000000000E+00 0.  1.
         -2   -1    0    0    0  501 -0.00000000000E+00 -0.00000000000E+00 -0.44817640064E+03  0.44817640064E+03  0.00000000000E+00 0. -1.
         23    2    1    2    0    0 -0.32846553830E+03  0.33740389065E+03 -0.20516537415E+03  0.52250813320E+03  0.95869302857E+02 0.  0.
         11    1    3    3    0    0 -0.78372705346E+02  0.13992941176E+03 -0.88398642499E+02  0.18313066705E+03  0.00000000000E+00 0.  1.
        -11    1    3    3    0    0 -0.25009283296E+03  0.19747447890E+03 -0.11676673165E+03  0.33937746615E+03  0.00000000000E+00 0. -1.
         22    1    1    2    0    0  0.32846553830E+03 -0.33740389065E+03  0.57291646941E+03  0.74159576334E+03  0.00000000000E+00 0.  1.
<mgrwt>
<rscale>  0 0.12094287E+04</rscale>
<asrwt>0</asrwt>
<pdfrwt beam="1">  1        2 0.12552731E+00 0.12094287E+04</pdfrwt>
<pdfrwt beam="2">  1       -2 0.68950216E-01 0.12094287E+04</pdfrwt>
<totfact> 0.63589766E+01</totfact>
</mgrwt>
</event>
<event>
 6    1  0.1719556E-004  0.1080953E+04  0.7818608E-02  0.9223957E-01
          1   -1    0    0  501    0  0.00000000000E+00  0.00000000000E+00  0.19568372511E+04  0.19568372511E+04  0.00000000000E+00 0.  1.
         -1   -1    0    0    0  501 -0.00000000000E+00 -0.00000000000E+00 -0.14927920217E+03  0.14927920217E+03  0.00000000000E+00 0. -1.
         23    2    1    2    0    0 -0.13274631848E+03 -0.40857604337E+03  0.28365274449E+03  0.52281504634E+03  0.91218007786E+02 0.  0.
         11    1    3    3    0    0 -0.66724935296E+02 -0.32354234208E+03  0.22999617722E+03  0.40252963326E+03  0.00000000000E+00 0. -1.
        -11    1    3    3    0    0 -0.66021383181E+02 -0.85033701287E+02  0.53656567262E+02  0.12028541309E+03  0.00000000000E+00 0.  1.
         22    1    1    2    0    0  0.13274631848E+03  0.40857604337E+03  0.15239053044E+04  0.15833014069E+04  0.00000000000E+00 0.  1.
<mgrwt>
<rscale>  0 0.10809535E+04</rscale>
<asrwt>0</asrwt>
<pdfrwt beam="1">  1        1 0.30105187E+00 0.10809535E+04</pdfrwt>
<pdfrwt beam="2">  1       -1 0.22966033E-01 0.10809535E+04</pdfrwt>
<totfact> 0.51652033E+01</totfact>
</mgrwt>
</event>
<event>
 6    1  0.1719556E-004  0.3533823E+03  0.7818608E-02  0.1061235E+00
         -2   -1    0    0    0  501 -0.00000000000E+00  0.00000000000E+00  0.42538871554E+02  0.42538871554E+02  0.00000000000E+00 0. -1.
          2   -1    0    0  501    0  0.00000000000E+00 -0.00000000000E+00 -0.73391146693E+03  0.73391146693E+03  0.00000000000E+00 0.  1.
         23    2    1    2    0    0 -0.77458037373E+02 -0.13359049336E+03 -0.24061740204E+03  0.29997745176E+03  0.90794107332E+02 0.  0.
         13    1    3    3    0    0 -0.79966752589E+02 -0.12638970065E+03 -0.16006839676E+03  0.21906832174E+03  0.00000000000E+00 0. -1.
        -13    1    3    3    0    0  0.25087152155E+01 -0.72007927124E+01 -0.80549005280E+02  0.80909130012E+02  0.00000000000E+00 0.  1.
         22    1    1    2    0    0  0.77458037373E+02  0.13359049336E+03 -0.45075519334E+03  0.47647288673E+03  0.00000000000E+00 0.  1.
<mgrwt>
<rscale>  0 0.35338232E+03</rscale>
<asrwt>0</asrwt>
<pdfrwt beam="1">  1        2 0.11290945E+00 0.35338232E+03</pdfrwt>
<pdfrwt beam="2">  1       -2 0.65444420E-02 0.35338232E+03</pdfrwt>
<totfact> 0.51409946E+03</totfact>
</mgrwt>
</event>
<event>
 6    1  0.1719556E-004  0.8159099E+03  0.7818608E-02  0.9537269E-01
         -2   -1    0    0    0  501 -0.00000000000E+00  0.00000000000E+00  0.97837032627E+02  0.97837032627E+02  0.00000000000E+00 0. -1.
          2   -1    0    0  501    0  0.00000000000E+00 -0.00000000000E+00 -0.17010659500E+04  0.17010659500E+04  0.00000000000E+00 0.  1.
         23    2    1    2    0    0 -0.37463570469E+03 -0.50386459846E+02 -0.11177562232E+04  0.11836189479E+04  0.93188694663E+02 0.  0.
         13    1    3    3    0    0 -0.26821772477E+03 -0.52169921015E+02 -0.67408947267E+03  0.72736446552E+03  0.00000000000E+00 0. -1.
        -13    1    3    3    0    0 -0.10641797992E+03  0.17834611697E+01 -0.44366675054E+03  0.45625448241E+03  0.00000000000E+00 0.  1.
         22    1    1    2    0    0  0.37463570469E+03  0.50386459846E+02 -0.48547269412E+03  0.61528403466E+03  0.00000000000E+00 0. -1.
<mgrwt>
<rscale>  0 0.81590991E+03</rscale>
<asrwt>0</asrwt>
<pdfrwt beam="1">  1        2 0.26170245E+00 0.81590991E+03</pdfrwt>
<pdfrwt beam="2">  1       -2 0.15051851E-01 0.81590991E+03</pdfrwt>
<totfact> 0.34529832E+02</totfact>
</mgrwt>
</event>
<event>
 6    1  0.1719556E-004  0.1031993E+04  0.7818608E-02  0.9274135E-01
         -2   -1    0    0    0  501 -0.00000000000E+00  0.00000000000E+00  0.13468595289E+03  0.13468595289E+03  0.00000000000E+00 0. -1.
          2   -1    0    0  501    0  0.00000000000E+00 -0.00000000000E+00 -0.19768399700E+04  0.19768399700E+04  0.00000000000E+00 0.  1.
         23    2    1    2    0    0 -0.50744962148E+03  0.27333596489E+02 -0.10546832147E+04  0.11743159632E+04  0.91700895870E+02 0.  0.
         11    1    3    3    0    0 -0.41267951650E+03 -0.10812022441E+02 -0.87838915194E+03  0.97056106733E+03  0.00000000000E+00 0. -1.
        -11    1    3    3    0    0 -0.94770104976E+02  0.38145618930E+02 -0.17629406273E+03  0.20375489588E+03  0.00000000000E+00 0.  1.
         22    1    1    2    0    0  0.50744962148E+03 -0.27333596489E+02 -0.78747080248E+03  0.93720995972E+03  0.00000000000E+00 0. -1.
<mgrwt>
<rscale>  0 0.10319934E+04</rscale>
<asrwt>0</asrwt>
<pdfrwt beam="1">  1        2 0.30412923E+00 0.10319934E+04</pdfrwt>
<pdfrwt beam="2">  1       -2 0.20720915E-01 0.10319934E+04</pdfrwt>
<totfact> 0.13813916E+02</totfact>
</mgrwt>
</event>
<event>
 6    1  0.1719556E-004  0.2062468E+04  0.7818608E-02  0.8577959E-01
          1   -1    0    0  501    0  0.00000000000E+00  0.00000000000E+00  0.14299886143E+04  0.14299886143E+04  0.00000000000E+00 0.  1.
         -1   -1    0    0    0  501 -0.00000000000E+00 -0.00000000000E+00 -0.74367243775E+03  0.74367243775E+03  0.00000000000E+00 0. -1.
         23    2    1    2    0    0 -0.73960965201E+03  0.61496763316E+03 -0.42031927784E+02  0.96713770446E+03  0.91547961535E+02 0.  0.
         13    1    3    3    0    0 -0.13207548992E+03  0.15252786642E+03  0.86283392960E+01  0.20194834318E+03  0.00000000000E+00 0.  1.
        -13    1    3    3    0    0 -0.60753416209E+03  0.46243976674E+03 -0.50660267080E+02  0.76518936129E+03  0.00000000000E+00 0. -1.
         22    1    1    2    0    0  0.73960965201E+03 -0.61496763316E+03  0.72834810434E+03  0.12065233476E+04  0.00000000000E+00 0.  1.
<mgrwt>
<rscale>  0 0.20624676E+04</rscale>
<asrwt>0</asrwt>
<pdfrwt beam="1">  1        1 0.21999825E+00 0.20624676E+04</pdfrwt>
<pdfrwt beam="2">  1       -1 0.11441114E+00 0.20624676E+04</pdfrwt>
<totfact> 0.46931393E+00</totfact>
</mgrwt>
</event>
<event>
 6    1  0.1719556E-004  0.1290070E+04  0.7818608E-02  0.9037477E-01
          2   -1    0    0  501    0  0.00000000000E+00  0.00000000000E+00  0.11955015088E+04  0.11955015088E+04  0.00000000000E+00 0. -1.
         -2   -1    0    0    0  501 -0.00000000000E+00 -0.00000000000E+00 -0.34802981600E+03  0.34802981600E+03  0.00000000000E+00 0.  1.
         23    2    1    2    0    0  0.44828241717E+03  0.20565817165E+03  0.91729632126E+03  0.10454069549E+04  0.90502769648E+02 0.  0.
         13    1    3    3    0    0  0.19918825504E+03  0.14072340703E+03  0.45857605635E+03  0.51939487646E+03  0.00000000000E+00 0. -1.
        -13    1    3    3    0    0  0.24909416213E+03  0.64934764620E+02  0.45872026491E+03  0.52601207848E+03  0.00000000000E+00 0.  1.
         22    1    1    2    0    0 -0.44828241717E+03 -0.20565817165E+03 -0.69824628472E+02  0.49812436986E+03  0.00000000000E+00 0.  1.
<mgrwt>
<rscale>  0 0.12900700E+04</rscale>
<asrwt>0</asrwt>
<pdfrwt beam="1">  1        2 0.18392331E+00 0.12900700E+04</pdfrwt>
<pdfrwt beam="2">  1       -2 0.53543049E-01 0.12900700E+04</pdfrwt>
<totfact> 0.61440058E+01</totfact>
</mgrwt>
</event>
<event>
 6    1  0.1719556E-004  0.3659752E+04  0.7818608E-02  0.8076940E-01
         -1   -1    0    0    0  501 -0.00000000000E+00  0.00000000000E+00  0.19184454887E+04  0.19184454887E+04  0.00000000000E+00 0.  1.
          1   -1    0    0  501    0  0.00000000000E+00 -0.00000000000E+00 -0.17453955109E+04  0.17453955109E+04  0.00000000000E+00 0. -1.
         23    2    1    2    0    0 -0.31345627059E+03 -0.14057176530E+04  0.12150421774E+04  0.18861895439E+04  0.84181643362E+02 0.  0.
         13    1    3    3    0    0 -0.21026639262E+03 -0.89572829266E+03  0.72445030726E+03  0.11710548142E+04  0.00000000000E+00 0.  1.
        -13    1    3    3    0    0 -0.10318987797E+03 -0.50998936034E+03  0.49059187018E+03  0.71513472973E+03  0.00000000000E+00 0. -1.
         22    1    1    2    0    0  0.31345627059E+03  0.14057176530E+04 -0.10419921997E+04  0.17776514556E+04  0.00000000000E+00 0. -1.
<mgrwt>
<rscale>  0 0.36597520E+04</rscale>
<asrwt>0</asrwt>
<pdfrwt beam="1">  1        1 0.26852239E+00 0.36597520E+04</pdfrwt>
<pdfrwt beam="2">  1       -1 0.29514546E+00 0.36597520E+04</pdfrwt>
<totfact> 0.12684809E-01</totfact>
</mgrwt>
</event>
<event>
 6    1  0.1719556E-004  0.2496864E+04  0.7818608E-02  0.8404104E-01
          2   -1    0    0  501    0  0.00000000000E+00  0.00000000000E+00  0.33656429587E+04  0.33656429587E+04  0.00000000000E+00 0.  1.
         -2   -1    0    0    0  501 -0.00000000000E+00 -0.00000000000E+00 -0.46308605641E+03  0.46308605641E+03  0.00000000000E+00 0. -1.
         23    2    1    2    0    0 -0.67515081024E+03 -0.10162174279E+04  0.18511507250E+04  0.22181448270E+04  0.69864077342E+02 0.  0.
         11    1    3    3    0    0 -0.43607854072E+03 -0.71389343647E+03  0.12787426484E+04  0.15280677646E+04  0.00000000000E+00 0.  1.
        -11    1    3    3    0    0 -0.23907226952E+03 -0.30232399146E+03  0.57240807663E+03  0.69007706241E+03  0.00000000000E+00 0. -1.
         22    1    1    2    0    0  0.67515081024E+03  0.10162174279E+04  0.10514061772E+04  0.16105841881E+04  0.00000000000E+00 0.  1.
<mgrwt>
<rscale>  0 0.24968639E+04</rscale>
<asrwt>0</asrwt>
<pdfrwt beam="1">  1        2 0.51779121E+00 0.24968639E+04</pdfrwt>
<pdfrwt beam="2">  1       -2 0.71244011E-01 0.24968639E+04</pdfrwt>
<totfact> 0.16068818E+00</totfact>
</mgrwt>
</event>
<event>
 6    1  0.1719556E-004  0.4244274E+04  0.7818608E-02  0.7957003E-01
          2   -1    0    0  501    0  0.00000000000E+00  0.00000000000E+00  0.12711805562E+04  0.12711805562E+04  0.00000000000E+00 0.  1.
         -2   -1    0    0    0  501 -0.00000000000E+00 -0.00000000000E+00 -0.35427432400E+04  0.35427432400E+04  0.00000000000E+00 0. -1.
         23    2    1    2    0    0 -0.13125821678E+04 -0.69594563599E+03  0.58078959838E+03  0.15978507533E+04  0.92726462496E+02 0.  0.
         11    1    3    3    0    0 -0.68186426228E+03 -0.38182318403E+03  0.35119213113E+03  0.85677519163E+03  0.00000000000E+00 0.  1.
        -11    1    3    3    0    0 -0.63071790553E+03 -0.31412245196E+03  0.22959746725E+03  0.74107556170E+03  0.00000000000E+00 0. -1.
         22    1    1    2    0    0  0.13125821678E+04  0.69594563599E+03 -0.28523522822E+04  0.32160730429E+04  0.00000000000E+00 0. -1.
<mgrwt>
<rscale>  0 0.42442744E+04</rscale>
<asrwt>0</asrwt>
<pdfrwt beam="1">  1        2 0.19556624E+00 0.42442744E+04</pdfrwt>
<pdfrwt beam="2">  1       -2 0.54503741E+00 0.42442744E+04</pdfrwt>
<totfact> 0.12083843E-02</totfact>
</mgrwt>
</event>
<event>
 6    1  0.1719556E-004  0.1931932E+04  0.7818608E-02  0.8639123E-01
          2   -1    0    0  501    0  0.00000000000E+00  0.00000000000E+00  0.84956488397E+03  0.84956488397E+03  0.00000000000E+00 0.  1.
         -2   -1    0    0    0  501 -0.00000000000E+00 -0.00000000000E+00 -0.10983160048E+04  0.10983160048E+04  0.00000000000E+00 0. -1.
         23    2    1    2    0    0 -0.65160291305E+03  0.34428323597E+03 -0.75097991897E+03  0.10560563160E+04  0.90370354995E+02 0.  0.
         11    1    3    3    0    0 -0.87854390611E+01  0.20511775484E+02 -0.29068493022E+02  0.36645520321E+02  0.00000000000E+00 0. -1.
        -11    1    3    3    0    0 -0.64281747399E+03  0.32377146048E+03 -0.72191142595E+03  0.10194107957E+04  0.00000000000E+00 0.  1.
         22    1    1    2    0    0  0.65160291305E+03 -0.34428323597E+03  0.50222879813E+03  0.89182457274E+03  0.00000000000E+00 0.  1.
<mgrwt>
<rscale>  0 0.19319324E+04</rscale>
<asrwt>0</asrwt>
<pdfrwt beam="1">  1        2 0.13070229E+00 0.19319324E+04</pdfrwt>
<pdfrwt beam="2">  1       -2 0.16897169E+00 0.19319324E+04</pdfrwt>
<totfact> 0.64287969E+00</totfact>
</mgrwt>
</event>
<event>
 6    1  0.1719556E-004  0.3317658E+04  0.7818608E-02  0.8158417E-01
          2   -1    0    0  501    0  0.00000000000E+00  0.00000000000E+00  0.22352429340E+04  0.22352429340E+04  0.00000000000E+00 0.  1.
         -2   -1    0    0    0  501 -0.00000000000E+00 -0.00000000000E+00 -0.12310579442E+04  0.12310579442E+04  0.00000000000E+00 0. -1.
         23    2    1    2    0    0 -0.30002028006E+02 -0.79786100949E+03 -0.10152028964E+04  0.12948014545E+04  0.91605532317E+02 0.  0.
         11    1    3    3    0    0 -0.18967777120E+02 -0.38512109692E+03 -0.41707322373E+03  0.56800361778E+03  0.00000000000E+00 0. -1.
        -11    1    3    3    0    0 -0.11034250886E+02 -0.41273991257E+03 -0.59812967263E+03  0.72679783668E+03  0.00000000000E+00 0.  1.
         22    1    1    2    0    0  0.30002028006E+02  0.79786100949E+03  0.20193878862E+04  0.21714994237E+04  0.00000000000E+00 0.  1.
<mgrwt>
<rscale>  0 0.33176580E+04</rscale>
<asrwt>0</asrwt>
<pdfrwt beam="1">  1        2 0.34388353E+00 0.33176580E+04</pdfrwt>
<pdfrwt beam="2">  1       -2 0.18939353E+00 0.33176580E+04</pdfrwt>
<totfact> 0.64370077E-01</totfact>
</mgrwt>
</event>
<event>
 6    1  0.1719556E-004  0.3145076E+04  0.7818608E-02  0.8203475E-01
          2   -1    0    0  501    0  0.00000000000E+00  0.00000000000E+00  0.14823956894E+04  0.14823956894E+04  0.00000000000E+00 0.  1.
         -2   -1    0    0    0  501 -0.00000000000E+00 -0.00000000000E+00 -0.16681618175E+04  0.16681618175E+04  0.00000000000E+00 0. -1.
         23    2    1    2    0    0 -0.31663599084E+03  0.15069022589E+04  0.21919777217E+03  0.15583864957E+04  0.97509168739E+02 0.  0.
         11    1    3    3    0    0 -0.75082752685E+02  0.58688425693E+03  0.88478419694E+02  0.59824658924E+03  0.00000000000E+00 0.  1.
        -11    1    3    3    0    0 -0.24155323815E+03  0.92001800200E+03  0.13071935248E+03  0.96013990646E+03  0.00000000000E+00 0. -1.
         22    1    1    2    0    0  0.31663599084E+03 -0.15069022589E+04 -0.40496390027E+03  0.15921710113E+04  0.00000000000E+00 0. -1.
<mgrwt>
<rscale>  0 0.31450761E+04</rscale>
<asrwt>0</asrwt>
<pdfrwt beam="1">  1        2 0.22806088E+00 0.31450761E+04</pdfrwt>
<pdfrwt beam="2">  1       -2 0.25664028E+00 0.31450761E+04</pdfrwt>
<totfact> 0.64272605E-01</totfact>
</mgrwt>
</event>
<event>
 6    1  0.1719556E-004  0.1538378E+04  0.7818608E-02  0.8859325E-01
         -4   -1    0    0    0  501 -0.00000000000E+00  0.00000000000E+00  0.36318559519E+03  0.36318559519E+03  0.00000000000E+00 0. -1.
          4   -1    0    0  501    0  0.00000000000E+00 -0.00000000000E+00 -0.16290621232E+04  0.16290621232E+04  0.00000000000E+00 0.  1.
         23    2    1    2    0    0 -0.42216752123E+03 -0.60492758903E+03 -0.36429992679E+03  0.82734292751E+03  0.87287336413E+02 0.  0.
         13    1    3    3    0    0 -0.28061308077E+03 -0.35917752346E+03 -0.18561817438E+03  0.49214459371E+03  0.00000000000E+00 0. -1.
        -13    1    3    3    0    0 -0.14155444046E+03 -0.24575006557E+03 -0.17868175240E+03  0.33519833380E+03  0.00000000000E+00 0.  1.
         22    1    1    2    0    0  0.42216752123E+03  0.60492758903E+03 -0.90157660123E+03  0.11649047909E+04  0.00000000000E+00 0. -1.
<mgrwt>
<rscale>  0 0.15383782E+04</rscale>
<asrwt>0</asrwt>
<pdfrwt beam="1">  1        4 0.25062495E+00 0.15383782E+04</pdfrwt>
<pdfrwt beam="2">  1       -4 0.55874706E-01 0.15383782E+04</pdfrwt>
<totfact> 0.36911688E-01</totfact>
</mgrwt>
</event>
<event>
 6    1  0.1719556E-004  0.2156780E+04  0.7818608E-02  0.8536636E-01
          1   -1    0    0  501    0  0.00000000000E+00  0.00000000000E+00  0.11889221539E+04  0.11889221539E+04  0.00000000000E+00 0. -1.
         -1   -1    0    0    0  501 -0.00000000000E+00 -0.00000000000E+00 -0.97813354745E+03  0.97813354745E+03  0.00000000000E+00 0.  1.
         23    2    1    2    0    0 -0.14640864914E+03 -0.21175006183E+03  0.11558501145E+04  0.11875584654E+04  0.89621652041E+02 0.  0.
         13    1    3    3    0    0 -0.11049598715E+03 -0.10864402549E+03  0.52737638219E+03  0.54967148001E+03  0.00000000000E+00 0. -1.
        -13    1    3    3    0    0 -0.35912661988E+02 -0.10310603634E+03  0.62847373228E+03  0.63788698544E+03  0.00000000000E+00 0.  1.
         22    1    1    2    0    0  0.14640864914E+03  0.21175006183E+03 -0.94506150801E+03  0.97949723591E+03  0.00000000000E+00 0.  1.
<mgrwt>
<rscale>  0 0.21567797E+04</rscale>
<asrwt>0</asrwt>
<pdfrwt beam="1">  1        1 0.18291110E+00 0.21567797E+04</pdfrwt>
<pdfrwt beam="2">  1       -1 0.15048208E+00 0.21567797E+04</pdfrwt>
<totfact> 0.34466297E+00</totfact>
</mgrwt>
</event>
<event>
 6    1  0.1719556E-004  0.4765684E+03  0.7818608E-02  0.1020083E+00
          2   -1    0    0  501    0  0.00000000000E+00  0.00000000000E+00  0.11230961023E+04  0.11230961023E+04  0.00000000000E+00 0.  1.
         -2   -1    0    0    0  501 -0.00000000000E+00 -0.00000000000E+00 -0.50556109855E+02  0.50556109855E+02  0.00000000000E+00 0. -1.
         23    2    1    2    0    0  0.18063070154E+03 -0.58086274454E+01  0.90374952703E+03  0.92636409740E+03  0.93413290475E+02 0.  0.
         13    1    3    3    0    0  0.43125206907E+02  0.39191992793E+02  0.28928834420E+03  0.29509920681E+03  0.00000000000E+00 0.  1.
        -13    1    3    3    0    0  0.13750549463E+03 -0.45000620239E+02  0.61446118284E+03  0.63126489059E+03  0.00000000000E+00 0. -1.
         22    1    1    2    0    0 -0.18063070154E+03  0.58086274454E+01  0.16879046544E+03  0.24728811479E+03  0.00000000000E+00 0. -1.
<mgrwt>
<rscale>  0 0.47656844E+03</rscale>
<asrwt>0</asrwt>
<pdfrwt beam="1">  1        2 0.17278400E+00 0.47656844E+03</pdfrwt>
<pdfrwt beam="2">  1       -2 0.77778639E-02 0.47656844E+03</pdfrwt>
<totfact> 0.21877507E+03</totfact>
</mgrwt>
</event>
<event>
 6    1  0.1719556E-004  0.1382639E+04  0.7818608E-02  0.8966482E-01
          2   -1    0    0  501    0  0.00000000000E+00  0.00000000000E+00  0.14319075531E+03  0.14319075531E+03  0.00000000000E+00 0.  1.
         -2   -1    0    0    0  501 -0.00000000000E+00 -0.00000000000E+00 -0.33376633682E+04  0.33376633682E+04  0.00000000000E+00 0. -1.
         23    2    1    2    0    0  0.86120019426E+02  0.18464217946E+03 -0.32594145625E+04  0.32670157524E+04  0.89995797718E+02 0.  0.
         11    1    3    3    0    0  0.59576977330E+01  0.66223441147E+02 -0.16241946584E+04  0.16255550827E+04  0.00000000000E+00 0. -1.
        -11    1    3    3    0    0  0.80162321693E+02  0.11841873831E+03 -0.16352199041E+04  0.16414606697E+04  0.00000000000E+00 0.  1.
         22    1    1    2    0    0 -0.86120019426E+02 -0.18464217946E+03  0.64941949586E+02  0.21383837120E+03  0.00000000000E+00 0.  1.
<mgrwt>
<rscale>  0 0.13826388E+04</rscale>
<asrwt>0</asrwt>
<pdfrwt beam="1">  1        2 0.22029348E-01 0.13826388E+04</pdfrwt>
<pdfrwt beam="2">  1       -2 0.51348665E+00 0.13826388E+04</pdfrwt>
<totfact> 0.33902554E-01</totfact>
</mgrwt>
</event>
<event>
 6    1  0.1719556E-004  0.1456987E+04  0.7818608E-02  0.8913571E-01
          2   -1    0    0  501    0  0.00000000000E+00  0.00000000000E+00  0.73261123361E+03  0.73261123361E+03  0.00000000000E+00 0.  1.
         -2   -1    0    0    0  501 -0.00000000000E+00 -0.00000000000E+00 -0.72439849717E+03  0.72439849717E+03  0.00000000000E+00 0. -1.
         23    2    1    2    0    0 -0.26019405265E+03 -0.10991042168E+03  0.67286777408E+03  0.73482722967E+03  0.86248305707E+02 0.  0.
         13    1    3    3    0    0 -0.26561096885E+02 -0.30652012358E+02  0.46953265960E+02  0.62045522914E+02  0.00000000000E+00 0.  1.
        -13    1    3    3    0    0 -0.23363295577E+03 -0.79258409325E+02  0.62591450812E+03  0.67278170676E+03  0.00000000000E+00 0. -1.
         22    1    1    2    0    0  0.26019405265E+03  0.10991042168E+03 -0.66465503764E+03  0.72218250110E+03  0.00000000000E+00 0. -1.
<mgrwt>
<rscale>  0 0.14569866E+04</rscale>
<asrwt>0</asrwt>
<pdfrwt beam="1">  1        2 0.11270942E+00 0.14569866E+04</pdfrwt>
<pdfrwt beam="2">  1       -2 0.11144592E+00 0.14569866E+04</pdfrwt>
<totfact> 0.23850576E+01</totfact>
</mgrwt>
</event>
<event>
 6    1  0.1855913E-004  0.2129036E+04  0.7818608E-02  0.8548560E-01
         -2   -1    0    0    0  501 -0.00000000000E+00  0.00000000000E+00  0.67156471811E+03  0.67156471811E+03  0.00000000000E+00 0. -1.
          2   -1    0    0  501    0  0.00000000000E+00 -0.00000000000E+00 -0.16873996429E+04  0.16873996429E+04  0.00000000000E+00 0.  1.
         23    2    1    2    0    0 -0.14617815571E+03 -0.51792337925E+03 -0.15240349708E+04  0.16187752185E+04  0.90210508152E+02 0.  0.
         13    1    3    3    0    0  0.71267428625E+01 -0.78362284860E+02 -0.26484193468E+03  0.27628371019E+03  0.00000000000E+00 0.  1.
        -13    1    3    3    0    0 -0.15330489857E+03 -0.43956109439E+03 -0.12591930361E+04  0.13424915083E+04  0.00000000000E+00 0. -1.
         22    1    1    2    0    0  0.14617815571E+03  0.51792337925E+03  0.50820004599E+03  0.74018914253E+03  0.00000000000E+00 0. -1.
<mgrwt>
<rscale>  0 0.21290355E+04</rscale>
<asrwt>0</asrwt>
<pdfrwt beam="1">  1        2 0.25959994E+00 0.21290355E+04</pdfrwt>
<pdfrwt beam="2">  1       -2 0.10331765E+00 0.21290355E+04</pdfrwt>
<totfact> 0.70021009E+00</totfact>
</mgrwt>
</event>
<event>
 6    1  0.1719556E-004  0.1113081E+04  0.7818608E-02  0.9192535E-01
         -2   -1    0    0    0  501 -0.00000000000E+00  0.00000000000E+00  0.54847783904E+03  0.54847783904E+03  0.00000000000E+00 0. -1.
          2   -1    0    0  501    0  0.00000000000E+00 -0.00000000000E+00 -0.56472163221E+03  0.56472163221E+03  0.00000000000E+00 0.  1.
         23    2    1    2    0    0 -0.20846316816E+02  0.54305527601E+03  0.93520370018E+02  0.55877023929E+03  0.90191568248E+02 0.  0.
         13    1    3    3    0    0  0.12582428297E+02  0.42614296395E+03  0.96591390345E+02  0.43713389243E+03  0.00000000000E+00 0. -1.
        -13    1    3    3    0    0 -0.33428745114E+02  0.11691231207E+03 -0.30710203267E+01  0.12163634686E+03  0.00000000000E+00 0.  1.
         22    1    1    2    0    0  0.20846316816E+02 -0.54305527601E+03 -0.10976416318E+03  0.55442923196E+03  0.00000000000E+00 0.  1.
<mgrwt>
<rscale>  0 0.11130810E+04</rscale>
<asrwt>0</asrwt>
<pdfrwt beam="1">  1        2 0.86880251E-01 0.11130810E+04</pdfrwt>
<pdfrwt beam="2">  1       -2 0.84381206E-01 0.11130810E+04</pdfrwt>
<totfact> 0.64877169E+01</totfact>
</mgrwt>
</event>
<event>
 6    1  0.1719556E-004  0.2357940E+04  0.7818608E-02  0.8455420E-01
         -2   -1    0    0    0  501 -0.00000000000E+00  0.00000000000E+00  0.10203098560E+04  0.10203098560E+04  0.00000000000E+00 0. -1.
          2   -1    0    0  501    0  0.00000000000E+00 -0.00000000000E+00 -0.13623024215E+04  0.13623024215E+04  0.00000000000E+00 0.  1.
         23    2    1    2    0    0  0.73707865594E+03  0.77505006469E+03  0.32563183988E+03  0.11217752958E+04  0.91412095938E+02 0.  0.
         11    1    3    3    0    0  0.55573803556E+03  0.56410833207E+03  0.27979454489E+03  0.83984996388E+03  0.00000000000E+00 0. -1.
        -11    1    3    3    0    0  0.18134062038E+03  0.21094173262E+03  0.45837294984E+02  0.28192533191E+03  0.00000000000E+00 0.  1.
         22    1    1    2    0    0 -0.73707865594E+03 -0.77505006469E+03 -0.66762440534E+03  0.12608369817E+04  0.00000000000E+00 0.  1.
<mgrwt>
<rscale>  0 0.23579403E+04</rscale>
<asrwt>0</asrwt>
<pdfrwt beam="1">  1        2 0.20958499E+00 0.23579403E+04</pdfrwt>
<pdfrwt beam="2">  1       -2 0.15697075E+00 0.23579403E+04</pdfrwt>
<totfact> 0.36420815E+00</totfact>
</mgrwt>
</event>
<event>
 6    1  0.1719556E-004  0.2066093E+04  0.7818608E-02  0.8576329E-01
         -2   -1    0    0    0  501 -0.00000000000E+00  0.00000000000E+00  0.60262468243E+03  0.60262468243E+03  0.00000000000E+00 0. -1.
          2   -1    0    0  501    0  0.00000000000E+00 -0.00000000000E+00 -0.17708946761E+04  0.17708946761E+04  0.00000000000E+00 0.  1.
         23    2    1    2    0    0 -0.76034410148E+03 -0.33160159241E+03 -0.12886660843E+04  0.15353201058E+04  0.92004247722E+02 0.  0.
         11    1    3    3    0    0 -0.37576493963E+03 -0.11845654599E+03 -0.64477459131E+03  0.75562260206E+03  0.00000000000E+00 0. -1.
        -11    1    3    3    0    0 -0.38457916185E+03 -0.21314504642E+03 -0.64389149300E+03  0.77969750372E+03  0.00000000000E+00 0.  1.
         22    1    1    2    0    0  0.76034410148E+03  0.33160159241E+03  0.12039609060E+03  0.83819925279E+03  0.00000000000E+00 0. -1.
<mgrwt>
<rscale>  0 0.20660928E+04</rscale>
<asrwt>0</asrwt>
<pdfrwt beam="1">  1        2 0.27244534E+00 0.20660928E+04</pdfrwt>
<pdfrwt beam="2">  1       -2 0.92711490E-01 0.20660928E+04</pdfrwt>
<totfact> 0.81647791E+00</totfact>
</mgrwt>
</event>
<event>
 6    1  0.1719556E-004  0.2541497E+04  0.7818608E-02  0.8388349E-01
         -1   -1    0    0    0  501 -0.00000000000E+00  0.00000000000E+00  0.58977214532E+03  0.58977214532E+03  0.00000000000E+00 0. -1.
          1   -1    0    0  501    0  0.00000000000E+00 -0.00000000000E+00 -0.27380099301E+04  0.27380099301E+04  0.00000000000E+00 0.  1.
         23    2    1    2    0    0 -0.27778000064E+03 -0.36211606523E+03 -0.26260700035E+04  0.26670147920E+04  0.91839340326E+02 0.  0.
         11    1    3    3    0    0 -0.55883381139E+02 -0.14323933625E+03 -0.84159707515E+03  0.85552679481E+03  0.00000000000E+00 0. -1.
        -11    1    3    3    0    0 -0.22189661950E+03 -0.21887672898E+03 -0.17844729283E+04  0.18114879972E+04  0.00000000000E+00 0.  1.
         22    1    1    2    0    0  0.27778000064E+03  0.36211606523E+03  0.47783221874E+03  0.66076728333E+03  0.00000000000E+00 0. -1.
<mgrwt>
<rscale>  0 0.25414972E+04</rscale>
<asrwt>0</asrwt>
<pdfrwt beam="1">  1        1 0.42123230E+00 0.25414972E+04</pdfrwt>
<pdfrwt beam="2">  1       -1 0.90734176E-01 0.25414972E+04</pdfrwt>
<totfact> 0.96848714E-01</totfact>
</mgrwt>
</event>
<event>
 6    1  0.1719556E-004  0.2049306E+04  0.7818608E-02  0.8583909E-01
          1   -1    0    0  501    0  0.00000000000E+00  0.00000000000E+00  0.18152793039E+04  0.18152793039E+04  0.00000000000E+00 0.  1.
         -1   -1    0    0    0  501 -0.00000000000E+00 -0.00000000000E+00 -0.57837580295E+03  0.57837580295E+03  0.00000000000E+00 0. -1.
         23    2    1    2    0    0  0.33773071213E+03 -0.19479614747E+03 -0.48438430410E+03  0.62876437912E+03  0.93321580556E+02 0.  0.
         11    1    3    3    0    0  0.15388286129E+03 -0.62812231143E+02 -0.26981284189E+03  0.31689790316E+03  0.00000000000E+00 0.  1.
        -11    1    3    3    0    0  0.18384785084E+03 -0.13198391633E+03 -0.21457146222E+03  0.31186647596E+03  0.00000000000E+00 0. -1.
         22    1    1    2    0    0 -0.33773071213E+03  0.19479614747E+03  0.17212878051E+04  0.17648907278E+04  0.00000000000E+00 0.  1.
<mgrwt>
<rscale>  0 0.20493059E+04</rscale>
<asrwt>0</asrwt>
<pdfrwt beam="1">  1        1 0.27927374E+00 0.20493059E+04</pdfrwt>
<pdfrwt beam="2">  1       -1 0.88980893E-01 0.20493059E+04</pdfrwt>
<totfact> 0.45507279E+00</totfact>
</mgrwt>
</event>
<event>
 6    1  0.1719556E-004  0.2005599E+04  0.7818608E-02  0.8604007E-01
         -2   -1    0    0    0  501 -0.00000000000E+00  0.00000000000E+00  0.27966092849E+03  0.27966092849E+03  0.00000000000E+00 0. -1.
          2   -1    0    0  501    0  0.00000000000E+00 -0.00000000000E+00 -0.35958090346E+04  0.35958090346E+04  0.00000000000E+00 0.  1.
         23    2    1    2    0    0 -0.35341420925E+03  0.50377511969E+03 -0.13629218405E+03  0.63661605166E+03  0.89517949508E+02 0.  0.
         11    1    3    3    0    0 -0.14680632986E+03  0.27764331498E+03 -0.90973855589E+02  0.32697729469E+03  0.00000000000E+00 0.  1.
        -11    1    3    3    0    0 -0.20660787939E+03  0.22613180471E+03 -0.45318328464E+02  0.30963875697E+03  0.00000000000E+00 0. -1.
         22    1    1    2    0    0  0.35341420925E+03 -0.50377511969E+03 -0.31798559220E+04  0.32388539114E+04  0.00000000000E+00 0.  1.
<mgrwt>
<rscale>  0 0.20055995E+04</rscale>
<asrwt>0</asrwt>
<pdfrwt beam="1">  1        2 0.55320131E+00 0.20055995E+04</pdfrwt>
<pdfrwt beam="2">  1       -2 0.43024765E-01 0.20055995E+04</pdfrwt>
<totfact> 0.33277683E+00</totfact>
</mgrwt>
</event>
<event>
 6    1  0.1719556E-004  0.3856528E+04  0.7818608E-02  0.8034132E-01
         -2   -1    0    0    0  501 -0.00000000000E+00  0.00000000000E+00  0.19832866986E+04  0.19832866986E+04  0.00000000000E+00 0. -1.
          2   -1    0    0  501    0  0.00000000000E+00 -0.00000000000E+00 -0.18747679563E+04  0.18747679563E+04  0.00000000000E+00 0.  1.
         23    2    1    2    0    0 -0.47952755709E+01  0.18864687633E+04  0.44811420991E+03  0.19412572031E+04  0.94264487229E+02 0.  0.
         13    1    3    3    0    0  0.19624445579E+02  0.11954205367E+04  0.24334247606E+03  0.12200946435E+04  0.00000000000E+00 0. -1.
        -13    1    3    3    0    0 -0.24419721150E+02  0.69104822663E+03  0.20477173385E+03  0.72116255955E+03  0.00000000000E+00 0.  1.
         22    1    1    2    0    0  0.47952755709E+01 -0.18864687633E+04 -0.33959546763E+03  0.19167974518E+04  0.00000000000E+00 0.  1.
<mgrwt>
<rscale>  0 0.38565282E+04</rscale>
<asrwt>0</asrwt>
<pdfrwt beam="1">  1        2 0.28842584E+00 0.38565282E+04</pdfrwt>
<pdfrwt beam="2">  1       -2 0.30512103E+00 0.38565282E+04</pdfrwt>
<totfact> 0.18505788E-01</totfact>
</mgrwt>
</event>
<event>
 6    1  0.1719556E-004  0.1224365E+04  0.7818608E-02  0.9091793E-01
         -2   -1    0    0    0  501 -0.00000000000E+00  0.00000000000E+00  0.57994836499E+03  0.57994836499E+03  0.00000000000E+00 0. -1.
          2   -1    0    0  501    0  0.00000000000E+00 -0.00000000000E+00 -0.64620799311E+03  0.64620799311E+03  0.00000000000E+00 0.  1.
         23    2    1    2    0    0  0.25448783648E+03  0.50243666553E+03 -0.26476891359E+03  0.62898586469E+03  0.91181020956E+02 0.  0.
         11    1    3    3    0    0  0.24065050837E+03  0.39744355456E+03 -0.21769792341E+03  0.51309495427E+03  0.00000000000E+00 0. -1.
        -11    1    3    3    0    0  0.13837328116E+02  0.10499311097E+03 -0.47070990178E+02  0.11589091042E+03  0.00000000000E+00 0.  1.
         22    1    1    2    0    0 -0.25448783648E+03 -0.50243666553E+03  0.19850928547E+03  0.59717049342E+03  0.00000000000E+00 0. -1.
<mgrwt>
<rscale>  0 0.12243648E+04</rscale>
<asrwt>0</asrwt>
<pdfrwt beam="1">  1        2 0.99416615E-01 0.12243648E+04</pdfrwt>
<pdfrwt beam="2">  1       -2 0.89222825E-01 0.12243648E+04</pdfrwt>
<totfact> 0.48126687E+01</totfact>
</mgrwt>
</event>
<event>
 6    1  0.1719556E-004  0.3339980E+04  0.7818608E-02  0.8152796E-01
         -2   -1    0    0    0  501 -0.00000000000E+00  0.00000000000E+00  0.21976735983E+04  0.21976735983E+04  0.00000000000E+00 0. -1.
          2   -1    0    0  501    0  0.00000000000E+00 -0.00000000000E+00 -0.12690083072E+04  0.12690083072E+04  0.00000000000E+00 0.  1.
         23    2    1    2    0    0  0.14505038108E+04 -0.82429476832E+03  0.42928736860E+03  0.17251878689E+04  0.92533063543E+02 0.  0.
         11    1    3    3    0    0  0.95198831013E+03 -0.59081472710E+03  0.29183552104E+03  0.11578047140E+04  0.00000000000E+00 0. -1.
        -11    1    3    3    0    0  0.49851550069E+03 -0.23348004122E+03  0.13745184756E+03  0.56738315491E+03  0.00000000000E+00 0.  1.
         22    1    1    2    0    0 -0.14505038108E+04  0.82429476832E+03  0.49937792249E+03  0.17414940367E+04  0.00000000000E+00 0. -1.
<mgrwt>
<rscale>  0 0.33399797E+04</rscale>
<asrwt>0</asrwt>
<pdfrwt beam="1">  1        2 0.19523205E+00 0.33399797E+04</pdfrwt>
<pdfrwt beam="2">  1       -2 0.33810363E+00 0.33399797E+04</pdfrwt>
<totfact> 0.26508317E-01</totfact>
</mgrwt>
</event>
<event>
 6    1  0.1719556E-004  0.1792585E+04  0.7818608E-02  0.8710253E-01
          1   -1    0    0  501    0  0.00000000000E+00  0.00000000000E+00  0.28156979508E+04  0.28156979508E+04  0.00000000000E+00 0.  1.
         -1   -1    0    0    0  501 -0.00000000000E+00 -0.00000000000E+00 -0.28530761702E+03  0.28530761702E+03  0.00000000000E+00 0. -1.
         23    2    1    2    0    0 -0.32106491649E+03  0.62432938828E+03  0.22257760292E+04  0.23357214766E+04  0.92983969425E+02 0.  0.
         13    1    3    3    0    0 -0.29953727437E+03  0.51050059232E+03  0.18910424817E+04  0.19815082894E+04  0.00000000000E+00 0.  1.
        -13    1    3    3    0    0 -0.21527642126E+02  0.11382879596E+03  0.33473354753E+03  0.35421318723E+03  0.00000000000E+00 0. -1.
         22    1    1    2    0    0  0.32106491649E+03 -0.62432938828E+03  0.30461430459E+03  0.76528409119E+03  0.00000000000E+00 0. -1.
<mgrwt>
<rscale>  0 0.17925848E+04</rscale>
<asrwt>0</asrwt>
<pdfrwt beam="1">  1        1 0.43318428E+00 0.17925848E+04</pdfrwt>
<pdfrwt beam="2">  1       -1 0.43893481E-01 0.17925848E+04</pdfrwt>
<totfact> 0.39432292E+00</totfact>
</mgrwt>
</event>
<event>
 6    1  0.1719556E-004  0.2252550E+04  0.7818608E-02  0.8496868E-01
         -1   -1    0    0    0  501 -0.00000000000E+00  0.00000000000E+00  0.11678358553E+04  0.11678358553E+04  0.00000000000E+00 0. -1.
          1   -1    0    0  501    0  0.00000000000E+00 -0.00000000000E+00 -0.10861935431E+04  0.10861935431E+04  0.00000000000E+00 0.  1.
         23    2    1    2    0    0  0.10621031720E+04  0.33893289436E+03 -0.10585626302E+03  0.11235010393E+04  0.90057659547E+02 0.  0.
         13    1    3    3    0    0  0.90859417803E+03  0.31192551871E+03 -0.67680016023E+02  0.96302725514E+03  0.00000000000E+00 0. -1.
        -13    1    3    3    0    0  0.15350899397E+03  0.27007375650E+02 -0.38176246994E+02  0.16047378416E+03  0.00000000000E+00 0.  1.
         22    1    1    2    0    0 -0.10621031720E+04 -0.33893289436E+03  0.18749857524E+03  0.11305283590E+04  0.00000000000E+00 0.  1.
<mgrwt>
<rscale>  0 0.22525503E+04</rscale>
<asrwt>0</asrwt>
<pdfrwt beam="1">  1        1 0.16710670E+00 0.22525503E+04</pdfrwt>
<pdfrwt beam="2">  1       -1 0.17966706E+00 0.22525503E+04</pdfrwt>
<totfact> 0.24666289E+00</totfact>
</mgrwt>
</event>
<event>
 6    1  0.1719556E-004  0.2503132E+04  0.7818608E-02  0.8401871E-01
         -2   -1    0    0    0  501 -0.00000000000E+00  0.00000000000E+00  0.70308954129E+03  0.70308954129E+03  0.00000000000E+00 0. -1.
          2   -1    0    0  501    0  0.00000000000E+00 -0.00000000000E+00 -0.22279062435E+04  0.22279062435E+04  0.00000000000E+00 0.  1.
         23    2    1    2    0    0 -0.11746159030E+04 -0.39251200520E+03 -0.96133133287E+03  0.15703694749E+04  0.90078644812E+02 0.  0.
         13    1    3    3    0    0 -0.92936681423E+03 -0.33981454778E+03 -0.79564747012E+03  0.12697446590E+04  0.00000000000E+00 0. -1.
        -13    1    3    3    0    0 -0.24524908877E+03 -0.52697457420E+02 -0.16568386275E+03  0.30062481591E+03  0.00000000000E+00 0.  1.
         22    1    1    2    0    0  0.11746159030E+04  0.39251200520E+03 -0.56348536935E+03  0.13606263099E+04  0.00000000000E+00 0.  1.
<mgrwt>
<rscale>  0 0.25031321E+04</rscale>
<asrwt>0</asrwt>
<pdfrwt beam="1">  1        2 0.34275481E+00 0.25031321E+04</pdfrwt>
<pdfrwt beam="2">  1       -2 0.10816762E+00 0.25031321E+04</pdfrwt>
<totfact> 0.30381829E+00</totfact>
</mgrwt>
</event>
<event>
 6    1  0.1719556E-004  0.1905153E+04  0.7818608E-02  0.8652296E-01
          1   -1    0    0  501    0  0.00000000000E+00  0.00000000000E+00  0.10202715156E+04  0.10202715156E+04  0.00000000000E+00 0. -1.
         -1   -1    0    0    0  501 -0.00000000000E+00 -0.00000000000E+00 -0.88937314819E+03  0.88937314819E+03  0.00000000000E+00 0.  1.
         23    2    1    2    0    0  0.31701421432E+03  0.73194632539E+03 -0.45243846374E+03  0.92145172014E+03  0.90162485260E+02 0.  0.
         13    1    3    3    0    0  0.30430929911E+03  0.64107973743E+03 -0.41703759414E+03  0.82310857983E+03  0.00000000000E+00 0. -1.
        -13    1    3    3    0    0  0.12704915212E+02  0.90866587953E+02 -0.35400869609E+02  0.98343140309E+02  0.00000000000E+00 0.  1.
         22    1    1    2    0    0 -0.31701421432E+03 -0.73194632539E+03  0.58333683120E+03  0.98819294370E+03  0.00000000000E+00 0. -1.
<mgrwt>
<rscale>  0 0.19051531E+04</rscale>
<asrwt>0</asrwt>
<pdfrwt beam="1">  1        1 0.15696485E+00 0.19051531E+04</pdfrwt>
<pdfrwt beam="2">  1       -1 0.13682664E+00 0.19051531E+04</pdfrwt>
<totfact> 0.60723029E+00</totfact>
</mgrwt>
</event>
<event>
 6    1  0.1719556E-004  0.4112596E+04  0.7818608E-02  0.7982210E-01
         -2   -1    0    0    0  501 -0.00000000000E+00  0.00000000000E+00  0.13519621375E+04  0.13519621375E+04  0.00000000000E+00 0. -1.
          2   -1    0    0  501    0  0.00000000000E+00 -0.00000000000E+00 -0.31275745698E+04  0.31275745698E+04  0.00000000000E+00 0.  1.
         23    2    1    2    0    0  0.13619213649E+04  0.25868366610E+02  0.78815594633E+03  0.15763647738E+04  0.90758623482E+02 0.  0.
         11    1    3    3    0    0  0.36938711013E+03  0.42073479350E+02  0.23813772839E+03  0.44150491785E+03  0.00000000000E+00 0. -1.
        -11    1    3    3    0    0  0.99253425477E+03 -0.16205112739E+02  0.55001821794E+03  0.11348598559E+04  0.00000000000E+00 0.  1.
         22    1    1    2    0    0 -0.13619213649E+04 -0.25868366610E+02 -0.25637683786E+04  0.29031719335E+04  0.00000000000E+00 0.  1.
<mgrwt>
<rscale>  0 0.41125965E+04</rscale>
<asrwt>0</asrwt>
<pdfrwt beam="1">  1        2 0.48116531E+00 0.41125965E+04</pdfrwt>
<pdfrwt beam="2">  1       -2 0.20799418E+00 0.41125965E+04</pdfrwt>
<totfact> 0.13313305E-01</totfact>
</mgrwt>
</event>
<event>
 6    1  0.1719556E-004  0.4452901E+04  0.7818608E-02  0.7918935E-01
         -1   -1    0    0    0  501 -0.00000000000E+00  0.00000000000E+00  0.13814034550E+04  0.13814034550E+04  0.00000000000E+00 0. -1.
          1   -1    0    0  501    0  0.00000000000E+00 -0.00000000000E+00 -0.35884386589E+04  0.35884386589E+04  0.00000000000E+00 0.  1.
         23    2    1    2    0    0 -0.55450281846E+03 -0.16987251230E+04 -0.25842788955E+04  0.31435197924E+04  0.10039350699E+03 0.  0.
         13    1    3    3    0    0 -0.63857022390E+02 -0.30848759663E+03 -0.48223800913E+03  0.57601719942E+03  0.00000000000E+00 0. -1.
        -13    1    3    3    0    0 -0.49064579607E+03 -0.13902375264E+04 -0.21020408864E+04  0.25675025930E+04  0.00000000000E+00 0.  1.
         22    1    1    2    0    0  0.55450281846E+03  0.16987251230E+04  0.37724369161E+03  0.18263223215E+04  0.00000000000E+00 0. -1.
<mgrwt>
<rscale>  0 0.44529009E+04</rscale>
<asrwt>0</asrwt>
<pdfrwt beam="1">  1        1 0.55206748E+00 0.44529009E+04</pdfrwt>
<pdfrwt beam="2">  1       -1 0.21252361E+00 0.44529009E+04</pdfrwt>
<totfact> 0.19778654E-02</totfact>
</mgrwt>
</event>
<event>
 6    1  0.1719556E-004  0.2772372E+04  0.7818608E-02  0.8311897E-01
         -2   -1    0    0    0  501 -0.00000000000E+00  0.00000000000E+00  0.20749216458E+04  0.20749216458E+04  0.00000000000E+00 0. -1.
          2   -1    0    0  501    0  0.00000000000E+00 -0.00000000000E+00 -0.92606474152E+03  0.92606474152E+03  0.00000000000E+00 0.  1.
         23    2    1    2    0    0 -0.76740431566E+03  0.47274069963E+03  0.17128217353E+04  0.19377604079E+04  0.93615964092E+02 0.  0.
         13    1    3    3    0    0 -0.55366352985E+03  0.33821543417E+03  0.13187616044E+04  0.14697160111E+04  0.00000000000E+00 0.  1.
        -13    1    3    3    0    0 -0.21374078581E+03  0.13452526547E+03  0.39406013096E+03  0.46804439680E+03  0.00000000000E+00 0. -1.
         22    1    1    2    0    0  0.76740431566E+03 -0.47274069963E+03 -0.56396483099E+03  0.10632259794E+04  0.00000000000E+00 0.  1.
<mgrwt>
<rscale>  0 0.27723721E+04</rscale>
<asrwt>0</asrwt>
<pdfrwt beam="1">  1        2 0.14247150E+00 0.27723721E+04</pdfrwt>
<pdfrwt beam="2">  1       -2 0.31921871E+00 0.27723721E+04</pdfrwt>
<totfact> 0.59465363E-01</totfact>
</mgrwt>
</event>
<event>
 6    1  0.1719556E-004  0.1023813E+04  0.7818608E-02  0.9282806E-01
          3   -1    0    0  501    0  0.00000000000E+00  0.00000000000E+00  0.29774039365E+03  0.29774039365E+03  0.00000000000E+00 0.  1.
         -3   -1    0    0    0  501 -0.00000000000E+00 -0.00000000000E+00 -0.88012250566E+03  0.88012250566E+03  0.00000000000E+00 0. -1.
         23    2    1    2    0    0 -0.48717184096E+03 -0.52022104281E+02 -0.44666095185E+03  0.66947039812E+03  0.92961852892E+02 0.  0.
         13    1    3    3    0    0 -0.42728795682E+03 -0.40780961000E+02 -0.34390410149E+03  0.55000737799E+03  0.00000000000E+00 0.  1.
        -13    1    3    3    0    0 -0.59883884136E+02 -0.11241143281E+02 -0.10275685036E+03  0.11946302013E+03  0.00000000000E+00 0. -1.
         22    1    1    2    0    0  0.48717184096E+03  0.52022104281E+02 -0.13572116017E+03  0.50839250120E+03  0.00000000000E+00 0. -1.
<mgrwt>
<rscale>  0 0.10238125E+04</rscale>
<asrwt>0</asrwt>
<pdfrwt beam="1">  1        3 0.45806215E-01 0.10238125E+04</pdfrwt>
<pdfrwt beam="2">  1       -3 0.13540346E+00 0.10238125E+04</pdfrwt>
<totfact> 0.51919823E+00</totfact>
</mgrwt>
</event>
<event>
 6    1  0.1719556E-004  0.3004017E+04  0.7818608E-02  0.8242585E-01
          2   -1    0    0  501    0  0.00000000000E+00  0.00000000000E+00  0.16482368686E+04  0.16482368686E+04  0.00000000000E+00 0.  1.
         -2   -1    0    0    0  501 -0.00000000000E+00 -0.00000000000E+00 -0.13687534394E+04  0.13687534394E+04  0.00000000000E+00 0. -1.
         23    2    1    2    0    0  0.54645732998E+03 -0.13835022621E+04 -0.62345318465E+02  0.14907069087E+04  0.75006840815E+02 0.  0.
         13    1    3    3    0    0  0.37727984224E+03 -0.10213030271E+04 -0.22868426581E+02  0.10890008804E+04  0.00000000000E+00 0. -1.
        -13    1    3    3    0    0  0.16917748773E+03 -0.36219923491E+03 -0.39476891885E+02  0.40170602823E+03  0.00000000000E+00 0.  1.
         22    1    1    2    0    0 -0.54645732998E+03  0.13835022621E+04  0.34182874767E+03  0.15262833994E+04  0.00000000000E+00 0. -1.
<mgrwt>
<rscale>  0 0.30040172E+04</rscale>
<asrwt>0</asrwt>
<pdfrwt beam="1">  1        2 0.25357490E+00 0.30040172E+04</pdfrwt>
<pdfrwt beam="2">  1       -2 0.21057745E+00 0.30040172E+04</pdfrwt>
<totfact> 0.10183315E+00</totfact>
</mgrwt>
</event>
<event>
 6    1  0.1719556E-004  0.2639509E+04  0.7818608E-02  0.8354904E-01
         -2   -1    0    0    0  501 -0.00000000000E+00  0.00000000000E+00  0.15369675166E+04  0.15369675166E+04  0.00000000000E+00 0. -1.
          2   -1    0    0  501    0  0.00000000000E+00 -0.00000000000E+00 -0.11332389552E+04  0.11332389552E+04  0.00000000000E+00 0.  1.
         23    2    1    2    0    0  0.10897625654E+04 -0.46989636359E+03  0.78268119676E+03  0.14244175085E+04  0.89388708295E+02 0.  0.
         13    1    3    3    0    0  0.52673072742E+03 -0.27368197118E+03  0.37488131309E+03  0.70205632214E+03  0.00000000000E+00 0.  1.
        -13    1    3    3    0    0  0.56303183800E+03 -0.19621439241E+03  0.40779988367E+03  0.72236118633E+03  0.00000000000E+00 0. -1.
         22    1    1    2    0    0 -0.10897625654E+04  0.46989636359E+03 -0.37895263534E+03  0.12457889634E+04  0.00000000000E+00 0.  1.
<mgrwt>
<rscale>  0 0.26395086E+04</rscale>
<asrwt>0</asrwt>
<pdfrwt beam="1">  1        2 0.17434445E+00 0.26395086E+04</pdfrwt>
<pdfrwt beam="2">  1       -2 0.23645654E+00 0.26395086E+04</pdfrwt>
<totfact> 0.14279456E+00</totfact>
</mgrwt>
</event>
<event>
 6    1  0.1719556E-004  0.2499902E+04  0.7818608E-02  0.8403020E-01
          1   -1    0    0  501    0  0.00000000000E+00  0.00000000000E+00  0.37048653307E+04  0.37048653307E+04  0.00000000000E+00 0.  1.
         -1   -1    0    0    0  501 -0.00000000000E+00 -0.00000000000E+00 -0.42170970732E+03  0.42170970732E+03  0.00000000000E+00 0. -1.
         23    2    1    2    0    0  0.99099901867E+03 -0.47191694789E+03  0.66194376591E+03  0.12848262345E+04  0.88454750501E+02 0.  0.
         13    1    3    3    0    0  0.29602619932E+03 -0.18384752060E+03  0.19344004196E+03  0.39856049899E+03  0.00000000000E+00 0.  1.
        -13    1    3    3    0    0  0.69497281934E+03 -0.28806942728E+03  0.46850372395E+03  0.88626573550E+03  0.00000000000E+00 0. -1.
         22    1    1    2    0    0 -0.99099901867E+03  0.47191694789E+03  0.26212118575E+04  0.28417488035E+04  0.00000000000E+00 0.  1.
<mgrwt>
<rscale>  0 0.24999021E+04</rscale>
<asrwt>0</asrwt>
<pdfrwt beam="1">  1        1 0.56997926E+00 0.24999021E+04</pdfrwt>
<pdfrwt beam="2">  1       -1 0.64878419E-01 0.24999021E+04</pdfrwt>
<totfact> 0.36638765E-01</totfact>
</mgrwt>
</event>
<event>
 6    1  0.1719556E-004  0.2332405E+04  0.7818608E-02  0.8465253E-01
          2   -1    0    0  501    0  0.00000000000E+00  0.00000000000E+00  0.15735771699E+04  0.15735771699E+04  0.00000000000E+00 0.  1.
         -2   -1    0    0    0  501 -0.00000000000E+00 -0.00000000000E+00 -0.86429069834E+03  0.86429069834E+03  0.00000000000E+00 0. -1.
         23    2    1    2    0    0  0.44589055498E+03  0.50430857355E+03 -0.63807338179E+03  0.93170582556E+03  0.88275593669E+02 0.  0.
         13    1    3    3    0    0  0.34974102273E+03  0.34350730186E+03 -0.48734615360E+03  0.69124693333E+03  0.00000000000E+00 0.  1.
        -13    1    3    3    0    0  0.96149532251E+02  0.16080127169E+03 -0.15072722820E+03  0.24045889222E+03  0.00000000000E+00 0. -1.
         22    1    1    2    0    0 -0.44589055498E+03 -0.50430857355E+03  0.13473598534E+04  0.15061620427E+04  0.00000000000E+00 0.  1.
<mgrwt>
<rscale>  0 0.23324049E+04</rscale>
<asrwt>0</asrwt>
<pdfrwt beam="1">  1        2 0.24208880E+00 0.23324049E+04</pdfrwt>
<pdfrwt beam="2">  1       -2 0.13296780E+00 0.23324049E+04</pdfrwt>
<totfact> 0.42794246E+00</totfact>
</mgrwt>
</event>
<event>
 6    1  0.1719556E-004  0.5642808E+03  0.7818608E-02  0.9982415E-01
         -2   -1    0    0    0  501 -0.00000000000E+00  0.00000000000E+00  0.25790928340E+02  0.25790928340E+02  0.00000000000E+00 0. -1.
          2   -1    0    0  501    0  0.00000000000E+00 -0.00000000000E+00 -0.30864810560E+04  0.30864810560E+04  0.00000000000E+00 0.  1.
         23    2    1    2    0    0 -0.90076158433E+02 -0.21077753820E+03 -0.24051876373E+04  0.24178481946E+04  0.92311626847E+02 0.  0.
         11    1    3    3    0    0 -0.87950384275E+02 -0.20145265589E+03 -0.19161430988E+04  0.19287101435E+04  0.00000000000E+00 0. -1.
        -11    1    3    3    0    0 -0.21257741578E+01 -0.93248823095E+01 -0.48904453849E+03  0.48913805104E+03  0.00000000000E+00 0.  1.
         22    1    1    2    0    0  0.90076158433E+02  0.21077753820E+03 -0.65550249035E+03  0.69442378976E+03  0.00000000000E+00 0. -1.
<mgrwt>
<rscale>  0 0.56428082E+03</rscale>
<asrwt>0</asrwt>
<pdfrwt beam="1">  1        2 0.47484316E+00 0.56428082E+03</pdfrwt>
<pdfrwt beam="2">  1       -2 0.39678358E-02 0.56428082E+03</pdfrwt>
<totfact> 0.48982559E+02</totfact>
</mgrwt>
</event>
<event>
 6    1  0.1719556E-004  0.3669348E+04  0.7818608E-02  0.8074789E-01
          2   -1    0    0  501    0  0.00000000000E+00  0.00000000000E+00  0.23980029738E+04  0.23980029738E+04  0.00000000000E+00 0.  1.
         -2   -1    0    0    0  501 -0.00000000000E+00 -0.00000000000E+00 -0.14036796689E+04  0.14036796689E+04  0.00000000000E+00 0. -1.
         23    2    1    2    0    0 -0.93002892037E+03 -0.15517892007E+04  0.80594061151E+03  0.19827567082E+04  0.93703673436E+02 0.  0.
         13    1    3    3    0    0 -0.83897256292E+02 -0.19867683579E+03  0.98886794893E+02  0.23725478477E+03  0.00000000000E+00 0.  1.
        -13    1    3    3    0    0 -0.84613166407E+03 -0.13531123649E+04  0.70705381661E+03  0.17455019234E+04  0.00000000000E+00 0. -1.
         22    1    1    2    0    0  0.93002892037E+03  0.15517892007E+04  0.18838269334E+03  0.18189259345E+04  0.00000000000E+00 0. -1.
<mgrwt>
<rscale>  0 0.36693476E+04</rscale>
<asrwt>0</asrwt>
<pdfrwt beam="1">  1        2 0.36892354E+00 0.36693476E+04</pdfrwt>
<pdfrwt beam="2">  1       -2 0.21595072E+00 0.36693476E+04</pdfrwt>
<totfact> 0.33877711E-01</totfact>
</mgrwt>
</event>
<event>
 6    1  0.1719556E-004  0.1960422E+04  0.7818608E-02  0.8625352E-01
          2   -1    0    0  501    0  0.00000000000E+00  0.00000000000E+00  0.37240485925E+04  0.37240485925E+04  0.00000000000E+00 0.  1.
         -2   -1    0    0    0  501 -0.00000000000E+00 -0.00000000000E+00 -0.25800241339E+03  0.25800241339E+03  0.00000000000E+00 0. -1.
         23    2    1    2    0    0  0.58309986773E+03  0.46479109880E+03  0.45121072106E+03  0.87636765752E+03  0.91612963469E+02 0.  0.
         11    1    3    3    0    0  0.60143630303E+02  0.70724408654E+02  0.29080349206E+02  0.97287537514E+02  0.00000000000E+00 0. -1.
        -11    1    3    3    0    0  0.52295623743E+03  0.39406669014E+03  0.42213037185E+03  0.77908012000E+03  0.00000000000E+00 0.  1.
         22    1    1    2    0    0 -0.58309986773E+03 -0.46479109880E+03  0.30148354580E+04  0.31056833483E+04  0.00000000000E+00 0.  1.
<mgrwt>
<rscale>  0 0.19604219E+04</rscale>
<asrwt>0</asrwt>
<pdfrwt beam="1">  1        2 0.57293051E+00 0.19604219E+04</pdfrwt>
<pdfrwt beam="2">  1       -2 0.39692682E-01 0.19604219E+04</pdfrwt>
<totfact> 0.31608783E+00</totfact>
</mgrwt>
</event>
<event>
 6    1  0.2581397E-004  0.4686891E+04  0.7818608E-02  0.7878710E-01
          1   -1    0    0  501    0  0.00000000000E+00  0.00000000000E+00  0.29453500301E+04  0.29453500301E+04  0.00000000000E+00 0.  1.
         -1   -1    0    0    0  501 -0.00000000000E+00 -0.00000000000E+00 -0.18645450745E+04  0.18645450745E+04  0.00000000000E+00 0. -1.
         23    2    1    2    0    0 -0.20675752340E+04 -0.40684648192E+03 -0.50974209111E+03  0.21697755399E+04  0.87735317797E+02 0.  0.
         13    1    3    3    0    0 -0.14643704944E+04 -0.32740728365E+03 -0.37274830846E+03  0.15461299349E+04  0.00000000000E+00 0. -1.
        -13    1    3    3    0    0 -0.60320473965E+03 -0.79439198266E+02 -0.13699378265E+03  0.62364560500E+03  0.00000000000E+00 0.  1.
         22    1    1    2    0    0  0.20675752340E+04  0.40684648192E+03  0.15905470467E+04  0.26401195647E+04  0.00000000000E+00 0.  1.
<mgrwt>
<rscale>  0 0.46868915E+04</rscale>
<asrwt>0</asrwt>
<pdfrwt beam="1">  1        1 0.45313077E+00 0.46868915E+04</pdfrwt>
<pdfrwt beam="2">  1       -1 0.28685309E+00 0.46868915E+04</pdfrwt>
<totfact> 0.19480375E-02</totfact>
</mgrwt>
</event>
<event>
 6    1  0.1719556E-004  0.5991459E+04  0.7818608E-02  0.7691462E-01
          2   -1    0    0  501    0  0.00000000000E+00  0.00000000000E+00  0.44014769700E+04  0.44014769700E+04  0.00000000000E+00 0.  1.
         -2   -1    0    0    0  501 -0.00000000000E+00 -0.00000000000E+00 -0.20389506823E+04  0.20389506823E+04  0.00000000000E+00 0. -1.
         23    2    1    2    0    0 -0.28348040987E+04 -0.22584103957E+02  0.14287015482E+03  0.28399418978E+04  0.90740187726E+02 0.  0.
         13    1    3    3    0    0 -0.10629314367E+04 -0.24479917869E+01  0.97156385360E+02  0.10673652585E+04  0.00000000000E+00 0. -1.
        -13    1    3    3    0    0 -0.17718726620E+04 -0.20136112170E+02  0.45713769462E+02  0.17725766393E+04  0.00000000000E+00 0.  1.
         22    1    1    2    0    0  0.28348040987E+04  0.22584103957E+02  0.22196561329E+04  0.36004857545E+04  0.00000000000E+00 0.  1.
<mgrwt>
<rscale>  0 0.59914587E+04</rscale>
<asrwt>0</asrwt>
<pdfrwt beam="1">  1        2 0.67715030E+00 0.59914587E+04</pdfrwt>
<pdfrwt beam="2">  1       -2 0.31368472E+00 0.59914587E+04</pdfrwt>
<totfact> 0.26713267E-03</totfact>
</mgrwt>
</event>
<event>
 6    1  0.1719556E-004  0.1683647E+04  0.7818608E-02  0.8770747E-01
          1   -1    0    0  501    0  0.00000000000E+00  0.00000000000E+00  0.74589209734E+03  0.74589209734E+03  0.00000000000E+00 0.  1.
         -1   -1    0    0    0  501 -0.00000000000E+00 -0.00000000000E+00 -0.95009271528E+03  0.95009271528E+03  0.00000000000E+00 0. -1.
         23    2    1    2    0    0  0.40956862094E+03 -0.24627387509E+03  0.59262264622E+03  0.76683219269E+03  0.91829919480E+02 0.  0.
         13    1    3    3    0    0  0.10246140324E+03 -0.56064481062E+02  0.88005234090E+02  0.14624119261E+03  0.00000000000E+00 0. -1.
        -13    1    3    3    0    0  0.30710721771E+03 -0.19020939403E+03  0.50461741213E+03  0.62059100007E+03  0.00000000000E+00 0.  1.
         22    1    1    2    0    0 -0.40956862094E+03  0.24627387509E+03 -0.79682326416E+03  0.92915261993E+03  0.00000000000E+00 0. -1.
<mgrwt>
<rscale>  0 0.16836468E+04</rscale>
<asrwt>0</asrwt>
<pdfrwt beam="1">  1        1 0.11475263E+00 0.16836468E+04</pdfrwt>
<pdfrwt beam="2">  1       -1 0.14616811E+00 0.16836468E+04</pdfrwt>
<totfact> 0.88050058E+00</totfact>
</mgrwt>
</event>
<event>
 6    1  0.1719556E-004  0.3228927E+04  0.7818608E-02  0.8181219E-01
          2   -1    0    0  501    0  0.00000000000E+00  0.00000000000E+00  0.32910642075E+04  0.32910642075E+04  0.00000000000E+00 0.  1.
         -2   -1    0    0    0  501 -0.00000000000E+00 -0.00000000000E+00 -0.79199073816E+03  0.79199073816E+03  0.00000000000E+00 0. -1.
         23    2    1    2    0    0 -0.94232770845E+02 -0.76255441772E+03 -0.54277549388E+03  0.94566523922E+03  0.96480323514E+02 0.  0.
         11    1    3    3    0    0 -0.69632024324E+02 -0.55375658311E+03 -0.33974211412E+03  0.65339090616E+03  0.00000000000E+00 0.  1.
        -11    1    3    3    0    0 -0.24600746521E+02 -0.20879783461E+03 -0.20303337976E+03  0.29227433306E+03  0.00000000000E+00 0. -1.
         22    1    1    2    0    0  0.94232770845E+02  0.76255441772E+03  0.30418489632E+04  0.31373897064E+04  0.00000000000E+00 0.  1.
<mgrwt>
<rscale>  0 0.32289270E+04</rscale>
<asrwt>0</asrwt>
<pdfrwt beam="1">  1        2 0.50631756E+00 0.32289270E+04</pdfrwt>
<pdfrwt beam="2">  1       -2 0.12184473E+00 0.32289270E+04</pdfrwt>
<totfact> 0.48440633E-01</totfact>
</mgrwt>
</event>
<event>
 6    1  0.1719556E-004  0.1000861E+04  0.7818608E-02  0.9307601E-01
          3   -1    0    0  501    0  0.00000000000E+00  0.00000000000E+00  0.97184253979E+03  0.97184253979E+03  0.00000000000E+00 0.  1.
         -3   -1    0    0    0  501 -0.00000000000E+00 -0.00000000000E+00 -0.25768658777E+03  0.25768658777E+03  0.00000000000E+00 0. -1.
         23    2    1    2    0    0  0.22321715755E+03  0.21446643102E+02  0.90415388927E+03  0.93561574901E+03  0.87159144009E+02 0.  0.
         11    1    3    3    0    0  0.10574278546E+03  0.41074720627E+02  0.56172177543E+03  0.57306197077E+03  0.00000000000E+00 0. -1.
        -11    1    3    3    0    0  0.11747437209E+03 -0.19628077525E+02  0.34243211384E+03  0.36255377824E+03  0.00000000000E+00 0.  1.
         22    1    1    2    0    0 -0.22321715755E+03 -0.21446643102E+02 -0.18999793726E+03  0.29391337855E+03  0.00000000000E+00 0. -1.
<mgrwt>
<rscale>  0 0.10008612E+04</rscale>
<asrwt>0</asrwt>
<pdfrwt beam="1">  1        3 0.14951424E+00 0.10008612E+04</pdfrwt>
<pdfrwt beam="2">  1       -3 0.39644091E-01 0.10008612E+04</pdfrwt>
<totfact> 0.54034439E+00</totfact>
</mgrwt>
</event>
<event>
 6    1  0.1719556E-004  0.2095235E+04  0.7818608E-02  0.8563345E-01
         -1   -1    0    0    0  501 -0.00000000000E+00  0.00000000000E+00  0.86857669229E+03  0.86857669229E+03  0.00000000000E+00 0.  1.
          1   -1    0    0  501    0  0.00000000000E+00 -0.00000000000E+00 -0.12635645824E+04  0.12635645824E+04  0.00000000000E+00 0. -1.
         23    2    1    2    0    0 -0.97416437799E+03 -0.58368842763E+02  0.18426987468E+03  0.99726563603E+03  0.90444485405E+02 0.  0.
         13    1    3    3    0    0 -0.80693704138E+03 -0.26630255883E+02  0.12480970941E+03  0.81696635355E+03  0.00000000000E+00 0.  1.
        -13    1    3    3    0    0 -0.16722733662E+03 -0.31738586880E+02  0.59460165266E+02  0.18029928248E+03  0.00000000000E+00 0. -1.
         22    1    1    2    0    0  0.97416437799E+03  0.58368842763E+02 -0.57925776480E+03  0.11348756387E+04  0.00000000000E+00 0. -1.
<mgrwt>
<rscale>  0 0.20952353E+04</rscale>
<asrwt>0</asrwt>
<pdfrwt beam="1">  1        1 0.19439455E+00 0.20952353E+04</pdfrwt>
<pdfrwt beam="2">  1       -1 0.13362718E+00 0.20952353E+04</pdfrwt>
<totfact> 0.41802347E+00</totfact>
</mgrwt>
</event>
<event>
 6    1  0.1719556E-004  0.1164821E+04  0.7818608E-02  0.9144219E-01
         -2   -1    0    0    0  501 -0.00000000000E+00  0.00000000000E+00  0.24688288276E+03  0.24688288276E+03  0.00000000000E+00 0. -1.
          2   -1    0    0  501    0  0.00000000000E+00 -0.00000000000E+00 -0.13739379481E+04  0.13739379481E+04  0.00000000000E+00 0.  1.
         23    2    1    2    0    0  0.56996415523E+03 -0.68609260573E+02 -0.67182833838E+03  0.88815600858E+03  0.88889878096E+02 0.  0.
         13    1    3    3    0    0  0.34715062379E+03 -0.23595416673E+02 -0.46544770403E+03  0.58112981723E+03  0.00000000000E+00 0.  1.
        -13    1    3    3    0    0  0.22281353144E+03 -0.45013843901E+02 -0.20638063435E+03  0.30702619135E+03  0.00000000000E+00 0. -1.
         22    1    1    2    0    0 -0.56996415523E+03  0.68609260573E+02 -0.45522672698E+03  0.73266482230E+03  0.00000000000E+00 0.  1.
<mgrwt>
<rscale>  0 0.11648206E+04</rscale>
<asrwt>0</asrwt>
<pdfrwt beam="1">  1        2 0.21137507E+00 0.11648206E+04</pdfrwt>
<pdfrwt beam="2">  1       -2 0.37981981E-01 0.11648206E+04</pdfrwt>
<totfact> 0.96849107E+01</totfact>
</mgrwt>
</event>
<event>
 6    1  0.1719556E-004  0.1453816E+04  0.7818608E-02  0.8915759E-01
         -1   -1    0    0    0  501 -0.00000000000E+00  0.00000000000E+00  0.13231134934E+04  0.13231134934E+04  0.00000000000E+00 0.  1.
          1   -1    0    0  501    0  0.00000000000E+00 -0.00000000000E+00 -0.39935750051E+03  0.39935750051E+03  0.00000000000E+00 0. -1.
         23    2    1    2    0    0 -0.94098340266E+01  0.62409527527E+03  0.27587590527E+02  0.63036236241E+03  0.83738731788E+02 0.  0.
         11    1    3    3    0    0 -0.43078481882E+02  0.41870638549E+03  0.43512199784E+01  0.42093910007E+03  0.00000000000E+00 0.  1.
        -11    1    3    3    0    0  0.33668647855E+02  0.20538888978E+03  0.23236370548E+02  0.20942326234E+03  0.00000000000E+00 0. -1.
         22    1    1    2    0    0  0.94098340266E+01 -0.62409527527E+03  0.89616840237E+03  0.10921086315E+04  0.00000000000E+00 0.  1.
<mgrwt>
<rscale>  0 0.14538161E+04</rscale>
<asrwt>0</asrwt>
<pdfrwt beam="1">  1        1 0.61439616E-01 0.14538161E+04</pdfrwt>
<pdfrwt beam="2">  1       -1 0.20355592E+00 0.14538161E+04</pdfrwt>
<totfact> 0.83038839E+00</totfact>
</mgrwt>
</event>
<event>
 6    1  0.1719556E-004  0.1028614E+04  0.7818608E-02  0.9277706E-01
          2   -1    0    0  501    0  0.00000000000E+00  0.00000000000E+00  0.83978087306E+03  0.83978087306E+03  0.00000000000E+00 0. -1.
         -2   -1    0    0    0  501 -0.00000000000E+00 -0.00000000000E+00 -0.31497711322E+03  0.31497711322E+03  0.00000000000E+00 0.  1.
         23    2    1    2    0    0 -0.31659479553E+03  0.39045417240E+03  0.16596374424E+03  0.53713926725E+03  0.91037919104E+02 0.  0.
         13    1    3    3    0    0 -0.34600822033E+02  0.50901327465E+02 -0.92773118953E+01  0.62243317224E+02  0.00000000000E+00 0. -1.
        -13    1    3    3    0    0 -0.28199397350E+03  0.33955284493E+03  0.17524105614E+03  0.47489595002E+03  0.00000000000E+00 0.  1.
         22    1    1    2    0    0  0.31659479553E+03 -0.39045417240E+03  0.35884001561E+03  0.61761871903E+03  0.00000000000E+00 0. -1.
<mgrwt>
<rscale>  0 0.10286141E+04</rscale>
<asrwt>0</asrwt>
<pdfrwt beam="1">  1        2 0.12919706E+00 0.10286141E+04</pdfrwt>
<pdfrwt beam="2">  1       -2 0.48458018E-01 0.10286141E+04</pdfrwt>
<totfact> 0.12972689E+02</totfact>
</mgrwt>
</event>
<event>
 6    1  0.1719556E-004  0.9058549E+03  0.7818608E-02  0.9418292E-01
         -2   -1    0    0    0  501 -0.00000000000E+00  0.00000000000E+00  0.20864498786E+03  0.20864498786E+03  0.00000000000E+00 0. -1.
          2   -1    0    0  501    0  0.00000000000E+00 -0.00000000000E+00 -0.98321697806E+03  0.98321697806E+03  0.00000000000E+00 0.  1.
         23    2    1    2    0    0 -0.41656383716E+03  0.15719767809E+03 -0.32209072545E+03  0.55705818886E+03  0.91295399269E+02 0.  0.
         11    1    3    3    0    0 -0.27740896285E+03  0.13719952165E+03 -0.25634027840E+03  0.40185790988E+03  0.00000000000E+00 0. -1.
        -11    1    3    3    0    0 -0.13915487432E+03  0.19998156444E+02 -0.65750447054E+02  0.15520027898E+03  0.00000000000E+00 0.  1.
         22    1    1    2    0    0  0.41656383716E+03 -0.15719767809E+03 -0.45248126474E+03  0.63480377706E+03  0.00000000000E+00 0. -1.
<mgrwt>
<rscale>  0 0.90585494E+03</rscale>
<asrwt>0</asrwt>
<pdfrwt beam="1">  1        2 0.15126415E+00 0.90585494E+03</pdfrwt>
<pdfrwt beam="2">  1       -2 0.32099229E-01 0.90585494E+03</pdfrwt>
<totfact> 0.23347915E+02</totfact>
</mgrwt>
</event>
<event>
 6    1  0.1719556E-004  0.2116708E+04  0.7818608E-02  0.8553919E-01
          1   -1    0    0  501    0  0.00000000000E+00  0.00000000000E+00  0.14981117190E+04  0.14981117190E+04  0.00000000000E+00 0.  1.
         -1   -1    0    0    0  501 -0.00000000000E+00 -0.00000000000E+00 -0.74768334324E+03  0.74768334324E+03  0.00000000000E+00 0. -1.
         23    2    1    2    0    0 -0.95615018748E+02 -0.96056799642E+03  0.83109302595E+03  0.12771156038E+04  0.92062696394E+02 0.  0.
         13    1    3    3    0    0 -0.78339794554E+02 -0.67351124984E+03  0.52870001979E+03  0.85981290872E+03  0.00000000000E+00 0.  1.
        -13    1    3    3    0    0 -0.17275224194E+02 -0.28705674658E+03  0.30239300615E+03  0.41730269505E+03  0.00000000000E+00 0. -1.
         22    1    1    2    0    0  0.95615018748E+02  0.96056799642E+03 -0.80664650145E+02  0.96867945851E+03  0.00000000000E+00 0.  1.
<mgrwt>
<rscale>  0 0.21167080E+04</rscale>
<asrwt>0</asrwt>
<pdfrwt beam="1">  1        1 0.23047873E+00 0.21167080E+04</pdfrwt>
<pdfrwt beam="2">  1       -1 0.11502821E+00 0.21167080E+04</pdfrwt>
<totfact> 0.41335540E+00</totfact>
</mgrwt>
</event>
<event>
 6    1  0.1719556E-004  0.1452464E+04  0.7818608E-02  0.8916694E-01
          2   -1    0    0  501    0  0.00000000000E+00  0.00000000000E+00  0.21274244525E+04  0.21274244525E+04  0.00000000000E+00 0.  1.
         -2   -1    0    0    0  501 -0.00000000000E+00 -0.00000000000E+00 -0.24791158395E+03  0.24791158395E+03  0.00000000000E+00 0. -1.
         23    2    1    2    0    0 -0.27179681791E+03  0.64076129533E+03  0.12651857083E+04  0.14469792044E+04  0.92765261003E+02 0.  0.
         11    1    3    3    0    0 -0.13272561869E+03  0.30214261879E+03  0.50533170501E+03  0.60354484841E+03  0.00000000000E+00 0. -1.
        -11    1    3    3    0    0 -0.13907119921E+03  0.33861867654E+03  0.75985400325E+03  0.84343435595E+03  0.00000000000E+00 0.  1.
         22    1    1    2    0    0  0.27179681791E+03 -0.64076129533E+03  0.61432716032E+03  0.92835683211E+03  0.00000000000E+00 0. -1.
<mgrwt>
<rscale>  0 0.14524643E+04</rscale>
<asrwt>0</asrwt>
<pdfrwt beam="1">  1        2 0.32729606E+00 0.14524643E+04</pdfrwt>
<pdfrwt beam="2">  1       -2 0.38140245E-01 0.14524643E+04</pdfrwt>
<totfact> 0.35727192E+01</totfact>
</mgrwt>
</event>
<event>
 6    1  0.1719556E-004  0.1906782E+04  0.7818608E-02  0.8651488E-01
          2   -1    0    0  501    0  0.00000000000E+00  0.00000000000E+00  0.16570820955E+04  0.16570820955E+04  0.00000000000E+00 0.  1.
         -2   -1    0    0    0  501 -0.00000000000E+00 -0.00000000000E+00 -0.54852718468E+03  0.54852718468E+03  0.00000000000E+00 0. -1.
         23    2    1    2    0    0 -0.55191957375E+03  0.75783729872E+03  0.37450355865E+03  0.10149103364E+04  0.10419927153E+03 0.  0.
         11    1    3    3    0    0 -0.48405598835E+03  0.71241005879E+03  0.34942694715E+03  0.92948237375E+03  0.00000000000E+00 0. -1.
        -11    1    3    3    0    0 -0.67863585399E+02  0.45427239938E+02  0.25076611497E+02  0.85427962610E+02  0.00000000000E+00 0.  1.
         22    1    1    2    0    0  0.55191957375E+03 -0.75783729872E+03  0.73405135220E+03  0.11906989439E+04  0.00000000000E+00 0. -1.
<mgrwt>
<rscale>  0 0.19067822E+04</rscale>
<asrwt>0</asrwt>
<pdfrwt beam="1">  1        2 0.25493570E+00 0.19067822E+04</pdfrwt>
<pdfrwt beam="2">  1       -2 0.84388799E-01 0.19067822E+04</pdfrwt>
<totfact> 0.11880371E+01</totfact>
</mgrwt>
</event>
<event>
 6    1  0.1719556E-004  0.2227682E+04  0.7818608E-02  0.8506994E-01
         -2   -1    0    0    0  501 -0.00000000000E+00  0.00000000000E+00  0.57557504889E+03  0.57557504889E+03  0.00000000000E+00 0. -1.
          2   -1    0    0  501    0  0.00000000000E+00 -0.00000000000E+00 -0.21554826663E+04  0.21554826663E+04  0.00000000000E+00 0.  1.
         23    2    1    2    0    0  0.67797864652E+03  0.84116729517E+03 -0.47007143245E+03  0.11822020663E+04  0.97041797047E+02 0.  0.
         11    1    3    3    0    0  0.34592299608E+03  0.40164999670E+03 -0.18114764640E+03  0.56017846162E+03  0.00000000000E+00 0. -1.
        -11    1    3    3    0    0  0.33205565044E+03  0.43951729847E+03 -0.28892378605E+03  0.62202360469E+03  0.00000000000E+00 0.  1.
         22    1    1    2    0    0 -0.67797864652E+03 -0.84116729517E+03 -0.11098361850E+04  0.15488556489E+04  0.00000000000E+00 0.  1.
<mgrwt>
<rscale>  0 0.22276822E+04</rscale>
<asrwt>0</asrwt>
<pdfrwt beam="1">  1        2 0.33161271E+00 0.22276822E+04</pdfrwt>
<pdfrwt beam="2">  1       -2 0.88550009E-01 0.22276822E+04</pdfrwt>
<totfact> 0.54723685E+00</totfact>
</mgrwt>
</event>
<event>
 6    1  0.1719556E-004  0.7956693E+03  0.7818608E-02  0.9566307E-01
         -2   -1    0    0    0  501 -0.00000000000E+00  0.00000000000E+00  0.18238913857E+03  0.18238913857E+03  0.00000000000E+00 0. -1.
          2   -1    0    0  501    0  0.00000000000E+00 -0.00000000000E+00 -0.86777316302E+03  0.86777316302E+03  0.00000000000E+00 0.  1.
         23    2    1    2    0    0 -0.53695060826E+02 -0.20205747465E+03  0.91209645410E+02  0.24591848863E+03  0.91903868349E+02 0.  0.
         11    1    3    3    0    0  0.25505668538E+02 -0.60845513372E+02  0.33849527225E+02  0.74151912440E+02  0.00000000000E+00 0.  1.
        -11    1    3    3    0    0 -0.79200729364E+02 -0.14121196128E+03  0.57360118184E+02  0.17176657619E+03  0.00000000000E+00 0. -1.
         22    1    1    2    0    0  0.53695060826E+02  0.20205747465E+03 -0.77659366986E+03  0.80424381296E+03  0.00000000000E+00 0.  1.
<mgrwt>
<rscale>  0 0.79566928E+03</rscale>
<asrwt>0</asrwt>
<pdfrwt beam="1">  1        2 0.13350356E+00 0.79566928E+03</pdfrwt>
<pdfrwt beam="2">  1       -2 0.28059868E-01 0.79566928E+03</pdfrwt>
<totfact> 0.35966468E+02</totfact>
</mgrwt>
</event>
<event>
 6    1  0.1719556E-004  0.2877589E+04  0.7818608E-02  0.8279577E-01
          1   -1    0    0  501    0  0.00000000000E+00  0.00000000000E+00  0.11044587569E+04  0.11044587569E+04  0.00000000000E+00 0. -1.
         -1   -1    0    0    0  501 -0.00000000000E+00 -0.00000000000E+00 -0.18743384626E+04  0.18743384626E+04  0.00000000000E+00 0.  1.
         23    2    1    2    0    0 -0.27832055215E+03  0.58239784251E+03 -0.17148219679E+04  0.18344347527E+04  0.88808241725E+02 0.  0.
         13    1    3    3    0    0 -0.55008876740E+02  0.17915426008E+03 -0.41673240247E+03  0.45693338759E+03  0.00000000000E+00 0.  1.
        -13    1    3    3    0    0 -0.22331167541E+03  0.40324358243E+03 -0.12980895654E+04  0.13775013651E+04  0.00000000000E+00 0. -1.
         22    1    1    2    0    0  0.27832055215E+03 -0.58239784251E+03  0.94494226213E+03  0.11443624668E+04  0.00000000000E+00 0. -1.
<mgrwt>
<rscale>  0 0.28775889E+04</rscale>
<asrwt>0</asrwt>
<pdfrwt beam="1">  1        1 0.16991673E+00 0.28775889E+04</pdfrwt>
<pdfrwt beam="2">  1       -1 0.28835976E+00 0.28775889E+04</pdfrwt>
<totfact> 0.42507528E-01</totfact>
</mgrwt>
</event>
<event>
 6    1  0.1719556E-004  0.4154815E+04  0.7818608E-02  0.7974023E-01
          2   -1    0    0  501    0  0.00000000000E+00  0.00000000000E+00  0.20397176178E+04  0.20397176178E+04  0.00000000000E+00 0.  1.
         -2   -1    0    0    0  501 -0.00000000000E+00 -0.00000000000E+00 -0.21157934692E+04  0.21157934692E+04  0.00000000000E+00 0. -1.
         23    2    1    2    0    0 -0.19565842712E+04 -0.67435292407E+03 -0.20669633123E+03  0.20818583712E+04  0.91853295766E+02 0.  0.
         13    1    3    3    0    0 -0.70670290069E+03 -0.22364742227E+03 -0.34059193412E+02  0.74202910184E+03  0.00000000000E+00 0. -1.
        -13    1    3    3    0    0 -0.12498813705E+04 -0.45070550179E+03 -0.17263713781E+03  0.13398292693E+04  0.00000000000E+00 0.  1.
         22    1    1    2    0    0  0.19565842712E+04  0.67435292407E+03  0.13062047979E+03  0.20736527159E+04  0.00000000000E+00 0. -1.
<mgrwt>
<rscale>  0 0.41548147E+04</rscale>
<asrwt>0</asrwt>
<pdfrwt beam="1">  1        2 0.31380271E+00 0.41548147E+04</pdfrwt>
<pdfrwt beam="2">  1       -2 0.32550669E+00 0.41548147E+04</pdfrwt>
<totfact> 0.10949743E-01</totfact>
</mgrwt>
</event>
<event>
 6    1  0.1719556E-004  0.1674311E+04  0.7818608E-02  0.8776153E-01
         -2   -1    0    0    0  501 -0.00000000000E+00  0.00000000000E+00  0.30696244377E+03  0.30696244377E+03  0.00000000000E+00 0. -1.
          2   -1    0    0  501    0  0.00000000000E+00 -0.00000000000E+00 -0.22831122012E+04  0.22831122012E+04  0.00000000000E+00 0.  1.
         23    2    1    2    0    0  0.64023464710E+03 -0.24287045520E+03 -0.17293225564E+04  0.18621940720E+04  0.91234842412E+02 0.  0.
         11    1    3    3    0    0  0.44191888586E+03 -0.12397298154E+03 -0.11129000986E+04  0.12038306489E+04  0.00000000000E+00 0. -1.
        -11    1    3    3    0    0  0.19831576124E+03 -0.11889747366E+03 -0.61642245776E+03  0.65836342307E+03  0.00000000000E+00 0.  1.
         22    1    1    2    0    0 -0.64023464710E+03  0.24287045520E+03 -0.24682720107E+03  0.72788057299E+03  0.00000000000E+00 0. -1.
<mgrwt>
<rscale>  0 0.16743114E+04</rscale>
<asrwt>0</asrwt>
<pdfrwt beam="1">  1        2 0.35124803E+00 0.16743114E+04</pdfrwt>
<pdfrwt beam="2">  1       -2 0.47224992E-01 0.16743114E+04</pdfrwt>
<totfact> 0.18795916E+01</totfact>
</mgrwt>
</event>
<event>
 6    1  0.1719556E-004  0.2943623E+04  0.7818608E-02  0.8260015E-01
         -2   -1    0    0    0  501 -0.00000000000E+00  0.00000000000E+00  0.72256064605E+03  0.72256064605E+03  0.00000000000E+00 0. -1.
          2   -1    0    0  501    0  0.00000000000E+00 -0.00000000000E+00 -0.29979896279E+04  0.29979896279E+04  0.00000000000E+00 0.  1.
         23    2    1    2    0    0  0.12303615932E+04  0.57833015500E+03 -0.18466664207E+04  0.22950353663E+04  0.93568398942E+02 0.  0.
         13    1    3    3    0    0  0.59385654272E+03  0.32823309918E+03 -0.89502399881E+03  0.11231520463E+04  0.00000000000E+00 0. -1.
        -13    1    3    3    0    0  0.63650505045E+03  0.25009705582E+03 -0.95164242185E+03  0.11718833200E+04  0.00000000000E+00 0.  1.
         22    1    1    2    0    0 -0.12303615932E+04 -0.57833015500E+03 -0.42876256123E+03  0.14255149077E+04  0.00000000000E+00 0. -1.
<mgrwt>
<rscale>  0 0.29436232E+04</rscale>
<asrwt>0</asrwt>
<pdfrwt beam="1">  1        2 0.46122917E+00 0.29436232E+04</pdfrwt>
<pdfrwt beam="2">  1       -2 0.11116318E+00 0.29436232E+04</pdfrwt>
<totfact> 0.96125511E-01</totfact>
</mgrwt>
</event>
<event>
 6    1  0.1719556E-004  0.4374753E+04  0.7818608E-02  0.7932938E-01
          2   -1    0    0  501    0  0.00000000000E+00  0.00000000000E+00  0.20812450858E+04  0.20812450858E+04  0.00000000000E+00 0.  1.
         -2   -1    0    0    0  501 -0.00000000000E+00 -0.00000000000E+00 -0.22989198830E+04  0.22989198830E+04  0.00000000000E+00 0. -1.
         23    2    1    2    0    0  0.14515652597E+04  0.16290376370E+04  0.29368702618E+02  0.21842970727E+04  0.97395355761E+02 0.  0.
         11    1    3    3    0    0  0.26644396039E+03  0.35424490973E+03  0.19512007727E+02  0.44369196357E+03  0.00000000000E+00 0. -1.
        -11    1    3    3    0    0  0.11851212993E+04  0.12747927273E+04  0.98566948914E+01  0.17406051092E+04  0.00000000000E+00 0.  1.
         22    1    1    2    0    0 -0.14515652597E+04 -0.16290376370E+04 -0.24704349986E+03  0.21958678960E+04  0.00000000000E+00 0.  1.
<mgrwt>
<rscale>  0 0.43747529E+04</rscale>
<asrwt>0</asrwt>
<pdfrwt beam="1">  1        2 0.32019155E+00 0.43747529E+04</pdfrwt>
<pdfrwt beam="2">  1       -2 0.35367998E+00 0.43747529E+04</pdfrwt>
<totfact> 0.67940122E-02</totfact>
</mgrwt>
</event>
<event>
 6    1  0.1719556E-004  0.8167436E+03  0.7818608E-02  0.9536093E-01
         -2   -1    0    0    0  501 -0.00000000000E+00  0.00000000000E+00  0.15566937807E+04  0.15566937807E+04  0.00000000000E+00 0. -1.
          2   -1    0    0  501    0  0.00000000000E+00 -0.00000000000E+00 -0.10712930834E+03  0.10712930834E+03  0.00000000000E+00 0.  1.
         23    2    1    2    0    0  0.26781750834E+03 -0.10861186892E+03  0.16021410909E+03  0.34248016796E+03  0.90007493294E+02 0.  0.
         11    1    3    3    0    0  0.75594774387E+02 -0.71594436579E+02  0.78319894320E+02  0.13028560592E+03  0.00000000000E+00 0.  1.
        -11    1    3    3    0    0  0.19222273395E+03 -0.37017432337E+02  0.81894214772E+02  0.21219456204E+03  0.00000000000E+00 0. -1.
         22    1    1    2    0    0 -0.26781750834E+03  0.10861186892E+03  0.12893503632E+04  0.13213429211E+04  0.00000000000E+00 0. -1.
<mgrwt>
<rscale>  0 0.81674360E+03</rscale>
<asrwt>0</asrwt>
<pdfrwt beam="1">  1        2 0.16481433E-01 0.81674360E+03</pdfrwt>
<pdfrwt beam="2">  1       -2 0.23949133E+00 0.81674360E+03</pdfrwt>
<totfact> 0.27225819E+01</totfact>
</mgrwt>
</event>
<event>
 6    1  0.1719556E-004  0.3441605E+04  0.7818608E-02  0.8127770E-01
         -1   -1    0    0    0  501 -0.00000000000E+00  0.00000000000E+00  0.11611413183E+04  0.11611413183E+04  0.00000000000E+00 0.  1.
          1   -1    0    0  501    0  0.00000000000E+00 -0.00000000000E+00 -0.25502163409E+04  0.25502163409E+04  0.00000000000E+00 0. -1.
         23    2    1    2    0    0 -0.90604582686E+03 -0.43795188573E+03  0.80871546946E+03  0.12941270245E+04  0.89572040222E+02 0.  0.
         11    1    3    3    0    0 -0.19767325225E+03 -0.12482246435E+03  0.15367499691E+03  0.27977020380E+03  0.00000000000E+00 0.  1.
        -11    1    3    3    0    0 -0.70837257461E+03 -0.31312942138E+03  0.65504047256E+03  0.10143568207E+04  0.00000000000E+00 0. -1.
         22    1    1    2    0    0  0.90604582686E+03  0.43795188573E+03 -0.21977904920E+04  0.24172306347E+04  0.00000000000E+00 0. -1.
<mgrwt>
<rscale>  0 0.34416052E+04</rscale>
<asrwt>0</asrwt>
<pdfrwt beam="1">  1        1 0.39234098E+00 0.34416052E+04</pdfrwt>
<pdfrwt beam="2">  1       -1 0.17863713E+00 0.34416052E+04</pdfrwt>
<totfact> 0.21809859E-01</totfact>
</mgrwt>
</event>
<event>
 6    1  0.1719556E-004  0.2249284E+04  0.7818608E-02  0.8498191E-01
          1   -1    0    0  501    0  0.00000000000E+00  0.00000000000E+00  0.89496345117E+03  0.89496345117E+03  0.00000000000E+00 0.  1.
         -1   -1    0    0    0  501 -0.00000000000E+00 -0.00000000000E+00 -0.14132635971E+04  0.14132635971E+04  0.00000000000E+00 0. -1.
         23    2    1    2    0    0  0.46645907842E+03 -0.46077695844E+02  0.78737450980E+03  0.92096588593E+03  0.92262226693E+02 0.  0.
         11    1    3    3    0    0  0.20042355899E+03  0.31932579462E+01  0.41282316539E+03  0.45891476962E+03  0.00000000000E+00 0.  1.
        -11    1    3    3    0    0  0.26603551942E+03 -0.49270953790E+02  0.37455134442E+03  0.46205111631E+03  0.00000000000E+00 0. -1.
         22    1    1    2    0    0 -0.46645907842E+03  0.46077695844E+02 -0.13056746557E+04  0.13872611623E+04  0.00000000000E+00 0. -1.
<mgrwt>
<rscale>  0 0.22492837E+04</rscale>
<asrwt>0</asrwt>
<pdfrwt beam="1">  1        1 0.13768669E+00 0.22492837E+04</pdfrwt>
<pdfrwt beam="2">  1       -1 0.21742517E+00 0.22492837E+04</pdfrwt>
<totfact> 0.19098442E+00</totfact>
</mgrwt>
</event>
<event>
 6    1  0.1719556E-004  0.3009761E+04  0.7818608E-02  0.8240949E-01
         -1   -1    0    0    0  501 -0.00000000000E+00  0.00000000000E+00  0.84636654865E+03  0.84636654865E+03  0.00000000000E+00 0. -1.
          1   -1    0    0  501    0  0.00000000000E+00 -0.00000000000E+00 -0.26757500822E+04  0.26757500822E+04  0.00000000000E+00 0.  1.
         23    2    1    2    0    0 -0.78203675164E+03 -0.60077918491E+03 -0.22436339004E+04  0.24524809562E+04  0.90844106739E+02 0.  0.
         11    1    3    3    0    0 -0.36877302162E+03 -0.25551465299E+03 -0.11181757525E+04  0.12048229301E+04  0.00000000000E+00 0. -1.
        -11    1    3    3    0    0 -0.41326373002E+03 -0.34526453192E+03 -0.11254581479E+04  0.12476580261E+04  0.00000000000E+00 0.  1.
         22    1    1    2    0    0  0.78203675164E+03  0.60077918491E+03  0.41425036687E+03  0.10696356746E+04  0.00000000000E+00 0. -1.
<mgrwt>
<rscale>  0 0.30097610E+04</rscale>
<asrwt>0</asrwt>
<pdfrwt beam="1">  1        1 0.41165386E+00 0.30097610E+04</pdfrwt>
<pdfrwt beam="2">  1       -1 0.13021024E+00 0.30097610E+04</pdfrwt>
<totfact> 0.43819430E-01</totfact>
</mgrwt>
</event>
<event>
 6    1  0.1719556E-004  0.1791113E+04  0.7818608E-02  0.8711040E-01
          1   -1    0    0  501    0  0.00000000000E+00  0.00000000000E+00  0.16457486008E+04  0.16457486008E+04  0.00000000000E+00 0.  1.
         -1   -1    0    0    0  501 -0.00000000000E+00 -0.00000000000E+00 -0.48732925713E+03  0.48732925713E+03  0.00000000000E+00 0. -1.
         23    2    1    2    0    0 -0.38229239906E+03 -0.44767415184E+03  0.13807338511E+04  0.15038057666E+04  0.91903163722E+02 0.  0.
         11    1    3    3    0    0 -0.68360602368E+02 -0.88684682444E+02  0.36304678309E+03  0.37992250732E+03  0.00000000000E+00 0. -1.
        -11    1    3    3    0    0 -0.31393179669E+03 -0.35898946940E+03  0.10176870680E+04  0.11238832593E+04  0.00000000000E+00 0.  1.
         22    1    1    2    0    0  0.38229239906E+03  0.44767415184E+03 -0.22231450750E+03  0.62927209127E+03  0.00000000000E+00 0. -1.
<mgrwt>
<rscale>  0 0.17911130E+04</rscale>
<asrwt>0</asrwt>
<pdfrwt beam="1">  1        1 0.25319209E+00 0.17911130E+04</pdfrwt>
<pdfrwt beam="2">  1       -1 0.74973733E-01 0.17911130E+04</pdfrwt>
<totfact> 0.87701661E+00</totfact>
</mgrwt>
</event>
<event>
 6    1  0.1719556E-004  0.2362328E+04  0.7818608E-02  0.8453743E-01
          1   -1    0    0  501    0  0.00000000000E+00  0.00000000000E+00  0.11647822970E+04  0.11647822970E+04  0.00000000000E+00 0.  1.
         -1   -1    0    0    0  501 -0.00000000000E+00 -0.00000000000E+00 -0.11977764310E+04  0.11977764310E+04  0.00000000000E+00 0. -1.
         23    2    1    2    0    0 -0.82898420746E+03 -0.74115990977E+03  0.37617226652E+03  0.11776747795E+04  0.94231014704E+02 0.  0.
         13    1    3    3    0    0 -0.84718089251E+02 -0.11388837233E+03  0.34216949864E+02  0.14600861501E+03  0.00000000000E+00 0. -1.
        -13    1    3    3    0    0 -0.74426611820E+03 -0.62727153744E+03  0.34195531666E+03  0.10316661645E+04  0.00000000000E+00 0.  1.
         22    1    1    2    0    0  0.82898420746E+03  0.74115990977E+03 -0.40916640051E+03  0.11848839485E+04  0.00000000000E+00 0. -1.
<mgrwt>
<rscale>  0 0.23623283E+04</rscale>
<asrwt>0</asrwt>
<pdfrwt beam="1">  1        1 0.17919728E+00 0.23623283E+04</pdfrwt>
<pdfrwt beam="2">  1       -1 0.18427330E+00 0.23623283E+04</pdfrwt>
<totfact> 0.19780457E+00</totfact>
</mgrwt>
</event>
<event>
 6    1  0.1719556E-004  0.2737841E+04  0.7818608E-02  0.8322830E-01
         -2   -1    0    0    0  501 -0.00000000000E+00  0.00000000000E+00  0.14933711619E+04  0.14933711619E+04  0.00000000000E+00 0. -1.
          2   -1    0    0  501    0  0.00000000000E+00 -0.00000000000E+00 -0.12548407726E+04  0.12548407726E+04  0.00000000000E+00 0.  1.
         23    2    1    2    0    0 -0.11741963006E+04 -0.69782925924E+03  0.59141109005E+02  0.13705751386E+04  0.96311537912E+02 0.  0.
         13    1    3    3    0    0 -0.10322738253E+03 -0.58958499700E+02 -0.21971145822E+02  0.12089139109E+03  0.00000000000E+00 0.  1.
        -13    1    3    3    0    0 -0.10709689181E+04 -0.63887075954E+03  0.81112254827E+02  0.12496837475E+04  0.00000000000E+00 0. -1.
         22    1    1    2    0    0  0.11741963006E+04  0.69782925924E+03  0.17938928023E+03  0.13776367959E+04  0.00000000000E+00 0.  1.
<mgrwt>
<rscale>  0 0.27378408E+04</rscale>
<asrwt>0</asrwt>
<pdfrwt beam="1">  1        2 0.19305243E+00 0.27378408E+04</pdfrwt>
<pdfrwt beam="2">  1       -2 0.22974941E+00 0.27378408E+04</pdfrwt>
<totfact> 0.13187048E+00</totfact>
</mgrwt>
</event>
<event>
 6    1  0.1821928E-004  0.3139626E+04  0.7818608E-02  0.8204946E-01
         -1   -1    0    0    0  501 -0.00000000000E+00  0.00000000000E+00  0.20979992819E+04  0.20979992819E+04  0.00000000000E+00 0.  1.
          1   -1    0    0  501    0  0.00000000000E+00 -0.00000000000E+00 -0.11746013027E+04  0.11746013027E+04  0.00000000000E+00 0. -1.
         23    2    1    2    0    0  0.11656107484E+04 -0.10492359879E+04  0.43796767596E+03  0.16308980676E+04  0.92023076249E+02 0.  0.
         11    1    3    3    0    0  0.28119037369E+03 -0.20548095139E+03  0.11208490096E+03  0.36585990852E+03  0.00000000000E+00 0.  1.
        -11    1    3    3    0    0  0.88442037475E+03 -0.84375503647E+03  0.32588277500E+03  0.12650381591E+04  0.00000000000E+00 0. -1.
         22    1    1    2    0    0 -0.11656107484E+04  0.10492359879E+04  0.48543030330E+03  0.16417025170E+04  0.00000000000E+00 0.  1.
<mgrwt>
<rscale>  0 0.31396259E+04</rscale>
<asrwt>0</asrwt>
<pdfrwt beam="1">  1        1 0.18070789E+00 0.31396259E+04</pdfrwt>
<pdfrwt beam="2">  1       -1 0.32276912E+00 0.31396259E+04</pdfrwt>
<totfact> 0.22018228E-01</totfact>
</mgrwt>
</event>
<event>
 6    1  0.1719556E-004  0.1786717E+04  0.7818608E-02  0.8713395E-01
         -1   -1    0    0    0  501 -0.00000000000E+00  0.00000000000E+00  0.24134366111E+03  0.24134366111E+03  0.00000000000E+00 0. -1.
          1   -1    0    0  501    0  0.00000000000E+00 -0.00000000000E+00 -0.33068589297E+04  0.33068589297E+04  0.00000000000E+00 0.  1.
         23    2    1    2    0    0 -0.23118867292E+02 -0.80986906910E+03 -0.80030352277E+03  0.11424580814E+04  0.91117221790E+02 0.  0.
         13    1    3    3    0    0 -0.39153995795E+02 -0.34232298376E+03 -0.29203628014E+03  0.45166718889E+03  0.00000000000E+00 0.  1.
        -13    1    3    3    0    0  0.16035128503E+02 -0.46754608534E+03 -0.50826724262E+03  0.69079089252E+03  0.00000000000E+00 0. -1.
         22    1    1    2    0    0  0.23118867292E+02  0.80986906910E+03 -0.22652117458E+04  0.24057445094E+04  0.00000000000E+00 0.  1.
<mgrwt>
<rscale>  0 0.17867170E+04</rscale>
<asrwt>0</asrwt>
<pdfrwt beam="1">  1        1 0.50874749E+00 0.17867170E+04</pdfrwt>
<pdfrwt beam="2">  1       -1 0.37129797E-01 0.17867170E+04</pdfrwt>
<totfact> 0.23373959E+00</totfact>
</mgrwt>
</event>
<event>
 6    1  0.1719556E-004  0.2346017E+04  0.7818608E-02  0.8459995E-01
         -2   -1    0    0    0  501 -0.00000000000E+00  0.00000000000E+00  0.13180973673E+04  0.13180973673E+04  0.00000000000E+00 0. -1.
          2   -1    0    0  501    0  0.00000000000E+00 -0.00000000000E+00 -0.10438899423E+04  0.10438899423E+04  0.00000000000E+00 0.  1.
         23    2    1    2    0    0  0.10093028571E+04  0.53730163052E+03  0.39266839285E+03  0.12124577100E+04  0.92086548866E+02 0.  0.
         11    1    3    3    0    0  0.23034254234E+03  0.16436650945E+03  0.11252868863E+03  0.30452707927E+03  0.00000000000E+00 0. -1.
        -11    1    3    3    0    0  0.77896031471E+03  0.37293512107E+03  0.28013970422E+03  0.90793063078E+03  0.00000000000E+00 0.  1.
         22    1    1    2    0    0 -0.10093028571E+04 -0.53730163052E+03 -0.11846096778E+03  0.11495295996E+04  0.00000000000E+00 0. -1.
<mgrwt>
<rscale>  0 0.23460167E+04</rscale>
<asrwt>0</asrwt>
<pdfrwt beam="1">  1        2 0.16059845E+00 0.23460167E+04</pdfrwt>
<pdfrwt beam="2">  1       -2 0.20278421E+00 0.23460167E+04</pdfrwt>
<totfact> 0.27198714E+00</totfact>
</mgrwt>
</event>
<event>
 6    1  0.1719556E-004  0.2343256E+04  0.7818608E-02  0.8461058E-01
         -1   -1    0    0    0  501 -0.00000000000E+00  0.00000000000E+00  0.78712196268E+03  0.78712196268E+03  0.00000000000E+00 0. -1.
          1   -1    0    0  501    0  0.00000000000E+00 -0.00000000000E+00 -0.17439644061E+04  0.17439644061E+04  0.00000000000E+00 0.  1.
         23    2    1    2    0    0 -0.41453580215E+03 -0.29383604696E+02 -0.16604272583E+04  0.17139358812E+04  0.88623910178E+02 0.  0.
         13    1    3    3    0    0 -0.17167596453E+03 -0.22454548692E+02 -0.86800338553E+03  0.88510266119E+03  0.00000000000E+00 0. -1.
        -13    1    3    3    0    0 -0.24285983761E+03 -0.69290560048E+01 -0.79242387275E+03  0.82883322005E+03  0.00000000000E+00 0.  1.
         22    1    1    2    0    0  0.41453580215E+03  0.29383604696E+02  0.70358481490E+03  0.81715048751E+03  0.00000000000E+00 0. -1.
<mgrwt>
<rscale>  0 0.23432564E+04</rscale>
<asrwt>0</asrwt>
<pdfrwt beam="1">  1        1 0.26830222E+00 0.23432564E+04</pdfrwt>
<pdfrwt beam="2">  1       -1 0.12109569E+00 0.23432564E+04</pdfrwt>
<totfact> 0.24247613E+00</totfact>
</mgrwt>
</event>
<event>
 6    1  0.1719556E-004  0.2082249E+04  0.7818608E-02  0.8569103E-01
          2   -1    0    0  501    0  0.00000000000E+00  0.00000000000E+00  0.33093115068E+03  0.33093115068E+03  0.00000000000E+00 0.  1.
         -2   -1    0    0    0  501 -0.00000000000E+00 -0.00000000000E+00 -0.32754255211E+04  0.32754255211E+04  0.00000000000E+00 0. -1.
         23    2    1    2    0    0 -0.25740686884E+03  0.91195254967E+03 -0.22136540284E+04  0.24096765330E+04  0.91438981898E+02 0.  0.
         11    1    3    3    0    0 -0.35813745488E+02  0.19613481865E+03 -0.38810576243E+03  0.43632278680E+03  0.00000000000E+00 0. -1.
        -11    1    3    3    0    0 -0.22159312335E+03  0.71581773102E+03 -0.18255482660E+04  0.19733537462E+04  0.00000000000E+00 0.  1.
         22    1    1    2    0    0  0.25740686884E+03 -0.91195254967E+03 -0.73084034201E+03  0.11966801388E+04  0.00000000000E+00 0.  1.
<mgrwt>
<rscale>  0 0.20822491E+04</rscale>
<asrwt>0</asrwt>
<pdfrwt beam="1">  1        2 0.50912486E-01 0.20822491E+04</pdfrwt>
<pdfrwt beam="2">  1       -2 0.50391160E+00 0.20822491E+04</pdfrwt>
<totfact> 0.14110303E-01</totfact>
</mgrwt>
</event>
<event>
 6    1  0.2302433E-004  0.3182517E+04  0.7818608E-02  0.8193450E-01
          1   -1    0    0  501    0  0.00000000000E+00  0.00000000000E+00  0.11965097031E+04  0.11965097031E+04  0.00000000000E+00 0.  1.
         -1   -1    0    0    0  501 -0.00000000000E+00 -0.00000000000E+00 -0.21162422321E+04  0.21162422321E+04  0.00000000000E+00 0. -1.
         23    2    1    2    0    0 -0.78297289395E+03  0.13749334087E+04 -0.62307892498E+03  0.17029408308E+04  0.91058746354E+02 0.  0.
         13    1    3    3    0    0 -0.31604719186E+03  0.46881840443E+03 -0.21247155387E+03  0.60400387832E+03  0.00000000000E+00 0. -1.
        -13    1    3    3    0    0 -0.46692570209E+03  0.90611500430E+03 -0.41060737110E+03  0.10989369525E+04  0.00000000000E+00 0.  1.
         22    1    1    2    0    0  0.78297289395E+03 -0.13749334087E+04 -0.29665360404E+03  0.16098111044E+04  0.00000000000E+00 0. -1.
<mgrwt>
<rscale>  0 0.31825175E+04</rscale>
<asrwt>0</asrwt>
<pdfrwt beam="1">  1        1 0.18407842E+00 0.31825175E+04</pdfrwt>
<pdfrwt beam="2">  1       -1 0.32557573E+00 0.31825175E+04</pdfrwt>
<totfact> 0.20263419E-01</totfact>
</mgrwt>
</event>
<event>
 6    1  0.1719556E-004  0.3289663E+04  0.7818608E-02  0.8165531E-01
         -2   -1    0    0    0  501 -0.00000000000E+00  0.00000000000E+00  0.20129859446E+04  0.20129859446E+04  0.00000000000E+00 0. -1.
          2   -1    0    0  501    0  0.00000000000E+00 -0.00000000000E+00 -0.13440088301E+04  0.13440088301E+04  0.00000000000E+00 0.  1.
         23    2    1    2    0    0  0.23398007743E+03 -0.82980943401E+03  0.17627588591E+04  0.19642676378E+04  0.87739295870E+02 0.  0.
         13    1    3    3    0    0  0.12906674410E+03 -0.60109919270E+03  0.12695446796E+04  0.14105751158E+04  0.00000000000E+00 0.  1.
        -13    1    3    3    0    0  0.10491333333E+03 -0.22871024131E+03  0.49321417952E+03  0.55369252195E+03  0.00000000000E+00 0. -1.
         22    1    1    2    0    0 -0.23398007743E+03  0.82980943401E+03 -0.10937817445E+04  0.13927271370E+04  0.00000000000E+00 0.  1.
<mgrwt>
<rscale>  0 0.32896631E+04</rscale>
<asrwt>0</asrwt>
<pdfrwt beam="1">  1        2 0.20677059E+00 0.32896631E+04</pdfrwt>
<pdfrwt beam="2">  1       -2 0.30969015E+00 0.32896631E+04</pdfrwt>
<totfact> 0.36104237E-01</totfact>
</mgrwt>
</event>
<event>
 6    1  0.1719556E-004  0.3361655E+04  0.7818608E-02  0.8147382E-01
          2   -1    0    0  501    0  0.00000000000E+00  0.00000000000E+00  0.20357577143E+04  0.20357577143E+04  0.00000000000E+00 0.  1.
         -2   -1    0    0    0  501 -0.00000000000E+00 -0.00000000000E+00 -0.13877784430E+04  0.13877784430E+04  0.00000000000E+00 0. -1.
         23    2    1    2    0    0  0.88453046595E+03  0.27228841724E+03  0.17512222519E+04  0.19835083099E+04  0.10483659945E+03 0.  0.
         13    1    3    3    0    0  0.17344831551E+03  0.96005298946E+02  0.34545826667E+03  0.39829982374E+03  0.00000000000E+00 0. -1.
        -13    1    3    3    0    0  0.71108215043E+03  0.17628311830E+03  0.14057639852E+04  0.15852084861E+04  0.00000000000E+00 0.  1.
         22    1    1    2    0    0 -0.88453046595E+03 -0.27228841724E+03 -0.11032429805E+04  0.14400278474E+04  0.00000000000E+00 0. -1.
<mgrwt>
<rscale>  0 0.33616548E+04</rscale>
<asrwt>0</asrwt>
<pdfrwt beam="1">  1        2 0.31319350E+00 0.33616548E+04</pdfrwt>
<pdfrwt beam="2">  1       -2 0.21350437E+00 0.33616548E+04</pdfrwt>
<totfact> 0.57662872E-01</totfact>
</mgrwt>
</event>
<event>
 6    1  0.1719556E-004  0.2181798E+04  0.7818608E-02  0.8526043E-01
          2   -1    0    0  501    0  0.00000000000E+00  0.00000000000E+00  0.27039860253E+04  0.27039860253E+04  0.00000000000E+00 0.  1.
         -2   -1    0    0    0  501 -0.00000000000E+00 -0.00000000000E+00 -0.44011333070E+03  0.44011333070E+03  0.00000000000E+00 0. -1.
         23    2    1    2    0    0  0.47843399691E+03  0.97111771337E+03  0.13041149829E+04  0.16973431333E+04  0.91044610178E+02 0.  0.
         13    1    3    3    0    0  0.82398194019E+02  0.25210596781E+03  0.33579494799E+03  0.42790785045E+03  0.00000000000E+00 0.  1.
        -13    1    3    3    0    0  0.39603580289E+03  0.71901174556E+03  0.96832003489E+03  0.12694352829E+04  0.00000000000E+00 0. -1.
         22    1    1    2    0    0 -0.47843399691E+03 -0.97111771337E+03  0.95975771171E+03  0.14467562227E+04  0.00000000000E+00 0.  1.
<mgrwt>
<rscale>  0 0.21817977E+04</rscale>
<asrwt>0</asrwt>
<pdfrwt beam="1">  1        2 0.41599784E+00 0.21817977E+04</pdfrwt>
<pdfrwt beam="2">  1       -2 0.67709745E-01 0.21817977E+04</pdfrwt>
<totfact> 0.48343518E+00</totfact>
</mgrwt>
</event>
<event>
 6    1  0.1719556E-004  0.2310603E+04  0.7818608E-02  0.8473752E-01
          1   -1    0    0  501    0  0.00000000000E+00  0.00000000000E+00  0.11047947772E+04  0.11047947772E+04  0.00000000000E+00 0. -1.
         -1   -1    0    0    0  501 -0.00000000000E+00 -0.00000000000E+00 -0.12081173492E+04  0.12081173492E+04  0.00000000000E+00 0.  1.
         23    2    1    2    0    0  0.75039226220E+03 -0.39070725664E+03 -0.83655365056E+03  0.11933727023E+04  0.92605014233E+02 0.  0.
         13    1    3    3    0    0  0.44431451791E+03 -0.18714187740E+03 -0.50788698939E+03  0.70027613632E+03  0.00000000000E+00 0. -1.
        -13    1    3    3    0    0  0.30607774429E+03 -0.20356537925E+03 -0.32866666116E+03  0.49309656594E+03  0.00000000000E+00 0.  1.
         22    1    1    2    0    0 -0.75039226220E+03  0.39070725664E+03  0.73323107864E+03  0.11195394242E+04  0.00000000000E+00 0. -1.
<mgrwt>
<rscale>  0 0.23106032E+04</rscale>
<asrwt>0</asrwt>
<pdfrwt beam="1">  1        1 0.16996843E+00 0.23106032E+04</pdfrwt>
<pdfrwt beam="2">  1       -1 0.18586421E+00 0.23106032E+04</pdfrwt>
<totfact> 0.21459304E+00</totfact>
</mgrwt>
</event>
<event>
 6    1  0.1719556E-004  0.1564146E+04  0.7818608E-02  0.8842883E-01
          1   -1    0    0  501    0  0.00000000000E+00  0.00000000000E+00  0.49039075528E+03  0.49039075528E+03  0.00000000000E+00 0.  1.
         -1   -1    0    0    0  501 -0.00000000000E+00 -0.00000000000E+00 -0.12472461576E+04  0.12472461576E+04  0.00000000000E+00 0. -1.
         23    2    1    2    0    0  0.34627220541E+03 -0.54467302973E+03 -0.86511944972E+03  0.10831949723E+04  0.91140200871E+02 0.  0.
         13    1    3    3    0    0  0.17531171758E+03 -0.20101540547E+03 -0.32173855591E+03  0.41791995635E+03  0.00000000000E+00 0. -1.
        -13    1    3    3    0    0  0.17096048783E+03 -0.34365762426E+03 -0.54338089382E+03  0.66527501597E+03  0.00000000000E+00 0.  1.
         22    1    1    2    0    0 -0.34627220541E+03  0.54467302973E+03  0.10826404744E+03  0.65444194053E+03  0.00000000000E+00 0.  1.
<mgrwt>
<rscale>  0 0.15641458E+04</rscale>
<asrwt>0</asrwt>
<pdfrwt beam="1">  1        1 0.75444731E-01 0.15641458E+04</pdfrwt>
<pdfrwt beam="2">  1       -1 0.19188403E+00 0.15641458E+04</pdfrwt>
<totfact> 0.75081573E+00</totfact>
</mgrwt>
</event>
<event>
 6    1  0.1719556E-004  0.3195407E+04  0.7818608E-02  0.8190031E-01
         -1   -1    0    0    0  501 -0.00000000000E+00  0.00000000000E+00  0.11596390799E+04  0.11596390799E+04  0.00000000000E+00 0. -1.
          1   -1    0    0  501    0  0.00000000000E+00 -0.00000000000E+00 -0.22012512868E+04  0.22012512868E+04  0.00000000000E+00 0.  1.
         23    2    1    2    0    0 -0.53636775573E+03 -0.64399503246E+03  0.90787778823E+03  0.12388792422E+04  0.90331207582E+02 0.  0.
         13    1    3    3    0    0 -0.88728917746E+02 -0.61828069564E+02  0.10344463172E+03  0.14965401051E+03  0.00000000000E+00 0. -1.
        -13    1    3    3    0    0 -0.44763883799E+03 -0.58216696290E+03  0.80443315651E+03  0.10892252316E+04  0.00000000000E+00 0.  1.
         22    1    1    2    0    0  0.53636775573E+03  0.64399503246E+03 -0.19494899951E+04  0.21220111245E+04  0.00000000000E+00 0.  1.
<mgrwt>
<rscale>  0 0.31954073E+04</rscale>
<asrwt>0</asrwt>
<pdfrwt beam="1">  1        1 0.33865404E+00 0.31954073E+04</pdfrwt>
<pdfrwt beam="2">  1       -1 0.17840602E+00 0.31954073E+04</pdfrwt>
<totfact> 0.38884248E-01</totfact>
</mgrwt>
</event>
<event>
 6    1  0.1719556E-004  0.2214043E+04  0.7818608E-02  0.8512606E-01
          2   -1    0    0  501    0  0.00000000000E+00  0.00000000000E+00  0.21163214902E+04  0.21163214902E+04  0.00000000000E+00 0.  1.
         -2   -1    0    0    0  501 -0.00000000000E+00 -0.00000000000E+00 -0.57906917007E+03  0.57906917007E+03  0.00000000000E+00 0. -1.
         23    2    1    2    0    0 -0.72137740937E+03  0.40577900124E+03 -0.12126352323E+03  0.84182200299E+03  0.94432399360E+02 0.  0.
         13    1    3    3    0    0 -0.33292107954E+03  0.22981690967E+03 -0.29532285024E+02  0.40561609069E+03  0.00000000000E+00 0. -1.
        -13    1    3    3    0    0 -0.38845632984E+03  0.17596209157E+03 -0.91731238202E+02  0.43620591230E+03  0.00000000000E+00 0.  1.
         22    1    1    2    0    0  0.72137740937E+03 -0.40577900124E+03  0.16585158433E+04  0.18535686572E+04  0.00000000000E+00 0.  1.
<mgrwt>
<rscale>  0 0.22140429E+04</rscale>
<asrwt>0</asrwt>
<pdfrwt beam="1">  1        2 0.32558792E+00 0.22140429E+04</pdfrwt>
<pdfrwt beam="2">  1       -2 0.89087566E-01 0.22140429E+04</pdfrwt>
<totfact> 0.56827539E+00</totfact>
</mgrwt>
</event>
<event>
 6    1  0.1719556E-004  0.9011570E+03  0.7818608E-02  0.9424136E-01
         -3   -1    0    0    0  501 -0.00000000000E+00  0.00000000000E+00  0.83439488674E+03  0.83439488674E+03  0.00000000000E+00 0. -1.
          3   -1    0    0  501    0  0.00000000000E+00 -0.00000000000E+00 -0.24331523661E+03  0.24331523661E+03  0.00000000000E+00 0.  1.
         23    2    1    2    0    0 -0.27317789347E+02 -0.42361499399E+03  0.13557716311E+03  0.45507183314E+03  0.92267445008E+02 0.  0.
         13    1    3    3    0    0 -0.40207567134E+02 -0.34382925753E+03  0.14163186280E+03  0.37402512128E+03  0.00000000000E+00 0. -1.
        -13    1    3    3    0    0  0.12889777787E+02 -0.79785736463E+02 -0.60546996945E+01  0.81046711856E+02  0.00000000000E+00 0.  1.
         22    1    1    2    0    0  0.27317789347E+02  0.42361499399E+03  0.45550248703E+03  0.62263829021E+03  0.00000000000E+00 0. -1.
<mgrwt>
<rscale>  0 0.90115701E+03</rscale>
<asrwt>0</asrwt>
<pdfrwt beam="1">  1        3 0.37433114E-01 0.90115701E+03</pdfrwt>
<pdfrwt beam="2">  1       -3 0.12836844E+00 0.90115701E+03</pdfrwt>
<totfact> 0.89072232E+00</totfact>
</mgrwt>
</event>
<event>
 6    1  0.1719556E-004  0.4053600E+04  0.7818608E-02  0.7993820E-01
          2   -1    0    0  501    0  0.00000000000E+00  0.00000000000E+00  0.28000626348E+04  0.28000626348E+04  0.00000000000E+00 0.  1.
         -2   -1    0    0    0  501 -0.00000000000E+00 -0.00000000000E+00 -0.14670805604E+04  0.14670805604E+04  0.00000000000E+00 0. -1.
         23    2    1    2    0    0  0.29324486158E+02  0.16880681735E+04  0.18452995921E+04  0.25028010167E+04  0.91914421702E+02 0.  0.
         13    1    3    3    0    0  0.24513244240E+02  0.12848755855E+04  0.14611201903E+04  0.19458618605E+04  0.00000000000E+00 0.  1.
        -13    1    3    3    0    0  0.48112419179E+01  0.40319258797E+03  0.38417940175E+03  0.55693915625E+03  0.00000000000E+00 0. -1.
         22    1    1    2    0    0 -0.29324486158E+02 -0.16880681735E+04 -0.51231751766E+03  0.17643421785E+04  0.00000000000E+00 0. -1.
<mgrwt>
<rscale>  0 0.40535996E+04</rscale>
<asrwt>0</asrwt>
<pdfrwt beam="1">  1        2 0.43077886E+00 0.40535996E+04</pdfrwt>
<pdfrwt beam="2">  1       -2 0.22570470E+00 0.40535996E+04</pdfrwt>
<totfact> 0.16517587E-01</totfact>
</mgrwt>
</event>
<event>
 6    1  0.1719556E-004  0.6142835E+04  0.7818608E-02  0.7672940E-01
          2   -1    0    0  501    0  0.00000000000E+00  0.00000000000E+00  0.31866107393E+04  0.31866107393E+04  0.00000000000E+00 0.  1.
         -2   -1    0    0    0  501 -0.00000000000E+00 -0.00000000000E+00 -0.29603881904E+04  0.29603881904E+04  0.00000000000E+00 0. -1.
         23    2    1    2    0    0 -0.24401844688E+04 -0.12553335779E+04  0.14927051481E+04  0.31246917302E+04  0.71882655750E+02 0.  0.
         11    1    3    3    0    0 -0.17169782679E+03 -0.89057720961E+02  0.84701060330E+02  0.21115324058E+03  0.00000000000E+00 0.  1.
        -11    1    3    3    0    0 -0.22684866420E+04 -0.11662758570E+04  0.14080040878E+04  0.29135384897E+04  0.00000000000E+00 0. -1.
         22    1    1    2    0    0  0.24401844688E+04  0.12553335779E+04 -0.12664825993E+04  0.30223071995E+04  0.00000000000E+00 0. -1.
<mgrwt>
<rscale>  0 0.61428348E+04</rscale>
<asrwt>0</asrwt>
<pdfrwt beam="1">  1        2 0.49024781E+00 0.61428348E+04</pdfrwt>
<pdfrwt beam="2">  1       -2 0.45544434E+00 0.61428348E+04</pdfrwt>
<totfact> 0.28276346E-03</totfact>
</mgrwt>
</event>
<event>
 6    1  0.1719556E-004  0.3685557E+04  0.7818608E-02  0.8071170E-01
          2   -1    0    0  501    0  0.00000000000E+00  0.00000000000E+00  0.28456419857E+04  0.28456419857E+04  0.00000000000E+00 0.  1.
         -2   -1    0    0    0  501 -0.00000000000E+00 -0.00000000000E+00 -0.11933453031E+04  0.11933453031E+04  0.00000000000E+00 0. -1.
         23    2    1    2    0    0 -0.17639625726E+04  0.22755467549E+03  0.13502268727E+04  0.22349387146E+04  0.92159440546E+02 0.  0.
         13    1    3    3    0    0 -0.45742295901E+02  0.17119038061E+02  0.50508815300E+02  0.70260654149E+02  0.00000000000E+00 0.  1.
        -13    1    3    3    0    0 -0.17182202767E+04  0.21043563743E+03  0.12997180574E+04  0.21646780605E+04  0.00000000000E+00 0. -1.
         22    1    1    2    0    0  0.17639625726E+04 -0.22755467549E+03  0.30206980990E+03  0.18040485742E+04  0.00000000000E+00 0. -1.
<mgrwt>
<rscale>  0 0.36855575E+04</rscale>
<asrwt>0</asrwt>
<pdfrwt beam="1">  1        2 0.43779107E+00 0.36855575E+04</pdfrwt>
<pdfrwt beam="2">  1       -2 0.18359159E+00 0.36855575E+04</pdfrwt>
<totfact> 0.30063111E-01</totfact>
</mgrwt>
</event>
<event>
 6    1  0.1719556E-004  0.2613474E+04  0.7818608E-02  0.8363639E-01
         -2   -1    0    0    0  501 -0.00000000000E+00  0.00000000000E+00  0.63260886151E+03  0.63260886151E+03  0.00000000000E+00 0. -1.
          2   -1    0    0  501    0  0.00000000000E+00 -0.00000000000E+00 -0.26992377021E+04  0.26992377021E+04  0.00000000000E+00 0.  1.
         23    2    1    2    0    0  0.87454856487E+03 -0.76844066678E+03 -0.28444627534E+03  0.12031119755E+04  0.10598344857E+03 0.  0.
         11    1    3    3    0    0  0.43403466467E+03 -0.41818281432E+03 -0.10057861928E+03  0.61104747359E+03  0.00000000000E+00 0. -1.
        -11    1    3    3    0    0  0.44051390020E+03 -0.35025785246E+03 -0.18386765606E+03  0.59206450191E+03  0.00000000000E+00 0.  1.
         22    1    1    2    0    0 -0.87454856487E+03  0.76844066678E+03 -0.17821825653E+04  0.21287345881E+04  0.00000000000E+00 0.  1.
<mgrwt>
<rscale>  0 0.26134741E+04</rscale>
<asrwt>0</asrwt>
<pdfrwt beam="1">  1        2 0.41526734E+00 0.26134741E+04</pdfrwt>
<pdfrwt beam="2">  1       -2 0.97324440E-01 0.26134741E+04</pdfrwt>
<totfact> 0.20679324E+00</totfact>
</mgrwt>
</event>
<event>
 6    1  0.1719556E-004  0.1218619E+04  0.7818608E-02  0.9096714E-01
          1   -1    0    0  501    0  0.00000000000E+00  0.00000000000E+00  0.38627277806E+03  0.38627277806E+03  0.00000000000E+00 0. -1.
         -1   -1    0    0    0  501 -0.00000000000E+00 -0.00000000000E+00 -0.96112911749E+03  0.96112911749E+03  0.00000000000E+00 0.  1.
         23    2    1    2    0    0  0.30798914337E+03  0.18592081662E+03  0.25095925188E+03  0.44662708833E+03  0.84091304168E+02 0.  0.
         13    1    3    3    0    0  0.17027764186E+03  0.14874724107E+03  0.16729004547E+03  0.28125820229E+03  0.00000000000E+00 0.  1.
        -13    1    3    3    0    0  0.13771150152E+03  0.37173575557E+02  0.83669206409E+02  0.16536888604E+03  0.00000000000E+00 0. -1.
         22    1    1    2    0    0 -0.30798914337E+03 -0.18592081662E+03 -0.82581559130E+03  0.90077480722E+03  0.00000000000E+00 0.  1.
<mgrwt>
<rscale>  0 0.12186189E+04</rscale>
<asrwt>0</asrwt>
<pdfrwt beam="1">  1        1 0.59426581E-01 0.12186189E+04</pdfrwt>
<pdfrwt beam="2">  1       -1 0.14786602E+00 0.12186189E+04</pdfrwt>
<totfact> 0.22529770E+01</totfact>
</mgrwt>
</event>
<event>
 6    1  0.1719556E-004  0.1787818E+04  0.7818608E-02  0.8712805E-01
          2   -1    0    0  501    0  0.00000000000E+00  0.00000000000E+00  0.27303131951E+04  0.27303131951E+04  0.00000000000E+00 0.  1.
         -2   -1    0    0    0  501 -0.00000000000E+00 -0.00000000000E+00 -0.29266718491E+03  0.29266718491E+03  0.00000000000E+00 0. -1.
         23    2    1    2    0    0 -0.19113195208E+03  0.67813297898E+03  0.29837971023E+03  0.77068020853E+03  0.92313444584E+02 0.  0.
         11    1    3    3    0    0 -0.18404707138E+02  0.17319427003E+03  0.44832980401E+02  0.17984711437E+03  0.00000000000E+00 0. -1.
        -11    1    3    3    0    0 -0.17272724494E+03  0.50493870895E+03  0.25354672983E+03  0.59083309415E+03  0.00000000000E+00 0.  1.
         22    1    1    2    0    0  0.19113195208E+03 -0.67813297898E+03  0.21392663000E+04  0.22523001715E+04  0.00000000000E+00 0.  1.
<mgrwt>
<rscale>  0 0.17878177E+04</rscale>
<asrwt>0</asrwt>
<pdfrwt beam="1">  1        2 0.42004817E+00 0.17878177E+04</pdfrwt>
<pdfrwt beam="2">  1       -2 0.45025723E-01 0.17878177E+04</pdfrwt>
<totfact> 0.11284993E+01</totfact>
</mgrwt>
</event>
<event>
 6    1  0.1719556E-004  0.4965236E+04  0.7818608E-02  0.7833892E-01
         -1   -1    0    0    0  501 -0.00000000000E+00  0.00000000000E+00  0.15963477632E+04  0.15963477632E+04  0.00000000000E+00 0. -1.
          1   -1    0    0  501    0  0.00000000000E+00 -0.00000000000E+00 -0.38609331609E+04  0.38609331609E+04  0.00000000000E+00 0.  1.
         23    2    1    2    0    0  0.10235385551E+04 -0.13447189821E+04 -0.31303611915E+04  0.35584739198E+04  0.87607838784E+02 0.  0.
         13    1    3    3    0    0  0.65883007543E+03 -0.80230046951E+03 -0.18813316322E+04  0.21487558777E+04  0.00000000000E+00 0.  1.
        -13    1    3    3    0    0  0.36470847969E+03 -0.54241851262E+03 -0.12490295594E+04  0.14097180421E+04  0.00000000000E+00 0. -1.
         22    1    1    2    0    0 -0.10235385551E+04  0.13447189821E+04  0.86577579386E+03  0.18988070044E+04  0.00000000000E+00 0. -1.
<mgrwt>
<rscale>  0 0.49652360E+04</rscale>
<asrwt>0</asrwt>
<pdfrwt beam="1">  1        1 0.59398971E+00 0.49652360E+04</pdfrwt>
<pdfrwt beam="2">  1       -1 0.24559197E+00 0.49652360E+04</pdfrwt>
<totfact> 0.68100703E-03</totfact>
</mgrwt>
</event>
<event>
 6    1  0.1719556E-004  0.3038695E+04  0.7818608E-02  0.8232767E-01
         -2   -1    0    0    0  501 -0.00000000000E+00  0.00000000000E+00  0.11676880086E+04  0.11676880086E+04  0.00000000000E+00 0.  1.
          2   -1    0    0  501    0  0.00000000000E+00 -0.00000000000E+00 -0.19769125266E+04  0.19769125266E+04  0.00000000000E+00 0. -1.
         23    2    1    2    0    0  0.23107031296E+03 -0.35152984760E+03  0.11043173912E+04  0.11853636017E+04  0.92753676375E+02 0.  0.
         11    1    3    3    0    0  0.14329321639E+03 -0.15464986438E+03  0.63051912531E+03  0.66483373395E+03  0.00000000000E+00 0. -1.
        -11    1    3    3    0    0  0.87777096572E+02 -0.19687998322E+03  0.47379826584E+03  0.52052986772E+03  0.00000000000E+00 0.  1.
         22    1    1    2    0    0 -0.23107031296E+03  0.35152984760E+03 -0.19135419092E+04  0.19592369335E+04  0.00000000000E+00 0. -1.
<mgrwt>
<rscale>  0 0.30386951E+04</rscale>
<asrwt>0</asrwt>
<pdfrwt beam="1">  1        2 0.30414039E+00 0.30386951E+04</pdfrwt>
<pdfrwt beam="2">  1       -2 0.17964431E+00 0.30386951E+04</pdfrwt>
<totfact> 0.10709492E+00</totfact>
</mgrwt>
</event>
<event>
 6    1  0.1719556E-004  0.8597262E+03  0.7818608E-02  0.9477375E-01
          2   -1    0    0  501    0  0.00000000000E+00  0.00000000000E+00  0.65412668905E+03  0.65412668905E+03  0.00000000000E+00 0.  1.
         -2   -1    0    0    0  501 -0.00000000000E+00 -0.00000000000E+00 -0.28248697860E+03  0.28248697860E+03  0.00000000000E+00 0. -1.
         23    2    1    2    0    0 -0.20713544880E+03  0.30143416616E+03 -0.48698168525E+02  0.37943184528E+03  0.88483687313E+02 0.  0.
         13    1    3    3    0    0 -0.13023069269E+03  0.11252259904E+03 -0.15830214261E+02  0.17283507832E+03  0.00000000000E+00 0.  1.
        -13    1    3    3    0    0 -0.76904756105E+02  0.18891156712E+03 -0.32867954264E+02  0.20659676696E+03  0.00000000000E+00 0. -1.
         22    1    1    2    0    0  0.20713544880E+03 -0.30143416616E+03  0.42033787898E+03  0.55718182237E+03  0.00000000000E+00 0.  1.
<mgrwt>
<rscale>  0 0.85972617E+03</rscale>
<asrwt>0</asrwt>
<pdfrwt beam="1">  1        2 0.10063487E+00 0.85972617E+03</pdfrwt>
<pdfrwt beam="2">  1       -2 0.43459535E-01 0.85972617E+03</pdfrwt>
<totfact> 0.22493998E+02</totfact>
</mgrwt>
</event>
<event>
 6    1  0.1719556E-004  0.5328285E+04  0.7818608E-02  0.7779769E-01
          2   -1    0    0  501    0  0.00000000000E+00  0.00000000000E+00  0.22083405421E+04  0.22083405421E+04  0.00000000000E+00 0.  1.
         -2   -1    0    0    0  501 -0.00000000000E+00 -0.00000000000E+00 -0.32140223630E+04  0.32140223630E+04  0.00000000000E+00 0. -1.
         23    2    1    2    0    0  0.18465889596E+04  0.17705678435E+04  0.25090547762E+03  0.25721325788E+04  0.90062035083E+02 0.  0.
         13    1    3    3    0    0  0.10267782076E+04  0.98821720336E+03  0.18461884225E+03  0.14369867242E+04  0.00000000000E+00 0.  1.
        -13    1    3    3    0    0  0.81981075201E+03  0.78235064018E+03  0.66286635368E+02  0.11351458547E+04  0.00000000000E+00 0. -1.
         22    1    1    2    0    0 -0.18465889596E+04 -0.17705678435E+04 -0.12565872985E+04  0.28502303263E+04  0.00000000000E+00 0. -1.
<mgrwt>
<rscale>  0 0.53282852E+04</rscale>
<asrwt>0</asrwt>
<pdfrwt beam="1">  1        2 0.33974470E+00 0.53282852E+04</pdfrwt>
<pdfrwt beam="2">  1       -2 0.49446498E+00 0.53282852E+04</pdfrwt>
<totfact> 0.65235006E-03</totfact>
</mgrwt>
</event>
<event>
 6    1  0.1719556E-004  0.2044113E+04  0.7818608E-02  0.8586269E-01
         -1   -1    0    0    0  501 -0.00000000000E+00  0.00000000000E+00  0.11118832859E+04  0.11118832859E+04  0.00000000000E+00 0.  1.
          1   -1    0    0  501    0  0.00000000000E+00 -0.00000000000E+00 -0.93948705697E+03  0.93948705697E+03  0.00000000000E+00 0. -1.
         23    2    1    2    0    0  0.62646785332E+03  0.51928220292E+03  0.70405356840E+03  0.10793747132E+04  0.85102096816E+02 0.  0.
         11    1    3    3    0    0  0.45098725191E+03  0.40474970088E+03  0.55975977812E+03  0.82495019907E+03  0.00000000000E+00 0.  1.
        -11    1    3    3    0    0  0.17548060140E+03  0.11453250204E+03  0.14429379028E+03  0.25442451416E+03  0.00000000000E+00 0. -1.
         22    1    1    2    0    0 -0.62646785332E+03 -0.51928220292E+03 -0.53165733944E+03  0.97199562966E+03  0.00000000000E+00 0. -1.
<mgrwt>
<rscale>  0 0.20441135E+04</rscale>
<asrwt>0</asrwt>
<pdfrwt beam="1">  1        1 0.14453647E+00 0.20441135E+04</pdfrwt>
<pdfrwt beam="2">  1       -1 0.17105897E+00 0.20441135E+04</pdfrwt>
<totfact> 0.37747792E+00</totfact>
</mgrwt>
</event>
<event>
 6    1  0.1719556E-004  0.2302209E+04  0.7818608E-02  0.8477051E-01
          2   -1    0    0  501    0  0.00000000000E+00  0.00000000000E+00  0.12977397165E+04  0.12977397165E+04  0.00000000000E+00 0.  1.
         -2   -1    0    0    0  501 -0.00000000000E+00 -0.00000000000E+00 -0.10210381826E+04  0.10210381826E+04  0.00000000000E+00 0. -1.
         23    2    1    2    0    0  0.11230115429E+03 -0.31441012374E+03 -0.96917645331E+03  0.10289417723E+04  0.89179022248E+02 0.  0.
         13    1    3    3    0    0  0.19919923071E+02 -0.55453305070E+02 -0.29555595955E+03  0.30137219116E+03  0.00000000000E+00 0. -1.
        -13    1    3    3    0    0  0.92381231214E+02 -0.25895681867E+03 -0.67362049376E+03  0.72756958116E+03  0.00000000000E+00 0.  1.
         22    1    1    2    0    0 -0.11230115429E+03  0.31441012374E+03  0.12458779872E+04  0.12898361268E+04  0.00000000000E+00 0.  1.
<mgrwt>
<rscale>  0 0.23022092E+04</rscale>
<asrwt>0</asrwt>
<pdfrwt beam="1">  1        2 0.19965226E+00 0.23022092E+04</pdfrwt>
<pdfrwt beam="2">  1       -2 0.15708280E+00 0.23022092E+04</pdfrwt>
<totfact> 0.39806064E+00</totfact>
</mgrwt>
</event>
<event>
 6    1  0.1719556E-004  0.1627178E+04  0.7818608E-02  0.8804023E-01
         -2   -1    0    0    0  501 -0.00000000000E+00  0.00000000000E+00  0.10954019778E+04  0.10954019778E+04  0.00000000000E+00 0. -1.
          2   -1    0    0  501    0  0.00000000000E+00 -0.00000000000E+00 -0.60427784424E+03  0.60427784424E+03  0.00000000000E+00 0.  1.
         23    2    1    2    0    0  0.71145934525E+03 -0.17313040098E+02  0.65373751371E+03  0.96966800526E+03  0.80057243882E+02 0.  0.
         11    1    3    3    0    0  0.54098706367E+03  0.61317983351E+01  0.53291577987E+03  0.75941018590E+03  0.00000000000E+00 0. -1.
        -11    1    3    3    0    0  0.17047228159E+03 -0.23444838434E+02  0.12082173384E+03  0.21025781937E+03  0.00000000000E+00 0.  1.
         22    1    1    2    0    0 -0.71145934525E+03  0.17313040098E+02 -0.16261338010E+03  0.73001181682E+03  0.00000000000E+00 0.  1.
<mgrwt>
<rscale>  0 0.16271781E+04</rscale>
<asrwt>0</asrwt>
<pdfrwt beam="1">  1        2 0.92965823E-01 0.16271781E+04</pdfrwt>
<pdfrwt beam="2">  1       -2 0.16852338E+00 0.16271781E+04</pdfrwt>
<totfact> 0.10266018E+01</totfact>
</mgrwt>
</event>
<event>
 6    1  0.1719556E-004  0.1537773E+04  0.7818608E-02  0.8859716E-01
         -1   -1    0    0    0  501 -0.00000000000E+00  0.00000000000E+00  0.65303727969E+03  0.65303727969E+03  0.00000000000E+00 0. -1.
          1   -1    0    0  501    0  0.00000000000E+00 -0.00000000000E+00 -0.90528755735E+03  0.90528755735E+03  0.00000000000E+00 0.  1.
         23    2    1    2    0    0 -0.47315256861E+03  0.56561819292E+03 -0.33725956452E+03  0.81601501479E+03  0.91319204751E+02 0.  0.
         13    1    3    3    0    0 -0.43704370107E+03  0.55006023444E+03 -0.30848000578E+03  0.76728962727E+03  0.00000000000E+00 0. -1.
        -13    1    3    3    0    0 -0.36108867546E+02  0.15557958482E+02 -0.28779558741E+02  0.48725387519E+02  0.00000000000E+00 0.  1.
         22    1    1    2    0    0  0.47315256861E+03 -0.56561819292E+03  0.85009286856E+02  0.74230982225E+03  0.00000000000E+00 0.  1.
<mgrwt>
<rscale>  0 0.15377731E+04</rscale>
<asrwt>0</asrwt>
<pdfrwt beam="1">  1        1 0.13927501E+00 0.15377731E+04</pdfrwt>
<pdfrwt beam="2">  1       -1 0.10046727E+00 0.15377731E+04</pdfrwt>
<totfact> 0.16388626E+01</totfact>
</mgrwt>
</event>
<event>
 6    1  0.1719556E-004  0.1690074E+04  0.7818608E-02  0.8767046E-01
          2   -1    0    0  501    0  0.00000000000E+00  0.00000000000E+00  0.15126139269E+04  0.15126139269E+04  0.00000000000E+00 0.  1.
         -2   -1    0    0    0  501 -0.00000000000E+00 -0.00000000000E+00 -0.47208829735E+03  0.47208829735E+03  0.00000000000E+00 0. -1.
         23    2    1    2    0    0  0.52646767667E+03 -0.65626850253E+03  0.57495364018E+03  0.10231337975E+04  0.91512388791E+02 0.  0.
         13    1    3    3    0    0  0.22472052983E+03 -0.32508554759E+03  0.22610698744E+03  0.45530681913E+03  0.00000000000E+00 0. -1.
        -13    1    3    3    0    0  0.30174714683E+03 -0.33118295493E+03  0.34884665274E+03  0.56782697839E+03  0.00000000000E+00 0.  1.
         22    1    1    2    0    0 -0.52646767667E+03  0.65626850253E+03  0.46557198937E+03  0.96156842672E+03  0.00000000000E+00 0.  1.
<mgrwt>
<rscale>  0 0.16900738E+04</rscale>
<asrwt>0</asrwt>
<pdfrwt beam="1">  1        2 0.23270983E+00 0.16900738E+04</pdfrwt>
<pdfrwt beam="2">  1       -2 0.72628970E-01 0.16900738E+04</pdfrwt>
<totfact> 0.20385484E+01</totfact>
</mgrwt>
</event>
<event>
 6    1  0.1719556E-004  0.1228132E+04  0.7818608E-02  0.9088583E-01
         -2   -1    0    0    0  501 -0.00000000000E+00  0.00000000000E+00  0.20415312086E+04  0.20415312086E+04  0.00000000000E+00 0. -1.
          2   -1    0    0  501    0  0.00000000000E+00 -0.00000000000E+00 -0.18470304639E+03  0.18470304639E+03  0.00000000000E+00 0.  1.
         23    2    1    2    0    0  0.33401970436E+03  0.22819996605E+03  0.10382494054E+03  0.42716097060E+03  0.89679925984E+02 0.  0.
         11    1    3    3    0    0  0.26824873976E+03  0.15799099508E+03  0.11142662316E+03  0.33065757705E+03  0.00000000000E+00 0. -1.
        -11    1    3    3    0    0  0.65770964594E+02  0.70208970972E+02 -0.76016826269E+01  0.96503393554E+02  0.00000000000E+00 0.  1.
         22    1    1    2    0    0 -0.33401970436E+03 -0.22819996605E+03  0.17530032216E+04  0.17990732844E+04  0.00000000000E+00 0. -1.
<mgrwt>
<rscale>  0 0.12281320E+04</rscale>
<asrwt>0</asrwt>
<pdfrwt beam="1">  1        2 0.28415855E-01 0.12281320E+04</pdfrwt>
<pdfrwt beam="2">  1       -2 0.31408171E+00 0.12281320E+04</pdfrwt>
<totfact> 0.49047919E+00</totfact>
</mgrwt>
</event>
<event>
 6    1  0.1719556E-004  0.2185060E+04  0.7818608E-02  0.8524672E-01
          1   -1    0    0  501    0  0.00000000000E+00  0.00000000000E+00  0.11519791538E+04  0.11519791538E+04  0.00000000000E+00 0.  1.
         -1   -1    0    0    0  501 -0.00000000000E+00 -0.00000000000E+00 -0.10361490187E+04  0.10361490187E+04  0.00000000000E+00 0. -1.
         23    2    1    2    0    0  0.23405044866E+03 -0.52389314465E+03 -0.87080560539E+03  0.10467720826E+04  0.90475140049E+02 0.  0.
         13    1    3    3    0    0  0.51463764460E+02 -0.12684166561E+03 -0.28240183493E+03  0.31382817522E+03  0.00000000000E+00 0.  1.
        -13    1    3    3    0    0  0.18258668420E+03 -0.39705147904E+03 -0.58840377045E+03  0.73294390736E+03  0.00000000000E+00 0. -1.
         22    1    1    2    0    0 -0.23405044866E+03  0.52389314465E+03  0.98663574050E+03  0.11413560899E+04  0.00000000000E+00 0.  1.
<mgrwt>
<rscale>  0 0.21850602E+04</rscale>
<asrwt>0</asrwt>
<pdfrwt beam="1">  1        1 0.17722756E+00 0.21850602E+04</pdfrwt>
<pdfrwt beam="2">  1       -1 0.15940754E+00 0.21850602E+04</pdfrwt>
<totfact> 0.31253216E+00</totfact>
</mgrwt>
</event>
<event>
 6    1  0.1719556E-004  0.4018186E+04  0.7818608E-02  0.8000888E-01
         -2   -1    0    0    0  501 -0.00000000000E+00  0.00000000000E+00  0.13552973711E+04  0.13552973711E+04  0.00000000000E+00 0. -1.
          2   -1    0    0  501    0  0.00000000000E+00 -0.00000000000E+00 -0.29782804082E+04  0.29782804082E+04  0.00000000000E+00 0.  1.
         23    2    1    2    0    0 -0.17785009746E+03  0.15040649907E+04  0.61086147195E+03  0.16347070072E+04  0.72616171068E+02 0.  0.
         11    1    3    3    0    0 -0.58353765177E+02  0.55165267334E+03  0.18691522743E+03  0.58537435557E+03  0.00000000000E+00 0.  1.
        -11    1    3    3    0    0 -0.11949633228E+03  0.95241231733E+03  0.42394624452E+03  0.10493326517E+04  0.00000000000E+00 0. -1.
         22    1    1    2    0    0  0.17785009746E+03 -0.15040649907E+04 -0.22338445090E+04  0.26988707720E+04  0.00000000000E+00 0.  1.
<mgrwt>
<rscale>  0 0.40181865E+04</rscale>
<asrwt>0</asrwt>
<pdfrwt beam="1">  1        2 0.45819698E+00 0.40181865E+04</pdfrwt>
<pdfrwt beam="2">  1       -2 0.20850729E+00 0.40181865E+04</pdfrwt>
<totfact> 0.16558809E-01</totfact>
</mgrwt>
</event>
<event>
 6    1  0.1719556E-004  0.1947451E+04  0.7818608E-02  0.8631591E-01
         -1   -1    0    0    0  501 -0.00000000000E+00  0.00000000000E+00  0.81935810052E+03  0.81935810052E+03  0.00000000000E+00 0. -1.
          1   -1    0    0  501    0  0.00000000000E+00 -0.00000000000E+00 -0.11571761629E+04  0.11571761629E+04  0.00000000000E+00 0.  1.
         23    2    1    2    0    0 -0.64229969189E+03  0.44712402564E+03  0.41515790870E+03  0.89051326844E+03  0.90493113583E+02 0.  0.
         13    1    3    3    0    0 -0.52117491490E+01  0.58899429988E+01  0.18139246720E+02  0.19770837850E+02  0.00000000000E+00 0. -1.
        -13    1    3    3    0    0 -0.63708794274E+03  0.44123408265E+03  0.39701866198E+03  0.87074243059E+03  0.00000000000E+00 0.  1.
         22    1    1    2    0    0  0.64229969189E+03 -0.44712402564E+03 -0.75297597103E+03  0.10860209949E+04  0.00000000000E+00 0.  1.
<mgrwt>
<rscale>  0 0.19474513E+04</rscale>
<asrwt>0</asrwt>
<pdfrwt beam="1">  1        1 0.17802710E+00 0.19474513E+04</pdfrwt>
<pdfrwt beam="2">  1       -1 0.12605509E+00 0.19474513E+04</pdfrwt>
<totfact> 0.58683799E+00</totfact>
</mgrwt>
</event>
<event>
 6    1  0.1719556E-004  0.2243002E+04  0.7818608E-02  0.8500740E-01
          2   -1    0    0  501    0  0.00000000000E+00  0.00000000000E+00  0.13564474022E+04  0.13564474022E+04  0.00000000000E+00 0.  1.
         -2   -1    0    0    0  501 -0.00000000000E+00 -0.00000000000E+00 -0.92724908690E+03  0.92724908690E+03  0.00000000000E+00 0. -1.
         23    2    1    2    0    0  0.46038628695E+03 -0.98328777328E+03  0.49394883744E+03  0.11960370716E+04  0.87800025363E+02 0.  0.
         11    1    3    3    0    0  0.35233856846E+03 -0.66109239891E+03  0.35321694272E+03  0.82821967820E+03  0.00000000000E+00 0. -1.
        -11    1    3    3    0    0  0.10804771848E+03 -0.32219537436E+03  0.14073189472E+03  0.36781739345E+03  0.00000000000E+00 0.  1.
         22    1    1    2    0    0 -0.46038628695E+03  0.98328777328E+03 -0.64750522121E+02  0.10876594175E+04  0.00000000000E+00 0.  1.
<mgrwt>
<rscale>  0 0.22430021E+04</rscale>
<asrwt>0</asrwt>
<pdfrwt beam="1">  1        2 0.20868421E+00 0.22430021E+04</pdfrwt>
<pdfrwt beam="2">  1       -2 0.14265371E+00 0.22430021E+04</pdfrwt>
<totfact> 0.47760345E+00</totfact>
</mgrwt>
</event>
<event>
 6    1  0.2095167E-004  0.4422120E+04  0.7818608E-02  0.7924415E-01
         -2   -1    0    0    0  501 -0.00000000000E+00  0.00000000000E+00  0.19143329667E+04  0.19143329667E+04  0.00000000000E+00 0. -1.
          2   -1    0    0  501    0  0.00000000000E+00 -0.00000000000E+00 -0.25537799894E+04  0.25537799894E+04  0.00000000000E+00 0.  1.
         23    2    1    2    0    0 -0.10783060892E+04  0.12312935709E+04  0.11807454828E+04  0.20202713280E+04  0.92241334854E+02 0.  0.
         13    1    3    3    0    0 -0.72009402828E+03  0.87741482524E+03  0.84500200347E+03  0.14150691047E+04  0.00000000000E+00 0.  1.
        -13    1    3    3    0    0 -0.35821206090E+03  0.35387874565E+03  0.33574347929E+03  0.60520222330E+03  0.00000000000E+00 0. -1.
         22    1    1    2    0    0  0.10783060892E+04 -0.12312935709E+04 -0.18201925055E+04  0.24478416282E+04  0.00000000000E+00 0.  1.
<mgrwt>
<rscale>  0 0.44221195E+04</rscale>
<asrwt>0</asrwt>
<pdfrwt beam="1">  1        2 0.39288923E+00 0.44221195E+04</pdfrwt>
<pdfrwt beam="2">  1       -2 0.29451276E+00 0.44221195E+04</pdfrwt>
<totfact> 0.84803815E-02</totfact>
</mgrwt>
</event>
<event>
 6    1  0.1719556E-004  0.2536125E+04  0.7818608E-02  0.8390228E-01
         -2   -1    0    0    0  501 -0.00000000000E+00  0.00000000000E+00  0.75959862933E+03  0.75959862933E+03  0.00000000000E+00 0. -1.
          2   -1    0    0  501    0  0.00000000000E+00 -0.00000000000E+00 -0.21168835954E+04  0.21168835954E+04  0.00000000000E+00 0.  1.
         23    2    1    2    0    0  0.98161600338E+03 -0.64569505341E+03 -0.14447950787E+03  0.11878765397E+04  0.98408664625E+02 0.  0.
         13    1    3    3    0    0  0.64674314963E+03 -0.48013134878E+03 -0.96549778527E+02  0.81124883569E+03  0.00000000000E+00 0. -1.
        -13    1    3    3    0    0  0.33487285375E+03 -0.16556370463E+03 -0.47929729340E+02  0.37662770400E+03  0.00000000000E+00 0.  1.
         22    1    1    2    0    0 -0.98161600338E+03  0.64569505341E+03 -0.12128054582E+04  0.16886056850E+04  0.00000000000E+00 0. -1.
<mgrwt>
<rscale>  0 0.25361245E+04</rscale>
<asrwt>0</asrwt>
<pdfrwt beam="1">  1        2 0.32567439E+00 0.25361245E+04</pdfrwt>
<pdfrwt beam="2">  1       -2 0.11686133E+00 0.25361245E+04</pdfrwt>
<totfact> 0.28982766E+00</totfact>
</mgrwt>
</event>
<event>
 6    1  0.1719556E-004  0.1985414E+04  0.7818608E-02  0.8613470E-01
          2   -1    0    0  501    0  0.00000000000E+00  0.00000000000E+00  0.41667194284E+04  0.41667194284E+04  0.00000000000E+00 0.  1.
         -2   -1    0    0    0  501 -0.00000000000E+00 -0.00000000000E+00 -0.23650919565E+03  0.23650919565E+03  0.00000000000E+00 0. -1.
         23    2    1    2    0    0 -0.54960506621E+03 -0.59643172556E+03  0.32306043586E+04  0.33321334316E+04  0.92261326692E+02 0.  0.
         11    1    3    3    0    0 -0.25165973585E+03 -0.22671495999E+03  0.14810440426E+04  0.15192839603E+04  0.00000000000E+00 0. -1.
        -11    1    3    3    0    0 -0.29794533036E+03 -0.36971676557E+03  0.17495603159E+04  0.18128494713E+04  0.00000000000E+00 0.  1.
         22    1    1    2    0    0  0.54960506621E+03  0.59643172556E+03  0.69960587415E+03  0.10710951924E+04  0.00000000000E+00 0. -1.
<mgrwt>
<rscale>  0 0.19854143E+04</rscale>
<asrwt>0</asrwt>
<pdfrwt beam="1">  1        2 0.64103370E+00 0.19854143E+04</pdfrwt>
<pdfrwt beam="2">  1       -2 0.36386033E-01 0.19854143E+04</pdfrwt>
<totfact> 0.16640458E+00</totfact>
</mgrwt>
</event>
<event>
 6    1  0.1719556E-004  0.1836580E+04  0.7818608E-02  0.8687085E-01
         -2   -1    0    0    0  501 -0.00000000000E+00  0.00000000000E+00  0.49969267622E+03  0.49969267622E+03  0.00000000000E+00 0. -1.
          2   -1    0    0  501    0  0.00000000000E+00 -0.00000000000E+00 -0.16875499668E+04  0.16875499668E+04  0.00000000000E+00 0.  1.
         23    2    1    2    0    0  0.12648036822E+03 -0.83911213276E+03 -0.10060750630E+04  0.13193997810E+04  0.92316275120E+02 0.  0.
         11    1    3    3    0    0  0.13532321180E+03 -0.75555170222E+03 -0.93192525940E+03  0.12073340198E+04  0.00000000000E+00 0.  1.
        -11    1    3    3    0    0 -0.88428435751E+01 -0.83560430547E+02 -0.74149803637E+02  0.11206576112E+03  0.00000000000E+00 0. -1.
         22    1    1    2    0    0 -0.12648036822E+03  0.83911213276E+03 -0.18178222750E+03  0.86784286201E+03  0.00000000000E+00 0.  1.
<mgrwt>
<rscale>  0 0.18365798E+04</rscale>
<asrwt>0</asrwt>
<pdfrwt beam="1">  1        2 0.25962307E+00 0.18365798E+04</pdfrwt>
<pdfrwt beam="2">  1       -2 0.76875797E-01 0.18365798E+04</pdfrwt>
<totfact> 0.14175559E+01</totfact>
</mgrwt>
</event>
<event>
 6    1  0.1719556E-004  0.9123261E+03  0.7818608E-02  0.9410303E-01
         -2   -1    0    0    0  501 -0.00000000000E+00  0.00000000000E+00  0.35110996263E+03  0.35110996263E+03  0.00000000000E+00 0. -1.
          2   -1    0    0  501    0  0.00000000000E+00 -0.00000000000E+00 -0.59264834981E+03  0.59264834981E+03  0.00000000000E+00 0.  1.
         23    2    1    2    0    0  0.15362841655E+03  0.12581840610E+03  0.29744718615E+03  0.36935652803E+03  0.92290056678E+02 0.  0.
         11    1    3    3    0    0  0.46278915579E+02  0.75918114100E+02  0.18874777610E+03  0.20864089019E+03  0.00000000000E+00 0.  1.
        -11    1    3    3    0    0  0.10734950097E+03  0.49900292004E+02  0.10869941005E+03  0.16071563784E+03  0.00000000000E+00 0. -1.
         22    1    1    2    0    0 -0.15362841655E+03 -0.12581840610E+03 -0.53898557333E+03  0.57440178442E+03  0.00000000000E+00 0.  1.
<mgrwt>
<rscale>  0 0.91232613E+03</rscale>
<asrwt>0</asrwt>
<pdfrwt beam="1">  1        2 0.91176669E-01 0.91232613E+03</pdfrwt>
<pdfrwt beam="2">  1       -2 0.54016918E-01 0.91232613E+03</pdfrwt>
<totfact> 0.16298363E+02</totfact>
</mgrwt>
</event>
<event>
 6    1  0.1719556E-004  0.2614674E+04  0.7818608E-02  0.8363234E-01
         -2   -1    0    0    0  501 -0.00000000000E+00  0.00000000000E+00  0.84018626445E+03  0.84018626445E+03  0.00000000000E+00 0. -1.
          2   -1    0    0  501    0  0.00000000000E+00 -0.00000000000E+00 -0.20342270212E+04  0.20342270212E+04  0.00000000000E+00 0.  1.
         23    2    1    2    0    0 -0.29906863613E+03  0.64291004860E+03  0.60778224408E+03  0.93809164242E+03  0.88551079321E+02 0.  0.
         13    1    3    3    0    0 -0.19479914119E+03  0.48897401739E+03  0.41513300735E+03  0.67035640437E+03  0.00000000000E+00 0. -1.
        -13    1    3    3    0    0 -0.10426949493E+03  0.15393603121E+03  0.19264923673E+03  0.26773523805E+03  0.00000000000E+00 0.  1.
         22    1    1    2    0    0  0.29906863613E+03 -0.64291004860E+03 -0.18018230009E+04  0.19363216433E+04  0.00000000000E+00 0.  1.
<mgrwt>
<rscale>  0 0.26146737E+04</rscale>
<asrwt>0</asrwt>
<pdfrwt beam="1">  1        2 0.31295800E+00 0.26146737E+04</pdfrwt>
<pdfrwt beam="2">  1       -2 0.12925943E+00 0.26146737E+04</pdfrwt>
<totfact> 0.24892826E+00</totfact>
</mgrwt>
</event>
<event>
 6    1  0.1719556E-004  0.3259361E+04  0.7818608E-02  0.8173314E-01
          2   -1    0    0  501    0  0.00000000000E+00  0.00000000000E+00  0.10166372657E+04  0.10166372657E+04  0.00000000000E+00 0.  1.
         -2   -1    0    0    0  501 -0.00000000000E+00 -0.00000000000E+00 -0.26123960097E+04  0.26123960097E+04  0.00000000000E+00 0. -1.
         23    2    1    2    0    0  0.58992593349E+03  0.64121978622E+03 -0.23302298410E+04  0.24894617710E+04  0.90958101603E+02 0.  0.
         11    1    3    3    0    0  0.35742834301E+03  0.40985096646E+03 -0.15690792985E+04  0.16606452602E+04  0.00000000000E+00 0.  1.
        -11    1    3    3    0    0  0.23249759048E+03  0.23136881976E+03 -0.76115054248E+03  0.82881651085E+03  0.00000000000E+00 0. -1.
         22    1    1    2    0    0 -0.58992593349E+03 -0.64121978622E+03  0.73447109696E+03  0.11395715043E+04  0.00000000000E+00 0.  1.
<mgrwt>
<rscale>  0 0.32593614E+04</rscale>
<asrwt>0</asrwt>
<pdfrwt beam="1">  1        2 0.15640574E+00 0.32593614E+04</pdfrwt>
<pdfrwt beam="2">  1       -2 0.40190707E+00 0.32593614E+04</pdfrwt>
<totfact> 0.14839486E-01</totfact>
</mgrwt>
</event>
<event>
 6    1  0.1719556E-004  0.3309283E+04  0.7818608E-02  0.8160537E-01
          2   -1    0    0  501    0  0.00000000000E+00  0.00000000000E+00  0.18336337587E+04  0.18336337587E+04  0.00000000000E+00 0.  1.
         -2   -1    0    0    0  501 -0.00000000000E+00 -0.00000000000E+00 -0.14931214194E+04  0.14931214194E+04  0.00000000000E+00 0. -1.
         23    2    1    2    0    0  0.36263996696E+03  0.13184025492E+04 -0.76399894761E+03  0.15690185055E+04  0.91824023701E+02 0.  0.
         11    1    3    3    0    0  0.30577646728E+03  0.11634936141E+04 -0.70129352889E+03  0.13924903058E+04  0.00000000000E+00 0. -1.
        -11    1    3    3    0    0  0.56863499681E+02  0.15490893508E+03 -0.62705418715E+02  0.17652819973E+03  0.00000000000E+00 0.  1.
         22    1    1    2    0    0 -0.36263996696E+03 -0.13184025492E+04  0.11045112869E+04  0.17577366726E+04  0.00000000000E+00 0.  1.
<mgrwt>
<rscale>  0 0.33092826E+04</rscale>
<asrwt>0</asrwt>
<pdfrwt beam="1">  1        2 0.28209750E+00 0.33092826E+04</pdfrwt>
<pdfrwt beam="2">  1       -2 0.22971099E+00 0.33092826E+04</pdfrwt>
<totfact> 0.59230900E-01</totfact>
</mgrwt>
</event>
<event>
 6    1  0.1719556E-004  0.1937469E+04  0.7818608E-02  0.8636427E-01
         -2   -1    0    0    0  501 -0.00000000000E+00  0.00000000000E+00  0.54658935236E+03  0.54658935236E+03  0.00000000000E+00 0. -1.
          2   -1    0    0  501    0  0.00000000000E+00 -0.00000000000E+00 -0.17169131446E+04  0.17169131446E+04  0.00000000000E+00 0.  1.
         23    2    1    2    0    0  0.49124565228E+03  0.28192853216E+03 -0.15014755913E+04  0.16074022743E+04  0.92234115472E+02 0.  0.
         11    1    3    3    0    0  0.24378486864E+03  0.10573203405E+03 -0.60275163590E+03  0.65872593677E+03  0.00000000000E+00 0. -1.
        -11    1    3    3    0    0  0.24746078364E+03  0.17619649811E+03 -0.89872395538E+03  0.94867633751E+03  0.00000000000E+00 0.  1.
         22    1    1    2    0    0 -0.49124565228E+03 -0.28192853216E+03  0.33115179906E+03  0.65610022264E+03  0.00000000000E+00 0. -1.
<mgrwt>
<rscale>  0 0.19374689E+04</rscale>
<asrwt>0</asrwt>
<pdfrwt beam="1">  1        2 0.26414048E+00 0.19374689E+04</pdfrwt>
<pdfrwt beam="2">  1       -2 0.84090671E-01 0.19374689E+04</pdfrwt>
<totfact> 0.11064244E+01</totfact>
</mgrwt>
</event>
<event>
 6    1  0.1719556E-004  0.1738231E+04  0.7818608E-02  0.8739856E-01
         -2   -1    0    0    0  501 -0.00000000000E+00  0.00000000000E+00  0.51644909039E+03  0.51644909039E+03  0.00000000000E+00 0. -1.
          2   -1    0    0  501    0  0.00000000000E+00 -0.00000000000E+00 -0.14626055970E+04  0.14626055970E+04  0.00000000000E+00 0.  1.
         23    2    1    2    0    0 -0.44706398446E+03  0.55660877455E+03 -0.10339095204E+04  0.12597632822E+04  0.91406218392E+02 0.  0.
         13    1    3    3    0    0 -0.36449192833E+03  0.42656220752E+03 -0.74865635445E+03  0.93557256253E+03  0.00000000000E+00 0. -1.
        -13    1    3    3    0    0 -0.82572056128E+02  0.13004656703E+03 -0.28525316598E+03  0.32419071971E+03  0.00000000000E+00 0.  1.
         22    1    1    2    0    0  0.44706398446E+03 -0.55660877455E+03  0.87753013805E+02  0.71929140516E+03  0.00000000000E+00 0. -1.
<mgrwt>
<rscale>  0 0.17382305E+04</rscale>
<asrwt>0</asrwt>
<pdfrwt beam="1">  1        2 0.22501625E+00 0.17382305E+04</pdfrwt>
<pdfrwt beam="2">  1       -2 0.79453706E-01 0.17382305E+04</pdfrwt>
<totfact> 0.17750183E+01</totfact>
</mgrwt>
</event>
<event>
 6    1  0.1719556E-004  0.1188498E+04  0.7818608E-02  0.9122984E-01
         -1   -1    0    0    0  501 -0.00000000000E+00  0.00000000000E+00  0.23410677513E+03  0.23410677513E+03  0.00000000000E+00 0. -1.
          1   -1    0    0  501    0  0.00000000000E+00 -0.00000000000E+00 -0.15084227179E+04  0.15084227179E+04  0.00000000000E+00 0.  1.
         23    2    1    2    0    0  0.54105341783E+03 -0.69633270685E+02 -0.97310647702E+03  0.11193804454E+04  0.92134535285E+02 0.  0.
         13    1    3    3    0    0  0.24769705733E+03 -0.12185403271E+02 -0.35829584496E+03  0.43575019080E+03  0.00000000000E+00 0. -1.
        -13    1    3    3    0    0  0.29335636050E+03 -0.57447867414E+02 -0.61481063205E+03  0.68363025460E+03  0.00000000000E+00 0.  1.
         22    1    1    2    0    0 -0.54105341783E+03  0.69633270685E+02 -0.30120946577E+03  0.62314904766E+03  0.00000000000E+00 0. -1.
<mgrwt>
<rscale>  0 0.11884982E+04</rscale>
<asrwt>0</asrwt>
<pdfrwt beam="1">  1        1 0.23206504E+00 0.11884982E+04</pdfrwt>
<pdfrwt beam="2">  1       -1 0.36016427E-01 0.11884982E+04</pdfrwt>
<totfact> 0.47108841E+01</totfact>
</mgrwt>
</event>
<event>
 6    1  0.1719556E-004  0.3377021E+04  0.7818608E-02  0.8143569E-01
         -1   -1    0    0    0  501 -0.00000000000E+00  0.00000000000E+00  0.16367318926E+04  0.16367318926E+04  0.00000000000E+00 0. -1.
          1   -1    0    0  501    0  0.00000000000E+00 -0.00000000000E+00 -0.17419271805E+04  0.17419271805E+04  0.00000000000E+00 0.  1.
         23    2    1    2    0    0 -0.10134909326E+04 -0.54861820340E+03 -0.12854481095E+04  0.17290704800E+04  0.95718749504E+02 0.  0.
         11    1    3    3    0    0 -0.53106589772E+03 -0.33073039758E+03 -0.65315916204E+03  0.90445037153E+03  0.00000000000E+00 0. -1.
        -11    1    3    3    0    0 -0.48242503485E+03 -0.21788780583E+03 -0.63228894746E+03  0.82462010845E+03  0.00000000000E+00 0.  1.
         22    1    1    2    0    0  0.10134909326E+04  0.54861820340E+03  0.11802528216E+04  0.16495885931E+04  0.00000000000E+00 0. -1.
<mgrwt>
<rscale>  0 0.33770210E+04</rscale>
<asrwt>0</asrwt>
<pdfrwt beam="1">  1        1 0.26798880E+00 0.33770210E+04</pdfrwt>
<pdfrwt beam="2">  1       -1 0.25180491E+00 0.33770210E+04</pdfrwt>
<totfact> 0.24957623E-01</totfact>
</mgrwt>
</event>
<event>
 6    1  0.1719556E-004  0.7853932E+03  0.7818608E-02  0.9581404E-01
          2   -1    0    0  501    0  0.00000000000E+00  0.00000000000E+00  0.16113230063E+04  0.16113230063E+04  0.00000000000E+00 0.  1.
         -2   -1    0    0    0  501 -0.00000000000E+00 -0.00000000000E+00 -0.95704338485E+02  0.95704338485E+02  0.00000000000E+00 0. -1.
         23    2    1    2    0    0 -0.15928247694E+03  0.25037833576E+03  0.13094478174E+04  0.13456872860E+04  0.90335302581E+02 0.  0.
         13    1    3    3    0    0 -0.91397285986E+02  0.14557030997E+03  0.55602017300E+03  0.58198162497E+03  0.00000000000E+00 0.  1.
        -13    1    3    3    0    0 -0.67885190951E+02  0.10480802579E+03  0.75342764439E+03  0.76370566107E+03  0.00000000000E+00 0. -1.
         22    1    1    2    0    0  0.15928247694E+03 -0.25037833576E+03  0.20617085040E+03  0.36134005871E+03  0.00000000000E+00 0. -1.
<mgrwt>
<rscale>  0 0.78539316E+03</rscale>
<asrwt>0</asrwt>
<pdfrwt beam="1">  1        2 0.24789583E+00 0.78539316E+03</pdfrwt>
<pdfrwt beam="2">  1       -2 0.14723746E-01 0.78539316E+03</pdfrwt>
<totfact> 0.40231884E+02</totfact>
</mgrwt>
</event>
<event>
 6    1  0.1719556E-004  0.1280162E+04  0.7818608E-02  0.9045447E-01
          2   -1    0    0  501    0  0.00000000000E+00  0.00000000000E+00  0.27303748787E+04  0.27303748787E+04  0.00000000000E+00 0.  1.
         -2   -1    0    0    0  501 -0.00000000000E+00 -0.00000000000E+00 -0.15005396145E+03  0.15005396145E+03  0.00000000000E+00 0. -1.
         23    2    1    2    0    0  0.44665216926E+03  0.76021536110E+02  0.23036446618E+04  0.23495548584E+04  0.91388566860E+02 0.  0.
         11    1    3    3    0    0  0.36752788802E+03  0.63625612642E+02  0.16877536400E+04  0.17284783240E+04  0.00000000000E+00 0.  1.
        -11    1    3    3    0    0  0.79124281236E+02  0.12395923468E+02  0.61589102181E+03  0.62107653437E+03  0.00000000000E+00 0. -1.
         22    1    1    2    0    0 -0.44665216926E+03 -0.76021536110E+02  0.27667625543E+03  0.53087398182E+03  0.00000000000E+00 0. -1.
<mgrwt>
<rscale>  0 0.12801618E+04</rscale>
<asrwt>0</asrwt>
<pdfrwt beam="1">  1        2 0.42005764E+00 0.12801618E+04</pdfrwt>
<pdfrwt beam="2">  1       -2 0.23085227E-01 0.12801618E+04</pdfrwt>
<totfact> 0.41736347E+01</totfact>
</mgrwt>
</event>
<event>
 6    1  0.1719556E-004  0.4033288E+04  0.7818608E-02  0.7997865E-01
         -2   -1    0    0    0  501 -0.00000000000E+00  0.00000000000E+00  0.12434791524E+04  0.12434791524E+04  0.00000000000E+00 0. -1.
          2   -1    0    0  501    0  0.00000000000E+00 -0.00000000000E+00 -0.32705440244E+04  0.32705440244E+04  0.00000000000E+00 0.  1.
         23    2    1    2    0    0  0.13252903858E+04 -0.14947177706E+04 -0.13143728318E+04  0.23930550571E+04  0.92524293791E+02 0.  0.
         11    1    3    3    0    0  0.66871482148E+03 -0.68547324301E+03 -0.62038042005E+03  0.11410192570E+04  0.00000000000E+00 0. -1.
        -11    1    3    3    0    0  0.65657556434E+03 -0.80924452759E+03 -0.69399241172E+03  0.12520358001E+04  0.00000000000E+00 0.  1.
         22    1    1    2    0    0 -0.13252903858E+04  0.14947177706E+04 -0.71269204022E+03  0.21209681197E+04  0.00000000000E+00 0.  1.
<mgrwt>
<rscale>  0 0.40332881E+04</rscale>
<asrwt>0</asrwt>
<pdfrwt beam="1">  1        2 0.50316062E+00 0.40332881E+04</pdfrwt>
<pdfrwt beam="2">  1       -2 0.19130449E+00 0.40332881E+04</pdfrwt>
<totfact> 0.13910831E-01</totfact>
</mgrwt>
</event>
<event>
 6    1  0.1719556E-004  0.8936410E+03  0.7818608E-02  0.9433566E-01
          1   -1    0    0  501    0  0.00000000000E+00  0.00000000000E+00  0.70089812702E+03  0.70089812702E+03  0.00000000000E+00 0.  1.
         -1   -1    0    0    0  501 -0.00000000000E+00 -0.00000000000E+00 -0.28484675561E+03  0.28484675561E+03  0.00000000000E+00 0. -1.
         23    2    1    2    0    0  0.21792760018E+03  0.31774696857E+03 -0.28978468636E+02  0.39709631727E+03  0.91597808877E+02 0.  0.
         11    1    3    3    0    0  0.15750613018E+03  0.23755180675E+03  0.19312220014E+02  0.28567814719E+03  0.00000000000E+00 0. -1.
        -11    1    3    3    0    0  0.60421469995E+02  0.80195161820E+02 -0.48290688650E+02  0.11141817009E+03  0.00000000000E+00 0.  1.
         22    1    1    2    0    0 -0.21792760018E+03 -0.31774696857E+03  0.44502984005E+03  0.58864856536E+03  0.00000000000E+00 0.  1.
<mgrwt>
<rscale>  0 0.89364100E+03</rscale>
<asrwt>0</asrwt>
<pdfrwt beam="1">  1        1 0.10783048E+00 0.89364100E+03</pdfrwt>
<pdfrwt beam="2">  1       -1 0.43822578E-01 0.89364100E+03</pdfrwt>
<totfact> 0.14094960E+02</totfact>
</mgrwt>
</event>
<event>
 6    1  0.1719556E-004  0.1629075E+04  0.7818608E-02  0.8802883E-01
         -1   -1    0    0    0  501 -0.00000000000E+00  0.00000000000E+00  0.67494959350E+03  0.67494959350E+03  0.00000000000E+00 0.  1.
          1   -1    0    0  501    0  0.00000000000E+00 -0.00000000000E+00 -0.98299349202E+03  0.98299349202E+03  0.00000000000E+00 0. -1.
         23    2    1    2    0    0 -0.82468896642E+02 -0.59518001914E+03 -0.71040327839E+03  0.93480171299E+03  0.90227770479E+02 0.  0.
         11    1    3    3    0    0 -0.81567402093E+02 -0.27077355941E+03 -0.31391183455E+03  0.42250704306E+03  0.00000000000E+00 0.  1.
        -11    1    3    3    0    0 -0.90149454907E+00 -0.32440645973E+03 -0.39649144384E+03  0.51229466994E+03  0.00000000000E+00 0. -1.
         22    1    1    2    0    0  0.82468896642E+02  0.59518001914E+03  0.40235937987E+03  0.72314137253E+03  0.00000000000E+00 0.  1.
<mgrwt>
<rscale>  0 0.16290747E+04</rscale>
<asrwt>0</asrwt>
<pdfrwt beam="1">  1        1 0.15122977E+00 0.16290747E+04</pdfrwt>
<pdfrwt beam="2">  1       -1 0.10383840E+00 0.16290747E+04</pdfrwt>
<totfact> 0.13053234E+01</totfact>
</mgrwt>
</event>
<event>
 6    1  0.1719556E-004  0.1104477E+04  0.7818608E-02  0.9200840E-01
         -2   -1    0    0    0  501 -0.00000000000E+00  0.00000000000E+00  0.29816766014E+03  0.29816766014E+03  0.00000000000E+00 0. -1.
          2   -1    0    0  501    0  0.00000000000E+00 -0.00000000000E+00 -0.10228042478E+04  0.10228042478E+04  0.00000000000E+00 0.  1.
         23    2    1    2    0    0 -0.97154536860E+02  0.53515863782E+03 -0.27634227433E+03  0.61613039170E+03  0.86126856042E+02 0.  0.
         11    1    3    3    0    0 -0.11012726312E+03  0.39939224914E+03 -0.20837591808E+03  0.46374853746E+03  0.00000000000E+00 0.  1.
        -11    1    3    3    0    0  0.12972726264E+02  0.13576638868E+03 -0.67966356247E+02  0.15238185424E+03  0.00000000000E+00 0. -1.
         22    1    1    2    0    0  0.97154536860E+02 -0.53515863782E+03 -0.44829431338E+03  0.70484151628E+03  0.00000000000E+00 0. -1.
<mgrwt>
<rscale>  0 0.11044766E+04</rscale>
<asrwt>0</asrwt>
<pdfrwt beam="1">  1        2 0.15735450E+00 0.11044766E+04</pdfrwt>
<pdfrwt beam="2">  1       -2 0.45871948E-01 0.11044766E+04</pdfrwt>
<totfact> 0.10889531E+02</totfact>
</mgrwt>
</event>
<event>
 6    1  0.1719556E-004  0.2566120E+04  0.7818608E-02  0.8379801E-01
         -2   -1    0    0    0  501 -0.00000000000E+00  0.00000000000E+00  0.87152937458E+03  0.87152937458E+03  0.00000000000E+00 0. -1.
          2   -1    0    0  501    0  0.00000000000E+00 -0.00000000000E+00 -0.18889124590E+04  0.18889124590E+04  0.00000000000E+00 0.  1.
         23    2    1    2    0    0 -0.76663748833E+03 -0.85912385488E+02  0.59151703562E+03  0.97615666221E+03  0.88743728008E+02 0.  0.
         11    1    3    3    0    0 -0.49215950343E+03 -0.60046611020E+02  0.32591223861E+03  0.59333410452E+03  0.00000000000E+00 0. -1.
        -11    1    3    3    0    0 -0.27447798490E+03 -0.25865774467E+02  0.26560479700E+03  0.38282255769E+03  0.00000000000E+00 0.  1.
         22    1    1    2    0    0  0.76663748833E+03  0.85912385488E+02 -0.16089001200E+04  0.17842851713E+04  0.00000000000E+00 0.  1.
<mgrwt>
<rscale>  0 0.25661198E+04</rscale>
<asrwt>0</asrwt>
<pdfrwt beam="1">  1        2 0.29060192E+00 0.25661198E+04</pdfrwt>
<pdfrwt beam="2">  1       -2 0.13408144E+00 0.25661198E+04</pdfrwt>
<totfact> 0.27429243E+00</totfact>
</mgrwt>
</event>
<event>
 6    1  0.1719556E-004  0.2030550E+04  0.7818608E-02  0.8592469E-01
          2   -1    0    0  501    0  0.00000000000E+00  0.00000000000E+00  0.59306225848E+03  0.59306225848E+03  0.00000000000E+00 0.  1.
         -2   -1    0    0    0  501 -0.00000000000E+00 -0.00000000000E+00 -0.17380687960E+04  0.17380687960E+04  0.00000000000E+00 0. -1.
         23    2    1    2    0    0 -0.43682758998E+03  0.91407344882E+03 -0.54875155045E+03  0.11556019724E+04  0.89101298093E+02 0.  0.
         13    1    3    3    0    0 -0.16884531005E+03  0.25894108480E+03 -0.16153942946E+03  0.34878963774E+03  0.00000000000E+00 0.  1.
        -13    1    3    3    0    0 -0.26798227992E+03  0.65513236402E+03 -0.38721212099E+03  0.80681233468E+03  0.00000000000E+00 0. -1.
         22    1    1    2    0    0  0.43682758998E+03 -0.91407344882E+03 -0.59625498708E+03  0.11755290821E+04  0.00000000000E+00 0. -1.
<mgrwt>
<rscale>  0 0.20305497E+04</rscale>
<asrwt>0</asrwt>
<pdfrwt beam="1">  1        2 0.91240349E-01 0.20305497E+04</pdfrwt>
<pdfrwt beam="2">  1       -2 0.26739520E+00 0.20305497E+04</pdfrwt>
<totfact> 0.23439870E+00</totfact>
</mgrwt>
</event>
<event>
 6    1  0.1719556E-004  0.2079630E+04  0.7818608E-02  0.8570270E-01
          2   -1    0    0  501    0  0.00000000000E+00  0.00000000000E+00  0.14611509519E+04  0.14611509519E+04  0.00000000000E+00 0. -1.
         -2   -1    0    0    0  501 -0.00000000000E+00 -0.00000000000E+00 -0.73997520122E+03  0.73997520122E+03  0.00000000000E+00 0.  1.
         23    2    1    2    0    0 -0.38910316418E+03  0.14896513538E+03  0.13673377050E+04  0.14322847163E+04  0.90748140380E+02 0.  0.
         13    1    3    3    0    0 -0.80327698075E+02  0.20730513996E+02  0.40814654145E+03  0.41649236798E+03  0.00000000000E+00 0. -1.
        -13    1    3    3    0    0 -0.30877546610E+03  0.12823462139E+03  0.95919116356E+03  0.10157923483E+04  0.00000000000E+00 0.  1.
         22    1    1    2    0    0  0.38910316418E+03 -0.14896513538E+03 -0.64616195428E+03  0.76884143690E+03  0.00000000000E+00 0.  1.
<mgrwt>
<rscale>  0 0.20796302E+04</rscale>
<asrwt>0</asrwt>
<pdfrwt beam="1">  1        2 0.22479245E+00 0.20796302E+04</pdfrwt>
<pdfrwt beam="2">  1       -2 0.11384234E+00 0.20796302E+04</pdfrwt>
<totfact> 0.74513507E+00</totfact>
</mgrwt>
</event>
<event>
 6    1  0.1719556E-004  0.1162564E+04  0.7818608E-02  0.9146270E-01
          2   -1    0    0  501    0  0.00000000000E+00  0.00000000000E+00  0.35621374870E+04  0.35621374870E+04  0.00000000000E+00 0. -1.
         -2   -1    0    0    0  501 -0.00000000000E+00 -0.00000000000E+00 -0.94855598687E+02  0.94855598687E+02  0.00000000000E+00 0.  1.
         23    2    1    2    0    0 -0.83283941461E+02 -0.38807778861E+03  0.30649276312E+04  0.30918121119E+04  0.89331774268E+02 0.  0.
         11    1    3    3    0    0 -0.30361019528E+02 -0.27882348841E+02  0.40332406502E+03  0.40542510813E+03  0.00000000000E+00 0.  1.
        -11    1    3    3    0    0 -0.52922921933E+02 -0.36019543977E+03  0.26616035661E+04  0.26863870037E+04  0.00000000000E+00 0. -1.
         22    1    1    2    0    0  0.83283941461E+02  0.38807778861E+03  0.40235425712E+03  0.56518097380E+03  0.00000000000E+00 0.  1.
<mgrwt>
<rscale>  0 0.11625639E+04</rscale>
<asrwt>0</asrwt>
<pdfrwt beam="1">  1        2 0.54802105E+00 0.11625639E+04</pdfrwt>
<pdfrwt beam="2">  1       -2 0.14593172E-01 0.11625639E+04</pdfrwt>
<totfact> 0.27541092E+01</totfact>
</mgrwt>
</event>
<event>
 6    1  0.1719556E-004  0.1182015E+04  0.7818608E-02  0.9128746E-01
         -2   -1    0    0    0  501 -0.00000000000E+00  0.00000000000E+00  0.23852673510E+03  0.23852673510E+03  0.00000000000E+00 0. -1.
          2   -1    0    0  501    0  0.00000000000E+00 -0.00000000000E+00 -0.14643632205E+04  0.14643632205E+04  0.00000000000E+00 0.  1.
         23    2    1    2    0    0  0.16563418498E+03  0.67684251602E+02 -0.14227264689E+04  0.14368420149E+04  0.91370286329E+02 0.  0.
         11    1    3    3    0    0  0.68496320780E+02  0.68924254830E+02 -0.52893658764E+03  0.53778826001E+03  0.00000000000E+00 0.  1.
        -11    1    3    3    0    0  0.97137864203E+02 -0.12400032284E+01 -0.89378988129E+03  0.89905375488E+03  0.00000000000E+00 0. -1.
         22    1    1    2    0    0 -0.16563418498E+03 -0.67684251602E+02  0.19688998352E+03  0.26604794072E+03  0.00000000000E+00 0. -1.
<mgrwt>
<rscale>  0 0.11820149E+04</rscale>
<asrwt>0</asrwt>
<pdfrwt beam="1">  1        2 0.22528665E+00 0.11820149E+04</pdfrwt>
<pdfrwt beam="2">  1       -2 0.36696421E-01 0.11820149E+04</pdfrwt>
<totfact> 0.91821940E+01</totfact>
</mgrwt>
</event>
<event>
 6    1  0.1719556E-004  0.2890655E+04  0.7818608E-02  0.8275663E-01
          1   -1    0    0  501    0  0.00000000000E+00  0.00000000000E+00  0.19017555949E+04  0.19017555949E+04  0.00000000000E+00 0.  1.
         -1   -1    0    0    0  501 -0.00000000000E+00 -0.00000000000E+00 -0.10984436571E+04  0.10984436571E+04  0.00000000000E+00 0. -1.
         23    2    1    2    0    0 -0.10093412394E+03  0.28815142733E+03  0.18667545156E+04  0.18937955922E+04  0.92034673286E+02 0.  0.
         13    1    3    3    0    0 -0.11865878222E+03  0.25476415257E+03  0.16349468581E+04  0.16589261312E+04  0.00000000000E+00 0. -1.
        -13    1    3    3    0    0  0.17724658279E+02  0.33387274762E+02  0.23180765745E+03  0.23486946093E+03  0.00000000000E+00 0.  1.
         22    1    1    2    0    0  0.10093412394E+03 -0.28815142733E+03 -0.10634425777E+04  0.11064036598E+04  0.00000000000E+00 0. -1.
<mgrwt>
<rscale>  0 0.28906549E+04</rscale>
<asrwt>0</asrwt>
<pdfrwt beam="1">  1        1 0.29257778E+00 0.28906549E+04</pdfrwt>
<pdfrwt beam="2">  1       -1 0.16899133E+00 0.28906549E+04</pdfrwt>
<totfact> 0.74712268E-01</totfact>
</mgrwt>
</event>
<event>
 6    1  0.1719556E-004  0.2428279E+04  0.7818608E-02  0.8428991E-01
         -1   -1    0    0    0  501 -0.00000000000E+00  0.00000000000E+00  0.11576805615E+04  0.11576805615E+04  0.00000000000E+00 0.  1.
          1   -1    0    0  501    0  0.00000000000E+00 -0.00000000000E+00 -0.12733524010E+04  0.12733524010E+04  0.00000000000E+00 0. -1.
         23    2    1    2    0    0  0.36715832792E+03 -0.13474332605E+03  0.10905572875E+04  0.11629833939E+04  0.10126290202E+03 0.  0.
         11    1    3    3    0    0  0.17948527138E+02  0.14972040868E+02  0.49010149225E+02  0.54298309009E+02  0.00000000000E+00 0.  1.
        -11    1    3    3    0    0  0.34920980078E+03 -0.14971536691E+03  0.10415471383E+04  0.11086850849E+04  0.00000000000E+00 0. -1.
         22    1    1    2    0    0 -0.36715832792E+03  0.13474332605E+03 -0.12062291271E+04  0.12680495687E+04  0.00000000000E+00 0. -1.
<mgrwt>
<rscale>  0 0.24282795E+04</rscale>
<asrwt>0</asrwt>
<pdfrwt beam="1">  1        1 0.19590037E+00 0.24282795E+04</pdfrwt>
<pdfrwt beam="2">  1       -1 0.17810470E+00 0.24282795E+04</pdfrwt>
<totfact> 0.18148771E+00</totfact>
</mgrwt>
</event>
<event>
 6    1  0.1719556E-004  0.2187044E+04  0.7818608E-02  0.8523840E-01
          2   -1    0    0  501    0  0.00000000000E+00  0.00000000000E+00  0.21240967955E+04  0.21240967955E+04  0.00000000000E+00 0.  1.
         -2   -1    0    0    0  501 -0.00000000000E+00 -0.00000000000E+00 -0.56296440201E+03  0.56296440201E+03  0.00000000000E+00 0. -1.
         23    2    1    2    0    0 -0.13559633667E+03 -0.79695521072E+03 -0.11931710730E+03  0.82227314009E+03  0.91501750832E+02 0.  0.
         11    1    3    3    0    0 -0.11252263918E+03 -0.67464561445E+03 -0.13392021104E+03  0.69695241756E+03  0.00000000000E+00 0.  1.
        -11    1    3    3    0    0 -0.23073697489E+02 -0.12230959627E+03  0.14603103733E+02  0.12532072253E+03  0.00000000000E+00 0. -1.
         22    1    1    2    0    0  0.13559633667E+03  0.79695521072E+03  0.16804495008E+04  0.18647880574E+04  0.00000000000E+00 0.  1.
<mgrwt>
<rscale>  0 0.21870445E+04</rscale>
<asrwt>0</asrwt>
<pdfrwt beam="1">  1        2 0.32678412E+00 0.21870445E+04</pdfrwt>
<pdfrwt beam="2">  1       -2 0.86609909E-01 0.21870445E+04</pdfrwt>
<totfact> 0.60159452E+00</totfact>
</mgrwt>
</event>
<event>
 6    1  0.1719556E-004  0.1810429E+04  0.7818608E-02  0.8700773E-01
          2   -1    0    0  501    0  0.00000000000E+00  0.00000000000E+00  0.67575118515E+03  0.67575118515E+03  0.00000000000E+00 0.  1.
         -2   -1    0    0    0  501 -0.00000000000E+00 -0.00000000000E+00 -0.12125963440E+04  0.12125963440E+04  0.00000000000E+00 0. -1.
         23    2    1    2    0    0 -0.40158579413E+03 -0.78085474045E+03 -0.48821798408E+03  0.10089330206E+04  0.92648607162E+02 0.  0.
         11    1    3    3    0    0 -0.18921690290E+03 -0.46039442165E+03 -0.29590091615E+03  0.57907116316E+03  0.00000000000E+00 0.  1.
        -11    1    3    3    0    0 -0.21236889123E+03 -0.32046031880E+03 -0.19231706793E+03  0.42986185746E+03  0.00000000000E+00 0. -1.
         22    1    1    2    0    0  0.40158579413E+03  0.78085474045E+03 -0.48627174795E+02  0.87941450855E+03  0.00000000000E+00 0.  1.
<mgrwt>
<rscale>  0 0.18104291E+04</rscale>
<asrwt>0</asrwt>
<pdfrwt beam="1">  1        2 0.10396172E+00 0.18104291E+04</pdfrwt>
<pdfrwt beam="2">  1       -2 0.18655328E+00 0.18104291E+04</pdfrwt>
<totfact> 0.66025955E+00</totfact>
</mgrwt>
</event>
<event>
 6    1  0.1719556E-004  0.4900083E+04  0.7818608E-02  0.7844108E-01
          2   -1    0    0  501    0  0.00000000000E+00  0.00000000000E+00  0.36470545676E+04  0.36470545676E+04  0.00000000000E+00 0. -1.
         -2   -1    0    0    0  501 -0.00000000000E+00 -0.00000000000E+00 -0.16459041968E+04  0.16459041968E+04  0.00000000000E+00 0.  1.
         23    2    1    2    0    0 -0.10951772135E+03  0.22333785591E+04 -0.78653689714E+02  0.22391809647E+04  0.88153674032E+02 0.  0.
         13    1    3    3    0    0 -0.44417059622E+02  0.14646314936E+04 -0.19765681306E+02  0.14654381493E+04  0.00000000000E+00 0. -1.
        -13    1    3    3    0    0 -0.65100661728E+02  0.76874706549E+03 -0.58888008408E+02  0.77374281540E+03  0.00000000000E+00 0.  1.
         22    1    1    2    0    0  0.10951772135E+03 -0.22333785591E+04  0.20798040605E+04  0.30537777997E+04  0.00000000000E+00 0. -1.
<mgrwt>
<rscale>  0 0.49000826E+04</rscale>
<asrwt>0</asrwt>
<pdfrwt beam="1">  1        2 0.56108532E+00 0.49000826E+04</pdfrwt>
<pdfrwt beam="2">  1       -2 0.25321603E+00 0.49000826E+04</pdfrwt>
<totfact> 0.28686159E-02</totfact>
</mgrwt>
</event>
<event>
 6    1  0.1719556E-004  0.8844012E+03  0.7818608E-02  0.9445293E-01
          1   -1    0    0  501    0  0.00000000000E+00  0.00000000000E+00  0.11339773215E+04  0.11339773215E+04  0.00000000000E+00 0.  1.
         -1   -1    0    0    0  501 -0.00000000000E+00 -0.00000000000E+00 -0.17243853808E+03  0.17243853808E+03  0.00000000000E+00 0. -1.
         23    2    1    2    0    0 -0.78294830726E+02 -0.24665097759E+03 -0.34202404213E+02  0.27759746064E+03  0.94465657451E+02 0.  0.
         13    1    3    3    0    0  0.20858864771E+02 -0.62540275525E+02 -0.14944429210E+02  0.67599661735E+02  0.00000000000E+00 0.  1.
        -13    1    3    3    0    0 -0.99153695497E+02 -0.18411070206E+03 -0.19257975003E+02  0.20999779891E+03  0.00000000000E+00 0. -1.
         22    1    1    2    0    0  0.78294830726E+02  0.24665097759E+03  0.99574118765E+03  0.10288183990E+04  0.00000000000E+00 0.  1.
<mgrwt>
<rscale>  0 0.88440125E+03</rscale>
<asrwt>0</asrwt>
<pdfrwt beam="1">  1        1 0.17445804E+00 0.88440125E+03</pdfrwt>
<pdfrwt beam="2">  1       -1 0.26529007E-01 0.88440125E+03</pdfrwt>
<totfact> 0.15224934E+02</totfact>
</mgrwt>
</event>
<event>
 6    1  0.1719556E-004  0.6999002E+03  0.7818608E-02  0.9717403E-01
         -2   -1    0    0    0  501 -0.00000000000E+00  0.00000000000E+00  0.51937415618E+03  0.51937415618E+03  0.00000000000E+00 0. -1.
          2   -1    0    0  501    0  0.00000000000E+00 -0.00000000000E+00 -0.23579353952E+03  0.23579353952E+03  0.00000000000E+00 0.  1.
         23    2    1    2    0    0  0.19994938914E+03 -0.13089771938E+03 -0.12310603818E+03  0.28346015243E+03  0.89892103209E+02 0.  0.
         13    1    3    3    0    0  0.13634250740E+03 -0.37539631547E+02 -0.56252965103E+02  0.15219362452E+03  0.00000000000E+00 0. -1.
        -13    1    3    3    0    0  0.63606881738E+02 -0.93358087833E+02 -0.66853073082E+02  0.13126652791E+03  0.00000000000E+00 0.  1.
         22    1    1    2    0    0 -0.19994938914E+03  0.13089771938E+03  0.40668665484E+03  0.47170754327E+03  0.00000000000E+00 0. -1.
<mgrwt>
<rscale>  0 0.69990019E+03</rscale>
<asrwt>0</asrwt>
<pdfrwt beam="1">  1        2 0.36275929E-01 0.69990019E+03</pdfrwt>
<pdfrwt beam="2">  1       -2 0.79903716E-01 0.69990019E+03</pdfrwt>
<totfact> 0.20114391E+02</totfact>
</mgrwt>
</event>
<event>
 6    1  0.1719556E-004  0.5401293E+03  0.7818608E-02  0.1003805E+00
          2   -1    0    0  501    0  0.00000000000E+00  0.00000000000E+00  0.13086714136E+03  0.13086714136E+03  0.00000000000E+00 0.  1.
         -2   -1    0    0    0  501 -0.00000000000E+00 -0.00000000000E+00 -0.55732020354E+03  0.55732020354E+03  0.00000000000E+00 0. -1.
         23    2    1    2    0    0  0.20629884331E+03 -0.13232334841E+03 -0.95769455514E+02  0.27658033693E+03  0.85183407324E+02 0.  0.
         13    1    3    3    0    0  0.61578431941E+02 -0.26146605824E-01 -0.37196373279E+02  0.71940768338E+02  0.00000000000E+00 0.  1.
        -13    1    3    3    0    0  0.14472041137E+03 -0.13229720181E+03 -0.58573082235E+02  0.20463956860E+03  0.00000000000E+00 0. -1.
         22    1    1    2    0    0 -0.20629884331E+03  0.13232334841E+03 -0.33068360667E+03  0.41160700796E+03  0.00000000000E+00 0. -1.
<mgrwt>
<rscale>  0 0.54012925E+03</rscale>
<asrwt>0</asrwt>
<pdfrwt beam="1">  1        2 0.20133406E-01 0.54012925E+03</pdfrwt>
<pdfrwt beam="2">  1       -2 0.85741571E-01 0.54012925E+03</pdfrwt>
<totfact> 0.33670162E+02</totfact>
</mgrwt>
</event>
<event>
 6    1  0.1719556E-004  0.4005934E+04  0.7818608E-02  0.8003351E-01
          2   -1    0    0  501    0  0.00000000000E+00  0.00000000000E+00  0.23157124024E+04  0.23157124024E+04  0.00000000000E+00 0.  1.
         -2   -1    0    0    0  501 -0.00000000000E+00 -0.00000000000E+00 -0.17324590139E+04  0.17324590139E+04  0.00000000000E+00 0. -1.
         23    2    1    2    0    0 -0.16229622666E+04  0.11097580305E+04  0.67339687633E+03  0.20800008817E+04  0.85854003556E+02 0.  0.
         11    1    3    3    0    0 -0.71742044888E+03  0.52654971039E+03  0.27222386919E+03  0.93061943508E+03  0.00000000000E+00 0.  1.
        -11    1    3    3    0    0 -0.90554181767E+03  0.58320832014E+03  0.40117300714E+03  0.11493814466E+04  0.00000000000E+00 0. -1.
         22    1    1    2    0    0  0.16229622666E+04 -0.11097580305E+04 -0.90143487836E+02  0.19681705346E+04  0.00000000000E+00 0. -1.
<mgrwt>
<rscale>  0 0.40059340E+04</rscale>
<asrwt>0</asrwt>
<pdfrwt beam="1">  1        2 0.35626344E+00 0.40059340E+04</pdfrwt>
<pdfrwt beam="2">  1       -2 0.26653216E+00 0.40059340E+04</pdfrwt>
<totfact> 0.17823232E-01</totfact>
</mgrwt>
</event>
<event>
 6    1  0.1719556E-004  0.1768858E+04  0.7818608E-02  0.8723038E-01
         -2   -1    0    0    0  501 -0.00000000000E+00  0.00000000000E+00  0.73658903528E+03  0.73658903528E+03  0.00000000000E+00 0. -1.
          2   -1    0    0  501    0  0.00000000000E+00 -0.00000000000E+00 -0.10619411753E+04  0.10619411753E+04  0.00000000000E+00 0.  1.
         23    2    1    2    0    0  0.43504435391E+03  0.76719308899E+03 -0.16459285093E+03  0.90204129560E+03  0.93481905948E+02 0.  0.
         13    1    3    3    0    0  0.20022154908E+03  0.39912331464E+03 -0.41665931846E+02  0.44846865986E+03  0.00000000000E+00 0.  1.
        -13    1    3    3    0    0  0.23482280482E+03  0.36806977435E+03 -0.12292691908E+03  0.45357263574E+03  0.00000000000E+00 0. -1.
         22    1    1    2    0    0 -0.43504435391E+03 -0.76719308899E+03 -0.16075928911E+03  0.89648891498E+03  0.00000000000E+00 0. -1.
<mgrwt>
<rscale>  0 0.17688575E+04</rscale>
<asrwt>0</asrwt>
<pdfrwt beam="1">  1        2 0.16337556E+00 0.17688575E+04</pdfrwt>
<pdfrwt beam="2">  1       -2 0.11332139E+00 0.17688575E+04</pdfrwt>
<totfact> 0.13310118E+01</totfact>
</mgrwt>
</event>
<event>
 6    1  0.1719556E-004  0.5092569E+04  0.7818608E-02  0.7814384E-01
          2   -1    0    0  501    0  0.00000000000E+00  0.00000000000E+00  0.42477473278E+04  0.42477473278E+04  0.00000000000E+00 0.  1.
         -2   -1    0    0    0  501 -0.00000000000E+00 -0.00000000000E+00 -0.15263537043E+04  0.15263537043E+04  0.00000000000E+00 0. -1.
         23    2    1    2    0    0  0.52402445505E+03 -0.24365948876E+04  0.77432943003E+03  0.26114035680E+04  0.90808882647E+02 0.  0.
         13    1    3    3    0    0  0.37271815164E+03 -0.15275756812E+04  0.48047758696E+03  0.16441608783E+04  0.00000000000E+00 0.  1.
        -13    1    3    3    0    0  0.15130630341E+03 -0.90901920645E+03  0.29385184308E+03  0.96724268973E+03  0.00000000000E+00 0. -1.
         22    1    1    2    0    0 -0.52402445505E+03  0.24365948876E+04  0.19470641934E+04  0.31626974640E+04  0.00000000000E+00 0.  1.
<mgrwt>
<rscale>  0 0.50925690E+04</rscale>
<asrwt>0</asrwt>
<pdfrwt beam="1">  1        2 0.65349959E+00 0.50925690E+04</pdfrwt>
<pdfrwt beam="2">  1       -2 0.23482365E+00 0.50925690E+04</pdfrwt>
<totfact> 0.12090180E-02</totfact>
</mgrwt>
</event>
<event>
 6    1  0.1719556E-004  0.2104396E+04  0.7818608E-02  0.8559309E-01
          1   -1    0    0  501    0  0.00000000000E+00  0.00000000000E+00  0.16916577517E+04  0.16916577517E+04  0.00000000000E+00 0. -1.
         -1   -1    0    0    0  501 -0.00000000000E+00 -0.00000000000E+00 -0.65445913119E+03  0.65445913119E+03  0.00000000000E+00 0.  1.
         23    2    1    2    0    0  0.75968076504E+03 -0.44526829183E+03 -0.11845988384E+03  0.89321451345E+03  0.91764407506E+02 0.  0.
         13    1    3    3    0    0  0.49627923227E+03 -0.31925751061E+03 -0.43198051651E+02  0.59167939472E+03  0.00000000000E+00 0. -1.
        -13    1    3    3    0    0  0.26340153276E+03 -0.12601078123E+03 -0.75261832190E+02  0.30153511874E+03  0.00000000000E+00 0.  1.
         22    1    1    2    0    0 -0.75968076504E+03  0.44526829183E+03  0.11556585044E+04  0.14529023695E+04  0.00000000000E+00 0. -1.
<mgrwt>
<rscale>  0 0.21043962E+04</rscale>
<asrwt>0</asrwt>
<pdfrwt beam="1">  1        1 0.26025504E+00 0.21043962E+04</pdfrwt>
<pdfrwt beam="2">  1       -1 0.10068602E+00 0.21043962E+04</pdfrwt>
<totfact> 0.41649281E+00</totfact>
</mgrwt>
</event>
<event>
 6    1  0.1719556E-004  0.2723768E+04  0.7818608E-02  0.8327334E-01
          2   -1    0    0  501    0  0.00000000000E+00  0.00000000000E+00  0.20868848365E+04  0.20868848365E+04  0.00000000000E+00 0.  1.
         -2   -1    0    0    0  501 -0.00000000000E+00 -0.00000000000E+00 -0.88875446484E+03  0.88875446484E+03  0.00000000000E+00 0. -1.
         23    2    1    2    0    0  0.42860099147E+03  0.97361080263E+03 -0.32657473978E+03  0.11165151845E+04  0.91314246995E+02 0.  0.
         13    1    3    3    0    0  0.26632051127E+03  0.49220131029E+03 -0.17525154454E+03  0.58643145246E+03  0.00000000000E+00 0. -1.
        -13    1    3    3    0    0  0.16228048020E+03  0.48140949234E+03 -0.15132319523E+03  0.53008373205E+03  0.00000000000E+00 0.  1.
         22    1    1    2    0    0 -0.42860099147E+03 -0.97361080263E+03  0.15247051114E+04  0.18591241168E+04  0.00000000000E+00 0.  1.
<mgrwt>
<rscale>  0 0.27237681E+04</rscale>
<asrwt>0</asrwt>
<pdfrwt beam="1">  1        2 0.32105920E+00 0.27237681E+04</pdfrwt>
<pdfrwt beam="2">  1       -2 0.13673146E+00 0.27237681E+04</pdfrwt>
<totfact> 0.19979909E+00</totfact>
</mgrwt>
</event>
<event>
 6    1  0.1719556E-004  0.1658954E+04  0.7818608E-02  0.8785127E-01
          2   -1    0    0  501    0  0.00000000000E+00  0.00000000000E+00  0.31705553814E+04  0.31705553814E+04  0.00000000000E+00 0.  1.
         -2   -1    0    0    0  501 -0.00000000000E+00 -0.00000000000E+00 -0.21700693585E+03  0.21700693585E+03  0.00000000000E+00 0. -1.
         23    2    1    2    0    0 -0.82645128630E+03 -0.31208703292E+02  0.14777378059E+04  0.16958138856E+04  0.89888819856E+02 0.  0.
         11    1    3    3    0    0 -0.20087865643E+03 -0.46326417555E+02  0.36854332600E+03  0.42228255317E+03  0.00000000000E+00 0. -1.
        -11    1    3    3    0    0 -0.62557262987E+03  0.15117714263E+02  0.11091944799E+04  0.12735313324E+04  0.00000000000E+00 0.  1.
         22    1    1    2    0    0  0.82645128630E+03  0.31208703292E+02  0.14758106397E+04  0.16917484316E+04  0.00000000000E+00 0. -1.
<mgrwt>
<rscale>  0 0.16589545E+04</rscale>
<asrwt>0</asrwt>
<pdfrwt beam="1">  1        2 0.48777772E+00 0.16589545E+04</pdfrwt>
<pdfrwt beam="2">  1       -2 0.33385685E-01 0.16589545E+04</pdfrwt>
<totfact> 0.10920875E+01</totfact>
</mgrwt>
</event>
<event>
 6    1  0.1719556E-004  0.1748300E+04  0.7818608E-02  0.8734287E-01
          2   -1    0    0  501    0  0.00000000000E+00  0.00000000000E+00  0.26919956553E+04  0.26919956553E+04  0.00000000000E+00 0.  1.
         -2   -1    0    0    0  501 -0.00000000000E+00 -0.00000000000E+00 -0.28385572009E+03  0.28385572009E+03  0.00000000000E+00 0. -1.
         23    2    1    2    0    0 -0.30166133511E+02 -0.84308200477E+03  0.15814598615E+04  0.17947090441E+04  0.90928528170E+02 0.  0.
         13    1    3    3    0    0  0.26150151995E+02 -0.27965156876E+03  0.57372767524E+03  0.63878969598E+03  0.00000000000E+00 0.  1.
        -13    1    3    3    0    0 -0.56316285506E+02 -0.56343043601E+03  0.10077321862E+04  0.11559193482E+04  0.00000000000E+00 0. -1.
         22    1    1    2    0    0  0.30166133511E+02  0.84308200477E+03  0.82668007370E+03  0.11811423312E+04  0.00000000000E+00 0. -1.
<mgrwt>
<rscale>  0 0.17483002E+04</rscale>
<asrwt>0</asrwt>
<pdfrwt beam="1">  1        2 0.41415316E+00 0.17483002E+04</pdfrwt>
<pdfrwt beam="2">  1       -2 0.43670113E-01 0.17483002E+04</pdfrwt>
<totfact> 0.12684773E+01</totfact>
</mgrwt>
</event>
<event>
 6    1  0.1719556E-004  0.3799967E+04  0.7818608E-02  0.8046162E-01
          2   -1    0    0  501    0  0.00000000000E+00  0.00000000000E+00  0.36121611375E+04  0.36121611375E+04  0.00000000000E+00 0.  1.
         -2   -1    0    0    0  501 -0.00000000000E+00 -0.00000000000E+00 -0.99938442285E+03  0.99938442285E+03  0.00000000000E+00 0. -1.
         23    2    1    2    0    0  0.11715877512E+04 -0.82258093302E+03 -0.20692018955E+03  0.14492761408E+04  0.91258520394E+02 0.  0.
         11    1    3    3    0    0  0.46874686254E+03 -0.37757290912E+03 -0.10843762745E+03  0.61159107408E+03  0.00000000000E+00 0.  1.
        -11    1    3    3    0    0  0.70284088861E+03 -0.44500802389E+03 -0.98482562102E+02  0.83768506676E+03  0.00000000000E+00 0. -1.
         22    1    1    2    0    0 -0.11715877512E+04  0.82258093302E+03  0.28196969041E+04  0.31622694195E+04  0.00000000000E+00 0.  1.
<mgrwt>
<rscale>  0 0.37999671E+04</rscale>
<asrwt>0</asrwt>
<pdfrwt beam="1">  1        2 0.55571709E+00 0.37999671E+04</pdfrwt>
<pdfrwt beam="2">  1       -2 0.15375145E+00 0.37999671E+04</pdfrwt>
<totfact> 0.15187758E-01</totfact>
</mgrwt>
</event>
<event>
 6    1  0.1788758E-004  0.3376731E+04  0.7818608E-02  0.8143641E-01
         -1   -1    0    0    0  501 -0.00000000000E+00  0.00000000000E+00  0.79665829367E+03  0.79665829367E+03  0.00000000000E+00 0. -1.
          1   -1    0    0  501    0  0.00000000000E+00 -0.00000000000E+00 -0.35781691227E+04  0.35781691227E+04  0.00000000000E+00 0.  1.
         23    2    1    2    0    0 -0.90917158413E+03 -0.19856502957E+03 -0.32149806626E+04  0.33482227520E+04  0.92053762579E+02 0.  0.
         13    1    3    3    0    0 -0.49256015178E+03 -0.60917926658E+02 -0.17268213592E+04  0.17967299472E+04  0.00000000000E+00 0. -1.
        -13    1    3    3    0    0 -0.41661143235E+03 -0.13764710291E+03 -0.14881593035E+04  0.15514928047E+04  0.00000000000E+00 0.  1.
         22    1    1    2    0    0  0.90917158413E+03  0.19856502957E+03  0.43346983361E+03  0.10266046644E+04  0.00000000000E+00 0. -1.
<mgrwt>
<rscale>  0 0.33767310E+04</rscale>
<asrwt>0</asrwt>
<pdfrwt beam="1">  1        1 0.55048756E+00 0.33767310E+04</pdfrwt>
<pdfrwt beam="2">  1       -1 0.12256281E+00 0.33767310E+04</pdfrwt>
<totfact> 0.10475302E-01</totfact>
</mgrwt>
</event>
<event>
 6    1  0.1719556E-004  0.2416985E+04  0.7818608E-02  0.8433172E-01
          1   -1    0    0  501    0  0.00000000000E+00  0.00000000000E+00  0.10519597444E+04  0.10519597444E+04  0.00000000000E+00 0.  1.
         -1   -1    0    0    0  501 -0.00000000000E+00 -0.00000000000E+00 -0.13883177722E+04  0.13883177722E+04  0.00000000000E+00 0. -1.
         23    2    1    2    0    0  0.64794878905E+03  0.56067942473E+02  0.85791949633E+03  0.10803951497E+04  0.90810626136E+02 0.  0.
         11    1    3    3    0    0  0.50736642650E+03  0.64720641020E+02  0.72072141948E+03  0.88376966265E+03  0.00000000000E+00 0. -1.
        -11    1    3    3    0    0  0.14058236255E+03 -0.86526985474E+01  0.13719807685E+03  0.19662548701E+03  0.00000000000E+00 0.  1.
         22    1    1    2    0    0 -0.64794878905E+03 -0.56067942473E+02 -0.11942775241E+04  0.13598823669E+04  0.00000000000E+00 0. -1.
<mgrwt>
<rscale>  0 0.24169852E+04</rscale>
<asrwt>0</asrwt>
<pdfrwt beam="1">  1        1 0.16183996E+00 0.24169852E+04</pdfrwt>
<pdfrwt beam="2">  1       -1 0.21358735E+00 0.24169852E+04</pdfrwt>
<totfact> 0.15000411E+00</totfact>
</mgrwt>
</event>
<event>
 6    1  0.1719556E-004  0.2026137E+04  0.7818608E-02  0.8594497E-01
          2   -1    0    0  501    0  0.00000000000E+00  0.00000000000E+00  0.15890455603E+04  0.15890455603E+04  0.00000000000E+00 0.  1.
         -2   -1    0    0    0  501 -0.00000000000E+00 -0.00000000000E+00 -0.64586447278E+03  0.64586447278E+03  0.00000000000E+00 0. -1.
         23    2    1    2    0    0  0.44888980040E+03 -0.33323667875E+03 -0.45642828225E+03  0.72777529294E+03  0.93708928147E+02 0.  0.
         11    1    3    3    0    0  0.15951614406E+03 -0.65319468525E+02 -0.14608965016E+03  0.22595180696E+03  0.00000000000E+00 0.  1.
        -11    1    3    3    0    0  0.28937365634E+03 -0.26791721023E+03 -0.31033863208E+03  0.50182348598E+03  0.00000000000E+00 0. -1.
         22    1    1    2    0    0 -0.44888980040E+03  0.33323667875E+03  0.13996093698E+04  0.15071347402E+04  0.00000000000E+00 0.  1.
<mgrwt>
<rscale>  0 0.20261373E+04</rscale>
<asrwt>0</asrwt>
<pdfrwt beam="1">  1        2 0.24446855E+00 0.20261373E+04</pdfrwt>
<pdfrwt beam="2">  1       -2 0.99363766E-01 0.20261373E+04</pdfrwt>
<totfact> 0.87941614E+00</totfact>
</mgrwt>
</event>
<event>
 6    1  0.1719556E-004  0.1142493E+04  0.7818608E-02  0.9164737E-01
          2   -1    0    0  501    0  0.00000000000E+00  0.00000000000E+00  0.19504740754E+04  0.19504740754E+04  0.00000000000E+00 0.  1.
         -2   -1    0    0    0  501 -0.00000000000E+00 -0.00000000000E+00 -0.16730412168E+03  0.16730412168E+03  0.00000000000E+00 0. -1.
         23    2    1    2    0    0 -0.18112509480E+03 -0.26043668238E+03  0.35107668144E+02  0.34116475580E+03  0.12052915307E+03 0.  0.
         11    1    3    3    0    0 -0.12243437197E+03 -0.12759505809E+03  0.72625464421E+02  0.19116781207E+03  0.00000000000E+00 0. -1.
        -11    1    3    3    0    0 -0.58690722832E+02 -0.13284162429E+03 -0.37517796277E+02  0.14999694373E+03  0.00000000000E+00 0.  1.
         22    1    1    2    0    0  0.18112509480E+03  0.26043668238E+03  0.17480622856E+04  0.17766134413E+04  0.00000000000E+00 0. -1.
<mgrwt>
<rscale>  0 0.11424926E+04</rscale>
<asrwt>0</asrwt>
<pdfrwt beam="1">  1        2 0.30007292E+00 0.11424926E+04</pdfrwt>
<pdfrwt beam="2">  1       -2 0.25739097E-01 0.11424926E+04</pdfrwt>
<totfact> 0.96048240E+01</totfact>
</mgrwt>
</event>
<event>
 6    1  0.1719556E-004  0.2113542E+04  0.7818608E-02  0.8555301E-01
         -2   -1    0    0    0  501 -0.00000000000E+00  0.00000000000E+00  0.34154713658E+03  0.34154713658E+03  0.00000000000E+00 0. -1.
          2   -1    0    0  501    0  0.00000000000E+00 -0.00000000000E+00 -0.32697234655E+04  0.32697234655E+04  0.00000000000E+00 0.  1.
         23    2    1    2    0    0  0.27809973129E+03 -0.66367971491E+03 -0.27845772881E+04  0.28774920871E+04  0.90993480871E+02 0.  0.
         13    1    3    3    0    0  0.18375037390E+03 -0.32326442673E+03 -0.13914673167E+04  0.14402935058E+04  0.00000000000E+00 0. -1.
        -13    1    3    3    0    0  0.94349357381E+02 -0.34041528818E+03 -0.13931099714E+04  0.14371985813E+04  0.00000000000E+00 0.  1.
         22    1    1    2    0    0 -0.27809973129E+03  0.66367971491E+03 -0.14359904086E+03  0.73377851499E+03  0.00000000000E+00 0. -1.
<mgrwt>
<rscale>  0 0.21135418E+04</rscale>
<asrwt>0</asrwt>
<pdfrwt beam="1">  1        2 0.50303439E+00 0.21135418E+04</pdfrwt>
<pdfrwt beam="2">  1       -2 0.52545712E-01 0.21135418E+04</pdfrwt>
<totfact> 0.36814048E+00</totfact>
</mgrwt>
</event>
<event>
 6    1  0.1719556E-004  0.2380808E+04  0.7818608E-02  0.8446724E-01
         -1   -1    0    0    0  501 -0.00000000000E+00  0.00000000000E+00  0.18207344548E+04  0.18207344548E+04  0.00000000000E+00 0. -1.
          1   -1    0    0  501    0  0.00000000000E+00 -0.00000000000E+00 -0.77829134135E+03  0.77829134135E+03  0.00000000000E+00 0.  1.
         23    2    1    2    0    0  0.10098246621E+03 -0.11842179122E+04  0.46970092619E+03  0.12797066024E+04  0.66787019501E+02 0.  0.
         13    1    3    3    0    0  0.71480559043E+02 -0.54338754386E+03  0.23999552656E+03  0.59831208070E+03  0.00000000000E+00 0.  1.
        -13    1    3    3    0    0  0.29501907168E+02 -0.64083036834E+03  0.22970539963E+03  0.68139452165E+03  0.00000000000E+00 0. -1.
         22    1    1    2    0    0 -0.10098246621E+03  0.11842179122E+04  0.57274218726E+03  0.13193191938E+04  0.00000000000E+00 0. -1.
<mgrwt>
<rscale>  0 0.23808081E+04</rscale>
<asrwt>0</asrwt>
<pdfrwt beam="1">  1        1 0.11973713E+00 0.23808081E+04</pdfrwt>
<pdfrwt beam="2">  1       -1 0.28011299E+00 0.23808081E+04</pdfrwt>
<totfact> 0.92150272E-01</totfact>
</mgrwt>
</event>
<event>
 6    1  0.1719556E-004  0.4171652E+04  0.7818608E-02  0.7970787E-01
         -2   -1    0    0    0  501 -0.00000000000E+00  0.00000000000E+00  0.14700840942E+04  0.14700840942E+04  0.00000000000E+00 0. -1.
          2   -1    0    0  501    0  0.00000000000E+00 -0.00000000000E+00 -0.29594707417E+04  0.29594707417E+04  0.00000000000E+00 0.  1.
         23    2    1    2    0    0 -0.10992075924E+04  0.13379598314E+04 -0.19776399949E+04  0.26304480650E+04  0.99011272491E+02 0.  0.
         11    1    3    3    0    0 -0.37909245956E+03  0.45079979812E+03 -0.74410430764E+03  0.94901147071E+03  0.00000000000E+00 0.  1.
        -11    1    3    3    0    0 -0.72011513285E+03  0.88716003324E+03 -0.12335356872E+04  0.16814365943E+04  0.00000000000E+00 0. -1.
         22    1    1    2    0    0  0.10992075924E+04 -0.13379598314E+04  0.48825334735E+03  0.17991067708E+04  0.00000000000E+00 0. -1.
<mgrwt>
<rscale>  0 0.41716524E+04</rscale>
<asrwt>0</asrwt>
<pdfrwt beam="1">  1        2 0.45530319E+00 0.41716524E+04</pdfrwt>
<pdfrwt beam="2">  1       -2 0.22616678E+00 0.41716524E+04</pdfrwt>
<totfact> 0.12970316E-01</totfact>
</mgrwt>
</event>
<event>
 6    1  0.1719556E-004  0.3786925E+04  0.7818608E-02  0.8048967E-01
          1   -1    0    0  501    0  0.00000000000E+00  0.00000000000E+00  0.44756592309E+04  0.44756592309E+04  0.00000000000E+00 0.  1.
         -1   -1    0    0    0  501 -0.00000000000E+00 -0.00000000000E+00 -0.80104411711E+03  0.80104411711E+03  0.00000000000E+00 0. -1.
         23    2    1    2    0    0  0.12647226201E+04 -0.13375044456E+04  0.24498637961E+04  0.30657177673E+04  0.91385785905E+02 0.  0.
         11    1    3    3    0    0  0.48118257659E+03 -0.47305253125E+03  0.95899002112E+03  0.11725942307E+04  0.00000000000E+00 0. -1.
        -11    1    3    3    0    0  0.78354004348E+03 -0.86445191437E+03  0.14908737749E+04  0.18931235366E+04  0.00000000000E+00 0.  1.
         22    1    1    2    0    0 -0.12647226201E+04  0.13375044456E+04  0.12247513178E+04  0.22109855807E+04  0.00000000000E+00 0. -1.
<mgrwt>
<rscale>  0 0.37869251E+04</rscale>
<asrwt>0</asrwt>
<pdfrwt beam="1">  1        1 0.68856294E+00 0.37869251E+04</pdfrwt>
<pdfrwt beam="2">  1       -1 0.12323756E+00 0.37869251E+04</pdfrwt>
<totfact> 0.15674039E-02</totfact>
</mgrwt>
</event>
<event>
 6    1  0.1719556E-004  0.6885965E+04  0.7818608E-02  0.7589311E-01
          1   -1    0    0  501    0  0.00000000000E+00  0.00000000000E+00  0.32673058095E+04  0.32673058095E+04  0.00000000000E+00 0.  1.
         -1   -1    0    0    0  501 -0.00000000000E+00 -0.00000000000E+00 -0.36281052750E+04  0.36281052750E+04  0.00000000000E+00 0. -1.
         23    2    1    2    0    0 -0.24931328030E+03 -0.15496838313E+04 -0.32483145202E+04  0.36088596578E+04  0.92971602742E+02 0.  0.
         11    1    3    3    0    0 -0.14652056287E+03 -0.66733136481E+03 -0.13548443740E+04  0.15173670300E+04  0.00000000000E+00 0.  1.
        -11    1    3    3    0    0 -0.10279271743E+03 -0.88235246653E+03 -0.18934701462E+04  0.20914926279E+04  0.00000000000E+00 0. -1.
         22    1    1    2    0    0  0.24931328030E+03  0.15496838313E+04  0.28875150547E+04  0.32865514267E+04  0.00000000000E+00 0.  1.
<mgrwt>
<rscale>  0 0.68859653E+04</rscale>
<asrwt>0</asrwt>
<pdfrwt beam="1">  1        1 0.50266243E+00 0.68859653E+04</pdfrwt>
<pdfrwt beam="2">  1       -1 0.55817004E+00 0.68859653E+04</pdfrwt>
<totfact> 0.16472163E-04</totfact>
</mgrwt>
</event>
<event>
 6    1  0.1719556E-004  0.1857108E+04  0.7818608E-02  0.8676506E-01
         -2   -1    0    0    0  501 -0.00000000000E+00  0.00000000000E+00  0.24594663594E+03  0.24594663594E+03  0.00000000000E+00 0.  1.
          2   -1    0    0  501    0  0.00000000000E+00 -0.00000000000E+00 -0.35056900805E+04  0.35056900805E+04  0.00000000000E+00 0. -1.
         23    2    1    2    0    0 -0.43233882977E+03  0.24287529188E+02 -0.32878576767E+04  0.33177045122E+04  0.98226168368E+02 0.  0.
         11    1    3    3    0    0 -0.52752449433E+02  0.28007970320E+02 -0.63891617799E+03  0.64170176081E+03  0.00000000000E+00 0. -1.
        -11    1    3    3    0    0 -0.37958638033E+03 -0.37204411316E+01 -0.26489414987E+04  0.26760027514E+04  0.00000000000E+00 0.  1.
         22    1    1    2    0    0  0.43233882977E+03 -0.24287529188E+02  0.28114232182E+02  0.43393220421E+03  0.00000000000E+00 0.  1.
<mgrwt>
<rscale>  0 0.18571082E+04</rscale>
<asrwt>0</asrwt>
<pdfrwt beam="1">  1        2 0.53933687E+00 0.18571082E+04</pdfrwt>
<pdfrwt beam="2">  1       -2 0.37837948E-01 0.18571082E+04</pdfrwt>
<totfact> 0.50272148E+00</totfact>
</mgrwt>
</event>
<event>
 6    1  0.1719556E-004  0.2813030E+04  0.7818608E-02  0.8299235E-01
          1   -1    0    0  501    0  0.00000000000E+00  0.00000000000E+00  0.78059781757E+03  0.78059781757E+03  0.00000000000E+00 0. -1.
         -1   -1    0    0    0  501 -0.00000000000E+00 -0.00000000000E+00 -0.25343188827E+04  0.25343188827E+04  0.00000000000E+00 0.  1.
         23    2    1    2    0    0 -0.58846658014E+03 -0.11330127864E+04 -0.15692638171E+04  0.20249417523E+04  0.88256911544E+02 0.  0.
         13    1    3    3    0    0 -0.77799326108E+02 -0.13653694373E+03 -0.24080317505E+03  0.28754345977E+03  0.00000000000E+00 0. -1.
        -13    1    3    3    0    0 -0.51066725404E+03 -0.99647584266E+03 -0.13284606420E+04  0.17373982925E+04  0.00000000000E+00 0.  1.
         22    1    1    2    0    0  0.58846658014E+03  0.11330127864E+04 -0.18445724804E+03  0.12899749480E+04  0.00000000000E+00 0. -1.
<mgrwt>
<rscale>  0 0.28130295E+04</rscale>
<asrwt>0</asrwt>
<pdfrwt beam="1">  1        1 0.12009197E+00 0.28130295E+04</pdfrwt>
<pdfrwt beam="2">  1       -1 0.38989522E+00 0.28130295E+04</pdfrwt>
<totfact> 0.16664874E-01</totfact>
</mgrwt>
</event>
<event>
 6    1  0.1719556E-004  0.3582958E+04  0.7818608E-02  0.8094406E-01
         -2   -1    0    0    0  501 -0.00000000000E+00  0.00000000000E+00  0.16967168928E+04  0.16967168928E+04  0.00000000000E+00 0. -1.
          2   -1    0    0  501    0  0.00000000000E+00 -0.00000000000E+00 -0.18915340108E+04  0.18915340108E+04  0.00000000000E+00 0.  1.
         23    2    1    2    0    0  0.15292271326E+04 -0.81863949102E+03 -0.54189091667E+03  0.18193058900E+04  0.86728982938E+02 0.  0.
         13    1    3    3    0    0  0.53330058536E+03 -0.30828540370E+03 -0.15449386949E+03  0.63507303532E+03  0.00000000000E+00 0. -1.
        -13    1    3    3    0    0  0.99592654726E+03 -0.51035408732E+03 -0.38739704718E+03  0.11842328547E+04  0.00000000000E+00 0.  1.
         22    1    1    2    0    0 -0.15292271326E+04  0.81863949102E+03  0.34707379858E+03  0.17689450136E+04  0.00000000000E+00 0. -1.
<mgrwt>
<rscale>  0 0.35829584E+04</rscale>
<asrwt>0</asrwt>
<pdfrwt beam="1">  1        2 0.29100523E+00 0.35829584E+04</pdfrwt>
<pdfrwt beam="2">  1       -2 0.26103337E+00 0.35829584E+04</pdfrwt>
<totfact> 0.34450528E-01</totfact>
</mgrwt>
</event>
<event>
 6    1  0.1719556E-004  0.1679546E+04  0.7818608E-02  0.8773117E-01
          2   -1    0    0  501    0  0.00000000000E+00  0.00000000000E+00  0.31502318580E+04  0.31502318580E+04  0.00000000000E+00 0.  1.
         -2   -1    0    0    0  501 -0.00000000000E+00 -0.00000000000E+00 -0.22386243872E+03  0.22386243872E+03  0.00000000000E+00 0. -1.
         23    2    1    2    0    0 -0.68466018764E+03  0.86441953178E+02  0.51487898423E+03  0.86580446057E+03  0.91023138462E+02 0.  0.
         13    1    3    3    0    0 -0.28010347191E+03  0.77553349774E+02  0.19515058199E+03  0.35008031463E+03  0.00000000000E+00 0.  1.
        -13    1    3    3    0    0 -0.40455671572E+03  0.88886034046E+01  0.31972840225E+03  0.51572414594E+03  0.00000000000E+00 0. -1.
         22    1    1    2    0    0  0.68466018764E+03 -0.86441953178E+02  0.24114904350E+04  0.25082898361E+04  0.00000000000E+00 0.  1.
<mgrwt>
<rscale>  0 0.16795459E+04</rscale>
<asrwt>0</asrwt>
<pdfrwt beam="1">  1        2 0.48465102E+00 0.16795459E+04</pdfrwt>
<pdfrwt beam="2">  1       -2 0.34440377E-01 0.16795459E+04</pdfrwt>
<totfact> 0.10587167E+01</totfact>
</mgrwt>
</event>
<event>
 6    1  0.1719556E-004  0.2644045E+04  0.7818608E-02  0.8353392E-01
         -2   -1    0    0    0  501 -0.00000000000E+00  0.00000000000E+00  0.86354506146E+03  0.86354506146E+03  0.00000000000E+00 0. -1.
          2   -1    0    0  501    0  0.00000000000E+00 -0.00000000000E+00 -0.20239163635E+04  0.20239163635E+04  0.00000000000E+00 0.  1.
         23    2    1    2    0    0  0.34098683291E+03 -0.27930606401E+03  0.77835993599E+03  0.89925552241E+03  0.92371029193E+02 0.  0.
         13    1    3    3    0    0  0.13984207363E+03 -0.58763629191E+02  0.27407716953E+03  0.31325271671E+03  0.00000000000E+00 0.  1.
        -13    1    3    3    0    0  0.20114475928E+03 -0.22054243482E+03  0.50428276646E+03  0.58600280570E+03  0.00000000000E+00 0. -1.
         22    1    1    2    0    0 -0.34098683291E+03  0.27930606401E+03 -0.19387312381E+04  0.19882059026E+04  0.00000000000E+00 0.  1.
<mgrwt>
<rscale>  0 0.26440446E+04</rscale>
<asrwt>0</asrwt>
<pdfrwt beam="1">  1        2 0.31137175E+00 0.26440446E+04</pdfrwt>
<pdfrwt beam="2">  1       -2 0.13285309E+00 0.26440446E+04</pdfrwt>
<totfact> 0.23470979E+00</totfact>
</mgrwt>
</event>
<event>
 6    1  0.1719556E-004  0.1496448E+04  0.7818608E-02  0.8886818E-01
         -2   -1    0    0    0  501 -0.00000000000E+00  0.00000000000E+00  0.33704422382E+03  0.33704422382E+03  0.00000000000E+00 0. -1.
          2   -1    0    0  501    0  0.00000000000E+00 -0.00000000000E+00 -0.16610266416E+04  0.16610266416E+04  0.00000000000E+00 0.  1.
         23    2    1    2    0    0 -0.28398255964E+03  0.17153028655E+03 -0.15557366072E+04  0.15933750072E+04  0.91971676851E+02 0.  0.
         13    1    3    3    0    0 -0.85282976814E+02  0.21096345348E+02 -0.56409066230E+03  0.57089098540E+03  0.00000000000E+00 0. -1.
        -13    1    3    3    0    0 -0.19869958282E+03  0.15043394120E+03 -0.99164594489E+03  0.10224840218E+04  0.00000000000E+00 0.  1.
         22    1    1    2    0    0  0.28398255964E+03 -0.17153028655E+03  0.23175418937E+03  0.40469585823E+03  0.00000000000E+00 0. -1.
<mgrwt>
<rscale>  0 0.14964484E+04</rscale>
<asrwt>0</asrwt>
<pdfrwt beam="1">  1        2 0.25554257E+00 0.14964484E+04</pdfrwt>
<pdfrwt beam="2">  1       -2 0.51852956E-01 0.14964484E+04</pdfrwt>
<totfact> 0.34989697E+01</totfact>
</mgrwt>
</event>
<event>
 6    1  0.1719556E-004  0.1817102E+04  0.7818608E-02  0.8697257E-01
         -1   -1    0    0    0  501 -0.00000000000E+00  0.00000000000E+00  0.54650382574E+03  0.54650382574E+03  0.00000000000E+00 0. -1.
          1   -1    0    0  501    0  0.00000000000E+00 -0.00000000000E+00 -0.15104472492E+04  0.15104472492E+04  0.00000000000E+00 0.  1.
         23    2    1    2    0    0 -0.43753214938E+03 -0.66333191090E+03  0.10101988322E+02  0.79988780286E+03  0.90966154402E+02 0.  0.
         11    1    3    3    0    0 -0.11008954714E+03 -0.17466791109E+03 -0.37085105527E+02  0.20977104807E+03  0.00000000000E+00 0. -1.
        -11    1    3    3    0    0 -0.32744260223E+03 -0.48866399981E+03  0.47187093849E+02  0.59011675480E+03  0.00000000000E+00 0.  1.
         22    1    1    2    0    0  0.43753214938E+03  0.66333191090E+03 -0.97404541176E+03  0.12570632720E+04  0.00000000000E+00 0.  1.
<mgrwt>
<rscale>  0 0.18171023E+04</rscale>
<asrwt>0</asrwt>
<pdfrwt beam="1">  1        1 0.23237650E+00 0.18171023E+04</pdfrwt>
<pdfrwt beam="2">  1       -1 0.84077513E-01 0.18171023E+04</pdfrwt>
<totfact> 0.84974333E+00</totfact>
</mgrwt>
</event>
<event>
 6    1  0.1719556E-004  0.7224097E+03  0.7818608E-02  0.9679658E-01
          1   -1    0    0  501    0  0.00000000000E+00  0.00000000000E+00  0.48525551945E+03  0.48525551945E+03  0.00000000000E+00 0.  1.
         -1   -1    0    0    0  501 -0.00000000000E+00 -0.00000000000E+00 -0.26886646618E+03  0.26886646618E+03  0.00000000000E+00 0. -1.
         23    2    1    2    0    0  0.28715965871E+02 -0.12892437071E+03  0.45428662664E+03  0.48201657319E+03  0.92290506663E+02 0.  0.
         13    1    3    3    0    0  0.55188291447E+02 -0.39578577596E+02  0.18663353388E+03  0.19860585915E+03  0.00000000000E+00 0.  1.
        -13    1    3    3    0    0 -0.26472325576E+02 -0.89345793117E+02  0.26765309276E+03  0.28341071404E+03  0.00000000000E+00 0. -1.
         22    1    1    2    0    0 -0.28715965871E+02  0.12892437071E+03 -0.23789757338E+03  0.27210541244E+03  0.00000000000E+00 0. -1.
<mgrwt>
<rscale>  0 0.72240968E+03</rscale>
<asrwt>0</asrwt>
<pdfrwt beam="1">  1        1 0.74654695E-01 0.72240968E+03</pdfrwt>
<pdfrwt beam="2">  1       -1 0.41364072E-01 0.72240968E+03</pdfrwt>
<totfact> 0.26784628E+02</totfact>
</mgrwt>
</event>
<event>
 6    1  0.1719556E-004  0.3342406E+04  0.7818608E-02  0.8152188E-01
         -2   -1    0    0    0  501 -0.00000000000E+00  0.00000000000E+00  0.62666821653E+03  0.62666821653E+03  0.00000000000E+00 0.  1.
          2   -1    0    0  501    0  0.00000000000E+00 -0.00000000000E+00 -0.44567761217E+04  0.44567761217E+04  0.00000000000E+00 0. -1.
         23    2    1    2    0    0 -0.10619168628E+04  0.76171830417E+03 -0.33515366694E+03  0.13521459951E+04  0.89936716870E+02 0.  0.
         11    1    3    3    0    0 -0.12667177945E+03  0.12021673243E+03 -0.64674046003E+02  0.18622710515E+03  0.00000000000E+00 0. -1.
        -11    1    3    3    0    0 -0.93524508336E+03  0.64150157174E+03 -0.27047962094E+03  0.11659188899E+04  0.00000000000E+00 0.  1.
         22    1    1    2    0    0  0.10619168628E+04 -0.76171830417E+03 -0.34949542382E+04  0.37312983432E+04  0.00000000000E+00 0. -1.
<mgrwt>
<rscale>  0 0.33424063E+04</rscale>
<asrwt>0</asrwt>
<pdfrwt beam="1">  1        2 0.68565784E+00 0.33424063E+04</pdfrwt>
<pdfrwt beam="2">  1       -2 0.96410498E-01 0.33424063E+04</pdfrwt>
<totfact> 0.10121692E-01</totfact>
</mgrwt>
</event>
<event>
 6    1  0.1719556E-004  0.1113551E+04  0.7818608E-02  0.9192084E-01
         -2   -1    0    0    0  501 -0.00000000000E+00  0.00000000000E+00  0.33012121084E+03  0.33012121084E+03  0.00000000000E+00 0. -1.
          2   -1    0    0  501    0  0.00000000000E+00 -0.00000000000E+00 -0.93904635851E+03  0.93904635851E+03  0.00000000000E+00 0.  1.
         23    2    1    2    0    0  0.35347767367E+03  0.51252376901E+01 -0.79109200848E+03  0.87147736452E+03  0.93131611916E+02 0.  0.
         13    1    3    3    0    0  0.19501828561E+03 -0.10966618305E+02 -0.32792823371E+03  0.38169271005E+03  0.00000000000E+00 0. -1.
        -13    1    3    3    0    0  0.15845938806E+03  0.16091855995E+02 -0.46316377477E+03  0.48978465447E+03  0.00000000000E+00 0.  1.
         22    1    1    2    0    0 -0.35347767367E+03 -0.51252376901E+01  0.18216686081E+03  0.39769020483E+03  0.00000000000E+00 0. -1.
<mgrwt>
<rscale>  0 0.11135513E+04</rscale>
<asrwt>0</asrwt>
<pdfrwt beam="1">  1        2 0.14446867E+00 0.11135513E+04</pdfrwt>
<pdfrwt beam="2">  1       -2 0.50787879E-01 0.11135513E+04</pdfrwt>
<totfact> 0.10036677E+02</totfact>
</mgrwt>
</event>
<event>
 6    1  0.1719556E-004  0.2081231E+04  0.7818608E-02  0.8569557E-01
          2   -1    0    0  501    0  0.00000000000E+00  0.00000000000E+00  0.17025407633E+04  0.17025407633E+04  0.00000000000E+00 0.  1.
         -2   -1    0    0    0  501 -0.00000000000E+00 -0.00000000000E+00 -0.63603793790E+03  0.63603793790E+03  0.00000000000E+00 0. -1.
         23    2    1    2    0    0 -0.94281202390E+03  0.16067027397E+02  0.45595559480E+02  0.94882897286E+03  0.95104168826E+02 0.  0.
         13    1    3    3    0    0 -0.35954241151E+03  0.20699048698E+02 -0.26453433346E+02  0.36110798998E+03  0.00000000000E+00 0.  1.
        -13    1    3    3    0    0 -0.58326961239E+03 -0.46320213019E+01  0.72048992826E+02  0.58772098289E+03  0.00000000000E+00 0. -1.
         22    1    1    2    0    0  0.94281202390E+03 -0.16067027397E+02  0.10209072659E+04  0.13897497283E+04  0.00000000000E+00 0.  1.
<mgrwt>
<rscale>  0 0.20812309E+04</rscale>
<asrwt>0</asrwt>
<pdfrwt beam="1">  1        2 0.26192935E+00 0.20812309E+04</pdfrwt>
<pdfrwt beam="2">  1       -2 0.97851991E-01 0.20812309E+04</pdfrwt>
<totfact> 0.78447383E+00</totfact>
</mgrwt>
</event>
<event>
 6    1  0.1719556E-004  0.2047146E+04  0.7818608E-02  0.8584890E-01
         -2   -1    0    0    0  501 -0.00000000000E+00  0.00000000000E+00  0.89689846055E+03  0.89689846055E+03  0.00000000000E+00 0.  1.
          2   -1    0    0  501    0  0.00000000000E+00 -0.00000000000E+00 -0.11681381134E+04  0.11681381134E+04  0.00000000000E+00 0. -1.
         23    2    1    2    0    0 -0.15227126720E+03  0.75085851694E+03 -0.81751356507E+03  0.11240848013E+04  0.90901926569E+02 0.  0.
         13    1    3    3    0    0 -0.83914797565E+02  0.41459020971E+03 -0.38490312701E+03  0.57190659414E+03  0.00000000000E+00 0. -1.
        -13    1    3    3    0    0 -0.68356469630E+02  0.33626830723E+03 -0.43261043806E+03  0.55217820720E+03  0.00000000000E+00 0.  1.
         22    1    1    2    0    0  0.15227126720E+03 -0.75085851694E+03  0.54627391220E+03  0.94095177263E+03  0.00000000000E+00 0.  1.
<mgrwt>
<rscale>  0 0.20471456E+04</rscale>
<asrwt>0</asrwt>
<pdfrwt beam="1">  1        2 0.17971355E+00 0.20471456E+04</pdfrwt>
<pdfrwt beam="2">  1       -2 0.13798438E+00 0.20471456E+04</pdfrwt>
<totfact> 0.68331675E+00</totfact>
</mgrwt>
</event>
<event>
 6    1  0.1719556E-004  0.6660523E+04  0.7818608E-02  0.7613496E-01
          2   -1    0    0  501    0  0.00000000000E+00  0.00000000000E+00  0.36587416697E+04  0.36587416697E+04  0.00000000000E+00 0.  1.
         -2   -1    0    0    0  501 -0.00000000000E+00 -0.00000000000E+00 -0.30312723999E+04  0.30312723999E+04  0.00000000000E+00 0. -1.
         23    2    1    2    0    0 -0.17689490772E+04 -0.70253232509E+03 -0.24303147416E+04  0.30882401225E+04  0.89804262454E+02 0.  0.
         13    1    3    3    0    0 -0.98530550633E+03 -0.43173603527E+03 -0.14111106082E+04  0.17743889352E+04  0.00000000000E+00 0. -1.
        -13    1    3    3    0    0 -0.78364357088E+03 -0.27079628982E+03 -0.10192041334E+04  0.13138511873E+04  0.00000000000E+00 0.  1.
         22    1    1    2    0    0  0.17689490772E+04  0.70253232509E+03  0.30577840114E+04  0.36017739471E+04  0.00000000000E+00 0.  1.
<mgrwt>
<rscale>  0 0.66605233E+04</rscale>
<asrwt>0</asrwt>
<pdfrwt beam="1">  1        2 0.56288333E+00 0.66605233E+04</pdfrwt>
<pdfrwt beam="2">  1       -2 0.46634960E+00 0.66605233E+04</pdfrwt>
<totfact> 0.10902308E-03</totfact>
</mgrwt>
</event>
<event>
 6    1  0.1719556E-004  0.9428302E+03  0.7818608E-02  0.9373570E-01
         -1   -1    0    0    0  501 -0.00000000000E+00  0.00000000000E+00  0.14638067858E+03  0.14638067858E+03  0.00000000000E+00 0. -1.
          1   -1    0    0  501    0  0.00000000000E+00 -0.00000000000E+00 -0.15181798927E+04  0.15181798927E+04  0.00000000000E+00 0.  1.
         23    2    1    2    0    0  0.17666820219E+03 -0.37851488171E+03 -0.10613102488E+04  0.11440910074E+04  0.89886704630E+02 0.  0.
         11    1    3    3    0    0  0.14046539769E+03 -0.23635097833E+03 -0.59949803349E+03  0.65953787235E+03  0.00000000000E+00 0. -1.
        -11    1    3    3    0    0  0.36202804495E+02 -0.14216390338E+03 -0.46181221532E+03  0.48455313506E+03  0.00000000000E+00 0.  1.
         22    1    1    2    0    0 -0.17666820219E+03  0.37851488171E+03 -0.31048896535E+03  0.52046956390E+03  0.00000000000E+00 0. -1.
<mgrwt>
<rscale>  0 0.94283021E+03</rscale>
<asrwt>0</asrwt>
<pdfrwt beam="1">  1        1 0.23356615E+00 0.94283021E+03</pdfrwt>
<pdfrwt beam="2">  1       -1 0.22520103E-01 0.94283021E+03</pdfrwt>
<totfact> 0.10706515E+02</totfact>
</mgrwt>
</event>
<event>
 6    1  0.1719556E-004  0.5651445E+04  0.7818608E-02  0.7735187E-01
          2   -1    0    0  501    0  0.00000000000E+00  0.00000000000E+00  0.30520391702E+04  0.30520391702E+04  0.00000000000E+00 0.  1.
         -2   -1    0    0    0  501 -0.00000000000E+00 -0.00000000000E+00 -0.26161880769E+04  0.26161880769E+04  0.00000000000E+00 0. -1.
         23    2    1    2    0    0  0.14482499581E+04  0.14380085151E+03 -0.22104085986E+04  0.26481615221E+04  0.93523518338E+02 0.  0.
         13    1    3    3    0    0  0.76092899042E+03  0.35961243795E+02 -0.12007990522E+04  0.14220494025E+04  0.00000000000E+00 0. -1.
        -13    1    3    3    0    0  0.68732096765E+03  0.10783960772E+03 -0.10096095464E+04  0.12261121196E+04  0.00000000000E+00 0.  1.
         22    1    1    2    0    0 -0.14482499581E+04 -0.14380085151E+03  0.26462596920E+04  0.30200657250E+04  0.00000000000E+00 0.  1.
<mgrwt>
<rscale>  0 0.56514453E+04</rscale>
<asrwt>0</asrwt>
<pdfrwt beam="1">  1        2 0.46954449E+00 0.56514453E+04</pdfrwt>
<pdfrwt beam="2">  1       -2 0.40249047E+00 0.56514453E+04</pdfrwt>
<totfact> 0.79862145E-03</totfact>
</mgrwt>
</event>
<event>
 6    1  0.1719556E-004  0.2965831E+04  0.7818608E-02  0.8253556E-01
         -1   -1    0    0    0  501 -0.00000000000E+00  0.00000000000E+00  0.17649852162E+04  0.17649852162E+04  0.00000000000E+00 0. -1.
          1   -1    0    0  501    0  0.00000000000E+00 -0.00000000000E+00 -0.12459245108E+04  0.12459245108E+04  0.00000000000E+00 0.  1.
         23    2    1    2    0    0  0.12617931605E+02 -0.10521491881E+04  0.13185934445E+04  0.16893841967E+04  0.90294882067E+02 0.  0.
         11    1    3    3    0    0  0.48067320545E+02 -0.77160296618E+03  0.95019212132E+03  0.12249680290E+04  0.00000000000E+00 0.  1.
        -11    1    3    3    0    0 -0.35449388939E+02 -0.28054622196E+03  0.36840132321E+03  0.46441616765E+03  0.00000000000E+00 0. -1.
         22    1    1    2    0    0 -0.12617931605E+02  0.10521491881E+04 -0.79953273913E+03  0.13215255303E+04  0.00000000000E+00 0.  1.
<mgrwt>
<rscale>  0 0.29658310E+04</rscale>
<asrwt>0</asrwt>
<pdfrwt beam="1">  1        1 0.19168069E+00 0.29658310E+04</pdfrwt>
<pdfrwt beam="2">  1       -1 0.27153619E+00 0.29658310E+04</pdfrwt>
<totfact> 0.42640981E-01</totfact>
</mgrwt>
</event>
<event>
 6    1  0.1802294E-004  0.3195914E+04  0.7818608E-02  0.8189897E-01
          1   -1    0    0  501    0  0.00000000000E+00  0.00000000000E+00  0.17842334242E+04  0.17842334242E+04  0.00000000000E+00 0.  1.
         -1   -1    0    0    0  501 -0.00000000000E+00 -0.00000000000E+00 -0.14311283169E+04  0.14311283169E+04  0.00000000000E+00 0. -1.
         23    2    1    2    0    0 -0.32163199195E+03 -0.79853339700E+03 -0.11761870154E+04  0.14604152687E+04  0.91072155751E+02 0.  0.
         11    1    3    3    0    0 -0.11794834869E+03 -0.38653978663E+03 -0.50162668579E+03  0.64416935002E+03  0.00000000000E+00 0.  1.
        -11    1    3    3    0    0 -0.20368364326E+03 -0.41199361037E+03 -0.67456032963E+03  0.81624591872E+03  0.00000000000E+00 0. -1.
         22    1    1    2    0    0  0.32163199195E+03  0.79853339700E+03  0.15292921227E+04  0.17549464724E+04  0.00000000000E+00 0.  1.
<mgrwt>
<rscale>  0 0.31959143E+04</rscale>
<asrwt>0</asrwt>
<pdfrwt beam="1">  1        1 0.27449745E+00 0.31959143E+04</pdfrwt>
<pdfrwt beam="2">  1       -1 0.22017359E+00 0.31959143E+04</pdfrwt>
<totfact> 0.38362014E-01</totfact>
</mgrwt>
</event>
<event>
 6    1  0.1719556E-004  0.1822215E+04  0.7818608E-02  0.8694574E-01
         -2   -1    0    0    0  501 -0.00000000000E+00  0.00000000000E+00  0.48908488680E+03  0.48908488680E+03  0.00000000000E+00 0. -1.
          2   -1    0    0  501    0  0.00000000000E+00 -0.00000000000E+00 -0.16972866015E+04  0.16972866015E+04  0.00000000000E+00 0.  1.
         23    2    1    2    0    0  0.27409047860E+03 -0.27797611502E+03  0.37912908903E+03  0.55174144103E+03  0.91013409037E+02 0.  0.
         11    1    3    3    0    0  0.27540842607E+02 -0.13410104754E+02  0.68398063267E+02  0.74944139062E+02  0.00000000000E+00 0. -1.
        -11    1    3    3    0    0  0.24654963599E+03 -0.26456601026E+03  0.31073102576E+03  0.47679730197E+03  0.00000000000E+00 0.  1.
         22    1    1    2    0    0 -0.27409047860E+03  0.27797611502E+03 -0.15873308038E+04  0.16346300473E+04  0.00000000000E+00 0.  1.
<mgrwt>
<rscale>  0 0.18222154E+04</rscale>
<asrwt>0</asrwt>
<pdfrwt beam="1">  1        2 0.26112102E+00 0.18222154E+04</pdfrwt>
<pdfrwt beam="2">  1       -2 0.75243829E-01 0.18222154E+04</pdfrwt>
<totfact> 0.14701448E+01</totfact>
</mgrwt>
</event>
<event>
 6    1  0.1719556E-004  0.1612888E+04  0.7818608E-02  0.8812670E-01
          2   -1    0    0  501    0  0.00000000000E+00  0.00000000000E+00  0.11254279955E+04  0.11254279955E+04  0.00000000000E+00 0.  1.
         -2   -1    0    0    0  501 -0.00000000000E+00 -0.00000000000E+00 -0.57787048949E+03  0.57787048949E+03  0.00000000000E+00 0. -1.
         23    2    1    2    0    0  0.27468629529E+03 -0.20916329260E+03  0.10410648167E+04  0.11010100911E+04  0.95944902572E+02 0.  0.
         11    1    3    3    0    0  0.44502074332E+02 -0.85863821214E+02  0.30789023170E+03  0.32272190069E+03  0.00000000000E+00 0.  1.
        -11    1    3    3    0    0  0.23018422096E+03 -0.12329947139E+03  0.73317458499E+03  0.77828819039E+03  0.00000000000E+00 0. -1.
         22    1    1    2    0    0 -0.27468629529E+03  0.20916329260E+03 -0.49350731065E+03  0.60228839393E+03  0.00000000000E+00 0. -1.
<mgrwt>
<rscale>  0 0.16128876E+04</rscale>
<asrwt>0</asrwt>
<pdfrwt beam="1">  1        2 0.17314277E+00 0.16128876E+04</pdfrwt>
<pdfrwt beam="2">  1       -2 0.88903152E-01 0.16128876E+04</pdfrwt>
<totfact> 0.21890516E+01</totfact>
</mgrwt>
</event>
<event>
 6    1  0.1719556E-004  0.2903904E+04  0.7818608E-02  0.8271717E-01
          1   -1    0    0  501    0  0.00000000000E+00  0.00000000000E+00  0.82180815176E+03  0.82180815176E+03  0.00000000000E+00 0. -1.
         -1   -1    0    0    0  501 -0.00000000000E+00 -0.00000000000E+00 -0.25652758491E+04  0.25652758491E+04  0.00000000000E+00 0.  1.
         23    2    1    2    0    0  0.49365276692E+02  0.54628098825E+03 -0.24388176565E+04  0.25014365460E+04  0.92159555159E+02 0.  0.
         13    1    3    3    0    0  0.42403302692E+02  0.27213862581E+03 -0.10307229597E+04  0.10668867285E+04  0.00000000000E+00 0.  1.
        -13    1    3    3    0    0  0.69619739996E+01  0.27414236244E+03 -0.14080946968E+04  0.14345498176E+04  0.00000000000E+00 0. -1.
         22    1    1    2    0    0 -0.49365276692E+02 -0.54628098825E+03  0.69534995910E+03  0.88564745485E+03  0.00000000000E+00 0. -1.
<mgrwt>
<rscale>  0 0.29039040E+04</rscale>
<asrwt>0</asrwt>
<pdfrwt beam="1">  1        1 0.12643203E+00 0.29039040E+04</pdfrwt>
<pdfrwt beam="2">  1       -1 0.39465782E+00 0.29039040E+04</pdfrwt>
<totfact> 0.14124671E-01</totfact>
</mgrwt>
</event>
<event>
 6    1  0.1719556E-004  0.2762269E+04  0.7818608E-02  0.8315079E-01
         -2   -1    0    0    0  501 -0.00000000000E+00  0.00000000000E+00  0.11889791769E+04  0.11889791769E+04  0.00000000000E+00 0. -1.
          2   -1    0    0  501    0  0.00000000000E+00 -0.00000000000E+00 -0.16043452034E+04  0.16043452034E+04  0.00000000000E+00 0.  1.
         23    2    1    2    0    0  0.47549728437E+03  0.12840033485E+04 -0.37853034013E+03  0.14236093975E+04  0.92823660792E+02 0.  0.
         13    1    3    3    0    0  0.26512086912E+03  0.80036639067E+03 -0.26837912535E+03  0.88481794144E+03  0.00000000000E+00 0. -1.
        -13    1    3    3    0    0  0.21037641525E+03  0.48363695780E+03 -0.11015121478E+03  0.53879145610E+03  0.00000000000E+00 0.  1.
         22    1    1    2    0    0 -0.47549728437E+03 -0.12840033485E+04 -0.36835686416E+02  0.13697149828E+04  0.00000000000E+00 0.  1.
<mgrwt>
<rscale>  0 0.27622694E+04</rscale>
<asrwt>0</asrwt>
<pdfrwt beam="1">  1        2 0.24682234E+00 0.27622694E+04</pdfrwt>
<pdfrwt beam="2">  1       -2 0.18291987E+00 0.27622694E+04</pdfrwt>
<totfact> 0.16760209E+00</totfact>
</mgrwt>
</event>
<event>
 6    1  0.1719556E-004  0.1198136E+04  0.7818608E-02  0.9114490E-01
         -2   -1    0    0    0  501 -0.00000000000E+00  0.00000000000E+00  0.27570237752E+03  0.27570237752E+03  0.00000000000E+00 0. -1.
          2   -1    0    0  501    0  0.00000000000E+00 -0.00000000000E+00 -0.13017025765E+04  0.13017025765E+04  0.00000000000E+00 0.  1.
         23    2    1    2    0    0 -0.10513553465E+03 -0.42224296769E+03 -0.10513448702E+04  0.11415323158E+04  0.91800803212E+02 0.  0.
         11    1    3    3    0    0 -0.46157626360E+02 -0.16047160474E+03 -0.29472548034E+03  0.33873997574E+03  0.00000000000E+00 0.  1.
        -11    1    3    3    0    0 -0.58977908287E+02 -0.26177136295E+03 -0.75661938990E+03  0.80279234009E+03  0.00000000000E+00 0. -1.
         22    1    1    2    0    0  0.10513553465E+03  0.42224296769E+03  0.25344671230E+02  0.43587263824E+03  0.00000000000E+00 0. -1.
<mgrwt>
<rscale>  0 0.11981360E+04</rscale>
<asrwt>0</asrwt>
<pdfrwt beam="1">  1        2 0.20026194E+00 0.11981360E+04</pdfrwt>
<pdfrwt beam="2">  1       -2 0.42415750E-01 0.11981360E+04</pdfrwt>
<totfact> 0.85710711E+01</totfact>
</mgrwt>
</event>
<event>
 6    1  0.1719556E-004  0.9734509E+03  0.7818608E-02  0.9338152E-01
          2   -1    0    0  501    0  0.00000000000E+00  0.00000000000E+00  0.12015240332E+04  0.12015240332E+04  0.00000000000E+00 0.  1.
         -2   -1    0    0    0  501 -0.00000000000E+00 -0.00000000000E+00 -0.19716765011E+03  0.19716765011E+03  0.00000000000E+00 0. -1.
         23    2    1    2    0    0  0.32525967971E+03  0.83833898507E+02  0.87123602519E+01  0.34791625440E+03  0.90265348093E+02 0.  0.
         11    1    3    3    0    0  0.24153858960E+02  0.14510048341E+02 -0.24256001118E+02  0.37179349050E+02  0.00000000000E+00 0.  1.
        -11    1    3    3    0    0  0.30110582075E+03  0.69323850166E+02  0.32968361370E+02  0.31073690535E+03  0.00000000000E+00 0. -1.
         22    1    1    2    0    0 -0.32525967971E+03 -0.83833898507E+02  0.99564402279E+03  0.10507754289E+04  0.00000000000E+00 0.  1.
<mgrwt>
<rscale>  0 0.97345091E+03</rscale>
<asrwt>0</asrwt>
<pdfrwt beam="1">  1        2 0.18484985E+00 0.97345091E+03</pdfrwt>
<pdfrwt beam="2">  1       -2 0.30333485E-01 0.97345091E+03</pdfrwt>
<totfact> 0.18950431E+02</totfact>
</mgrwt>
</event>
<event>
 6    1  0.1719556E-004  0.1217031E+04  0.7818608E-02  0.9098079E-01
          2   -1    0    0  501    0  0.00000000000E+00  0.00000000000E+00  0.15678268175E+04  0.15678268175E+04  0.00000000000E+00 0.  1.
         -2   -1    0    0    0  501 -0.00000000000E+00 -0.00000000000E+00 -0.23618096284E+03  0.23618096284E+03  0.00000000000E+00 0. -1.
         23    2    1    2    0    0 -0.49393974735E+03  0.13070726651E+03  0.11505010046E+04  0.12619060184E+04  0.87711882786E+02 0.  0.
         13    1    3    3    0    0 -0.20316485829E+03  0.10623482954E+02  0.47551536765E+03  0.51720758203E+03  0.00000000000E+00 0. -1.
        -13    1    3    3    0    0 -0.29077488906E+03  0.12008378355E+03  0.67498563690E+03  0.74469843642E+03  0.00000000000E+00 0.  1.
         22    1    1    2    0    0  0.49393974735E+03 -0.13070726651E+03  0.18114485012E+03  0.54210176190E+03  0.00000000000E+00 0. -1.
<mgrwt>
<rscale>  0 0.12170306E+04</rscale>
<asrwt>0</asrwt>
<pdfrwt beam="1">  1        2 0.24120412E+00 0.12170306E+04</pdfrwt>
<pdfrwt beam="2">  1       -2 0.36335534E-01 0.12170306E+04</pdfrwt>
<totfact> 0.81645710E+01</totfact>
</mgrwt>
</event>
<event>
 6    1  0.1719556E-004  0.1165680E+04  0.7818608E-02  0.9143439E-01
         -2   -1    0    0    0  501 -0.00000000000E+00  0.00000000000E+00  0.23040234252E+03  0.23040234252E+03  0.00000000000E+00 0.  1.
          2   -1    0    0  501    0  0.00000000000E+00 -0.00000000000E+00 -0.14743884271E+04  0.14743884271E+04  0.00000000000E+00 0. -1.
         23    2    1    2    0    0  0.17515230466E+02 -0.36512008587E+03  0.31476950622E+02  0.37798052902E+03  0.90879158765E+02 0.  0.
         13    1    3    3    0    0  0.43277807747E+02 -0.13934410897E+03  0.37528093753E+02  0.15065891002E+03  0.00000000000E+00 0.  1.
        -13    1    3    3    0    0 -0.25762577281E+02 -0.22577597690E+03 -0.60511431313E+01  0.22732161901E+03  0.00000000000E+00 0. -1.
         22    1    1    2    0    0 -0.17515230466E+02  0.36512008587E+03 -0.12754630352E+04  0.13268102406E+04  0.00000000000E+00 0. -1.
<mgrwt>
<rscale>  0 0.11656801E+04</rscale>
<asrwt>0</asrwt>
<pdfrwt beam="1">  1        2 0.22682898E+00 0.11656801E+04</pdfrwt>
<pdfrwt beam="2">  1       -2 0.35446515E-01 0.11656801E+04</pdfrwt>
<totfact> 0.96977723E+01</totfact>
</mgrwt>
</event>
<event>
 6    1  0.1719556E-004  0.1833146E+04  0.7818608E-02  0.8688869E-01
          2   -1    0    0  501    0  0.00000000000E+00  0.00000000000E+00  0.15689594279E+04  0.15689594279E+04  0.00000000000E+00 0.  1.
         -2   -1    0    0    0  501 -0.00000000000E+00 -0.00000000000E+00 -0.53545425616E+03  0.53545425616E+03  0.00000000000E+00 0. -1.
         23    2    1    2    0    0  0.34590949832E+03 -0.83461183305E+03  0.35684192909E+03  0.97565177962E+03  0.91268504040E+02 0.  0.
         11    1    3    3    0    0  0.11592552514E+03 -0.39150315952E+03  0.17683025348E+03  0.44495212084E+03  0.00000000000E+00 0. -1.
        -11    1    3    3    0    0  0.22998397318E+03 -0.44310867354E+03  0.18001167560E+03  0.53069965879E+03  0.00000000000E+00 0.  1.
         22    1    1    2    0    0 -0.34590949832E+03  0.83461183305E+03  0.67666324262E+03  0.11287619044E+04  0.00000000000E+00 0.  1.
<mgrwt>
<rscale>  0 0.18331459E+04</rscale>
<asrwt>0</asrwt>
<pdfrwt beam="1">  1        2 0.24137837E+00 0.18331459E+04</pdfrwt>
<pdfrwt beam="2">  1       -2 0.82377579E-01 0.18331459E+04</pdfrwt>
<totfact> 0.14140781E+01</totfact>
</mgrwt>
</event>
<event>
 6    1  0.1719556E-004  0.1876145E+04  0.7818608E-02  0.8666822E-01
         -2   -1    0    0    0  501 -0.00000000000E+00  0.00000000000E+00  0.27607031872E+03  0.27607031872E+03  0.00000000000E+00 0. -1.
          2   -1    0    0  501    0  0.00000000000E+00 -0.00000000000E+00 -0.31875227235E+04  0.31875227235E+04  0.00000000000E+00 0.  1.
         23    2    1    2    0    0  0.67973501069E+03 -0.18333692081E+03 -0.25974281021E+04  0.26927082428E+04  0.91612356398E+02 0.  0.
         13    1    3    3    0    0  0.40117667565E+03 -0.72905728062E+02 -0.16087355094E+04  0.16596047450E+04  0.00000000000E+00 0.  1.
        -13    1    3    3    0    0  0.27855833504E+03 -0.11043119275E+03 -0.98869259272E+03  0.10331034978E+04  0.00000000000E+00 0. -1.
         22    1    1    2    0    0 -0.67973501069E+03  0.18333692081E+03 -0.31402430262E+03  0.77088479939E+03  0.00000000000E+00 0. -1.
<mgrwt>
<rscale>  0 0.18761454E+04</rscale>
<asrwt>0</asrwt>
<pdfrwt beam="1">  1        2 0.49038813E+00 0.18761454E+04</pdfrwt>
<pdfrwt beam="2">  1       -2 0.42472355E-01 0.18761454E+04</pdfrwt>
<totfact> 0.65445469E+00</totfact>
</mgrwt>
</event>
<event>
 6    1  0.1719556E-004  0.1781892E+04  0.7818608E-02  0.8715989E-01
          2   -1    0    0  501    0  0.00000000000E+00  0.00000000000E+00  0.30688533823E+04  0.30688533823E+04  0.00000000000E+00 0.  1.
         -2   -1    0    0    0  501 -0.00000000000E+00 -0.00000000000E+00 -0.25865834827E+03  0.25865834827E+03  0.00000000000E+00 0. -1.
         23    2    1    2    0    0  0.20569694963E+03  0.78940852998E+03  0.74932734708E+03  0.11110612607E+04  0.86536637624E+02 0.  0.
         13    1    3    3    0    0  0.48270950348E+02  0.29587617319E+03  0.31727839918E+03  0.43650701838E+03  0.00000000000E+00 0.  1.
        -13    1    3    3    0    0  0.15742599928E+03  0.49353235679E+03  0.43204894791E+03  0.67455424233E+03  0.00000000000E+00 0. -1.
         22    1    1    2    0    0 -0.20569694963E+03 -0.78940852998E+03  0.20608676870E+04  0.22164504699E+04  0.00000000000E+00 0.  1.
<mgrwt>
<rscale>  0 0.17818917E+04</rscale>
<asrwt>0</asrwt>
<pdfrwt beam="1">  1        2 0.47213127E+00 0.17818917E+04</pdfrwt>
<pdfrwt beam="2">  1       -2 0.39793594E-01 0.17818917E+04</pdfrwt>
<totfact> 0.89384628E+00</totfact>
</mgrwt>
</event>
<event>
 6    1  0.1719556E-004  0.2353161E+04  0.7818608E-02  0.8457250E-01
         -2   -1    0    0    0  501 -0.00000000000E+00  0.00000000000E+00  0.53871102589E+03  0.53871102589E+03  0.00000000000E+00 0. -1.
          2   -1    0    0  501    0  0.00000000000E+00 -0.00000000000E+00 -0.25697303595E+04  0.25697303595E+04  0.00000000000E+00 0.  1.
         23    2    1    2    0    0 -0.93698678596E+02  0.59158686283E+03  0.31573431847E+03  0.68645724791E+03  0.11305279610E+03 0.  0.
         11    1    3    3    0    0 -0.22559043076E+02  0.45247764606E+03  0.24334510701E+03  0.51425846781E+03  0.00000000000E+00 0. -1.
        -11    1    3    3    0    0 -0.71139635521E+02  0.13910921676E+03  0.72389211456E+02  0.17219878009E+03  0.00000000000E+00 0.  1.
         22    1    1    2    0    0  0.93698678596E+02 -0.59158686283E+03 -0.23467536521E+04  0.24219841375E+04  0.00000000000E+00 0.  1.
<mgrwt>
<rscale>  0 0.23531613E+04</rscale>
<asrwt>0</asrwt>
<pdfrwt beam="1">  1        2 0.39534314E+00 0.23531613E+04</pdfrwt>
<pdfrwt beam="2">  1       -2 0.82878619E-01 0.23531613E+04</pdfrwt>
<totfact> 0.36519028E+00</totfact>
</mgrwt>
</event>
<event>
 6    1  0.1719556E-004  0.1580970E+04  0.7818608E-02  0.8832325E-01
         -2   -1    0    0    0  501 -0.00000000000E+00  0.00000000000E+00  0.48618171158E+03  0.48618171158E+03  0.00000000000E+00 0. -1.
          2   -1    0    0  501    0  0.00000000000E+00 -0.00000000000E+00 -0.12852526777E+04  0.12852526777E+04  0.00000000000E+00 0.  1.
         23    2    1    2    0    0  0.36051529194E+03 -0.47889010706E+03  0.17208161810E+03  0.63018754823E+03  0.90649061127E+02 0.  0.
         11    1    3    3    0    0  0.35090549578E+03 -0.46993216033E+03  0.15145177585E+03  0.60572976045E+03  0.00000000000E+00 0. -1.
        -11    1    3    3    0    0  0.96097961571E+01 -0.89579467352E+01  0.20629842246E+02  0.24457787778E+02  0.00000000000E+00 0.  1.
         22    1    1    2    0    0 -0.36051529194E+03  0.47889010706E+03 -0.97115258420E+03  0.11412468410E+04  0.00000000000E+00 0.  1.
<mgrwt>
<rscale>  0 0.15809698E+04</rscale>
<asrwt>0</asrwt>
<pdfrwt beam="1">  1        2 0.19773118E+00 0.15809698E+04</pdfrwt>
<pdfrwt beam="2">  1       -2 0.74797187E-01 0.15809698E+04</pdfrwt>
<totfact> 0.26016012E+01</totfact>
</mgrwt>
</event>
<event>
 6    1  0.1719556E-004  0.4591144E+04  0.7818608E-02  0.7894872E-01
         -1   -1    0    0    0  501 -0.00000000000E+00  0.00000000000E+00  0.11064352612E+04  0.11064352612E+04  0.00000000000E+00 0. -1.
          1   -1    0    0  501    0  0.00000000000E+00 -0.00000000000E+00 -0.47627278127E+04  0.47627278127E+04  0.00000000000E+00 0.  1.
         23    2    1    2    0    0  0.15303379297E+03  0.31888214788E+03 -0.47272321047E+04  0.47413258993E+04  0.91338628983E+02 0.  0.
         13    1    3    3    0    0  0.13343132635E+03  0.23239418550E+03 -0.39429965467E+04  0.39520921982E+04  0.00000000000E+00 0.  1.
        -13    1    3    3    0    0  0.19602466621E+02  0.86487962383E+02 -0.78423555806E+03  0.78923370104E+03  0.00000000000E+00 0. -1.
         22    1    1    2    0    0 -0.15303379297E+03 -0.31888214788E+03  0.10709395532E+04  0.11278371747E+04  0.00000000000E+00 0. -1.
<mgrwt>
<rscale>  0 0.45911436E+04</rscale>
<asrwt>0</asrwt>
<pdfrwt beam="1">  1        1 0.73272735E+00 0.45911436E+04</pdfrwt>
<pdfrwt beam="2">  1       -1 0.17022081E+00 0.45911436E+04</pdfrwt>
<totfact> 0.30298473E-03</totfact>
</mgrwt>
</event>
<event>
 6    1  0.1719556E-004  0.8454256E+03  0.7818608E-02  0.9496497E-01
          2   -1    0    0  501    0  0.00000000000E+00  0.00000000000E+00  0.12050037783E+04  0.12050037783E+04  0.00000000000E+00 0.  1.
         -2   -1    0    0    0  501 -0.00000000000E+00 -0.00000000000E+00 -0.14828676960E+03  0.14828676960E+03  0.00000000000E+00 0. -1.
         23    2    1    2    0    0 -0.28922842331E+03  0.30074333593E+03  0.56800426144E+03  0.71068663857E+03  0.91362039506E+02 0.  0.
         13    1    3    3    0    0 -0.11686613246E+03  0.60898540189E+02  0.17621956661E+03  0.22004467903E+03  0.00000000000E+00 0.  1.
        -13    1    3    3    0    0 -0.17236229085E+03  0.23984479574E+03  0.39178469483E+03  0.49064195954E+03  0.00000000000E+00 0. -1.
         22    1    1    2    0    0  0.28922842331E+03 -0.30074333593E+03  0.48871274726E+03  0.64260390934E+03  0.00000000000E+00 0. -1.
<mgrwt>
<rscale>  0 0.84542562E+03</rscale>
<asrwt>0</asrwt>
<pdfrwt beam="1">  1        2 0.18538519E+00 0.84542562E+03</pdfrwt>
<pdfrwt beam="2">  1       -2 0.22813350E-01 0.84542562E+03</pdfrwt>
<totfact> 0.31925651E+02</totfact>
</mgrwt>
</event>
<event>
 6    1  0.1719556E-004  0.2572571E+04  0.7818608E-02  0.8377578E-01
          2   -1    0    0  501    0  0.00000000000E+00  0.00000000000E+00  0.21483680696E+04  0.21483680696E+04  0.00000000000E+00 0.  1.
         -2   -1    0    0    0  501 -0.00000000000E+00 -0.00000000000E+00 -0.77013345488E+03  0.77013345488E+03  0.00000000000E+00 0. -1.
         23    2    1    2    0    0  0.57158594205E+02 -0.12721621468E+04  0.88284099263E+03  0.15520907248E+04  0.88959357631E+02 0.  0.
         11    1    3    3    0    0  0.75993923668E+02 -0.74777667474E+03  0.53329082526E+03  0.92159868491E+03  0.00000000000E+00 0. -1.
        -11    1    3    3    0    0 -0.18835329463E+02 -0.52438547201E+03  0.34955016737E+03  0.63049203992E+03  0.00000000000E+00 0.  1.
         22    1    1    2    0    0 -0.57158594205E+02  0.12721621468E+04  0.49539362205E+03  0.13664107996E+04  0.00000000000E+00 0.  1.
<mgrwt>
<rscale>  0 0.25725708E+04</rscale>
<asrwt>0</asrwt>
<pdfrwt beam="1">  1        2 0.33051816E+00 0.25725708E+04</pdfrwt>
<pdfrwt beam="2">  1       -2 0.11848207E+00 0.25725708E+04</pdfrwt>
<totfact> 0.26822198E+00</totfact>
</mgrwt>
</event>
<event>
 6    1  0.1719556E-004  0.2619830E+03  0.7818608E-02  0.1105958E+00
          2   -1    0    0  501    0  0.00000000000E+00  0.00000000000E+00  0.76933467509E+02  0.76933467509E+02  0.00000000000E+00 0.  1.
         -2   -1    0    0    0  501 -0.00000000000E+00 -0.00000000000E+00 -0.22303395518E+03  0.22303395518E+03  0.00000000000E+00 0. -1.
         23    2    1    2    0    0  0.26285145077E+02 -0.36051575893E+02 -0.20374972069E+03  0.22706982984E+03  0.89755968961E+02 0.  0.
         13    1    3    3    0    0  0.57518837552E+02 -0.20859786627E+02 -0.95811009000E+02  0.11368067917E+03  0.00000000000E+00 0.  1.
        -13    1    3    3    0    0 -0.31233692475E+02 -0.15191789266E+02 -0.10793871169E+03  0.11338915067E+03  0.00000000000E+00 0. -1.
         22    1    1    2    0    0 -0.26285145077E+02  0.36051575893E+02  0.57649233020E+02  0.72897592854E+02  0.00000000000E+00 0.  1.
<mgrwt>
<rscale>  0 0.26198302E+03</rscale>
<asrwt>0</asrwt>
<pdfrwt beam="1">  1        2 0.11835918E-01 0.26198302E+03</pdfrwt>
<pdfrwt beam="2">  1       -2 0.34312916E-01 0.26198302E+03</pdfrwt>
<totfact> 0.41106283E+03</totfact>
</mgrwt>
</event>
<event>
 6    1  0.1719556E-004  0.6701548E+03  0.7818608E-02  0.9769678E-01
         -2   -1    0    0    0  501 -0.00000000000E+00  0.00000000000E+00  0.16207975810E+03  0.16207975810E+03  0.00000000000E+00 0. -1.
          2   -1    0    0  501    0  0.00000000000E+00 -0.00000000000E+00 -0.69272600111E+03  0.69272600111E+03  0.00000000000E+00 0.  1.
         23    2    1    2    0    0 -0.23889167326E+03  0.22788841415E+03 -0.29321347661E+03  0.44814044299E+03  0.76507208267E+02 0.  0.
         13    1    3    3    0    0 -0.16451004510E+03  0.15735599109E+03 -0.24635246491E+03  0.33543106570E+03  0.00000000000E+00 0.  1.
        -13    1    3    3    0    0 -0.74381628159E+02  0.70532423066E+02 -0.46861011708E+02  0.11270937729E+03  0.00000000000E+00 0. -1.
         22    1    1    2    0    0  0.23889167326E+03 -0.22788841415E+03 -0.23743276640E+03  0.40666531622E+03  0.00000000000E+00 0. -1.
<mgrwt>
<rscale>  0 0.67015480E+03</rscale>
<asrwt>0</asrwt>
<pdfrwt beam="1">  1        2 0.10657323E+00 0.67015480E+03</pdfrwt>
<pdfrwt beam="2">  1       -2 0.24935347E-01 0.67015480E+03</pdfrwt>
<totfact> 0.60140464E+02</totfact>
</mgrwt>
</event>
<event>
 6    1  0.1719556E-004  0.2587482E+04  0.7818608E-02  0.8372466E-01
         -1   -1    0    0    0  501 -0.00000000000E+00  0.00000000000E+00  0.68243566076E+03  0.68243566076E+03  0.00000000000E+00 0. -1.
          1   -1    0    0  501    0  0.00000000000E+00 -0.00000000000E+00 -0.24526353284E+04  0.24526353284E+04  0.00000000000E+00 0.  1.
         23    2    1    2    0    0  0.85471671458E+03 -0.40231250018E+03  0.18246616906E+03  0.96590066855E+03  0.85288854337E+02 0.  0.
         11    1    3    3    0    0  0.32325705142E+03 -0.10809275303E+03  0.56242791437E+02  0.34545971710E+03  0.00000000000E+00 0.  1.
        -11    1    3    3    0    0  0.53145966316E+03 -0.29421974715E+03  0.12622337762E+03  0.62044095145E+03  0.00000000000E+00 0. -1.
         22    1    1    2    0    0 -0.85471671458E+03  0.40231250018E+03 -0.19526658367E+04  0.21691703206E+04  0.00000000000E+00 0.  1.
<mgrwt>
<rscale>  0 0.25874820E+04</rscale>
<asrwt>0</asrwt>
<pdfrwt beam="1">  1        1 0.37732851E+00 0.25874820E+04</pdfrwt>
<pdfrwt beam="2">  1       -1 0.10499010E+00 0.25874820E+04</pdfrwt>
<totfact> 0.10966062E+00</totfact>
</mgrwt>
</event>
<event>
 6    1  0.1719556E-004  0.1290486E+04  0.7818608E-02  0.9037144E-01
         -2   -1    0    0    0  501 -0.00000000000E+00  0.00000000000E+00  0.34363176342E+03  0.34363176342E+03  0.00000000000E+00 0. -1.
          2   -1    0    0  501    0  0.00000000000E+00 -0.00000000000E+00 -0.12115837421E+04  0.12115837421E+04  0.00000000000E+00 0.  1.
         23    2    1    2    0    0  0.62394659703E+03  0.11859257701E+03 -0.32245435485E+03  0.71799318565E+03  0.90354017136E+02 0.  0.
         13    1    3    3    0    0  0.58214669334E+03  0.10298404565E+03 -0.27235548785E+03  0.65090552155E+03  0.00000000000E+00 0.  1.
        -13    1    3    3    0    0  0.41799903695E+02  0.15608531361E+02 -0.50098867001E+02  0.67087664104E+02  0.00000000000E+00 0. -1.
         22    1    1    2    0    0 -0.62394659703E+03 -0.11859257701E+03 -0.54549762384E+03  0.83722231987E+03  0.00000000000E+00 0.  1.
<mgrwt>
<rscale>  0 0.12904862E+04</rscale>
<asrwt>0</asrwt>
<pdfrwt beam="1">  1        2 0.18639750E+00 0.12904862E+04</pdfrwt>
<pdfrwt beam="2">  1       -2 0.52866426E-01 0.12904862E+04</pdfrwt>
<totfact> 0.61692751E+01</totfact>
</mgrwt>
</event>
<event>
 6    1  0.1719556E-004  0.1158493E+04  0.7818608E-02  0.9149984E-01
          2   -1    0    0  501    0  0.00000000000E+00  0.00000000000E+00  0.22502277813E+04  0.22502277813E+04  0.00000000000E+00 0.  1.
         -2   -1    0    0    0  501 -0.00000000000E+00 -0.00000000000E+00 -0.14910789973E+03  0.14910789973E+03  0.00000000000E+00 0. -1.
         23    2    1    2    0    0 -0.43593146928E+03 -0.34335585442E+03  0.73439982597E+03  0.92425832745E+03  0.83551557784E+02 0.  0.
         13    1    3    3    0    0 -0.28314527517E+03 -0.17076178024E+03  0.43571362880E+03  0.54697093046E+03  0.00000000000E+00 0.  1.
        -13    1    3    3    0    0 -0.15278619410E+03 -0.17259407418E+03  0.29868619717E+03  0.37728739700E+03  0.00000000000E+00 0. -1.
         22    1    1    2    0    0  0.43593146928E+03  0.34335585442E+03  0.13667200556E+04  0.14750773535E+04  0.00000000000E+00 0.  1.
<mgrwt>
<rscale>  0 0.11584934E+04</rscale>
<asrwt>0</asrwt>
<pdfrwt beam="1">  1        2 0.34618887E+00 0.11584934E+04</pdfrwt>
<pdfrwt beam="2">  1       -2 0.22939678E-01 0.11584934E+04</pdfrwt>
<totfact> 0.80515613E+01</totfact>
</mgrwt>
</event>
<event>
 6    1  0.1719556E-004  0.1667464E+04  0.7818608E-02  0.8780142E-01
         -2   -1    0    0    0  501 -0.00000000000E+00  0.00000000000E+00  0.46972439031E+03  0.46972439031E+03  0.00000000000E+00 0. -1.
          2   -1    0    0  501    0  0.00000000000E+00 -0.00000000000E+00 -0.14798225114E+04  0.14798225114E+04  0.00000000000E+00 0.  1.
         23    2    1    2    0    0 -0.51561371748E+03  0.45989559305E+03 -0.10470167143E+04  0.12576477439E+04  0.89846454739E+02 0.  0.
         11    1    3    3    0    0 -0.14130488196E+03  0.15853727821E+03 -0.38376331907E+03  0.43860622808E+03  0.00000000000E+00 0.  1.
        -11    1    3    3    0    0 -0.37430883552E+03  0.30135831483E+03 -0.66325339526E+03  0.81904151579E+03  0.00000000000E+00 0. -1.
         22    1    1    2    0    0  0.51561371748E+03 -0.45989559305E+03  0.36918593188E+02  0.69189915788E+03  0.00000000000E+00 0. -1.
<mgrwt>
<rscale>  0 0.16674636E+04</rscale>
<asrwt>0</asrwt>
<pdfrwt beam="1">  1        2 0.22766500E+00 0.16674636E+04</pdfrwt>
<pdfrwt beam="2">  1       -2 0.72265290E-01 0.16674636E+04</pdfrwt>
<totfact> 0.21549428E+01</totfact>
</mgrwt>
</event>
<event>
 6    1  0.1719556E-004  0.3902859E+04  0.7818608E-02  0.8024435E-01
          3   -1    0    0  501    0  0.00000000000E+00  0.00000000000E+00  0.21202385597E+04  0.21202385597E+04  0.00000000000E+00 0.  1.
         -3   -1    0    0    0  501 -0.00000000000E+00 -0.00000000000E+00 -0.17960609057E+04  0.17960609057E+04  0.00000000000E+00 0. -1.
         23    2    1    2    0    0 -0.97400258170E+02 -0.16871854481E+04  0.11388368601E+04  0.20401994764E+04  0.96865696742E+02 0.  0.
         11    1    3    3    0    0  0.89402606888E+01 -0.39390860804E+03  0.29698143626E+03  0.49339831093E+03  0.00000000000E+00 0. -1.
        -11    1    3    3    0    0 -0.10634051886E+03 -0.12932768401E+04  0.84185542380E+03  0.15468011655E+04  0.00000000000E+00 0.  1.
         22    1    1    2    0    0  0.97400258170E+02  0.16871854481E+04 -0.81465920603E+03  0.18760999890E+04  0.00000000000E+00 0. -1.
<mgrwt>
<rscale>  0 0.39028593E+04</rscale>
<asrwt>0</asrwt>
<pdfrwt beam="1">  1        3 0.32619055E+00 0.39028593E+04</pdfrwt>
<pdfrwt beam="2">  1       -3 0.27631706E+00 0.39028593E+04</pdfrwt>
<totfact> 0.29391420E-03</totfact>
</mgrwt>
</event>
<event>
 6    1  0.1719556E-004  0.8218990E+03  0.7818608E-02  0.9528849E-01
          2   -1    0    0  501    0  0.00000000000E+00  0.00000000000E+00  0.37529732620E+03  0.37529732620E+03  0.00000000000E+00 0.  1.
         -2   -1    0    0    0  501 -0.00000000000E+00 -0.00000000000E+00 -0.44998849452E+03  0.44998849452E+03  0.00000000000E+00 0. -1.
         23    2    1    2    0    0 -0.30909189620E+03  0.91826851688E+02 -0.28559959932E+03  0.43999069066E+03  0.89748012525E+02 0.  0.
         13    1    3    3    0    0 -0.27832807479E+03  0.10375396168E+03 -0.23138128755E+03  0.37652184798E+03  0.00000000000E+00 0.  1.
        -13    1    3    3    0    0 -0.30763821413E+02 -0.11927109989E+02 -0.54218311764E+02  0.63468842681E+02  0.00000000000E+00 0. -1.
         22    1    1    2    0    0  0.30909189620E+03 -0.91826851688E+02  0.21090843100E+03  0.38529513007E+03  0.00000000000E+00 0. -1.
<mgrwt>
<rscale>  0 0.82189897E+03</rscale>
<asrwt>0</asrwt>
<pdfrwt beam="1">  1        2 0.57738050E-01 0.82189897E+03</pdfrwt>
<pdfrwt beam="2">  1       -2 0.69228999E-01 0.82189897E+03</pdfrwt>
<totfact> 0.16386840E+02</totfact>
</mgrwt>
</event>
<event>
 6    1  0.1719556E-004  0.1458478E+04  0.7818608E-02  0.8912544E-01
          2   -1    0    0  501    0  0.00000000000E+00  0.00000000000E+00  0.39186505264E+03  0.39186505264E+03  0.00000000000E+00 0.  1.
         -2   -1    0    0    0  501 -0.00000000000E+00 -0.00000000000E+00 -0.13570729878E+04  0.13570729878E+04  0.00000000000E+00 0. -1.
         23    2    1    2    0    0 -0.39890544159E+03 -0.17689143759E+03 -0.11808545705E+04  0.12621941618E+04  0.91106824665E+02 0.  0.
         11    1    3    3    0    0 -0.29026068496E+03 -0.12906735208E+03 -0.73296433883E+03  0.79884064030E+03  0.00000000000E+00 0.  1.
        -11    1    3    3    0    0 -0.10864475663E+03 -0.47824085519E+02 -0.44789023166E+03  0.46335352153E+03  0.00000000000E+00 0. -1.
         22    1    1    2    0    0  0.39890544159E+03  0.17689143759E+03  0.21564663533E+03  0.48674387860E+03  0.00000000000E+00 0.  1.
<mgrwt>
<rscale>  0 0.14584779E+04</rscale>
<asrwt>0</asrwt>
<pdfrwt beam="1">  1        2 0.60286932E-01 0.14584779E+04</pdfrwt>
<pdfrwt beam="2">  1       -2 0.20878046E+00 0.14584779E+04</pdfrwt>
<totfact> 0.91893729E+00</totfact>
</mgrwt>
</event>
<event>
 6    1  0.1719556E-004  0.2388006E+04  0.7818608E-02  0.8444008E-01
         -2   -1    0    0    0  501 -0.00000000000E+00  0.00000000000E+00  0.11707486738E+04  0.11707486738E+04  0.00000000000E+00 0. -1.
          2   -1    0    0  501    0  0.00000000000E+00 -0.00000000000E+00 -0.12177188780E+04  0.12177188780E+04  0.00000000000E+00 0.  1.
         23    2    1    2    0    0 -0.90340029381E+03  0.76602581545E+03 -0.16041153454E+03  0.11985950476E+04  0.89278144023E+02 0.  0.
         11    1    3    3    0    0 -0.34532915604E+03  0.24115214335E+03 -0.40313522479E+02  0.42312145106E+03  0.00000000000E+00 0. -1.
        -11    1    3    3    0    0 -0.55807113777E+03  0.52487367210E+03 -0.12009801206E+03  0.77547359657E+03  0.00000000000E+00 0.  1.
         22    1    1    2    0    0  0.90340029381E+03 -0.76602581545E+03  0.11344133040E+03  0.11898725042E+04  0.00000000000E+00 0. -1.
<mgrwt>
<rscale>  0 0.23880057E+04</rscale>
<asrwt>0</asrwt>
<pdfrwt beam="1">  1        2 0.18734137E+00 0.23880057E+04</pdfrwt>
<pdfrwt beam="2">  1       -2 0.18011518E+00 0.23880057E+04</pdfrwt>
<totfact> 0.30115557E+00</totfact>
</mgrwt>
</event>
<event>
 6    1  0.1719556E-004  0.2695218E+04  0.7818608E-02  0.8336558E-01
          2   -1    0    0  501    0  0.00000000000E+00  0.00000000000E+00  0.44134860711E+04  0.44134860711E+04  0.00000000000E+00 0.  1.
         -2   -1    0    0    0  501 -0.00000000000E+00 -0.00000000000E+00 -0.41147752327E+03  0.41147752327E+03  0.00000000000E+00 0. -1.
         23    2    1    2    0    0 -0.82255315574E+03  0.17939974254E+03  0.12289797878E+03  0.85554590804E+03  0.89871719324E+02 0.  0.
         13    1    3    3    0    0 -0.60139308065E+03  0.10249633509E+03  0.11784197057E+03  0.62134198811E+03  0.00000000000E+00 0.  1.
        -13    1    3    3    0    0 -0.22116007508E+03  0.76903407452E+02  0.50560082103E+01  0.23420391992E+03  0.00000000000E+00 0. -1.
         22    1    1    2    0    0  0.82255315574E+03 -0.17939974254E+03  0.38791105690E+04  0.39694176863E+04  0.00000000000E+00 0.  1.
<mgrwt>
<rscale>  0 0.26952182E+04</rscale>
<asrwt>0</asrwt>
<pdfrwt beam="1">  1        2 0.67899782E+00 0.26952182E+04</pdfrwt>
<pdfrwt beam="2">  1       -2 0.63304238E-01 0.26952182E+04</pdfrwt>
<totfact> 0.30304461E-01</totfact>
</mgrwt>
</event>
<event>
 6    1  0.1719556E-004  0.3613234E+03  0.7818608E-02  0.1058061E+00
         -2   -1    0    0    0  501 -0.00000000000E+00  0.00000000000E+00  0.62765243183E+02  0.62765243183E+02  0.00000000000E+00 0. -1.
          2   -1    0    0  501    0  0.00000000000E+00 -0.00000000000E+00 -0.52001161650E+03  0.52001161650E+03  0.00000000000E+00 0.  1.
         23    2    1    2    0    0 -0.14753829926E+03 -0.57840849839E+02 -0.13249031424E+03  0.22141884944E+03  0.79746535112E+02 0.  0.
         13    1    3    3    0    0 -0.13568951793E+03 -0.32658865223E+02 -0.77136115972E+02  0.15946230633E+03  0.00000000000E+00 0. -1.
        -13    1    3    3    0    0 -0.11848781330E+02 -0.25181984615E+02 -0.55354198269E+02  0.61956543110E+02  0.00000000000E+00 0.  1.
         22    1    1    2    0    0  0.14753829926E+03  0.57840849839E+02 -0.32475605908E+03  0.36135801024E+03  0.00000000000E+00 0.  1.
<mgrwt>
<rscale>  0 0.36132343E+03</rscale>
<asrwt>0</asrwt>
<pdfrwt beam="1">  1        2 0.80001790E-01 0.36132343E+03</pdfrwt>
<pdfrwt beam="2">  1       -2 0.96561910E-02 0.36132343E+03</pdfrwt>
<totfact> 0.41966587E+03</totfact>
</mgrwt>
</event>
<event>
 6    1  0.1719556E-004  0.2582891E+04  0.7818608E-02  0.8374036E-01
         -2   -1    0    0    0  501 -0.00000000000E+00  0.00000000000E+00  0.14586733477E+04  0.14586733477E+04  0.00000000000E+00 0. -1.
          2   -1    0    0  501    0  0.00000000000E+00 -0.00000000000E+00 -0.11433891040E+04  0.11433891040E+04  0.00000000000E+00 0.  1.
         23    2    1    2    0    0 -0.60182458544E+03 -0.24180269000E+03 -0.96481758833E+03  0.11670286288E+04  0.10208559742E+03 0.  0.
         11    1    3    3    0    0 -0.14015297505E+03 -0.22549647966E+02 -0.26257586178E+03  0.29849191987E+03  0.00000000000E+00 0. -1.
        -11    1    3    3    0    0 -0.46167161040E+03 -0.21925304204E+03 -0.70224172655E+03  0.86853670895E+03  0.00000000000E+00 0.  1.
         22    1    1    2    0    0  0.60182458544E+03  0.24180269000E+03  0.12801018320E+04  0.14350338229E+04  0.00000000000E+00 0. -1.
<mgrwt>
<rscale>  0 0.25828908E+04</rscale>
<asrwt>0</asrwt>
<pdfrwt beam="1">  1        2 0.17590602E+00 0.25828908E+04</pdfrwt>
<pdfrwt beam="2">  1       -2 0.22441129E+00 0.25828908E+04</pdfrwt>
<totfact> 0.16823609E+00</totfact>
</mgrwt>
</event>
<event>
 6    1  0.1719556E-004  0.1509937E+04  0.7818608E-02  0.8877871E-01
         -2   -1    0    0    0  501 -0.00000000000E+00  0.00000000000E+00  0.15718850027E+03  0.15718850027E+03  0.00000000000E+00 0. -1.
          2   -1    0    0  501    0  0.00000000000E+00 -0.00000000000E+00 -0.36260783138E+04  0.36260783138E+04  0.00000000000E+00 0.  1.
         23    2    1    2    0    0 -0.17139530431E+03  0.62604163239E+03 -0.26930486259E+04  0.27717165067E+04  0.92720097667E+02 0.  0.
         13    1    3    3    0    0 -0.17594560573E+03  0.56485482101E+03 -0.25048069060E+04  0.25737279307E+04  0.00000000000E+00 0. -1.
        -13    1    3    3    0    0  0.45503014210E+01  0.61186811378E+02 -0.18824171985E+03  0.19798857599E+03  0.00000000000E+00 0.  1.
         22    1    1    2    0    0  0.17139530431E+03 -0.62604163239E+03 -0.77584118765E+03  0.10115503073E+04  0.00000000000E+00 0.  1.
<mgrwt>
<rscale>  0 0.15099375E+04</rscale>
<asrwt>0</asrwt>
<pdfrwt beam="1">  1        2 0.55785823E+00 0.15099375E+04</pdfrwt>
<pdfrwt beam="2">  1       -2 0.24182845E-01 0.15099375E+04</pdfrwt>
<totfact> 0.98824903E+00</totfact>
</mgrwt>
</event>
<event>
 6    1  0.1719556E-004  0.3927863E+04  0.7818608E-02  0.8019259E-01
          2   -1    0    0  501    0  0.00000000000E+00  0.00000000000E+00  0.35147990278E+04  0.35147990278E+04  0.00000000000E+00 0.  1.
         -2   -1    0    0    0  501 -0.00000000000E+00 -0.00000000000E+00 -0.10973678563E+04  0.10973678563E+04  0.00000000000E+00 0. -1.
         23    2    1    2    0    0  0.23190009875E+02 -0.21769266996E+03  0.34998248076E+04  0.35078553979E+04  0.91367026280E+02 0.  0.
         11    1    3    3    0    0 -0.30815635390E+02 -0.11661530738E+03  0.20215059431E+04  0.20251012349E+04  0.00000000000E+00 0. -1.
        -11    1    3    3    0    0  0.54005645265E+02 -0.10107736258E+03  0.14783188645E+04  0.14827541631E+04  0.00000000000E+00 0.  1.
         22    1    1    2    0    0 -0.23190009875E+02  0.21769266996E+03 -0.10823936361E+04  0.11043114863E+04  0.00000000000E+00 0. -1.
<mgrwt>
<rscale>  0 0.39278633E+04</rscale>
<asrwt>0</asrwt>
<pdfrwt beam="1">  1        2 0.54073831E+00 0.39278633E+04</pdfrwt>
<pdfrwt beam="2">  1       -2 0.16882583E+00 0.39278633E+04</pdfrwt>
<totfact> 0.13659958E-01</totfact>
</mgrwt>
</event>
<event>
 6    1  0.1719556E-004  0.2537206E+04  0.7818608E-02  0.8389849E-01
          2   -1    0    0  501    0  0.00000000000E+00  0.00000000000E+00  0.24815409285E+04  0.24815409285E+04  0.00000000000E+00 0.  1.
         -2   -1    0    0    0  501 -0.00000000000E+00 -0.00000000000E+00 -0.64852983779E+03  0.64852983779E+03  0.00000000000E+00 0. -1.
         23    2    1    2    0    0 -0.11315271121E+04 -0.15054931620E+03  0.23968743314E+03  0.11700455165E+04  0.92399908274E+02 0.  0.
         13    1    3    3    0    0 -0.71510433779E+03 -0.13077391198E+03  0.12464957279E+03  0.73757273945E+03  0.00000000000E+00 0. -1.
        -13    1    3    3    0    0 -0.41642277431E+03 -0.19775404215E+02  0.11503786035E+03  0.43247277705E+03  0.00000000000E+00 0.  1.
         22    1    1    2    0    0  0.11315271121E+04  0.15054931620E+03  0.15933236576E+04  0.19600252498E+04  0.00000000000E+00 0.  1.
<mgrwt>
<rscale>  0 0.25372058E+04</rscale>
<asrwt>0</asrwt>
<pdfrwt beam="1">  1        2 0.38177552E+00 0.25372058E+04</pdfrwt>
<pdfrwt beam="2">  1       -2 0.99773822E-01 0.25372058E+04</pdfrwt>
<totfact> 0.26340735E+00</totfact>
</mgrwt>
</event>
<event>
 6    1  0.1719556E-004  0.3846981E+04  0.7818608E-02  0.8036147E-01
          2   -1    0    0  501    0  0.00000000000E+00  0.00000000000E+00  0.37267559947E+04  0.37267559947E+04  0.00000000000E+00 0.  1.
         -2   -1    0    0    0  501 -0.00000000000E+00 -0.00000000000E+00 -0.99277099967E+03  0.99277099967E+03  0.00000000000E+00 0. -1.
         23    2    1    2    0    0 -0.13210373122E+04  0.20241713270E+03 -0.32750046274E+03  0.13790471660E+04  0.91663826691E+02 0.  0.
         13    1    3    3    0    0 -0.12587315531E+03  0.17511793440E+02 -0.59504390747E+02  0.14032635767E+03  0.00000000000E+00 0.  1.
        -13    1    3    3    0    0 -0.11951641569E+04  0.18490533926E+03 -0.26799607199E+03  0.12387208083E+04  0.00000000000E+00 0. -1.
         22    1    1    2    0    0  0.13210373122E+04 -0.20241713270E+03  0.30614854578E+04  0.33404798284E+04  0.00000000000E+00 0.  1.
<mgrwt>
<rscale>  0 0.38469808E+04</rscale>
<asrwt>0</asrwt>
<pdfrwt beam="1">  1        2 0.57334707E+00 0.38469808E+04</pdfrwt>
<pdfrwt beam="2">  1       -2 0.15273400E+00 0.38469808E+04</pdfrwt>
<totfact> 0.12686892E-01</totfact>
</mgrwt>
</event>
<event>
 6    1  0.1719556E-004  0.2234021E+04  0.7818608E-02  0.8504400E-01
          2   -1    0    0  501    0  0.00000000000E+00  0.00000000000E+00  0.50641139624E+03  0.50641139624E+03  0.00000000000E+00 0.  1.
         -2   -1    0    0    0  501 -0.00000000000E+00 -0.00000000000E+00 -0.24638311025E+04  0.24638311025E+04  0.00000000000E+00 0. -1.
         23    2    1    2    0    0  0.24648310808E+03 -0.50000094712E+03  0.30401609703E+03  0.64111245469E+03  0.88569309641E+02 0.  0.
         13    1    3    3    0    0  0.98037150831E+02 -0.20771280424E+03  0.76569869627E+02  0.24211327292E+03  0.00000000000E+00 0. -1.
        -13    1    3    3    0    0  0.14844595725E+03 -0.29228814288E+03  0.22744622740E+03  0.39899918177E+03  0.00000000000E+00 0.  1.
         22    1    1    2    0    0 -0.24648310808E+03  0.50000094712E+03 -0.22614358033E+04  0.23291300440E+04  0.00000000000E+00 0. -1.
<mgrwt>
<rscale>  0 0.22340207E+04</rscale>
<asrwt>0</asrwt>
<pdfrwt beam="1">  1        2 0.77909445E-01 0.22340207E+04</pdfrwt>
<pdfrwt beam="2">  1       -2 0.37905094E+00 0.22340207E+04</pdfrwt>
<totfact> 0.56238789E-01</totfact>
</mgrwt>
</event>
<event>
 6    1  0.1719556E-004  0.7004337E+04  0.7818608E-02  0.7576988E-01
          2   -1    0    0  501    0  0.00000000000E+00  0.00000000000E+00  0.29978054354E+04  0.29978054354E+04  0.00000000000E+00 0.  1.
         -2   -1    0    0    0  501 -0.00000000000E+00 -0.00000000000E+00 -0.40913875606E+04  0.40913875606E+04  0.00000000000E+00 0. -1.
         23    2    1    2    0    0 -0.14227672105E+04  0.21097249867E+04 -0.29814050919E+04  0.39207420167E+04  0.90750121664E+02 0.  0.
         13    1    3    3    0    0 -0.95575549430E+02  0.17397603079E+03 -0.25835624368E+03  0.32580714171E+03  0.00000000000E+00 0.  1.
        -13    1    3    3    0    0 -0.13271916611E+04  0.19357489559E+04 -0.27230488483E+04  0.35949348750E+04  0.00000000000E+00 0. -1.
         22    1    1    2    0    0  0.14227672105E+04 -0.21097249867E+04  0.18878229667E+04  0.31684509793E+04  0.00000000000E+00 0.  1.
<mgrwt>
<rscale>  0 0.70043369E+04</rscale>
<asrwt>0</asrwt>
<pdfrwt beam="1">  1        2 0.46120083E+00 0.70043369E+04</pdfrwt>
<pdfrwt beam="2">  1       -2 0.62944424E+00 0.70043369E+04</pdfrwt>
<totfact> 0.44301887E-04</totfact>
</mgrwt>
</event>
<event>
 6    1  0.1719556E-004  0.3740320E+04  0.7818608E-02  0.8059085E-01
          2   -1    0    0  501    0  0.00000000000E+00  0.00000000000E+00  0.24241568341E+04  0.24241568341E+04  0.00000000000E+00 0.  1.
         -2   -1    0    0    0  501 -0.00000000000E+00 -0.00000000000E+00 -0.14427692583E+04  0.14427692583E+04  0.00000000000E+00 0. -1.
         23    2    1    2    0    0 -0.11704063786E+04  0.13999690950E+04  0.90903732136E+03  0.20407280973E+04  0.91966067668E+02 0.  0.
         13    1    3    3    0    0 -0.76620301806E+03  0.94578345570E+03  0.56227775012E+03  0.13407944206E+04  0.00000000000E+00 0. -1.
        -13    1    3    3    0    0 -0.40420336056E+03  0.45418563930E+03  0.34675957124E+03  0.69993367677E+03  0.00000000000E+00 0.  1.
         22    1    1    2    0    0  0.11704063786E+04 -0.13999690950E+04  0.72350254431E+02  0.18261979951E+04  0.00000000000E+00 0. -1.
<mgrwt>
<rscale>  0 0.37403203E+04</rscale>
<asrwt>0</asrwt>
<pdfrwt beam="1">  1        2 0.37294720E+00 0.37403203E+04</pdfrwt>
<pdfrwt beam="2">  1       -2 0.22196450E+00 0.37403203E+04</pdfrwt>
<totfact> 0.29797954E-01</totfact>
</mgrwt>
</event>
<event>
 6    1  0.1719556E-004  0.1988176E+04  0.7818608E-02  0.8612169E-01
         -2   -1    0    0    0  501 -0.00000000000E+00  0.00000000000E+00  0.72863682353E+03  0.72863682353E+03  0.00000000000E+00 0.  1.
          2   -1    0    0  501    0  0.00000000000E+00 -0.00000000000E+00 -0.13562457559E+04  0.13562457559E+04  0.00000000000E+00 0. -1.
         23    2    1    2    0    0 -0.11918729555E+03  0.39444672509E+02 -0.13463658939E+04  0.13552435842E+04  0.90678324125E+02 0.  0.
         13    1    3    3    0    0 -0.72828949097E+02 -0.14923326316E+02 -0.91355407657E+03  0.91657395354E+03  0.00000000000E+00 0.  1.
        -13    1    3    3    0    0 -0.46358346452E+02  0.54367998825E+02 -0.43281181738E+03  0.43866963064E+03  0.00000000000E+00 0. -1.
         22    1    1    2    0    0  0.11918729555E+03 -0.39444672509E+02  0.71875696156E+03  0.72963899526E+03  0.00000000000E+00 0.  1.
<mgrwt>
<rscale>  0 0.19881756E+04</rscale>
<asrwt>0</asrwt>
<pdfrwt beam="1">  1        2 0.20865319E+00 0.19881756E+04</pdfrwt>
<pdfrwt beam="2">  1       -2 0.11209797E+00 0.19881756E+04</pdfrwt>
<totfact> 0.89504437E+00</totfact>
</mgrwt>
</event>
<event>
 6    1  0.1719556E-004  0.2253271E+04  0.7818608E-02  0.8496577E-01
          2   -1    0    0  501    0  0.00000000000E+00  0.00000000000E+00  0.24900721634E+04  0.24900721634E+04  0.00000000000E+00 0.  1.
         -2   -1    0    0    0  501 -0.00000000000E+00 -0.00000000000E+00 -0.50974748439E+03  0.50974748439E+03  0.00000000000E+00 0. -1.
         23    2    1    2    0    0 -0.56412591214E+03 -0.93136120373E+03  0.61641575323E+03  0.12545634218E+04  0.91045383753E+02 0.  0.
         13    1    3    3    0    0 -0.20603362201E+03 -0.40808595026E+03  0.29042177473E+03  0.54159837835E+03  0.00000000000E+00 0. -1.
        -13    1    3    3    0    0 -0.35809229013E+03 -0.52327525348E+03  0.32599397850E+03  0.71296504344E+03  0.00000000000E+00 0.  1.
         22    1    1    2    0    0  0.56412591214E+03  0.93136120373E+03  0.13639089258E+04  0.17452562260E+04  0.00000000000E+00 0.  1.
<mgrwt>
<rscale>  0 0.22532714E+04</rscale>
<asrwt>0</asrwt>
<pdfrwt beam="1">  1        2 0.38308802E+00 0.22532714E+04</pdfrwt>
<pdfrwt beam="2">  1       -2 0.78422691E-01 0.22532714E+04</pdfrwt>
<totfact> 0.46407050E+00</totfact>
</mgrwt>
</event>
<event>
 6    1  0.1719556E-004  0.1734886E+04  0.7818608E-02  0.8741714E-01
         -2   -1    0    0    0  501 -0.00000000000E+00  0.00000000000E+00  0.41095461365E+03  0.41095461365E+03  0.00000000000E+00 0. -1.
          2   -1    0    0  501    0  0.00000000000E+00 -0.00000000000E+00 -0.18309985981E+04  0.18309985981E+04  0.00000000000E+00 0.  1.
         23    2    1    2    0    0 -0.27203224494E+02  0.64357216350E+03 -0.14580885757E+04  0.15966838603E+04  0.91934271002E+02 0.  0.
         13    1    3    3    0    0 -0.23917511143E+02  0.47363435626E+03 -0.11658159188E+04  0.12585818636E+04  0.00000000000E+00 0.  1.
        -13    1    3    3    0    0 -0.32857133514E+01  0.16993780724E+03 -0.29227265689E+03  0.33810199675E+03  0.00000000000E+00 0. -1.
         22    1    1    2    0    0  0.27203224494E+02 -0.64357216350E+03  0.38044591173E+02  0.64526935149E+03  0.00000000000E+00 0. -1.
<mgrwt>
<rscale>  0 0.17348860E+04</rscale>
<asrwt>0</asrwt>
<pdfrwt beam="1">  1        2 0.28169209E+00 0.17348860E+04</pdfrwt>
<pdfrwt beam="2">  1       -2 0.63223787E-01 0.17348860E+04</pdfrwt>
<totfact> 0.18232996E+01</totfact>
</mgrwt>
</event>
<event>
 6    1  0.1719556E-004  0.2077684E+04  0.7818608E-02  0.8571138E-01
          2   -1    0    0  501    0  0.00000000000E+00  0.00000000000E+00  0.23813912858E+04  0.23813912858E+04  0.00000000000E+00 0.  1.
         -2   -1    0    0    0  501 -0.00000000000E+00 -0.00000000000E+00 -0.45317752492E+03  0.45317752492E+03  0.00000000000E+00 0. -1.
         23    2    1    2    0    0 -0.18585210381E+03  0.85147883998E+03  0.19895676238E+03  0.89810631786E+03  0.86336234886E+02 0.  0.
         11    1    3    3    0    0 -0.79307434522E+02  0.48093709641E+03  0.14667524732E+03  0.50902238463E+03  0.00000000000E+00 0. -1.
        -11    1    3    3    0    0 -0.10654466929E+03  0.37054174357E+03  0.52281515055E+02  0.38908393323E+03  0.00000000000E+00 0.  1.
         22    1    1    2    0    0  0.18585210381E+03 -0.85147883998E+03  0.17292569985E+04  0.19364624929E+04  0.00000000000E+00 0.  1.
<mgrwt>
<rscale>  0 0.20776843E+04</rscale>
<asrwt>0</asrwt>
<pdfrwt beam="1">  1        2 0.36636788E+00 0.20776843E+04</pdfrwt>
<pdfrwt beam="2">  1       -2 0.69719621E-01 0.20776843E+04</pdfrwt>
<totfact> 0.70549927E+00</totfact>
</mgrwt>
</event>
<event>
 6    1  0.1719556E-004  0.1439815E+04  0.7818608E-02  0.8925492E-01
         -2   -1    0    0    0  501 -0.00000000000E+00  0.00000000000E+00  0.20429920041E+04  0.20429920041E+04  0.00000000000E+00 0. -1.
          2   -1    0    0  501    0  0.00000000000E+00 -0.00000000000E+00 -0.25368014887E+03  0.25368014887E+03  0.00000000000E+00 0.  1.
         23    2    1    2    0    0 -0.51742712834E+03  0.12337108113E+03  0.13148896924E+03  0.55560122446E+03  0.91935383756E+02 0.  0.
         13    1    3    3    0    0 -0.41436347910E+03  0.12820417195E+03  0.83063501909E+02  0.44162534786E+03  0.00000000000E+00 0.  1.
        -13    1    3    3    0    0 -0.10306364923E+03 -0.48330908189E+01  0.48425467333E+02  0.11397587660E+03  0.00000000000E+00 0. -1.
         22    1    1    2    0    0  0.51742712834E+03 -0.12337108113E+03  0.16578228860E+04  0.17410709285E+04  0.00000000000E+00 0. -1.
<mgrwt>
<rscale>  0 0.14398146E+04</rscale>
<asrwt>0</asrwt>
<pdfrwt beam="1">  1        2 0.39027716E-01 0.14398146E+04</pdfrwt>
<pdfrwt beam="2">  1       -2 0.31430645E+00 0.14398146E+04</pdfrwt>
<totfact> 0.33544457E+00</totfact>
</mgrwt>
</event>
<event>
 6    1  0.1719556E-004  0.1546763E+04  0.7818608E-02  0.8853938E-01
         -2   -1    0    0    0  501 -0.00000000000E+00  0.00000000000E+00  0.48639367106E+03  0.48639367106E+03  0.00000000000E+00 0. -1.
          2   -1    0    0  501    0  0.00000000000E+00 -0.00000000000E+00 -0.12297015150E+04  0.12297015150E+04  0.00000000000E+00 0.  1.
         23    2    1    2    0    0  0.27923719718E+03 -0.82493792023E+02  0.41878463658E+03  0.51808117476E+03  0.90823420976E+02 0.  0.
         11    1    3    3    0    0  0.90830044469E+02  0.50721613616E+01  0.82587694084E+02  0.12286802275E+03  0.00000000000E+00 0. -1.
        -11    1    3    3    0    0  0.18840715271E+03 -0.87565953385E+02  0.33619694249E+03  0.39521315201E+03  0.00000000000E+00 0.  1.
         22    1    1    2    0    0 -0.27923719718E+03  0.82493792023E+02 -0.11620924805E+04  0.11980140113E+04  0.00000000000E+00 0.  1.
<mgrwt>
<rscale>  0 0.15467631E+04</rscale>
<asrwt>0</asrwt>
<pdfrwt beam="1">  1        2 0.18918484E+00 0.15467631E+04</pdfrwt>
<pdfrwt beam="2">  1       -2 0.74829797E-01 0.15467631E+04</pdfrwt>
<totfact> 0.28100610E+01</totfact>
</mgrwt>
</event>
<event>
 6    1  0.1719556E-004  0.2803972E+04  0.7818608E-02  0.8302036E-01
          2   -1    0    0  501    0  0.00000000000E+00  0.00000000000E+00  0.27727158143E+04  0.27727158143E+04  0.00000000000E+00 0.  1.
         -2   -1    0    0    0  501 -0.00000000000E+00 -0.00000000000E+00 -0.70889532465E+03  0.70889532465E+03  0.00000000000E+00 0. -1.
         23    2    1    2    0    0  0.12035140140E+04  0.58256938959E+03  0.51348658048E+03  0.14343279867E+04  0.76126404884E+02 0.  0.
         13    1    3    3    0    0  0.10503743097E+04  0.52950478303E+03  0.46820870391E+03  0.12660493261E+04  0.00000000000E+00 0.  1.
        -13    1    3    3    0    0  0.15313970433E+03  0.53064606559E+02  0.45277876566E+02  0.16827866061E+03  0.00000000000E+00 0. -1.
         22    1    1    2    0    0 -0.12035140140E+04 -0.58256938959E+03  0.15503339092E+04  0.20472831523E+04  0.00000000000E+00 0.  1.
<mgrwt>
<rscale>  0 0.28039724E+04</rscale>
<asrwt>0</asrwt>
<pdfrwt beam="1">  1        2 0.42657166E+00 0.28039724E+04</pdfrwt>
<pdfrwt beam="2">  1       -2 0.10906082E+00 0.28039724E+04</pdfrwt>
<totfact> 0.14010190E+00</totfact>
</mgrwt>
</event>
<event>
 6    1  0.1719556E-004  0.1540539E+04  0.7818608E-02  0.8857933E-01
         -2   -1    0    0    0  501 -0.00000000000E+00  0.00000000000E+00  0.60087765123E+03  0.60087765123E+03  0.00000000000E+00 0. -1.
          2   -1    0    0  501    0  0.00000000000E+00 -0.00000000000E+00 -0.98741458362E+03  0.98741458362E+03  0.00000000000E+00 0.  1.
         23    2    1    2    0    0  0.36033203774E+03 -0.17969823447E+02 -0.89242726938E+03  0.96693313977E+03  0.91494118324E+02 0.  0.
         13    1    3    3    0    0  0.22075242623E+03 -0.10833101846E+02 -0.65661659013E+03  0.69281623553E+03  0.00000000000E+00 0.  1.
        -13    1    3    3    0    0  0.13957961151E+03 -0.71367216005E+01 -0.23581067925E+03  0.27411690424E+03  0.00000000000E+00 0. -1.
         22    1    1    2    0    0 -0.36033203774E+03  0.17969823447E+02  0.50589033698E+03  0.62135909507E+03  0.00000000000E+00 0. -1.
<mgrwt>
<rscale>  0 0.15405393E+04</rscale>
<asrwt>0</asrwt>
<pdfrwt beam="1">  1        2 0.15190993E+00 0.15405393E+04</pdfrwt>
<pdfrwt beam="2">  1       -2 0.92442717E-01 0.15405393E+04</pdfrwt>
<totfact> 0.24559588E+01</totfact>
</mgrwt>
</event>
<event>
 6    1  0.1719556E-004  0.6217364E+03  0.7818608E-02  0.9861309E-01
          2   -1    0    0  501    0  0.00000000000E+00  0.00000000000E+00  0.74972731219E+03  0.74972731219E+03  0.00000000000E+00 0.  1.
         -2   -1    0    0    0  501 -0.00000000000E+00 -0.00000000000E+00 -0.12889891867E+03  0.12889891867E+03  0.00000000000E+00 0. -1.
         23    2    1    2    0    0 -0.67747018074E+02 -0.22872885947E+03  0.50433472489E+02  0.26035694038E+03  0.91299789945E+02 0.  0.
         11    1    3    3    0    0 -0.31651646334E+02 -0.20716389906E+03  0.58420449914E+02  0.21755839850E+03  0.00000000000E+00 0.  1.
        -11    1    3    3    0    0 -0.36095371739E+02 -0.21564960405E+02 -0.79869774250E+01  0.42798541875E+02  0.00000000000E+00 0. -1.
         22    1    1    2    0    0  0.67747018074E+02  0.22872885947E+03  0.57039492104E+03  0.61826929049E+03  0.00000000000E+00 0.  1.
<mgrwt>
<rscale>  0 0.62173641E+03</rscale>
<asrwt>0</asrwt>
<pdfrwt beam="1">  1        2 0.11534266E+00 0.62173641E+03</pdfrwt>
<pdfrwt beam="2">  1       -2 0.19830603E-01 0.62173641E+03</pdfrwt>
<totfact> 0.81705207E+02</totfact>
</mgrwt>
</event>
<event>
 6    1  0.1724428E-004  0.3209760E+04  0.7818608E-02  0.8186244E-01
         -2   -1    0    0    0  501 -0.00000000000E+00  0.00000000000E+00  0.16463074038E+04  0.16463074038E+04  0.00000000000E+00 0. -1.
          2   -1    0    0  501    0  0.00000000000E+00 -0.00000000000E+00 -0.15644955553E+04  0.15644955553E+04  0.00000000000E+00 0.  1.
         23    2    1    2    0    0 -0.37088643942E+03 -0.35336466753E+03  0.15599802331E+04  0.16463845008E+04  0.12091425733E+03 0.  0.
         13    1    3    3    0    0 -0.10328934062E+03 -0.17618065749E+03  0.66121741006E+03  0.69203813141E+03  0.00000000000E+00 0. -1.
        -13    1    3    3    0    0 -0.26759709880E+03 -0.17718401004E+03  0.89876282306E+03  0.95434636941E+03  0.00000000000E+00 0.  1.
         22    1    1    2    0    0  0.37088643942E+03  0.35336466753E+03 -0.14781683847E+04  0.15644184583E+04  0.00000000000E+00 0.  1.
<mgrwt>
<rscale>  0 0.32097605E+04</rscale>
<asrwt>0</asrwt>
<pdfrwt beam="1">  1        2 0.24069162E+00 0.32097605E+04</pdfrwt>
<pdfrwt beam="2">  1       -2 0.25327806E+00 0.32097605E+04</pdfrwt>
<totfact> 0.60264117E-01</totfact>
</mgrwt>
</event>
<event>
 6    1  0.1719556E-004  0.1924396E+04  0.7818608E-02  0.8642807E-01
          1   -1    0    0  501    0  0.00000000000E+00  0.00000000000E+00  0.18884185717E+04  0.18884185717E+04  0.00000000000E+00 0. -1.
         -1   -1    0    0    0  501 -0.00000000000E+00 -0.00000000000E+00 -0.49026480363E+03  0.49026480363E+03  0.00000000000E+00 0.  1.
         23    2    1    2    0    0  0.29359239137E+03  0.75397327651E+03  0.13393585020E+04  0.15674318254E+04  0.91044695745E+02 0.  0.
         13    1    3    3    0    0  0.23508622767E+03  0.65022792342E+03  0.11913308580E+04  0.13774364232E+04  0.00000000000E+00 0.  1.
        -13    1    3    3    0    0  0.58506163693E+02  0.10374535310E+03  0.14802764401E+03  0.18999540224E+03  0.00000000000E+00 0. -1.
         22    1    1    2    0    0 -0.29359239137E+03 -0.75397327651E+03  0.58795266144E+02  0.81125154994E+03  0.00000000000E+00 0.  1.
<mgrwt>
<rscale>  0 0.19243962E+04</rscale>
<asrwt>0</asrwt>
<pdfrwt beam="1">  1        1 0.29052593E+00 0.19243962E+04</pdfrwt>
<pdfrwt beam="2">  1       -1 0.75425355E-01 0.19243962E+04</pdfrwt>
<totfact> 0.58521085E+00</totfact>
</mgrwt>
</event>
<event>
 6    1  0.1719556E-004  0.2460894E+04  0.7818608E-02  0.8417051E-01
          1   -1    0    0  501    0  0.00000000000E+00  0.00000000000E+00  0.12266505037E+04  0.12266505037E+04  0.00000000000E+00 0.  1.
         -1   -1    0    0    0  501 -0.00000000000E+00 -0.00000000000E+00 -0.12342548285E+04  0.12342548285E+04  0.00000000000E+00 0. -1.
         23    2    1    2    0    0 -0.94502220466E+03  0.13931542301E+03 -0.77667111342E+03  0.12345532296E+04  0.91803615761E+02 0.  0.
         13    1    3    3    0    0 -0.20905448100E+03  0.65657691373E+02 -0.15580809232E+03  0.26886961542E+03  0.00000000000E+00 0.  1.
        -13    1    3    3    0    0 -0.73596772366E+03  0.73657731637E+02 -0.62086302111E+03  0.96568361417E+03  0.00000000000E+00 0. -1.
         22    1    1    2    0    0  0.94502220466E+03 -0.13931542301E+03  0.76906678858E+03  0.12263521027E+04  0.00000000000E+00 0.  1.
<mgrwt>
<rscale>  0 0.24608936E+04</rscale>
<asrwt>0</asrwt>
<pdfrwt beam="1">  1        1 0.18871546E+00 0.24608936E+04</pdfrwt>
<pdfrwt beam="2">  1       -1 0.18988536E+00 0.24608936E+04</pdfrwt>
<totfact> 0.16124592E+00</totfact>
</mgrwt>
</event>
<event>
 6    1  0.1719556E-004  0.4116441E+04  0.7818608E-02  0.7981460E-01
          2   -1    0    0  501    0  0.00000000000E+00  0.00000000000E+00  0.32268104435E+04  0.32268104435E+04  0.00000000000E+00 0.  1.
         -2   -1    0    0    0  501 -0.00000000000E+00 -0.00000000000E+00 -0.13128354790E+04  0.13128354790E+04  0.00000000000E+00 0. -1.
         23    2    1    2    0    0 -0.34611223574E+03 -0.79787984331E+03 -0.10985032398E+04  0.14041346635E+04  0.92080732081E+02 0.  0.
         13    1    3    3    0    0 -0.12845488453E+03 -0.22585997462E+03 -0.27817366567E+03  0.38064941057E+03  0.00000000000E+00 0.  1.
        -13    1    3    3    0    0 -0.21765735121E+03 -0.57201986869E+03 -0.82032957415E+03  0.10234852529E+04  0.00000000000E+00 0. -1.
         22    1    1    2    0    0  0.34611223574E+03  0.79787984331E+03  0.30124782043E+04  0.31355112590E+04  0.00000000000E+00 0.  1.
<mgrwt>
<rscale>  0 0.41164408E+04</rscale>
<asrwt>0</asrwt>
<pdfrwt beam="1">  1        2 0.49643237E+00 0.41164408E+04</pdfrwt>
<pdfrwt beam="2">  1       -2 0.20197469E+00 0.41164408E+04</pdfrwt>
<totfact> 0.12550894E-01</totfact>
</mgrwt>
</event>
<event>
 6    1  0.1719556E-004  0.1468560E+04  0.7818608E-02  0.8905634E-01
          2   -1    0    0  501    0  0.00000000000E+00  0.00000000000E+00  0.99790985502E+03  0.99790985502E+03  0.00000000000E+00 0.  1.
         -2   -1    0    0    0  501 -0.00000000000E+00 -0.00000000000E+00 -0.54029626079E+03  0.54029626079E+03  0.00000000000E+00 0. -1.
         23    2    1    2    0    0 -0.43041926109E+03 -0.57826250165E+03  0.10016770076E+03  0.73358457254E+03  0.92002693748E+02 0.  0.
         11    1    3    3    0    0 -0.28624121921E+03 -0.45116545714E+03  0.65949426390E+02  0.53836198987E+03  0.00000000000E+00 0.  1.
        -11    1    3    3    0    0 -0.14417804189E+03 -0.12709704451E+03  0.34218274372E+02  0.19522258268E+03  0.00000000000E+00 0. -1.
         22    1    1    2    0    0  0.43041926109E+03  0.57826250165E+03  0.35744589346E+03  0.80462154327E+03  0.00000000000E+00 0.  1.
<mgrwt>
<rscale>  0 0.14685598E+04</rscale>
<asrwt>0</asrwt>
<pdfrwt beam="1">  1        2 0.15352459E+00 0.14685598E+04</pdfrwt>
<pdfrwt beam="2">  1       -2 0.83122502E-01 0.14685598E+04</pdfrwt>
<totfact> 0.31027492E+01</totfact>
</mgrwt>
</event>
<event>
 6    1  0.1719556E-004  0.2660228E+03  0.7818608E-02  0.1103578E+00
         -3   -1    0    0    0  501 -0.00000000000E+00  0.00000000000E+00  0.10730220354E+02  0.10730220354E+02  0.00000000000E+00 0. -1.
          3   -1    0    0  501    0  0.00000000000E+00 -0.00000000000E+00 -0.16488039185E+04  0.16488039185E+04  0.00000000000E+00 0.  1.
         23    2    1    2    0    0 -0.55430111762E+01  0.18822217899E+02 -0.16372428406E+04  0.16398951169E+04  0.91142055974E+02 0.  0.
         13    1    3    3    0    0 -0.12597156383E+02  0.54972864332E+02 -0.99110029454E+03  0.99270363050E+03  0.00000000000E+00 0.  1.
        -13    1    3    3    0    0  0.70541452072E+01 -0.36150646433E+02 -0.64614254608E+03  0.64719148639E+03  0.00000000000E+00 0. -1.
         22    1    1    2    0    0  0.55430111762E+01 -0.18822217899E+02 -0.83085752478E+00  0.19639021966E+02  0.00000000000E+00 0. -1.
<mgrwt>
<rscale>  0 0.26602278E+03</rscale>
<asrwt>0</asrwt>
<pdfrwt beam="1">  1        3 0.25366193E+00 0.26602278E+03</pdfrwt>
<pdfrwt beam="2">  1       -3 0.16508045E-02 0.26602278E+03</pdfrwt>
<totfact> 0.25517501E+02</totfact>
</mgrwt>
</event>
<event>
 6    1  0.1719556E-004  0.2236000E+04  0.7818608E-02  0.8503592E-01
          2   -1    0    0  501    0  0.00000000000E+00  0.00000000000E+00  0.18656949750E+04  0.18656949750E+04  0.00000000000E+00 0.  1.
         -2   -1    0    0    0  501 -0.00000000000E+00 -0.00000000000E+00 -0.66995075210E+03  0.66995075210E+03  0.00000000000E+00 0. -1.
         23    2    1    2    0    0  0.79628278076E+03  0.25543754264E+03 -0.23942027986E+03  0.87461840792E+03  0.91217783008E+02 0.  0.
         11    1    3    3    0    0  0.18383696995E+03  0.44118092211E+02 -0.91658453622E+02  0.21010404494E+03  0.00000000000E+00 0. -1.
        -11    1    3    3    0    0  0.61244581080E+03  0.21131945043E+03 -0.14776182623E+03  0.66451436297E+03  0.00000000000E+00 0.  1.
         22    1    1    2    0    0 -0.79628278076E+03 -0.25543754264E+03  0.14351645028E+04  0.16610273192E+04  0.00000000000E+00 0.  1.
<mgrwt>
<rscale>  0 0.22359998E+04</rscale>
<asrwt>0</asrwt>
<pdfrwt beam="1">  1        2 0.28702999E+00 0.22359998E+04</pdfrwt>
<pdfrwt beam="2">  1       -2 0.10306935E+00 0.22359998E+04</pdfrwt>
<totfact> 0.55568768E+00</totfact>
</mgrwt>
</event>
<event>
 6    1  0.1719556E-004  0.2294857E+04  0.7818608E-02  0.8479952E-01
          1   -1    0    0  501    0  0.00000000000E+00  0.00000000000E+00  0.14214057687E+04  0.14214057687E+04  0.00000000000E+00 0.  1.
         -1   -1    0    0    0  501 -0.00000000000E+00 -0.00000000000E+00 -0.92626082463E+03  0.92626082463E+03  0.00000000000E+00 0. -1.
         23    2    1    2    0    0 -0.53779280105E+03 -0.67998609693E+03  0.10154351487E+04  0.13365760505E+04  0.61031210140E+02 0.  0.
         13    1    3    3    0    0 -0.31534362018E+03 -0.40886001637E+03  0.64929563321E+03  0.82957394551E+03  0.00000000000E+00 0.  1.
        -13    1    3    3    0    0 -0.22244918087E+03 -0.27112608056E+03  0.36613951548E+03  0.50700210495E+03  0.00000000000E+00 0. -1.
         22    1    1    2    0    0  0.53779280105E+03  0.67998609693E+03 -0.52029020462E+03  0.10110905429E+04  0.00000000000E+00 0.  1.
<mgrwt>
<rscale>  0 0.22948573E+04</rscale>
<asrwt>0</asrwt>
<pdfrwt beam="1">  1        1 0.21867781E+00 0.22948573E+04</pdfrwt>
<pdfrwt beam="2">  1       -1 0.14250166E+00 0.22948573E+04</pdfrwt>
<totfact> 0.26851971E+00</totfact>
</mgrwt>
</event>
<event>
 6    1  0.1719556E-004  0.1939055E+04  0.7818608E-02  0.8635657E-01
         -2   -1    0    0    0  501 -0.00000000000E+00  0.00000000000E+00  0.25465408885E+03  0.25465408885E+03  0.00000000000E+00 0. -1.
          2   -1    0    0  501    0  0.00000000000E+00 -0.00000000000E+00 -0.36912176126E+04  0.36912176126E+04  0.00000000000E+00 0.  1.
         23    2    1    2    0    0 -0.51251156755E+03  0.55620101811E+03 -0.29495158302E+04  0.30462922801E+04  0.90693683026E+02 0.  0.
         11    1    3    3    0    0 -0.38845603186E+03  0.42661881276E+03 -0.20849859607E+04  0.21633465179E+04  0.00000000000E+00 0.  1.
        -11    1    3    3    0    0 -0.12405553569E+03  0.12958220535E+03 -0.86452986946E+03  0.88294576225E+03  0.00000000000E+00 0. -1.
         22    1    1    2    0    0  0.51251156755E+03 -0.55620101811E+03 -0.48704769354E+03  0.89957942128E+03  0.00000000000E+00 0. -1.
<mgrwt>
<rscale>  0 0.19390551E+04</rscale>
<asrwt>0</asrwt>
<pdfrwt beam="1">  1        2 0.56787963E+00 0.19390551E+04</pdfrwt>
<pdfrwt beam="2">  1       -2 0.39177553E-01 0.19390551E+04</pdfrwt>
<totfact> 0.34352768E+00</totfact>
</mgrwt>
</event>
<event>
 6    1  0.1719556E-004  0.2414179E+04  0.7818608E-02  0.8434214E-01
         -1   -1    0    0    0  501 -0.00000000000E+00  0.00000000000E+00  0.17876533777E+04  0.17876533777E+04  0.00000000000E+00 0. -1.
          1   -1    0    0  501    0  0.00000000000E+00 -0.00000000000E+00 -0.81507161225E+03  0.81507161225E+03  0.00000000000E+00 0.  1.
         23    2    1    2    0    0  0.10688137321E+04  0.50553719058E+03  0.23417179402E+03  0.12087451010E+04  0.91091410377E+02 0.  0.
         11    1    3    3    0    0  0.43598595231E+03  0.18580536787E+03  0.52497182249E+02  0.47682632005E+03  0.00000000000E+00 0.  1.
        -11    1    3    3    0    0  0.63282777977E+03  0.31973182271E+03  0.18167461177E+03  0.73191878092E+03  0.00000000000E+00 0. -1.
         22    1    1    2    0    0 -0.10688137321E+04 -0.50553719058E+03  0.73840997139E+03  0.13939798889E+04  0.00000000000E+00 0. -1.
<mgrwt>
<rscale>  0 0.24141794E+04</rscale>
<asrwt>0</asrwt>
<pdfrwt beam="1">  1        1 0.12539563E+00 0.24141794E+04</pdfrwt>
<pdfrwt beam="2">  1       -1 0.27502360E+00 0.24141794E+04</pdfrwt>
<totfact> 0.92042172E-01</totfact>
</mgrwt>
</event>
<event>
 6    1  0.1719556E-004  0.3256367E+04  0.7818608E-02  0.8174087E-01
          2   -1    0    0  501    0  0.00000000000E+00  0.00000000000E+00  0.20614598417E+04  0.20614598417E+04  0.00000000000E+00 0.  1.
         -2   -1    0    0    0  501 -0.00000000000E+00 -0.00000000000E+00 -0.12859732397E+04  0.12859732397E+04  0.00000000000E+00 0. -1.
         23    2    1    2    0    0  0.79550210695E+03 -0.14078855068E+04  0.57150350302E+03  0.17175329903E+04  0.91313286621E+02 0.  0.
         11    1    3    3    0    0  0.63574844553E+03 -0.10504529311E+04  0.44737786987E+03  0.13068184285E+04  0.00000000000E+00 0. -1.
        -11    1    3    3    0    0  0.15975366143E+03 -0.35743257564E+03  0.12412563315E+03  0.41071456180E+03  0.00000000000E+00 0.  1.
         22    1    1    2    0    0 -0.79550210695E+03  0.14078855068E+04  0.20398309899E+03  0.16299000911E+04  0.00000000000E+00 0. -1.
<mgrwt>
<rscale>  0 0.32563674E+04</rscale>
<asrwt>0</asrwt>
<pdfrwt beam="1">  1        2 0.31714767E+00 0.32563674E+04</pdfrwt>
<pdfrwt beam="2">  1       -2 0.19784204E+00 0.32563674E+04</pdfrwt>
<totfact> 0.71126974E-01</totfact>
</mgrwt>
</event>
<event>
 6    1  0.1719556E-004  0.1440298E+04  0.7818608E-02  0.8925154E-01
          2   -1    0    0  501    0  0.00000000000E+00  0.00000000000E+00  0.25142780574E+04  0.25142780574E+04  0.00000000000E+00 0.  1.
         -2   -1    0    0    0  501 -0.00000000000E+00 -0.00000000000E+00 -0.20626786203E+03  0.20626786203E+03  0.00000000000E+00 0. -1.
         23    2    1    2    0    0 -0.49556584795E+03  0.28108410377E+03  0.33540133263E+03  0.66730956958E+03  0.90632359972E+02 0.  0.
         11    1    3    3    0    0 -0.16834435923E+03  0.12288993323E+03  0.80748214245E+02  0.22352188501E+03  0.00000000000E+00 0.  1.
        -11    1    3    3    0    0 -0.32722148872E+03  0.15819417054E+03  0.25465311839E+03  0.44378768457E+03  0.00000000000E+00 0. -1.
         22    1    1    2    0    0  0.49556584795E+03 -0.28108410377E+03  0.19726088628E+04  0.20532363499E+04  0.00000000000E+00 0.  1.
<mgrwt>
<rscale>  0 0.14402982E+04</rscale>
<asrwt>0</asrwt>
<pdfrwt beam="1">  1        2 0.38681199E+00 0.14402982E+04</pdfrwt>
<pdfrwt beam="2">  1       -2 0.31733519E-01 0.14402982E+04</pdfrwt>
<totfact> 0.30691737E+01</totfact>
</mgrwt>
</event>
<event>
 6    1  0.1719556E-004  0.1554181E+04  0.7818608E-02  0.8849201E-01
          1   -1    0    0  501    0  0.00000000000E+00  0.00000000000E+00  0.16682072708E+04  0.16682072708E+04  0.00000000000E+00 0.  1.
         -1   -1    0    0    0  501 -0.00000000000E+00 -0.00000000000E+00 -0.36198732493E+03  0.36198732493E+03  0.00000000000E+00 0. -1.
         23    2    1    2    0    0  0.88922164646E+02 -0.48037760142E+03  0.14403675903E+04  0.15235730587E+04  0.89141902191E+02 0.  0.
         13    1    3    3    0    0  0.34764064640E+02 -0.21706680200E+03  0.51518450970E+03  0.56012642837E+03  0.00000000000E+00 0. -1.
        -13    1    3    3    0    0  0.54158100006E+02 -0.26331079942E+03  0.92518308060E+03  0.96344663034E+03  0.00000000000E+00 0.  1.
         22    1    1    2    0    0 -0.88922164646E+02  0.48037760142E+03 -0.13414764440E+03  0.50662153706E+03  0.00000000000E+00 0. -1.
<mgrwt>
<rscale>  0 0.15541813E+04</rscale>
<asrwt>0</asrwt>
<pdfrwt beam="1">  1        1 0.25664727E+00 0.15541813E+04</pdfrwt>
<pdfrwt beam="2">  1       -1 0.55690359E-01 0.15541813E+04</pdfrwt>
<totfact> 0.15736592E+01</totfact>
</mgrwt>
</event>
<event>
 6    1  0.1719556E-004  0.1137002E+04  0.7818608E-02  0.9169860E-01
         -2   -1    0    0    0  501 -0.00000000000E+00  0.00000000000E+00  0.42376116320E+03  0.42376116320E+03  0.00000000000E+00 0. -1.
          2   -1    0    0  501    0  0.00000000000E+00 -0.00000000000E+00 -0.76267754549E+03  0.76267754549E+03  0.00000000000E+00 0.  1.
         23    2    1    2    0    0  0.44093029568E+03 -0.84528053561E+02 -0.52836772867E+03  0.69914379785E+03  0.89805767617E+02 0.  0.
         11    1    3    3    0    0  0.25995684909E+03 -0.84262186837E+02 -0.35991747386E+03  0.45190515322E+03  0.00000000000E+00 0. -1.
        -11    1    3    3    0    0  0.18097344659E+03 -0.26586672442E+00 -0.16845025480E+03  0.24723864463E+03  0.00000000000E+00 0.  1.
         22    1    1    2    0    0 -0.44093029568E+03  0.84528053561E+02  0.18945134637E+03  0.48729491084E+03  0.00000000000E+00 0. -1.
<mgrwt>
<rscale>  0 0.11370015E+04</rscale>
<asrwt>0</asrwt>
<pdfrwt beam="1">  1        2 0.11733501E+00 0.11370015E+04</pdfrwt>
<pdfrwt beam="2">  1       -2 0.65194025E-01 0.11370015E+04</pdfrwt>
<totfact> 0.78879111E+01</totfact>
</mgrwt>
</event>
<event>
 6    1  0.1719556E-004  0.2671898E+04  0.7818608E-02  0.8344181E-01
          2   -1    0    0  501    0  0.00000000000E+00  0.00000000000E+00  0.44807647477E+04  0.44807647477E+04  0.00000000000E+00 0.  1.
         -2   -1    0    0    0  501 -0.00000000000E+00 -0.00000000000E+00 -0.39831586339E+03  0.39831586339E+03  0.00000000000E+00 0. -1.
         23    2    1    2    0    0 -0.12213464225E+04 -0.39513210957E+02  0.10643885772E+04  0.16230191259E+04  0.89552567125E+02 0.  0.
         13    1    3    3    0    0 -0.24329362693E+03  0.21281823098E+02  0.18543813363E+03  0.30664638641E+03  0.00000000000E+00 0. -1.
        -13    1    3    3    0    0 -0.97805279559E+03 -0.60795034055E+02  0.87895044357E+03  0.13163727395E+04  0.00000000000E+00 0.  1.
         22    1    1    2    0    0  0.12213464225E+04  0.39513210957E+02  0.30180603072E+04  0.32560614852E+04  0.00000000000E+00 0.  1.
<mgrwt>
<rscale>  0 0.26718980E+04</rscale>
<asrwt>0</asrwt>
<pdfrwt beam="1">  1        2 0.68934839E+00 0.26718980E+04</pdfrwt>
<pdfrwt beam="2">  1       -2 0.61279367E-01 0.26718980E+04</pdfrwt>
<totfact> 0.28071688E-01</totfact>
</mgrwt>
</event>
<event>
 6    1  0.1719556E-004  0.1011667E+04  0.7818608E-02  0.9295840E-01
          1   -1    0    0  501    0  0.00000000000E+00  0.00000000000E+00  0.20835067705E+03  0.20835067705E+03  0.00000000000E+00 0. -1.
         -1   -1    0    0    0  501 -0.00000000000E+00 -0.00000000000E+00 -0.12280630884E+04  0.12280630884E+04  0.00000000000E+00 0.  1.
         23    2    1    2    0    0 -0.46530067951E+03  0.11392554681E+03 -0.30201714264E+03  0.57352892301E+03  0.90759674502E+02 0.  0.
         13    1    3    3    0    0 -0.19925715622E+03  0.75031310469E+02 -0.17761412305E+03  0.27727222826E+03  0.00000000000E+00 0. -1.
        -13    1    3    3    0    0 -0.26604352329E+03  0.38894236346E+02 -0.12440301959E+03  0.29625669476E+03  0.00000000000E+00 0.  1.
         22    1    1    2    0    0  0.46530067951E+03 -0.11392554681E+03 -0.71769526873E+03  0.86288484245E+03  0.00000000000E+00 0.  1.
<mgrwt>
<rscale>  0 0.10116675E+04</rscale>
<asrwt>0</asrwt>
<pdfrwt beam="1">  1        1 0.32053950E-01 0.10116675E+04</pdfrwt>
<pdfrwt beam="2">  1       -1 0.18893279E+00 0.10116675E+04</pdfrwt>
<totfact> 0.25436226E+01</totfact>
</mgrwt>
</event>
<event>
 6    1  0.1719556E-004  0.2285645E+04  0.7818608E-02  0.8483603E-01
         -2   -1    0    0    0  501 -0.00000000000E+00  0.00000000000E+00  0.71841726896E+03  0.71841726896E+03  0.00000000000E+00 0. -1.
          2   -1    0    0  501    0  0.00000000000E+00 -0.00000000000E+00 -0.18179450105E+04  0.18179450105E+04  0.00000000000E+00 0.  1.
         23    2    1    2    0    0  0.71363516236E+03 -0.82665415007E+03 -0.18369807872E+03  0.11110987249E+04  0.90350226680E+02 0.  0.
         11    1    3    3    0    0  0.45057417256E+03 -0.55931902764E+03 -0.84794350319E+02  0.72321846043E+03  0.00000000000E+00 0. -1.
        -11    1    3    3    0    0  0.26306098980E+03 -0.26733512243E+03 -0.98903728397E+02  0.38788026442E+03  0.00000000000E+00 0.  1.
         22    1    1    2    0    0 -0.71363516236E+03  0.82665415007E+03 -0.91582966282E+03  0.14252635546E+04  0.00000000000E+00 0.  1.
<mgrwt>
<rscale>  0 0.22856448E+04</rscale>
<asrwt>0</asrwt>
<pdfrwt beam="1">  1        2 0.27968384E+00 0.22856448E+04</pdfrwt>
<pdfrwt beam="2">  1       -2 0.11052574E+00 0.22856448E+04</pdfrwt>
<totfact> 0.49715386E+00</totfact>
</mgrwt>
</event>
<event>
 6    1  0.1719556E-004  0.1910473E+04  0.7818608E-02  0.8649661E-01
         -1   -1    0    0    0  501 -0.00000000000E+00  0.00000000000E+00  0.48678545592E+03  0.48678545592E+03  0.00000000000E+00 0. -1.
          1   -1    0    0  501    0  0.00000000000E+00 -0.00000000000E+00 -0.18744952617E+04  0.18744952617E+04  0.00000000000E+00 0.  1.
         23    2    1    2    0    0  0.74051494186E+03  0.19481841364E+03  0.58919903840E+01  0.77117299810E+03  0.91413806571E+02 0.  0.
         11    1    3    3    0    0  0.41834083465E+03  0.10678442569E+03  0.48545489906E+02  0.43447512253E+03  0.00000000000E+00 0. -1.
        -11    1    3    3    0    0  0.32217410721E+03  0.88033987949E+02 -0.42653499522E+02  0.33669787557E+03  0.00000000000E+00 0.  1.
         22    1    1    2    0    0 -0.74051494186E+03 -0.19481841364E+03 -0.13936017962E+04  0.15901077196E+04  0.00000000000E+00 0. -1.
<mgrwt>
<rscale>  0 0.19104733E+04</rscale>
<asrwt>0</asrwt>
<pdfrwt beam="1">  1        1 0.28838389E+00 0.19104733E+04</pdfrwt>
<pdfrwt beam="2">  1       -1 0.74890069E-01 0.19104733E+04</pdfrwt>
<totfact> 0.60780691E+00</totfact>
</mgrwt>
</event>
<event>
 6    1  0.1719556E-004  0.8415613E+03  0.7818608E-02  0.9501734E-01
          2   -1    0    0  501    0  0.00000000000E+00  0.00000000000E+00  0.20395371520E+03  0.20395371520E+03  0.00000000000E+00 0.  1.
         -2   -1    0    0    0  501 -0.00000000000E+00 -0.00000000000E+00 -0.86812021794E+03  0.86812021794E+03  0.00000000000E+00 0. -1.
         23    2    1    2    0    0  0.94159819100E+01  0.32080089545E+03  0.21963495249E+01  0.33245151181E+03  0.86702413546E+02 0.  0.
         11    1    3    3    0    0 -0.64151815462E+01  0.21896412727E+03 -0.37054882817E+02  0.22216999781E+03  0.00000000000E+00 0. -1.
        -11    1    3    3    0    0  0.15831163456E+02  0.10183676819E+03  0.39251232341E+02  0.11028151401E+03  0.00000000000E+00 0.  1.
         22    1    1    2    0    0 -0.94159819100E+01 -0.32080089545E+03 -0.66636285227E+03  0.73962242132E+03  0.00000000000E+00 0. -1.
<mgrwt>
<rscale>  0 0.84156127E+03</rscale>
<asrwt>0</asrwt>
<pdfrwt beam="1">  1        2 0.31377494E-01 0.84156127E+03</pdfrwt>
<pdfrwt beam="2">  1       -2 0.13355696E+00 0.84156127E+03</pdfrwt>
<totfact> 0.68980905E+01</totfact>
</mgrwt>
</event>
<event>
 6    1  0.1719556E-004  0.3804473E+04  0.7818608E-02  0.8045196E-01
         -2   -1    0    0    0  501 -0.00000000000E+00  0.00000000000E+00  0.21844758404E+04  0.21844758404E+04  0.00000000000E+00 0. -1.
          2   -1    0    0  501    0  0.00000000000E+00 -0.00000000000E+00 -0.16564631498E+04  0.16564631498E+04  0.00000000000E+00 0.  1.
         23    2    1    2    0    0  0.59703375398E+03 -0.14482312166E+04 -0.82346173485E+03  0.17720489296E+04  0.90803193337E+02 0.  0.
         13    1    3    3    0    0  0.52260708050E+03 -0.12861365953E+04 -0.76037015308E+03  0.15828544696E+04  0.00000000000E+00 0.  1.
        -13    1    3    3    0    0  0.74426673481E+02 -0.16209462136E+03 -0.63091581770E+02  0.18919445999E+03  0.00000000000E+00 0. -1.
         22    1    1    2    0    0 -0.59703375398E+03  0.14482312166E+04  0.13514744255E+04  0.20688900606E+04  0.00000000000E+00 0. -1.
<mgrwt>
<rscale>  0 0.38044730E+04</rscale>
<asrwt>0</asrwt>
<pdfrwt beam="1">  1        2 0.25484048E+00 0.38044730E+04</pdfrwt>
<pdfrwt beam="2">  1       -2 0.33607321E+00 0.38044730E+04</pdfrwt>
<totfact> 0.15811193E-01</totfact>
</mgrwt>
</event>
<event>
 6    1  0.1719556E-004  0.4258744E+04  0.7818608E-02  0.7954291E-01
         -2   -1    0    0    0  501 -0.00000000000E+00  0.00000000000E+00  0.27777133788E+04  0.27777133788E+04  0.00000000000E+00 0. -1.
          2   -1    0    0  501    0  0.00000000000E+00 -0.00000000000E+00 -0.16323590973E+04  0.16323590973E+04  0.00000000000E+00 0.  1.
         23    2    1    2    0    0  0.12936990060E+03 -0.21065800757E+04  0.85816103889E+03  0.22800733810E+04  0.88758480600E+02 0.  0.
         11    1    3    3    0    0  0.86425013169E+02 -0.15270652120E+04  0.57949730644E+03  0.16356083189E+04  0.00000000000E+00 0. -1.
        -11    1    3    3    0    0  0.42944887433E+02 -0.57951486366E+03  0.27866373245E+03  0.64446506216E+03  0.00000000000E+00 0.  1.
         22    1    1    2    0    0 -0.12936990060E+03  0.21065800757E+04  0.28719324264E+03  0.21299990951E+04  0.00000000000E+00 0. -1.
<mgrwt>
<rscale>  0 0.42587443E+04</rscale>
<asrwt>0</asrwt>
<pdfrwt beam="1">  1        2 0.25113217E+00 0.42587443E+04</pdfrwt>
<pdfrwt beam="2">  1       -2 0.42734052E+00 0.42587443E+04</pdfrwt>
<totfact> 0.40526589E-02</totfact>
</mgrwt>
</event>
<event>
 6    1  0.1719556E-004  0.3032507E+04  0.7818608E-02  0.8234509E-01
          2   -1    0    0  501    0  0.00000000000E+00  0.00000000000E+00  0.19517719335E+04  0.19517719335E+04  0.00000000000E+00 0.  1.
         -2   -1    0    0    0  501 -0.00000000000E+00 -0.00000000000E+00 -0.11779170457E+04  0.11779170457E+04  0.00000000000E+00 0. -1.
         23    2    1    2    0    0  0.12723542308E+04 -0.61431561167E+01  0.12358042144E+04  0.17760567516E+04  0.90788222974E+02 0.  0.
         13    1    3    3    0    0  0.40454827942E+03 -0.39381855399E+01  0.45289950067E+03  0.60728311140E+03  0.00000000000E+00 0.  1.
        -13    1    3    3    0    0  0.86780595140E+03 -0.22049705768E+01  0.78290471373E+03  0.11687736402E+04  0.00000000000E+00 0. -1.
         22    1    1    2    0    0 -0.12723542308E+04  0.61431561167E+01 -0.46194932660E+03  0.13536322275E+04  0.00000000000E+00 0. -1.
<mgrwt>
<rscale>  0 0.30325075E+04</rscale>
<asrwt>0</asrwt>
<pdfrwt beam="1">  1        2 0.30027261E+00 0.30325075E+04</pdfrwt>
<pdfrwt beam="2">  1       -2 0.18121801E+00 0.30325075E+04</pdfrwt>
<totfact> 0.10792005E+00</totfact>
</mgrwt>
</event>
<event>
 6    1  0.1719556E-004  0.1603444E+04  0.7818608E-02  0.8818435E-01
         -2   -1    0    0    0  501 -0.00000000000E+00  0.00000000000E+00  0.40330328651E+03  0.40330328651E+03  0.00000000000E+00 0. -1.
          2   -1    0    0  501    0  0.00000000000E+00 -0.00000000000E+00 -0.15937349293E+04  0.15937349293E+04  0.00000000000E+00 0.  1.
         23    2    1    2    0    0 -0.65193947107E+03 -0.26531288552E+03 -0.10685253435E+04  0.12827013577E+04  0.90334722152E+02 0.  0.
         13    1    3    3    0    0 -0.16684488727E+03 -0.10901331749E+03 -0.27565267624E+03  0.34015513771E+03  0.00000000000E+00 0. -1.
        -13    1    3    3    0    0 -0.48509458380E+03 -0.15629956803E+03 -0.79287266731E+03  0.94254621996E+03  0.00000000000E+00 0.  1.
         22    1    1    2    0    0  0.65193947107E+03  0.26531288552E+03 -0.12190629930E+03  0.71433685819E+03  0.00000000000E+00 0. -1.
<mgrwt>
<rscale>  0 0.16034445E+04</rscale>
<asrwt>0</asrwt>
<pdfrwt beam="1">  1        2 0.24518999E+00 0.16034445E+04</pdfrwt>
<pdfrwt beam="2">  1       -2 0.62046658E-01 0.16034445E+04</pdfrwt>
<totfact> 0.25990891E+01</totfact>
</mgrwt>
</event>
<event>
 6    1  0.1719556E-004  0.3280768E+04  0.7818608E-02  0.8167806E-01
          2   -1    0    0  501    0  0.00000000000E+00  0.00000000000E+00  0.34295237243E+04  0.34295237243E+04  0.00000000000E+00 0.  1.
         -2   -1    0    0    0  501 -0.00000000000E+00 -0.00000000000E+00 -0.78461608408E+03  0.78461608408E+03  0.00000000000E+00 0. -1.
         23    2    1    2    0    0  0.15652650555E+04  0.10068027808E+02  0.69866010566E+03  0.17165338497E+04  0.90589485259E+02 0.  0.
         11    1    3    3    0    0  0.22522288073E+03 -0.12914642603E+02  0.13243293229E+03  0.26159246081E+03  0.00000000000E+00 0.  1.
        -11    1    3    3    0    0  0.13400421747E+04  0.22982670411E+02  0.56622717338E+03  0.14549413889E+04  0.00000000000E+00 0. -1.
         22    1    1    2    0    0 -0.15652650555E+04 -0.10068027808E+02  0.19462475346E+04  0.24976059587E+04  0.00000000000E+00 0.  1.
<mgrwt>
<rscale>  0 0.32807679E+04</rscale>
<asrwt>0</asrwt>
<pdfrwt beam="1">  1        2 0.52761903E+00 0.32807679E+04</pdfrwt>
<pdfrwt beam="2">  1       -2 0.12071017E+00 0.32807679E+04</pdfrwt>
<totfact> 0.39778496E-01</totfact>
</mgrwt>
</event>
<event>
 6    1  0.1719556E-004  0.1710650E+04  0.7818608E-02  0.8755313E-01
          2   -1    0    0  501    0  0.00000000000E+00  0.00000000000E+00  0.90158470111E+03  0.90158470111E+03  0.00000000000E+00 0.  1.
         -2   -1    0    0    0  501 -0.00000000000E+00 -0.00000000000E+00 -0.81143916474E+03  0.81143916474E+03  0.00000000000E+00 0. -1.
         23    2    1    2    0    0 -0.38790435935E+03 -0.75835258294E+03  0.23279403367E+01  0.85670595630E+03  0.91494503703E+02 0.  0.
         11    1    3    3    0    0 -0.19238447011E+03 -0.29496160511E+03  0.26684983652E+02  0.35316599664E+03  0.00000000000E+00 0.  1.
        -11    1    3    3    0    0 -0.19551988924E+03 -0.46339097782E+03 -0.24357043315E+02  0.50353995966E+03  0.00000000000E+00 0. -1.
         22    1    1    2    0    0  0.38790435935E+03  0.75835258294E+03  0.87817596033E+02  0.85631790955E+03  0.00000000000E+00 0. -1.
<mgrwt>
<rscale>  0 0.17106503E+04</rscale>
<asrwt>0</asrwt>
<pdfrwt beam="1">  1        2 0.13870534E+00 0.17106503E+04</pdfrwt>
<pdfrwt beam="2">  1       -2 0.12483679E+00 0.17106503E+04</pdfrwt>
<totfact> 0.13377128E+01</totfact>
</mgrwt>
</event>
<event>
 6    1  0.1719556E-004  0.2800823E+04  0.7818608E-02  0.8303013E-01
          2   -1    0    0  501    0  0.00000000000E+00  0.00000000000E+00  0.63260372313E+03  0.63260372313E+03  0.00000000000E+00 0.  1.
         -2   -1    0    0    0  501 -0.00000000000E+00 -0.00000000000E+00 -0.31001282136E+04  0.31001282136E+04  0.00000000000E+00 0. -1.
         23    2    1    2    0    0 -0.26694349437E+03 -0.11011068225E+04 -0.14170018081E+03  0.11456189158E+04  0.93105827312E+02 0.  0.
         13    1    3    3    0    0 -0.10728727636E+03 -0.59860049689E+03 -0.10446413378E+03  0.61704608401E+03  0.00000000000E+00 0. -1.
        -13    1    3    3    0    0 -0.15965621801E+03 -0.50250632565E+03 -0.37236047028E+02  0.52857283175E+03  0.00000000000E+00 0.  1.
         22    1    1    2    0    0  0.26694349437E+03  0.11011068225E+04 -0.23258243097E+04  0.25871130210E+04  0.00000000000E+00 0. -1.
<mgrwt>
<rscale>  0 0.28008232E+04</rscale>
<asrwt>0</asrwt>
<pdfrwt beam="1">  1        2 0.97323651E-01 0.28008232E+04</pdfrwt>
<pdfrwt beam="2">  1       -2 0.47694280E+00 0.28008232E+04</pdfrwt>
<totfact> 0.93263009E-02</totfact>
</mgrwt>
</event>
<event>
 6    1  0.1719556E-004  0.3135621E+04  0.7818608E-02  0.8206029E-01
          2   -1    0    0  501    0  0.00000000000E+00  0.00000000000E+00  0.25875305983E+04  0.25875305983E+04  0.00000000000E+00 0.  1.
         -2   -1    0    0    0  501 -0.00000000000E+00 -0.00000000000E+00 -0.94995210973E+03  0.94995210973E+03  0.00000000000E+00 0. -1.
         23    2    1    2    0    0  0.41988933612E+03  0.13401269691E+04  0.16024283995E+04  0.21326756478E+04  0.91001622741E+02 0.  0.
         13    1    3    3    0    0  0.31572369190E+03  0.10485845748E+04  0.13016954969E+04  0.17010650272E+04  0.00000000000E+00 0.  1.
        -13    1    3    3    0    0  0.10416564422E+03  0.29154239428E+03  0.30073290256E+03  0.43161062057E+03  0.00000000000E+00 0. -1.
         22    1    1    2    0    0 -0.41988933612E+03 -0.13401269691E+04  0.35150089083E+02  0.14048070603E+04  0.00000000000E+00 0. -1.
<mgrwt>
<rscale>  0 0.31356212E+04</rscale>
<asrwt>0</asrwt>
<pdfrwt beam="1">  1        2 0.39808163E+00 0.31356212E+04</pdfrwt>
<pdfrwt beam="2">  1       -2 0.14614648E+00 0.31356212E+04</pdfrwt>
<totfact> 0.84067993E-01</totfact>
</mgrwt>
</event>
<event>
 6    1  0.1719556E-004  0.1702093E+04  0.7818608E-02  0.8760171E-01
         -1   -1    0    0    0  501 -0.00000000000E+00  0.00000000000E+00  0.12766887045E+04  0.12766887045E+04  0.00000000000E+00 0.  1.
          1   -1    0    0  501    0  0.00000000000E+00 -0.00000000000E+00 -0.56731176763E+03  0.56731176763E+03  0.00000000000E+00 0. -1.
         23    2    1    2    0    0  0.44280210445E+03 -0.36178182968E+03 -0.32359840317E+03  0.66332361153E+03  0.91227688128E+02 0.  0.
         11    1    3    3    0    0  0.22554673631E+03 -0.12593716417E+03 -0.14878486312E+03  0.29810809294E+03  0.00000000000E+00 0.  1.
        -11    1    3    3    0    0  0.21725536814E+03 -0.23584466551E+03 -0.17481354005E+03  0.36521551859E+03  0.00000000000E+00 0. -1.
         22    1    1    2    0    0 -0.44280210445E+03  0.36178182968E+03  0.10329753400E+04  0.11806768606E+04  0.00000000000E+00 0.  1.
<mgrwt>
<rscale>  0 0.17020934E+04</rscale>
<asrwt>0</asrwt>
<pdfrwt beam="1">  1        1 0.87278734E-01 0.17020934E+04</pdfrwt>
<pdfrwt beam="2">  1       -1 0.19641365E+00 0.17020934E+04</pdfrwt>
<totfact> 0.56273933E+00</totfact>
</mgrwt>
</event>
<event>
 6    1  0.1719556E-004  0.2758499E+04  0.7818608E-02  0.8316270E-01
          2   -1    0    0  501    0  0.00000000000E+00  0.00000000000E+00  0.12250488779E+04  0.12250488779E+04  0.00000000000E+00 0.  1.
         -2   -1    0    0    0  501 -0.00000000000E+00 -0.00000000000E+00 -0.15528596167E+04  0.15528596167E+04  0.00000000000E+00 0. -1.
         23    2    1    2    0    0  0.89397254526E+03  0.51260056589E+03 -0.10849950195E+04  0.14991300593E+04  0.90722050998E+02 0.  0.
         13    1    3    3    0    0  0.35443406775E+03  0.21961639185E+03 -0.50070312774E+03  0.65158152988E+03  0.00000000000E+00 0.  1.
        -13    1    3    3    0    0  0.53953847750E+03  0.29298417404E+03 -0.58429189174E+03  0.84754852940E+03  0.00000000000E+00 0. -1.
         22    1    1    2    0    0 -0.89397254526E+03 -0.51260056589E+03  0.75718428060E+03  0.12787784353E+04  0.00000000000E+00 0.  1.
<mgrwt>
<rscale>  0 0.27584988E+04</rscale>
<asrwt>0</asrwt>
<pdfrwt beam="1">  1        2 0.18846906E+00 0.27584988E+04</pdfrwt>
<pdfrwt beam="2">  1       -2 0.23890148E+00 0.27584988E+04</pdfrwt>
<totfact> 0.12022832E+00</totfact>
</mgrwt>
</event>
<event>
 6    1  0.1719556E-004  0.1172613E+04  0.7818608E-02  0.9137172E-01
          2   -1    0    0  501    0  0.00000000000E+00  0.00000000000E+00  0.62628989731E+03  0.62628989731E+03  0.00000000000E+00 0.  1.
         -2   -1    0    0    0  501 -0.00000000000E+00 -0.00000000000E+00 -0.54887600734E+03  0.54887600734E+03  0.00000000000E+00 0. -1.
         23    2    1    2    0    0 -0.12337819303E+03 -0.21857520637E+03 -0.48801891366E+03  0.55652905255E+03  0.92546349900E+02 0.  0.
         13    1    3    3    0    0 -0.44709533013E+02 -0.16918182884E+02 -0.12560081741E+03  0.13439022505E+03  0.00000000000E+00 0. -1.
        -13    1    3    3    0    0 -0.78668660017E+02 -0.20165702348E+03 -0.36241809625E+03  0.42213882750E+03  0.00000000000E+00 0.  1.
         22    1    1    2    0    0  0.12337819303E+03  0.21857520637E+03  0.56543280363E+03  0.61863685210E+03  0.00000000000E+00 0.  1.
<mgrwt>
<rscale>  0 0.11726133E+04</rscale>
<asrwt>0</asrwt>
<pdfrwt beam="1">  1        2 0.96352292E-01 0.11726133E+04</pdfrwt>
<pdfrwt beam="2">  1       -2 0.84442462E-01 0.11726133E+04</pdfrwt>
<totfact> 0.56937261E+01</totfact>
</mgrwt>
</event>
<event>
 6    1  0.1719556E-004  0.2901719E+04  0.7818608E-02  0.8272366E-01
          1   -1    0    0  501    0  0.00000000000E+00  0.00000000000E+00  0.20634989588E+04  0.20634989588E+04  0.00000000000E+00 0.  1.
         -1   -1    0    0    0  501 -0.00000000000E+00 -0.00000000000E+00 -0.10201086155E+04  0.10201086155E+04  0.00000000000E+00 0. -1.
         23    2    1    2    0    0 -0.13270600297E+04  0.23419318910E+03 -0.44351969634E+02  0.13518113648E+04  0.97427391130E+02 0.  0.
         11    1    3    3    0    0 -0.67167495544E+03  0.81479654081E+02  0.10052999343E+02  0.67667366033E+03  0.00000000000E+00 0. -1.
        -11    1    3    3    0    0 -0.65538507423E+03  0.15271353502E+03 -0.54404968977E+02  0.67513770443E+03  0.00000000000E+00 0.  1.
         22    1    1    2    0    0  0.13270600297E+04 -0.23419318910E+03  0.10877423129E+04  0.17317962096E+04  0.00000000000E+00 0.  1.
<mgrwt>
<rscale>  0 0.29017188E+04</rscale>
<asrwt>0</asrwt>
<pdfrwt beam="1">  1        1 0.31746138E+00 0.29017188E+04</pdfrwt>
<pdfrwt beam="2">  1       -1 0.15693979E+00 0.29017188E+04</pdfrwt>
<totfact> 0.71403079E-01</totfact>
</mgrwt>
</event>
<event>
 6    1  0.1719556E-004  0.2667464E+04  0.7818608E-02  0.8345640E-01
          1   -1    0    0  501    0  0.00000000000E+00  0.00000000000E+00  0.13286568988E+04  0.13286568988E+04  0.00000000000E+00 0.  1.
         -1   -1    0    0    0  501 -0.00000000000E+00 -0.00000000000E+00 -0.13388267044E+04  0.13388267044E+04  0.00000000000E+00 0. -1.
         23    2    1    2    0    0  0.47549268694E+03 -0.82411088446E+03 -0.93703008045E+03  0.13392057654E+04  0.10096863420E+03 0.  0.
         11    1    3    3    0    0  0.11778055654E+03 -0.29903743623E+03 -0.32131574305E+03  0.45446612030E+03  0.00000000000E+00 0. -1.
        -11    1    3    3    0    0  0.35771213040E+03 -0.52507344823E+03 -0.61571433740E+03  0.88473964506E+03  0.00000000000E+00 0.  1.
         22    1    1    2    0    0 -0.47549268694E+03  0.82411088446E+03  0.92686027491E+03  0.13282778378E+04  0.00000000000E+00 0.  1.
<mgrwt>
<rscale>  0 0.26674642E+04</rscale>
<asrwt>0</asrwt>
<pdfrwt beam="1">  1        1 0.20440875E+00 0.26674642E+04</pdfrwt>
<pdfrwt beam="2">  1       -1 0.20597334E+00 0.26674642E+04</pdfrwt>
<totfact> 0.10347458E+00</totfact>
</mgrwt>
</event>
<event>
 6    1  0.1719556E-004  0.4632454E+04  0.7818608E-02  0.7887850E-01
         -2   -1    0    0    0  501 -0.00000000000E+00  0.00000000000E+00  0.12901742157E+04  0.12901742157E+04  0.00000000000E+00 0. -1.
          2   -1    0    0  501    0  0.00000000000E+00 -0.00000000000E+00 -0.41582811070E+04  0.41582811070E+04  0.00000000000E+00 0.  1.
         23    2    1    2    0    0 -0.14993025651E+04  0.15269655687E+04 -0.39510611449E+03  0.21780937415E+04  0.91931906064E+02 0.  0.
         13    1    3    3    0    0 -0.41496851742E+03  0.48256211225E+03 -0.11637653985E+03  0.64699966125E+03  0.00000000000E+00 0. -1.
        -13    1    3    3    0    0 -0.10843340477E+04  0.10444034564E+04 -0.27872957464E+03  0.15310940803E+04  0.00000000000E+00 0.  1.
         22    1    1    2    0    0  0.14993025651E+04 -0.15269655687E+04 -0.24730007767E+04  0.32703615812E+04  0.00000000000E+00 0.  1.
<mgrwt>
<rscale>  0 0.46324538E+04</rscale>
<asrwt>0</asrwt>
<pdfrwt beam="1">  1        2 0.63973555E+00 0.46324538E+04</pdfrwt>
<pdfrwt beam="2">  1       -2 0.19848834E+00 0.46324538E+04</pdfrwt>
<totfact> 0.25627155E-02</totfact>
</mgrwt>
</event>
<event>
 6    1  0.1719556E-004  0.2652398E+04  0.7818608E-02  0.8350617E-01
         -2   -1    0    0    0  501 -0.00000000000E+00  0.00000000000E+00  0.15764973657E+04  0.15764973657E+04  0.00000000000E+00 0. -1.
          2   -1    0    0  501    0  0.00000000000E+00 -0.00000000000E+00 -0.11156403250E+04  0.11156403250E+04  0.00000000000E+00 0.  1.
         23    2    1    2    0    0 -0.45404562808E+03  0.88382198782E+03 -0.65836260669E+03  0.11954909864E+04  0.91970854993E+02 0.  0.
         13    1    3    3    0    0 -0.25263343438E+03  0.56506202642E+03 -0.44412806657E+03  0.76181919468E+03  0.00000000000E+00 0. -1.
        -13    1    3    3    0    0 -0.20141219369E+03  0.31875996141E+03 -0.21423454012E+03  0.43367179173E+03  0.00000000000E+00 0.  1.
         22    1    1    2    0    0  0.45404562808E+03 -0.88382198782E+03  0.11192196473E+04  0.14966467043E+04  0.00000000000E+00 0. -1.
<mgrwt>
<rscale>  0 0.26523982E+04</rscale>
<asrwt>0</asrwt>
<pdfrwt beam="1">  1        2 0.17163697E+00 0.26523982E+04</pdfrwt>
<pdfrwt beam="2">  1       -2 0.24253806E+00 0.26523982E+04</pdfrwt>
<totfact> 0.13406990E+00</totfact>
</mgrwt>
</event>
<event>
 6    1  0.1719556E-004  0.8713455E+03  0.7818608E-02  0.9462127E-01
          2   -1    0    0  501    0  0.00000000000E+00  0.00000000000E+00  0.35623087180E+03  0.35623087180E+03  0.00000000000E+00 0.  1.
         -2   -1    0    0    0  501 -0.00000000000E+00 -0.00000000000E+00 -0.53283071992E+03  0.53283071992E+03  0.00000000000E+00 0. -1.
         23    2    1    2    0    0 -0.16986533940E+03 -0.20507553759E+03  0.25660320252E+03  0.38055879651E+03  0.89830865550E+02 0.  0.
         13    1    3    3    0    0 -0.10928241807E+03 -0.16367284511E+03  0.13542902442E+03  0.23889844658E+03  0.00000000000E+00 0. -1.
        -13    1    3    3    0    0 -0.60582921338E+02 -0.41402692488E+02  0.12117417810E+03  0.14166034993E+03  0.00000000000E+00 0.  1.
         22    1    1    2    0    0  0.16986533940E+03  0.20507553759E+03 -0.43320305065E+03  0.50850279521E+03  0.00000000000E+00 0. -1.
<mgrwt>
<rscale>  0 0.87134552E+03</rscale>
<asrwt>0</asrwt>
<pdfrwt beam="1">  1        2 0.54804750E-01 0.87134552E+03</pdfrwt>
<pdfrwt beam="2">  1       -2 0.81973957E-01 0.87134552E+03</pdfrwt>
<totfact> 0.11913267E+02</totfact>
</mgrwt>
</event>
<event>
 6    1  0.1719556E-004  0.1178522E+04  0.7818608E-02  0.9131867E-01
         -2   -1    0    0    0  501 -0.00000000000E+00  0.00000000000E+00  0.34436027070E+03  0.34436027070E+03  0.00000000000E+00 0. -1.
          2   -1    0    0  501    0  0.00000000000E+00 -0.00000000000E+00 -0.10083284462E+04  0.10083284462E+04  0.00000000000E+00 0.  1.
         23    2    1    2    0    0  0.50059417542E+03 -0.92034270255E+02 -0.66652673038E+03  0.84369816532E+03  0.92216465334E+02 0.  0.
         11    1    3    3    0    0  0.30534232385E+03 -0.61534300556E+02 -0.33261542050E+03  0.45569005128E+03  0.00000000000E+00 0.  1.
        -11    1    3    3    0    0  0.19525185157E+03 -0.30499969699E+02 -0.33391130988E+03  0.38800811404E+03  0.00000000000E+00 0. -1.
         22    1    1    2    0    0 -0.50059417542E+03  0.92034270255E+02  0.25585549159E+01  0.50899055156E+03  0.00000000000E+00 0. -1.
<mgrwt>
<rscale>  0 0.11785215E+04</rscale>
<asrwt>0</asrwt>
<pdfrwt beam="1">  1        2 0.15512745E+00 0.11785215E+04</pdfrwt>
<pdfrwt beam="2">  1       -2 0.52978503E-01 0.11785215E+04</pdfrwt>
<totfact> 0.82597133E+01</totfact>
</mgrwt>
</event>
<event>
 6    1  0.1719556E-004  0.1653221E+04  0.7818608E-02  0.8788503E-01
          2   -1    0    0  501    0  0.00000000000E+00  0.00000000000E+00  0.19010327805E+04  0.19010327805E+04  0.00000000000E+00 0.  1.
         -2   -1    0    0    0  501 -0.00000000000E+00 -0.00000000000E+00 -0.35942823768E+03  0.35942823768E+03  0.00000000000E+00 0. -1.
         23    2    1    2    0    0  0.17839118531E+03 -0.36291621079E+03 -0.20887129113E+03  0.46388170283E+03  0.89595909029E+02 0.  0.
         11    1    3    3    0    0  0.86586129333E+02 -0.10765221366E+03 -0.38009652631E+02  0.14328604465E+03  0.00000000000E+00 0.  1.
        -11    1    3    3    0    0  0.91805055972E+02 -0.25526399714E+03 -0.17086163850E+03  0.32059565819E+03  0.00000000000E+00 0. -1.
         22    1    1    2    0    0 -0.17839118531E+03  0.36291621079E+03  0.17504758340E+04  0.17965793154E+04  0.00000000000E+00 0.  1.
<mgrwt>
<rscale>  0 0.16532209E+04</rscale>
<asrwt>0</asrwt>
<pdfrwt beam="1">  1        2 0.29246657E+00 0.16532209E+04</pdfrwt>
<pdfrwt beam="2">  1       -2 0.55296653E-01 0.16532209E+04</pdfrwt>
<totfact> 0.22265687E+01</totfact>
</mgrwt>
</event>
<event>
 6    1  0.1719556E-004  0.2132711E+04  0.7818608E-02  0.8546969E-01
         -1   -1    0    0    0  501 -0.00000000000E+00  0.00000000000E+00  0.69198457919E+03  0.69198457919E+03  0.00000000000E+00 0. -1.
          1   -1    0    0  501    0  0.00000000000E+00 -0.00000000000E+00 -0.16432644171E+04  0.16432644171E+04  0.00000000000E+00 0.  1.
         23    2    1    2    0    0 -0.39064685493E+03  0.60026616685E+03  0.38568707383E+03  0.81854040220E+03  0.91265737193E+02 0.  0.
         13    1    3    3    0    0 -0.26267469903E+03  0.47238488001E+03  0.27485919042E+03  0.60637698417E+03  0.00000000000E+00 0. -1.
        -13    1    3    3    0    0 -0.12797215591E+03  0.12788128684E+03  0.11082788341E+03  0.21216341803E+03  0.00000000000E+00 0.  1.
         22    1    1    2    0    0  0.39064685493E+03 -0.60026616685E+03 -0.13369669117E+04  0.15167085941E+04  0.00000000000E+00 0.  1.
<mgrwt>
<rscale>  0 0.21327106E+04</rscale>
<asrwt>0</asrwt>
<pdfrwt beam="1">  1        1 0.25280991E+00 0.21327106E+04</pdfrwt>
<pdfrwt beam="2">  1       -1 0.10645917E+00 0.21327106E+04</pdfrwt>
<totfact> 0.39393585E+00</totfact>
</mgrwt>
</event>
<event>
 6    1  0.1719556E-004  0.2432622E+04  0.7818608E-02  0.8427390E-01
         -2   -1    0    0    0  501 -0.00000000000E+00  0.00000000000E+00  0.16195810039E+04  0.16195810039E+04  0.00000000000E+00 0. -1.
          2   -1    0    0  501    0  0.00000000000E+00 -0.00000000000E+00 -0.91345388613E+03  0.91345388613E+03  0.00000000000E+00 0.  1.
         23    2    1    2    0    0  0.28891334217E+02  0.11074902087E+04 -0.16487234942E+03  0.11237764526E+04  0.91221445726E+02 0.  0.
         11    1    3    3    0    0  0.16192802582E+02  0.90703906171E+03 -0.16943980130E+03  0.92287155801E+03  0.00000000000E+00 0. -1.
        -11    1    3    3    0    0  0.12698531635E+02  0.20045114704E+03  0.45674518809E+01  0.20090489459E+03  0.00000000000E+00 0.  1.
         22    1    1    2    0    0 -0.28891334217E+02 -0.11074902087E+04  0.87099946721E+03  0.14092584375E+04  0.00000000000E+00 0. -1.
<mgrwt>
<rscale>  0 0.24326221E+04</rscale>
<asrwt>0</asrwt>
<pdfrwt beam="1">  1        2 0.14053137E+00 0.24326221E+04</pdfrwt>
<pdfrwt beam="2">  1       -2 0.24916631E+00 0.24326221E+04</pdfrwt>
<totfact> 0.16743086E+00</totfact>
</mgrwt>
</event>
<event>
 6    1  0.1719556E-004  0.1457060E+04  0.7818608E-02  0.8913520E-01
         -2   -1    0    0    0  501 -0.00000000000E+00  0.00000000000E+00  0.30125109965E+03  0.30125109965E+03  0.00000000000E+00 0. -1.
          2   -1    0    0  501    0  0.00000000000E+00 -0.00000000000E+00 -0.17618397906E+04  0.17618397906E+04  0.00000000000E+00 0.  1.
         23    2    1    2    0    0 -0.20666906679E+03  0.43987449610E+03  0.29804496538E+02  0.49545779261E+03  0.91588431354E+02 0.  0.
         11    1    3    3    0    0 -0.33655182642E+02  0.16711632591E+03  0.25925806853E+02  0.17243168260E+03  0.00000000000E+00 0.  1.
        -11    1    3    3    0    0 -0.17301388415E+03  0.27275817020E+03  0.38786896847E+01  0.32302611001E+03  0.00000000000E+00 0. -1.
         22    1    1    2    0    0  0.20666906679E+03 -0.43987449610E+03 -0.14903931875E+04  0.15676330976E+04  0.00000000000E+00 0.  1.
<mgrwt>
<rscale>  0 0.14570603E+04</rscale>
<asrwt>0</asrwt>
<pdfrwt beam="1">  1        2 0.27105227E+00 0.14570603E+04</pdfrwt>
<pdfrwt beam="2">  1       -2 0.46346324E-01 0.14570603E+04</pdfrwt>
<totfact> 0.38760961E+01</totfact>
</mgrwt>
</event>
<event>
 6    1  0.1719556E-004  0.2257826E+04  0.7818608E-02  0.8494738E-01
          2   -1    0    0  501    0  0.00000000000E+00  0.00000000000E+00  0.30891353252E+04  0.30891353252E+04  0.00000000000E+00 0.  1.
         -2   -1    0    0    0  501 -0.00000000000E+00 -0.00000000000E+00 -0.41255718696E+03  0.41255718696E+03  0.00000000000E+00 0. -1.
         23    2    1    2    0    0  0.51205869557E+03  0.96046321366E+03  0.88691989551E+03  0.14070397203E+04  0.91870458107E+02 0.  0.
         11    1    3    3    0    0  0.29194272319E+03  0.49729698450E+03  0.41871617756E+03  0.71264162226E+03  0.00000000000E+00 0. -1.
        -11    1    3    3    0    0  0.22011597237E+03  0.46316622916E+03  0.46820371795E+03  0.69439809809E+03  0.00000000000E+00 0.  1.
         22    1    1    2    0    0 -0.51205869557E+03 -0.96046321366E+03  0.17896582427E+04  0.20946527918E+04  0.00000000000E+00 0.  1.
<mgrwt>
<rscale>  0 0.22578264E+04</rscale>
<asrwt>0</asrwt>
<pdfrwt beam="1">  1        2 0.47525157E+00 0.22578264E+04</pdfrwt>
<pdfrwt beam="2">  1       -2 0.63470338E-01 0.22578264E+04</pdfrwt>
<totfact> 0.32002621E+00</totfact>
</mgrwt>
</event>
<event>
 6    1  0.1719556E-004  0.3112152E+04  0.7818608E-02  0.8212411E-01
         -2   -1    0    0    0  501 -0.00000000000E+00  0.00000000000E+00  0.19472947891E+04  0.19472947891E+04  0.00000000000E+00 0. -1.
          2   -1    0    0  501    0  0.00000000000E+00 -0.00000000000E+00 -0.12434541389E+04  0.12434541389E+04  0.00000000000E+00 0.  1.
         23    2    1    2    0    0  0.48419102517E+03 -0.12542859068E+04 -0.44826125541E+03  0.14201521682E+04  0.90663900243E+02 0.  0.
         11    1    3    3    0    0  0.36759090988E+03 -0.90990405784E+03 -0.36597781004E+03  0.10473720585E+04  0.00000000000E+00 0.  1.
        -11    1    3    3    0    0  0.11660011529E+03 -0.34438184896E+03 -0.82283445367E+02  0.37278010966E+03  0.00000000000E+00 0. -1.
         22    1    1    2    0    0 -0.48419102517E+03  0.12542859068E+04  0.11521019056E+04  0.17705967598E+04  0.00000000000E+00 0. -1.
<mgrwt>
<rscale>  0 0.31121515E+04</rscale>
<asrwt>0</asrwt>
<pdfrwt beam="1">  1        2 0.19130064E+00 0.31121515E+04</pdfrwt>
<pdfrwt beam="2">  1       -2 0.29958381E+00 0.31121515E+04</pdfrwt>
<totfact> 0.48387684E-01</totfact>
</mgrwt>
</event>
<event>
 6    1  0.1719556E-004  0.9984719E+03  0.7818608E-02  0.9310222E-01
         -1   -1    0    0    0  501 -0.00000000000E+00  0.00000000000E+00  0.47288437681E+03  0.47288437681E+03  0.00000000000E+00 0. -1.
          1   -1    0    0  501    0  0.00000000000E+00 -0.00000000000E+00 -0.52705597177E+03  0.52705597177E+03  0.00000000000E+00 0.  1.
         23    2    1    2    0    0 -0.23467906953E+02 -0.31311072699E+03 -0.41067985454E+03  0.52487486975E+03  0.90810880182E+02 0.  0.
         11    1    3    3    0    0  0.44219034436E+01 -0.32364686742E+02 -0.10005041059E+03  0.10524785431E+03  0.00000000000E+00 0.  1.
        -11    1    3    3    0    0 -0.27889810397E+02 -0.28074604025E+03 -0.31062944395E+03  0.41962701544E+03  0.00000000000E+00 0. -1.
         22    1    1    2    0    0  0.23467906953E+02  0.31311072699E+03  0.35650825958E+03  0.47506547882E+03  0.00000000000E+00 0. -1.
<mgrwt>
<rscale>  0 0.99847190E+03</rscale>
<asrwt>0</asrwt>
<pdfrwt beam="1">  1        1 0.81085534E-01 0.99847190E+03</pdfrwt>
<pdfrwt beam="2">  1       -1 0.72751443E-01 0.99847190E+03</pdfrwt>
<totfact> 0.78722108E+01</totfact>
</mgrwt>
</event>
<event>
 6    1  0.1719556E-004  0.3037162E+04  0.7818608E-02  0.8233198E-01
          3   -1    0    0  501    0  0.00000000000E+00  0.00000000000E+00  0.12699575545E+04  0.12699575545E+04  0.00000000000E+00 0.  1.
         -3   -1    0    0    0  501 -0.00000000000E+00 -0.00000000000E+00 -0.18158786491E+04  0.18158786491E+04  0.00000000000E+00 0. -1.
         23    2    1    2    0    0 -0.12624797512E+04 -0.44637560585E+03 -0.99781822542E+03  0.16725714299E+04  0.93528997299E+02 0.  0.
         11    1    3    3    0    0 -0.63403261955E+03 -0.19864751486E+03 -0.54475320242E+03  0.85919395328E+03  0.00000000000E+00 0.  1.
        -11    1    3    3    0    0 -0.62844713165E+03 -0.24772809099E+03 -0.45306502300E+03  0.81337747658E+03  0.00000000000E+00 0. -1.
         22    1    1    2    0    0  0.12624797512E+04  0.44637560585E+03  0.45189713088E+03  0.14132647737E+04  0.00000000000E+00 0.  1.
<mgrwt>
<rscale>  0 0.30371624E+04</rscale>
<asrwt>0</asrwt>
<pdfrwt beam="1">  1        3 0.19537809E+00 0.30371624E+04</pdfrwt>
<pdfrwt beam="2">  1       -3 0.27936595E+00 0.30371624E+04</pdfrwt>
<totfact> 0.17313433E-02</totfact>
</mgrwt>
</event>
<event>
 6    1  0.1719556E-004  0.1722913E+04  0.7818608E-02  0.8748403E-01
          2   -1    0    0  501    0  0.00000000000E+00  0.00000000000E+00  0.27537245859E+04  0.27537245859E+04  0.00000000000E+00 0.  1.
         -2   -1    0    0    0  501 -0.00000000000E+00 -0.00000000000E+00 -0.26949234689E+03  0.26949234689E+03  0.00000000000E+00 0. -1.
         23    2    1    2    0    0 -0.74810375285E+03  0.41259378172E+02  0.19832060986E+04  0.21218908238E+04  0.89177785543E+02 0.  0.
         11    1    3    3    0    0 -0.36614315646E+03 -0.19247500546E+02  0.90654948178E+03  0.97788713061E+03  0.00000000000E+00 0.  1.
        -11    1    3    3    0    0 -0.38196059639E+03  0.60506878718E+02  0.10766566168E+04  0.11440036932E+04  0.00000000000E+00 0. -1.
         22    1    1    2    0    0  0.74810375285E+03 -0.41259378172E+02  0.50102614041E+03  0.90132610896E+03  0.00000000000E+00 0. -1.
<mgrwt>
<rscale>  0 0.17229135E+04</rscale>
<asrwt>0</asrwt>
<pdfrwt beam="1">  1        2 0.42364992E+00 0.17229135E+04</pdfrwt>
<pdfrwt beam="2">  1       -2 0.41460363E-01 0.17229135E+04</pdfrwt>
<totfact> 0.12946688E+01</totfact>
</mgrwt>
</event>
<event>
 6    1  0.1719556E-004  0.2865506E+04  0.7818608E-02  0.8283215E-01
          2   -1    0    0  501    0  0.00000000000E+00  0.00000000000E+00  0.26156007533E+04  0.26156007533E+04  0.00000000000E+00 0.  1.
         -2   -1    0    0    0  501 -0.00000000000E+00 -0.00000000000E+00 -0.78482201604E+03  0.78482201604E+03  0.00000000000E+00 0. -1.
         23    2    1    2    0    0  0.68204085037E+03  0.48183976407E+03  0.22957571753E+04  0.24446224619E+04  0.91261675454E+02 0.  0.
         13    1    3    3    0    0  0.51997328802E+03  0.32879601204E+03  0.17559474595E+04  0.18605995051E+04  0.00000000000E+00 0.  1.
        -13    1    3    3    0    0  0.16206756235E+03  0.15304375203E+03  0.53980971575E+03  0.58402295676E+03  0.00000000000E+00 0. -1.
         22    1    1    2    0    0 -0.68204085037E+03 -0.48183976407E+03 -0.46497843806E+03  0.95580030743E+03  0.00000000000E+00 0. -1.
<mgrwt>
<rscale>  0 0.28655059E+04</rscale>
<asrwt>0</asrwt>
<pdfrwt beam="1">  1        2 0.40240011E+00 0.28655059E+04</pdfrwt>
<pdfrwt beam="2">  1       -2 0.12074185E+00 0.28655059E+04</pdfrwt>
<totfact> 0.13481243E+00</totfact>
</mgrwt>
</event>
<event>
 6    1  0.1719556E-004  0.1313674E+04  0.7818608E-02  0.9018791E-01
         -2   -1    0    0    0  501 -0.00000000000E+00  0.00000000000E+00  0.24338382235E+03  0.24338382235E+03  0.00000000000E+00 0. -1.
          2   -1    0    0  501    0  0.00000000000E+00 -0.00000000000E+00 -0.17726521766E+04  0.17726521766E+04  0.00000000000E+00 0.  1.
         23    2    1    2    0    0  0.30984248510E+03  0.20761119736E+03 -0.15933872111E+04  0.16375970969E+04  0.61128327646E+02 0.  0.
         11    1    3    3    0    0  0.11247640596E+03  0.50835688662E+02 -0.61497408396E+03  0.62723865720E+03  0.00000000000E+00 0. -1.
        -11    1    3    3    0    0  0.19736607915E+03  0.15677550869E+03 -0.97841312711E+03  0.10103584397E+04  0.00000000000E+00 0.  1.
         22    1    1    2    0    0 -0.30984248510E+03 -0.20761119736E+03  0.64118856786E+02  0.37843890212E+03  0.00000000000E+00 0. -1.
<mgrwt>
<rscale>  0 0.13136740E+04</rscale>
<asrwt>0</asrwt>
<pdfrwt beam="1">  1        2 0.27271571E+00 0.13136740E+04</pdfrwt>
<pdfrwt beam="2">  1       -2 0.37443666E-01 0.13136740E+04</pdfrwt>
<totfact> 0.58862525E+01</totfact>
</mgrwt>
</event>
<event>
 6    1  0.1719556E-004  0.3429970E+04  0.7818608E-02  0.8130590E-01
         -1   -1    0    0    0  501 -0.00000000000E+00  0.00000000000E+00  0.11629342396E+04  0.11629342396E+04  0.00000000000E+00 0.  1.
          1   -1    0    0  501    0  0.00000000000E+00 -0.00000000000E+00 -0.25290973868E+04  0.25290973868E+04  0.00000000000E+00 0. -1.
         23    2    1    2    0    0 -0.16393156773E+04  0.35067948505E+03 -0.10672638428E+04  0.19891890661E+04  0.86539235668E+02 0.  0.
         11    1    3    3    0    0 -0.87356280725E+03  0.22274093789E+03 -0.60317573185E+03  0.10846872670E+04  0.00000000000E+00 0. -1.
        -11    1    3    3    0    0 -0.76575287007E+03  0.12793854716E+03 -0.46408811091E+03  0.90450179909E+03  0.00000000000E+00 0.  1.
         22    1    1    2    0    0  0.16393156773E+04 -0.35067948505E+03 -0.29889930438E+03  0.17028425603E+04  0.00000000000E+00 0.  1.
<mgrwt>
<rscale>  0 0.34299702E+04</rscale>
<asrwt>0</asrwt>
<pdfrwt beam="1">  1        1 0.38909190E+00 0.34299702E+04</pdfrwt>
<pdfrwt beam="2">  1       -1 0.17891296E+00 0.34299702E+04</pdfrwt>
<totfact> 0.22480255E-01</totfact>
</mgrwt>
</event>
<event>
 6    1  0.1719556E-004  0.3375322E+04  0.7818608E-02  0.8143990E-01
         -2   -1    0    0    0  501 -0.00000000000E+00  0.00000000000E+00  0.12559526891E+04  0.12559526891E+04  0.00000000000E+00 0. -1.
          2   -1    0    0  501    0  0.00000000000E+00 -0.00000000000E+00 -0.22677597536E+04  0.22677597536E+04  0.00000000000E+00 0.  1.
         23    2    1    2    0    0  0.61990257679E+03 -0.35622540672E+03 -0.21007912246E+04  0.22209990260E+04  0.91308044810E+02 0.  0.
         13    1    3    3    0    0  0.22818579716E+03 -0.12706280896E+03 -0.90701834687E+03  0.94387287121E+03  0.00000000000E+00 0.  1.
        -13    1    3    3    0    0  0.39171677963E+03 -0.22916259776E+03 -0.11937728778E+04  0.12771261548E+04  0.00000000000E+00 0. -1.
         22    1    1    2    0    0 -0.61990257679E+03  0.35622540672E+03  0.10889841601E+04  0.13027134167E+04  0.00000000000E+00 0. -1.
<mgrwt>
<rscale>  0 0.33753216E+04</rscale>
<asrwt>0</asrwt>
<pdfrwt beam="1">  1        2 0.34888611E+00 0.33753216E+04</pdfrwt>
<pdfrwt beam="2">  1       -2 0.19322349E+00 0.33753216E+04</pdfrwt>
<totfact> 0.57889321E-01</totfact>
</mgrwt>
</event>
<event>
 6    1  0.1719556E-004  0.1143282E+04  0.7818608E-02  0.9164004E-01
         -2   -1    0    0    0  501 -0.00000000000E+00  0.00000000000E+00  0.41884832668E+03  0.41884832668E+03  0.00000000000E+00 0. -1.
          2   -1    0    0  501    0  0.00000000000E+00 -0.00000000000E+00 -0.78017101266E+03  0.78017101266E+03  0.00000000000E+00 0.  1.
         23    2    1    2    0    0 -0.22623239922E+03  0.21936196391E+03 -0.67757557074E+03  0.75257039849E+03  0.89178365932E+02 0.  0.
         13    1    3    3    0    0 -0.18151447092E+03  0.14068903781E+03 -0.40776476772E+03  0.46798826300E+03  0.00000000000E+00 0. -1.
        -13    1    3    3    0    0 -0.44717928303E+02  0.78672926095E+02 -0.26981080302E+03  0.28458213548E+03  0.00000000000E+00 0.  1.
         22    1    1    2    0    0  0.22623239922E+03 -0.21936196391E+03  0.31625288476E+03  0.44644894085E+03  0.00000000000E+00 0. -1.
<mgrwt>
<rscale>  0 0.11432818E+04</rscale>
<asrwt>0</asrwt>
<pdfrwt beam="1">  1        2 0.12002631E+00 0.11432818E+04</pdfrwt>
<pdfrwt beam="2">  1       -2 0.64438205E-01 0.11432818E+04</pdfrwt>
<totfact> 0.78475769E+01</totfact>
</mgrwt>
</event>
<event>
 6    1  0.1719556E-004  0.1354837E+04  0.7818608E-02  0.8987175E-01
          1   -1    0    0  501    0  0.00000000000E+00  0.00000000000E+00  0.13377619477E+03  0.13377619477E+03  0.00000000000E+00 0.  1.
         -1   -1    0    0    0  501 -0.00000000000E+00 -0.00000000000E+00 -0.34303241924E+04  0.34303241924E+04  0.00000000000E+00 0. -1.
         23    2    1    2    0    0  0.28669044477E+03  0.59808607789E+03 -0.13359366457E+04  0.14943430968E+04  0.91848799618E+02 0.  0.
         11    1    3    3    0    0  0.25905946465E+03  0.48272895477E+03 -0.10389867003E+04  0.11745775468E+04  0.00000000000E+00 0.  1.
        -11    1    3    3    0    0  0.27630980114E+02  0.11535712312E+03 -0.29694994541E+03  0.31976555004E+03  0.00000000000E+00 0. -1.
         22    1    1    2    0    0 -0.28669044477E+03 -0.59808607789E+03 -0.19606113519E+04  0.20697572903E+04  0.00000000000E+00 0. -1.
<mgrwt>
<rscale>  0 0.13548368E+04</rscale>
<asrwt>0</asrwt>
<pdfrwt beam="1">  1        1 0.20580953E-01 0.13548368E+04</pdfrwt>
<pdfrwt beam="2">  1       -1 0.52774220E+00 0.13548368E+04</pdfrwt>
<totfact> 0.24699344E-01</totfact>
</mgrwt>
</event>
<event>
 6    1  0.1719556E-004  0.2220683E+04  0.7818608E-02  0.8509868E-01
          2   -1    0    0  501    0  0.00000000000E+00  0.00000000000E+00  0.15220634636E+04  0.15220634636E+04  0.00000000000E+00 0. -1.
         -2   -1    0    0    0  501 -0.00000000000E+00 -0.00000000000E+00 -0.80999126168E+03  0.80999126168E+03  0.00000000000E+00 0.  1.
         23    2    1    2    0    0 -0.14533896133E+03 -0.99004912608E+03 -0.14414994923E+03  0.10150744453E+04  0.90973819897E+02 0.  0.
         13    1    3    3    0    0 -0.13334485318E+03 -0.60481468836E+03 -0.85289396677E+02  0.62518472335E+03  0.00000000000E+00 0.  1.
        -13    1    3    3    0    0 -0.11994108155E+02 -0.38523443772E+03 -0.58860552554E+02  0.38988972195E+03  0.00000000000E+00 0. -1.
         22    1    1    2    0    0  0.14533896133E+03  0.99004912608E+03  0.85622215114E+03  0.13169802800E+04  0.00000000000E+00 0. -1.
<mgrwt>
<rscale>  0 0.22206829E+04</rscale>
<asrwt>0</asrwt>
<pdfrwt beam="1">  1        2 0.23416361E+00 0.22206829E+04</pdfrwt>
<pdfrwt beam="2">  1       -2 0.12461404E+00 0.22206829E+04</pdfrwt>
<totfact> 0.54397831E+00</totfact>
</mgrwt>
</event>
<event>
 6    1  0.1719556E-004  0.3462555E+04  0.7818608E-02  0.8122722E-01
          2   -1    0    0  501    0  0.00000000000E+00  0.00000000000E+00  0.16596051604E+04  0.16596051604E+04  0.00000000000E+00 0.  1.
         -2   -1    0    0    0  501 -0.00000000000E+00 -0.00000000000E+00 -0.18060453252E+04  0.18060453252E+04  0.00000000000E+00 0. -1.
         23    2    1    2    0    0 -0.16670511922E+03  0.84545560133E+03  0.14278469300E+04  0.16709455996E+04  0.10356915938E+03 0.  0.
         11    1    3    3    0    0 -0.11525873852E+03  0.52020511005E+03  0.97411652329E+03  0.11103156913E+04  0.00000000000E+00 0. -1.
        -11    1    3    3    0    0 -0.51446380703E+02  0.32525049128E+03  0.45373040674E+03  0.56062990838E+03  0.00000000000E+00 0.  1.
         22    1    1    2    0    0  0.16670511922E+03 -0.84545560133E+03 -0.15742870949E+04  0.17947048860E+04  0.00000000000E+00 0. -1.
<mgrwt>
<rscale>  0 0.34625552E+04</rscale>
<asrwt>0</asrwt>
<pdfrwt beam="1">  1        2 0.25532387E+00 0.34625552E+04</pdfrwt>
<pdfrwt beam="2">  1       -2 0.27785313E+00 0.34625552E+04</pdfrwt>
<totfact> 0.36947834E-01</totfact>
</mgrwt>
</event>
<event>
 6    1  0.1719556E-004  0.9592052E+03  0.7818608E-02  0.9354455E-01
          2   -1    0    0  501    0  0.00000000000E+00  0.00000000000E+00  0.28374395468E+03  0.28374395468E+03  0.00000000000E+00 0.  1.
         -2   -1    0    0    0  501 -0.00000000000E+00 -0.00000000000E+00 -0.81065567390E+03  0.81065567390E+03  0.00000000000E+00 0. -1.
         23    2    1    2    0    0  0.30780407331E+03 -0.24390320515E+03  0.38946658730E+02  0.40561241549E+03  0.93661456032E+02 0.  0.
         13    1    3    3    0    0  0.19648988260E+03 -0.10328937807E+03 -0.49988972772E+00  0.22198472802E+03  0.00000000000E+00 0. -1.
        -13    1    3    3    0    0  0.11131419071E+03 -0.14061382708E+03  0.39446548457E+02  0.18362768747E+03  0.00000000000E+00 0.  1.
         22    1    1    2    0    0 -0.30780407331E+03  0.24390320515E+03 -0.56585837795E+03  0.68878721309E+03  0.00000000000E+00 0. -1.
<mgrwt>
<rscale>  0 0.95920519E+03</rscale>
<asrwt>0</asrwt>
<pdfrwt beam="1">  1        2 0.43652916E-01 0.95920519E+03</pdfrwt>
<pdfrwt beam="2">  1       -2 0.12471626E+00 0.95920519E+03</pdfrwt>
<totfact> 0.56334691E+01</totfact>
</mgrwt>
</event>
<event>
 6    1  0.1719556E-004  0.2555010E+04  0.7818608E-02  0.8383646E-01
         -2   -1    0    0    0  501 -0.00000000000E+00  0.00000000000E+00  0.96862496683E+03  0.96862496683E+03  0.00000000000E+00 0. -1.
          2   -1    0    0  501    0  0.00000000000E+00 -0.00000000000E+00 -0.16848818619E+04  0.16848818619E+04  0.00000000000E+00 0.  1.
         23    2    1    2    0    0  0.11406670612E+04  0.44396897399E+03 -0.73253572413E+03  0.14293766091E+04  0.90989609608E+02 0.  0.
         13    1    3    3    0    0  0.98684894520E+03  0.39500893663E+03 -0.66857278046E+03  0.12557437889E+04  0.00000000000E+00 0. -1.
        -13    1    3    3    0    0  0.15381811598E+03  0.48960037364E+02 -0.63962943671E+02  0.17363282013E+03  0.00000000000E+00 0.  1.
         22    1    1    2    0    0 -0.11406670612E+04 -0.44396897399E+03  0.16278829118E+02  0.12241302196E+04  0.00000000000E+00 0. -1.
<mgrwt>
<rscale>  0 0.25550097E+04</rscale>
<asrwt>0</asrwt>
<pdfrwt beam="1">  1        2 0.25921259E+00 0.25550097E+04</pdfrwt>
<pdfrwt beam="2">  1       -2 0.14901923E+00 0.25550097E+04</pdfrwt>
<totfact> 0.27069573E+00</totfact>
</mgrwt>
</event>
<event>
 6    1  0.1719556E-004  0.1521424E+04  0.7818608E-02  0.8870330E-01
         -2   -1    0    0    0  501 -0.00000000000E+00  0.00000000000E+00  0.12544928741E+04  0.12544928741E+04  0.00000000000E+00 0. -1.
          2   -1    0    0  501    0  0.00000000000E+00 -0.00000000000E+00 -0.46128835128E+03  0.46128835128E+03  0.00000000000E+00 0.  1.
         23    2    1    2    0    0 -0.79928005472E+02  0.38388855828E+03  0.11295853422E+04  0.11991469574E+04  0.90727443229E+02 0.  0.
         11    1    3    3    0    0 -0.81839619811E+01  0.95392045577E+02  0.40044552308E+03  0.41173199602E+03  0.00000000000E+00 0.  1.
        -11    1    3    3    0    0 -0.71744043490E+02  0.28849651270E+03  0.72913981911E+03  0.78741496140E+03  0.00000000000E+00 0. -1.
         22    1    1    2    0    0  0.79928005472E+02 -0.38388855828E+03 -0.33638081935E+03  0.51663426799E+03  0.00000000000E+00 0.  1.
<mgrwt>
<rscale>  0 0.15214243E+04</rscale>
<asrwt>0</asrwt>
<pdfrwt beam="1">  1        2 0.70967439E-01 0.15214243E+04</pdfrwt>
<pdfrwt beam="2">  1       -2 0.19299890E+00 0.15214243E+04</pdfrwt>
<totfact> 0.96401242E+00</totfact>
</mgrwt>
</event>
<event>
 6    1  0.1719556E-004  0.1892742E+04  0.7818608E-02  0.8658477E-01
          2   -1    0    0  501    0  0.00000000000E+00  0.00000000000E+00  0.13545538577E+04  0.13545538577E+04  0.00000000000E+00 0.  1.
         -2   -1    0    0    0  501 -0.00000000000E+00 -0.00000000000E+00 -0.66119060158E+03  0.66119060158E+03  0.00000000000E+00 0. -1.
         23    2    1    2    0    0 -0.11380820932E+03 -0.19944349444E+03 -0.62784739420E+03  0.67472708485E+03  0.91292237615E+02 0.  0.
         11    1    3    3    0    0 -0.53740119954E+02 -0.45995242728E+02 -0.29446942848E+03  0.30284617738E+03  0.00000000000E+00 0. -1.
        -11    1    3    3    0    0 -0.60068089368E+02 -0.15344825171E+03 -0.33337796572E+03  0.37188090747E+03  0.00000000000E+00 0.  1.
         22    1    1    2    0    0  0.11380820932E+03  0.19944349444E+03  0.13212106503E+04  0.13410173744E+04  0.00000000000E+00 0.  1.
<mgrwt>
<rscale>  0 0.18927422E+04</rscale>
<asrwt>0</asrwt>
<pdfrwt beam="1">  1        2 0.20839290E+00 0.18927422E+04</pdfrwt>
<pdfrwt beam="2">  1       -2 0.10172163E+00 0.18927422E+04</pdfrwt>
<totfact> 0.11423937E+01</totfact>
</mgrwt>
</event>
<event>
 6    1  0.1719556E-004  0.2268165E+04  0.7818608E-02  0.8490580E-01
          1   -1    0    0  501    0  0.00000000000E+00  0.00000000000E+00  0.10648023353E+04  0.10648023353E+04  0.00000000000E+00 0.  1.
         -1   -1    0    0    0  501 -0.00000000000E+00 -0.00000000000E+00 -0.12078698403E+04  0.12078698403E+04  0.00000000000E+00 0. -1.
         23    2    1    2    0    0  0.77299311496E+02 -0.22800863775E+03  0.10369310914E+04  0.10683633239E+04  0.90614464141E+02 0.  0.
         11    1    3    3    0    0 -0.24950301896E+01 -0.81053176552E+02  0.21942537806E+03  0.23393020143E+03  0.00000000000E+00 0.  1.
        -11    1    3    3    0    0  0.79794341686E+02 -0.14695546120E+03  0.81750571338E+03  0.83443312251E+03  0.00000000000E+00 0. -1.
         22    1    1    2    0    0 -0.77299311496E+02  0.22800863775E+03 -0.11799985965E+04  0.12043088517E+04  0.00000000000E+00 0. -1.
<mgrwt>
<rscale>  0 0.22681646E+04</rscale>
<asrwt>0</asrwt>
<pdfrwt beam="1">  1        1 0.16381574E+00 0.22681646E+04</pdfrwt>
<pdfrwt beam="2">  1       -1 0.18582613E+00 0.22681646E+04</pdfrwt>
<totfact> 0.23109326E+00</totfact>
</mgrwt>
</event>
<event>
 6    1  0.1719556E-004  0.6046068E+03  0.7818608E-02  0.9895894E-01
         -1   -1    0    0    0  501 -0.00000000000E+00  0.00000000000E+00  0.51241064936E+02  0.51241064936E+02  0.00000000000E+00 0.  1.
          1   -1    0    0  501    0  0.00000000000E+00 -0.00000000000E+00 -0.17834787882E+04  0.17834787882E+04  0.00000000000E+00 0. -1.
         23    2    1    2    0    0  0.25753287277E+03 -0.15040293036E+02 -0.44646306917E+03  0.52332141937E+03  0.89368030453E+02 0.  0.
         11    1    3    3    0    0  0.24522100100E+03 -0.30809032397E+02 -0.37506057215E+03  0.44916919817E+03  0.00000000000E+00 0.  1.
        -11    1    3    3    0    0  0.12311871776E+02  0.15768739361E+02 -0.71402497025E+02  0.74152221202E+02  0.00000000000E+00 0. -1.
         22    1    1    2    0    0 -0.25753287277E+03  0.15040293036E+02 -0.12857746541E+04  0.13113984338E+04  0.00000000000E+00 0. -1.
<mgrwt>
<rscale>  0 0.60460682E+03</rscale>
<asrwt>0</asrwt>
<pdfrwt beam="1">  1        1 0.27438129E+00 0.60460682E+03</pdfrwt>
<pdfrwt beam="2">  1       -1 0.78832424E-02 0.60460682E+03</pdfrwt>
<totfact> 0.39682927E+02</totfact>
</mgrwt>
</event>
<event>
 6    1  0.1719556E-004  0.2983688E+04  0.7818608E-02  0.8248404E-01
          2   -1    0    0  501    0  0.00000000000E+00  0.00000000000E+00  0.26386624482E+04  0.26386624482E+04  0.00000000000E+00 0.  1.
         -2   -1    0    0    0  501 -0.00000000000E+00 -0.00000000000E+00 -0.84345688152E+03  0.84345688152E+03  0.00000000000E+00 0. -1.
         23    2    1    2    0    0 -0.13256444905E+04 -0.61105193828E+03  0.54704078374E+03  0.15615378782E+04  0.91810344888E+02 0.  0.
         11    1    3    3    0    0 -0.90804211270E+03 -0.37169206833E+03  0.35954734781E+03  0.10449735726E+04  0.00000000000E+00 0.  1.
        -11    1    3    3    0    0 -0.41760237783E+03 -0.23935986995E+03  0.18749343592E+03  0.51656430560E+03  0.00000000000E+00 0. -1.
         22    1    1    2    0    0  0.13256444905E+04  0.61105193828E+03  0.12481647829E+04  0.19205814515E+04  0.00000000000E+00 0.  1.
<mgrwt>
<rscale>  0 0.29836877E+04</rscale>
<asrwt>0</asrwt>
<pdfrwt beam="1">  1        2 0.40594806E+00 0.29836877E+04</pdfrwt>
<pdfrwt beam="2">  1       -2 0.12976260E+00 0.29836877E+04</pdfrwt>
<totfact> 0.10796404E+00</totfact>
</mgrwt>
</event>
<event>
 6    1  0.1719556E-004  0.3094191E+04  0.7818608E-02  0.8217334E-01
          2   -1    0    0  501    0  0.00000000000E+00  0.00000000000E+00  0.12892917041E+04  0.12892917041E+04  0.00000000000E+00 0.  1.
         -2   -1    0    0    0  501 -0.00000000000E+00 -0.00000000000E+00 -0.18564485569E+04  0.18564485569E+04  0.00000000000E+00 0. -1.
         23    2    1    2    0    0 -0.10696924161E+04  0.23502490143E+03  0.82605519020E+03  0.13735894868E+04  0.70016652918E+02 0.  0.
         13    1    3    3    0    0 -0.64700744183E+03  0.13380374272E+03  0.53958779699E+03  0.85303989474E+03  0.00000000000E+00 0. -1.
        -13    1    3    3    0    0 -0.42268497430E+03  0.10122115871E+03  0.28646739322E+03  0.52054959211E+03  0.00000000000E+00 0.  1.
         22    1    1    2    0    0  0.10696924161E+04 -0.23502490143E+03 -0.13932120430E+04  0.17721507741E+04  0.00000000000E+00 0. -1.
<mgrwt>
<rscale>  0 0.30941905E+04</rscale>
<asrwt>0</asrwt>
<pdfrwt beam="1">  1        2 0.19835257E+00 0.30941905E+04</pdfrwt>
<pdfrwt beam="2">  1       -2 0.28560747E+00 0.30941905E+04</pdfrwt>
<totfact> 0.55445050E-01</totfact>
</mgrwt>
</event>
<event>
 6    1  0.1719556E-004  0.1671046E+04  0.7818608E-02  0.8778052E-01
          2   -1    0    0  501    0  0.00000000000E+00  0.00000000000E+00  0.17882515731E+04  0.17882515731E+04  0.00000000000E+00 0. -1.
         -2   -1    0    0    0  501 -0.00000000000E+00 -0.00000000000E+00 -0.39038051974E+03  0.39038051974E+03  0.00000000000E+00 0.  1.
         23    2    1    2    0    0 -0.58351987623E+03  0.73662162147E+02  0.14701768265E+04  0.15860532501E+04  0.90683245157E+02 0.  0.
         11    1    3    3    0    0 -0.46835950699E+03  0.95175945371E+02  0.11760909665E+04  0.12694916502E+04  0.00000000000E+00 0.  1.
        -11    1    3    3    0    0 -0.11516036923E+03 -0.21513783224E+02  0.29408585996E+03  0.31656159992E+03  0.00000000000E+00 0. -1.
         22    1    1    2    0    0  0.58351987623E+03 -0.73662162147E+02 -0.72305773079E+02  0.59257884277E+03  0.00000000000E+00 0.  1.
<mgrwt>
<rscale>  0 0.16710459E+04</rscale>
<asrwt>0</asrwt>
<pdfrwt beam="1">  1        2 0.27511562E+00 0.16710459E+04</pdfrwt>
<pdfrwt beam="2">  1       -2 0.60058543E-01 0.16710459E+04</pdfrwt>
<totfact> 0.21589439E+01</totfact>
</mgrwt>
</event>
<event>
 6    1  0.1719556E-004  0.2903650E+04  0.7818608E-02  0.8271792E-01
         -2   -1    0    0    0  501 -0.00000000000E+00  0.00000000000E+00  0.10751006857E+04  0.10751006857E+04  0.00000000000E+00 0. -1.
          2   -1    0    0  501    0  0.00000000000E+00 -0.00000000000E+00 -0.19605569142E+04  0.19605569142E+04  0.00000000000E+00 0.  1.
         23    2    1    2    0    0  0.15710489670E+03 -0.10327392950E+04  0.60874897407E+03  0.12125060464E+04  0.91450527863E+02 0.  0.
         13    1    3    3    0    0 -0.61653474927E+01 -0.19083547947E+03  0.10469398613E+03  0.21775450045E+03  0.00000000000E+00 0. -1.
        -13    1    3    3    0    0  0.16327024419E+03 -0.84190381554E+03  0.50405498794E+03  0.99475154593E+03  0.00000000000E+00 0.  1.
         22    1    1    2    0    0 -0.15710489670E+03  0.10327392950E+04 -0.14942052026E+04  0.18231515536E+04  0.00000000000E+00 0.  1.
<mgrwt>
<rscale>  0 0.29036502E+04</rscale>
<asrwt>0</asrwt>
<pdfrwt beam="1">  1        2 0.30162414E+00 0.29036502E+04</pdfrwt>
<pdfrwt beam="2">  1       -2 0.16540011E+00 0.29036502E+04</pdfrwt>
<totfact> 0.13945519E+00</totfact>
</mgrwt>
</event>
<event>
 6    1  0.1719556E-004  0.2231238E+04  0.7818608E-02  0.8505537E-01
         -1   -1    0    0    0  501 -0.00000000000E+00  0.00000000000E+00  0.99676144841E+03  0.99676144841E+03  0.00000000000E+00 0. -1.
          1   -1    0    0  501    0  0.00000000000E+00 -0.00000000000E+00 -0.12486500133E+04  0.12486500133E+04  0.00000000000E+00 0.  1.
         23    2    1    2    0    0 -0.10029512821E+04 -0.29717781670E+02  0.36054100767E+03  0.10698841749E+04  0.88701232567E+02 0.  0.
         11    1    3    3    0    0 -0.89897349169E+03 -0.53551896053E+02  0.32601810102E+03  0.95776246874E+03  0.00000000000E+00 0. -1.
        -11    1    3    3    0    0 -0.10397779038E+03  0.23834114383E+02  0.34522906643E+02  0.11212170613E+03  0.00000000000E+00 0.  1.
         22    1    1    2    0    0  0.10029512821E+04  0.29717781670E+02 -0.61242957255E+03  0.11755272868E+04  0.00000000000E+00 0.  1.
<mgrwt>
<rscale>  0 0.22312384E+04</rscale>
<asrwt>0</asrwt>
<pdfrwt beam="1">  1        1 0.19210000E+00 0.22312384E+04</pdfrwt>
<pdfrwt beam="2">  1       -1 0.15334792E+00 0.22312384E+04</pdfrwt>
<totfact> 0.29430433E+00</totfact>
</mgrwt>
</event>
<event>
 6    1  0.1719556E-004  0.4298280E+04  0.7818608E-02  0.7946936E-01
         -2   -1    0    0    0  501 -0.00000000000E+00  0.00000000000E+00  0.24632164174E+04  0.24632164174E+04  0.00000000000E+00 0. -1.
          2   -1    0    0  501    0  0.00000000000E+00 -0.00000000000E+00 -0.18751105952E+04  0.18751105952E+04  0.00000000000E+00 0.  1.
         23    2    1    2    0    0  0.16780127702E+04 -0.23573518523E+03  0.16268127358E+04  0.23508134940E+04  0.92230535267E+02 0.  0.
         13    1    3    3    0    0  0.17588784678E+03 -0.40183865510E+02  0.14124026375E+03  0.22912898070E+03  0.00000000000E+00 0.  1.
        -13    1    3    3    0    0  0.15021249234E+04 -0.19555131972E+03  0.14855724721E+04  0.21216845133E+04  0.00000000000E+00 0. -1.
         22    1    1    2    0    0 -0.16780127702E+04  0.23573518523E+03 -0.10387069136E+04  0.19875135187E+04  0.00000000000E+00 0.  1.
<mgrwt>
<rscale>  0 0.42982802E+04</rscale>
<asrwt>0</asrwt>
<pdfrwt beam="1">  1        2 0.28847855E+00 0.42982802E+04</pdfrwt>
<pdfrwt beam="2">  1       -2 0.37895637E+00 0.42982802E+04</pdfrwt>
<totfact> 0.61378096E-02</totfact>
</mgrwt>
</event>
<event>
 6    1  0.2581877E-004  0.3533476E+04  0.7818608E-02  0.8105902E-01
          2   -1    0    0  501    0  0.00000000000E+00  0.00000000000E+00  0.23840038380E+04  0.23840038380E+04  0.00000000000E+00 0.  1.
         -2   -1    0    0    0  501 -0.00000000000E+00 -0.00000000000E+00 -0.13092944729E+04  0.13092944729E+04  0.00000000000E+00 0. -1.
         23    2    1    2    0    0 -0.46360812145E+03 -0.43989914296E+03 -0.11828413351E+04  0.13470291638E+04  0.83247809687E+02 0.  0.
         11    1    3    3    0    0 -0.21492281556E+03 -0.25798492681E+03 -0.64572683454E+03  0.72781260222E+03  0.00000000000E+00 0.  1.
        -11    1    3    3    0    0 -0.24868530589E+03 -0.18191421615E+03 -0.53711450059E+03  0.61921656159E+03  0.00000000000E+00 0. -1.
         22    1    1    2    0    0  0.46360812145E+03  0.43989914296E+03  0.22575507003E+04  0.23462691471E+04  0.00000000000E+00 0.  1.
<mgrwt>
<rscale>  0 0.35334759E+04</rscale>
<asrwt>0</asrwt>
<pdfrwt beam="1">  1        2 0.36676982E+00 0.35334759E+04</pdfrwt>
<pdfrwt beam="2">  1       -2 0.20142992E+00 0.35334759E+04</pdfrwt>
<totfact> 0.43305559E-01</totfact>
</mgrwt>
</event>
<event>
 6    1  0.1719556E-004  0.2008738E+04  0.7818608E-02  0.8602546E-01
          2   -1    0    0  501    0  0.00000000000E+00  0.00000000000E+00  0.11000107442E+04  0.11000107442E+04  0.00000000000E+00 0.  1.
         -2   -1    0    0    0  501 -0.00000000000E+00 -0.00000000000E+00 -0.91704332548E+03  0.91704332548E+03  0.00000000000E+00 0. -1.
         23    2    1    2    0    0  0.44382930699E+03 -0.15541548456E+03  0.98026440801E+03  0.10914078545E+04  0.95469202604E+02 0.  0.
         13    1    3    3    0    0  0.26091159981E+03 -0.99188399739E+02  0.68343956577E+03  0.73824307759E+03  0.00000000000E+00 0. -1.
        -13    1    3    3    0    0  0.18291770718E+03 -0.56227084821E+02  0.29682484224E+03  0.35316477689E+03  0.00000000000E+00 0.  1.
         22    1    1    2    0    0 -0.44382930699E+03  0.15541548456E+03 -0.79729698928E+03  0.92564621519E+03  0.00000000000E+00 0. -1.
<mgrwt>
<rscale>  0 0.20087384E+04</rscale>
<asrwt>0</asrwt>
<pdfrwt beam="1">  1        2 0.16923242E+00 0.20087384E+04</pdfrwt>
<pdfrwt beam="2">  1       -2 0.14108359E+00 0.20087384E+04</pdfrwt>
<totfact> 0.71202632E+00</totfact>
</mgrwt>
</event>
<event>
 6    1  0.1719556E-004  0.5804583E+03  0.7818608E-02  0.9946799E-01
         -2   -1    0    0    0  501 -0.00000000000E+00  0.00000000000E+00  0.74929540315E+02  0.74929540315E+02  0.00000000000E+00 0. -1.
          2   -1    0    0  501    0  0.00000000000E+00 -0.00000000000E+00 -0.11241623692E+04  0.11241623692E+04  0.00000000000E+00 0.  1.
         23    2    1    2    0    0  0.52179720263E+02  0.13299015796E+03 -0.10423053926E+04  0.10560636092E+04  0.91982116722E+02 0.  0.
         11    1    3    3    0    0  0.38312244143E+02  0.10258835169E+03 -0.46216864412E+03  0.47496531827E+03  0.00000000000E+00 0.  1.
        -11    1    3    3    0    0  0.13867476120E+02  0.30401806269E+02 -0.58013674851E+03  0.58109829090E+03  0.00000000000E+00 0. -1.
         22    1    1    2    0    0 -0.52179720263E+02 -0.13299015796E+03 -0.69274362348E+01  0.14302830032E+03  0.00000000000E+00 0. -1.
<mgrwt>
<rscale>  0 0.58045833E+03</rscale>
<asrwt>0</asrwt>
<pdfrwt beam="1">  1        2 0.17294805E+00 0.58045833E+03</pdfrwt>
<pdfrwt beam="2">  1       -2 0.11527622E-01 0.58045833E+03</pdfrwt>
<totfact> 0.11567185E+03</totfact>
</mgrwt>
</event>
<event>
 6    1  0.1719556E-004  0.4184181E+04  0.7818608E-02  0.7968388E-01
         -2   -1    0    0    0  501 -0.00000000000E+00  0.00000000000E+00  0.25348111609E+04  0.25348111609E+04  0.00000000000E+00 0. -1.
          2   -1    0    0  501    0  0.00000000000E+00 -0.00000000000E+00 -0.17266939154E+04  0.17266939154E+04  0.00000000000E+00 0.  1.
         23    2    1    2    0    0 -0.17752010520E+04 -0.10357661850E+04  0.10603073487E+02  0.20569236603E+04  0.81683253936E+02 0.  0.
         13    1    3    3    0    0 -0.78752679806E+03 -0.50003759178E+03  0.25482624444E+02  0.93321241687E+03  0.00000000000E+00 0. -1.
        -13    1    3    3    0    0 -0.98767425395E+03 -0.53572859325E+03 -0.14879550957E+02  0.11237112434E+04  0.00000000000E+00 0.  1.
         22    1    1    2    0    0  0.17752010520E+04  0.10357661850E+04  0.79751417202E+03  0.22045814160E+04  0.00000000000E+00 0. -1.
<mgrwt>
<rscale>  0 0.41841812E+04</rscale>
<asrwt>0</asrwt>
<pdfrwt beam="1">  1        2 0.26564522E+00 0.41841812E+04</pdfrwt>
<pdfrwt beam="2">  1       -2 0.38997095E+00 0.41841812E+04</pdfrwt>
<totfact> 0.63542690E-02</totfact>
</mgrwt>
</event>
<event>
 6    1  0.1719556E-004  0.2416875E+04  0.7818608E-02  0.8433213E-01
         -1   -1    0    0    0  501 -0.00000000000E+00  0.00000000000E+00  0.68259706990E+03  0.68259706990E+03  0.00000000000E+00 0. -1.
          1   -1    0    0  501    0  0.00000000000E+00 -0.00000000000E+00 -0.21393607311E+04  0.21393607311E+04  0.00000000000E+00 0.  1.
         23    2    1    2    0    0  0.48449240453E+03 -0.50235613217E+03  0.41998851798E+03  0.81963581998E+03  0.91202788253E+02 0.  0.
         11    1    3    3    0    0  0.15716116843E+03 -0.20679158281E+03  0.19323272058E+03  0.32373025173E+03  0.00000000000E+00 0. -1.
        -11    1    3    3    0    0  0.32733123611E+03 -0.29556454936E+03  0.22675579740E+03  0.49590556825E+03  0.00000000000E+00 0.  1.
         22    1    1    2    0    0 -0.48449240453E+03  0.50235613217E+03 -0.18767521792E+04  0.20023219810E+04  0.00000000000E+00 0.  1.
<mgrwt>
<rscale>  0 0.24168751E+04</rscale>
<asrwt>0</asrwt>
<pdfrwt beam="1">  1        1 0.32913242E+00 0.24168751E+04</pdfrwt>
<pdfrwt beam="2">  1       -1 0.10501493E+00 0.24168751E+04</pdfrwt>
<totfact> 0.18242855E+00</totfact>
</mgrwt>
</event>
<event>
 6    1  0.1719556E-004  0.2440396E+04  0.7818608E-02  0.8424533E-01
         -2   -1    0    0    0  501 -0.00000000000E+00  0.00000000000E+00  0.11129971398E+04  0.11129971398E+04  0.00000000000E+00 0. -1.
          2   -1    0    0  501    0  0.00000000000E+00 -0.00000000000E+00 -0.13377238580E+04  0.13377238580E+04  0.00000000000E+00 0.  1.
         23    2    1    2    0    0 -0.30423638264E+03 -0.41555277552E+03  0.99649966745E+03  0.11253388753E+04  0.90178219644E+02 0.  0.
         11    1    3    3    0    0 -0.18341739858E+03 -0.17448799427E+03  0.47470382829E+03  0.53798859360E+03  0.00000000000E+00 0. -1.
        -11    1    3    3    0    0 -0.12081898406E+03 -0.24106478124E+03  0.52179583916E+03  0.58735028171E+03  0.00000000000E+00 0.  1.
         22    1    1    2    0    0  0.30423638264E+03  0.41555277552E+03 -0.12212263857E+04  0.13253821226E+04  0.00000000000E+00 0.  1.
<mgrwt>
<rscale>  0 0.24403957E+04</rscale>
<asrwt>0</asrwt>
<pdfrwt beam="1">  1        2 0.20580367E+00 0.24403957E+04</pdfrwt>
<pdfrwt beam="2">  1       -2 0.17123033E+00 0.24403957E+04</pdfrwt>
<totfact> 0.29427573E+00</totfact>
</mgrwt>
</event>
<event>
 6    1  0.1719556E-004  0.2642224E+04  0.7818608E-02  0.8353999E-01
          1   -1    0    0  501    0  0.00000000000E+00  0.00000000000E+00  0.12904879757E+04  0.12904879757E+04  0.00000000000E+00 0.  1.
         -1   -1    0    0    0  501 -0.00000000000E+00 -0.00000000000E+00 -0.13524626003E+04  0.13524626003E+04  0.00000000000E+00 0. -1.
         23    2    1    2    0    0  0.57426492143E+03 -0.59448715213E+02  0.11555875341E+04  0.12954447467E+04  0.97366283047E+02 0.  0.
         13    1    3    3    0    0  0.33086932473E+03  0.95342385208E+01  0.70048107587E+03  0.77475102414E+03  0.00000000000E+00 0. -1.
        -13    1    3    3    0    0  0.24339559670E+03 -0.68982953733E+02  0.45510645825E+03  0.52069372258E+03  0.00000000000E+00 0.  1.
         22    1    1    2    0    0 -0.57426492143E+03  0.59448715213E+02 -0.12175621587E+04  0.13475058293E+04  0.00000000000E+00 0. -1.
<mgrwt>
<rscale>  0 0.26422239E+04</rscale>
<asrwt>0</asrwt>
<pdfrwt beam="1">  1        1 0.19853661E+00 0.26422239E+04</pdfrwt>
<pdfrwt beam="2">  1       -1 0.20807117E+00 0.26422239E+04</pdfrwt>
<totfact> 0.10684187E+00</totfact>
</mgrwt>
</event>
<event>
 6    1  0.1719556E-004  0.2659075E+04  0.7818608E-02  0.8348407E-01
         -2   -1    0    0    0  501 -0.00000000000E+00  0.00000000000E+00  0.11107462507E+04  0.11107462507E+04  0.00000000000E+00 0. -1.
          2   -1    0    0  501    0  0.00000000000E+00 -0.00000000000E+00 -0.15914249596E+04  0.15914249596E+04  0.00000000000E+00 0.  1.
         23    2    1    2    0    0  0.12904438913E+04  0.25382827047E+03 -0.42711528935E+03  0.13859101163E+04  0.92979313047E+02 0.  0.
         13    1    3    3    0    0  0.47681983696E+03  0.68838894061E+02 -0.19597104545E+03  0.52009672264E+03  0.00000000000E+00 0.  1.
        -13    1    3    3    0    0  0.81362405434E+03  0.18498937641E+03 -0.23114424390E+03  0.86581339368E+03  0.00000000000E+00 0. -1.
         22    1    1    2    0    0 -0.12904438913E+04 -0.25382827047E+03 -0.53563419550E+02  0.13162610939E+04  0.00000000000E+00 0.  1.
<mgrwt>
<rscale>  0 0.26590745E+04</rscale>
<asrwt>0</asrwt>
<pdfrwt beam="1">  1        2 0.24483461E+00 0.26590745E+04</pdfrwt>
<pdfrwt beam="2">  1       -2 0.17088404E+00 0.26590745E+04</pdfrwt>
<totfact> 0.20854434E+00</totfact>
</mgrwt>
</event>
<event>
 6    1  0.1719556E-004  0.3589374E+04  0.7818608E-02  0.8092930E-01
         -1   -1    0    0    0  501 -0.00000000000E+00  0.00000000000E+00  0.10612486456E+04  0.10612486456E+04  0.00000000000E+00 0. -1.
          1   -1    0    0  501    0  0.00000000000E+00 -0.00000000000E+00 -0.30350105917E+04  0.30350105917E+04  0.00000000000E+00 0.  1.
         23    2    1    2    0    0 -0.10295225540E+04  0.76398599066E+03  0.44390497826E+03  0.13597094679E+04  0.90371036363E+02 0.  0.
         11    1    3    3    0    0 -0.52957474161E+03  0.38620244854E+03  0.17947125256E+03  0.67956726577E+03  0.00000000000E+00 0.  1.
        -11    1    3    3    0    0 -0.49994781236E+03  0.37778354213E+03  0.26443372570E+03  0.68014220210E+03  0.00000000000E+00 0. -1.
         22    1    1    2    0    0  0.10295225540E+04 -0.76398599066E+03 -0.24176669244E+04  0.27365497694E+04  0.00000000000E+00 0.  1.
<mgrwt>
<rscale>  0 0.35893737E+04</rscale>
<asrwt>0</asrwt>
<pdfrwt beam="1">  1        1 0.46692471E+00 0.35893737E+04</pdfrwt>
<pdfrwt beam="2">  1       -1 0.16326902E+00 0.35893737E+04</pdfrwt>
<totfact> 0.12588841E-01</totfact>
</mgrwt>
</event>
<event>
 6    1  0.1719556E-004  0.1507701E+04  0.7818608E-02  0.8879348E-01
         -2   -1    0    0    0  501 -0.00000000000E+00  0.00000000000E+00  0.15295024792E+03  0.15295024792E+03  0.00000000000E+00 0. -1.
          2   -1    0    0  501    0  0.00000000000E+00 -0.00000000000E+00 -0.37155271148E+04  0.37155271148E+04  0.00000000000E+00 0.  1.
         23    2    1    2    0    0  0.20729480968E+03  0.50420956992E+03 -0.31134101046E+04  0.31621139939E+04  0.91891251716E+02 0.  0.
         13    1    3    3    0    0  0.46878641767E+02  0.64383638040E+02 -0.62421705547E+03  0.62927719825E+03  0.00000000000E+00 0.  1.
        -13    1    3    3    0    0  0.16041616791E+03  0.43982593188E+03 -0.24891930491E+04  0.25328367956E+04  0.00000000000E+00 0. -1.
         22    1    1    2    0    0 -0.20729480968E+03 -0.50420956992E+03 -0.44916676221E+03  0.70636336881E+03  0.00000000000E+00 0. -1.
<mgrwt>
<rscale>  0 0.15077013E+04</rscale>
<asrwt>0</asrwt>
<pdfrwt beam="1">  1        2 0.57161955E+00 0.15077013E+04</pdfrwt>
<pdfrwt beam="2">  1       -2 0.23530808E-01 0.15077013E+04</pdfrwt>
<totfact> 0.89430019E+00</totfact>
</mgrwt>
</event>
<event>
 6    1  0.1719556E-004  0.6972582E+04  0.7818608E-02  0.7580270E-01
          2   -1    0    0  501    0  0.00000000000E+00  0.00000000000E+00  0.29210172340E+04  0.29210172340E+04  0.00000000000E+00 0.  1.
         -2   -1    0    0    0  501 -0.00000000000E+00 -0.00000000000E+00 -0.41609557530E+04  0.41609557530E+04  0.00000000000E+00 0. -1.
         23    2    1    2    0    0 -0.32015932035E+04  0.51566536312E+03 -0.19184267331E+04  0.37688994799E+04  0.90179553356E+02 0.  0.
         13    1    3    3    0    0 -0.17024795248E+04  0.27897008143E+03 -0.96855242325E+03  0.19784728038E+04  0.00000000000E+00 0.  1.
        -13    1    3    3    0    0 -0.14991136787E+04  0.23669528170E+03 -0.94987430984E+03  0.17904266761E+04  0.00000000000E+00 0. -1.
         22    1    1    2    0    0  0.32015932035E+04 -0.51566536312E+03  0.67848821414E+03  0.33130735072E+04  0.00000000000E+00 0. -1.
<mgrwt>
<rscale>  0 0.69725816E+04</rscale>
<asrwt>0</asrwt>
<pdfrwt beam="1">  1        2 0.44938727E+00 0.69725816E+04</pdfrwt>
<pdfrwt beam="2">  1       -2 0.64014704E+00 0.69725816E+04</pdfrwt>
<totfact> 0.45519547E-04</totfact>
</mgrwt>
</event>
<event>
 6    1  0.1719556E-004  0.1155050E+04  0.7818608E-02  0.9153137E-01
         -1   -1    0    0    0  501 -0.00000000000E+00  0.00000000000E+00  0.73066316646E+03  0.73066316646E+03  0.00000000000E+00 0. -1.
          1   -1    0    0  501    0  0.00000000000E+00 -0.00000000000E+00 -0.45648269467E+03  0.45648269467E+03  0.00000000000E+00 0.  1.
         23    2    1    2    0    0 -0.14140078946E+03  0.82824377652E+02 -0.42687625942E+03  0.46719127842E+03  0.95865994921E+02 0.  0.
         11    1    3    3    0    0 -0.80240351238E+02  0.38838679063E+02 -0.34324478720E+03  0.35463212051E+03  0.00000000000E+00 0.  1.
        -11    1    3    3    0    0 -0.61160438219E+02  0.43985698589E+02 -0.83631472224E+02  0.11255915791E+03  0.00000000000E+00 0. -1.
         22    1    1    2    0    0  0.14140078946E+03 -0.82824377652E+02  0.70105673121E+03  0.71995458271E+03  0.00000000000E+00 0. -1.
<mgrwt>
<rscale>  0 0.11550499E+04</rscale>
<asrwt>0</asrwt>
<pdfrwt beam="1">  1        1 0.70228107E-01 0.11550499E+04</pdfrwt>
<pdfrwt beam="2">  1       -1 0.11240972E+00 0.11550499E+04</pdfrwt>
<totfact> 0.36158230E+01</totfact>
</mgrwt>
</event>
<event>
 6    1  0.1719556E-004  0.3933314E+04  0.7818608E-02  0.8018136E-01
         -2   -1    0    0    0  501 -0.00000000000E+00  0.00000000000E+00  0.80198649385E+03  0.80198649385E+03  0.00000000000E+00 0. -1.
          2   -1    0    0  501    0  0.00000000000E+00 -0.00000000000E+00 -0.48226996273E+04  0.48226996273E+04  0.00000000000E+00 0.  1.
         23    2    1    2    0    0 -0.12868502256E+04  0.29864032280E+03  0.69789927769E+02  0.13261532506E+04  0.92963781182E+02 0.  0.
         11    1    3    3    0    0 -0.84671096448E+03  0.15098119359E+03  0.44430545147E+02  0.86121359228E+03  0.00000000000E+00 0. -1.
        -11    1    3    3    0    0 -0.44013926108E+03  0.14765912921E+03  0.25359382621E+02  0.46493965831E+03  0.00000000000E+00 0.  1.
         22    1    1    2    0    0  0.12868502256E+04 -0.29864032280E+03 -0.40905030613E+04  0.42985328706E+04  0.00000000000E+00 0.  1.
<mgrwt>
<rscale>  0 0.39333141E+04</rscale>
<asrwt>0</asrwt>
<pdfrwt beam="1">  1        2 0.74195377E+00 0.39333141E+04</pdfrwt>
<pdfrwt beam="2">  1       -2 0.12338254E+00 0.39333141E+04</pdfrwt>
<totfact> 0.21825574E-02</totfact>
</mgrwt>
</event>
<event>
 6    1  0.1719556E-004  0.2849369E+04  0.7818608E-02  0.8288103E-01
          3   -1    0    0  501    0  0.00000000000E+00  0.00000000000E+00  0.10737917096E+04  0.10737917096E+04  0.00000000000E+00 0.  1.
         -3   -1    0    0    0  501 -0.00000000000E+00 -0.00000000000E+00 -0.18902419399E+04  0.18902419399E+04  0.00000000000E+00 0. -1.
         23    2    1    2    0    0 -0.75372211609E+03 -0.41327897556E+03 -0.15886561733E+04  0.18085257273E+04  0.89667883611E+02 0.  0.
         11    1    3    3    0    0 -0.52626694988E+03 -0.25733265096E+03 -0.10122114739E+04  0.11695080434E+04  0.00000000000E+00 0. -1.
        -11    1    3    3    0    0 -0.22745516621E+03 -0.15594632459E+03 -0.57644469936E+03  0.63901768380E+03  0.00000000000E+00 0.  1.
         22    1    1    2    0    0  0.75372211609E+03  0.41327897556E+03  0.77220594300E+03  0.11555079222E+04  0.00000000000E+00 0.  1.
<mgrwt>
<rscale>  0 0.28493691E+04</rscale>
<asrwt>0</asrwt>
<pdfrwt beam="1">  1        3 0.16519872E+00 0.28493691E+04</pdfrwt>
<pdfrwt beam="2">  1       -3 0.29080645E+00 0.28493691E+04</pdfrwt>
<totfact> 0.24163635E-02</totfact>
</mgrwt>
</event>
<event>
 6    1  0.1719556E-004  0.2232176E+04  0.7818608E-02  0.8505154E-01
          2   -1    0    0  501    0  0.00000000000E+00  0.00000000000E+00  0.25546735845E+04  0.25546735845E+04  0.00000000000E+00 0.  1.
         -2   -1    0    0    0  501 -0.00000000000E+00 -0.00000000000E+00 -0.48759731312E+03  0.48759731312E+03  0.00000000000E+00 0. -1.
         23    2    1    2    0    0 -0.92440840904E+03 -0.61557609183E+03  0.11583467863E+04  0.16072607553E+04  0.89749800415E+02 0.  0.
         13    1    3    3    0    0 -0.35872269173E+03 -0.19803718752E+03  0.46554226807E+03  0.62018569845E+03  0.00000000000E+00 0. -1.
        -13    1    3    3    0    0 -0.56568571730E+03 -0.41753890432E+03  0.69280451819E+03  0.98707505682E+03  0.00000000000E+00 0.  1.
         22    1    1    2    0    0  0.92440840904E+03  0.61557609183E+03  0.90872948513E+03  0.14350101424E+04  0.00000000000E+00 0. -1.
<mgrwt>
<rscale>  0 0.22321756E+04</rscale>
<asrwt>0</asrwt>
<pdfrwt beam="1">  1        2 0.39302670E+00 0.22321756E+04</pdfrwt>
<pdfrwt beam="2">  1       -2 0.75014973E-01 0.22321756E+04</pdfrwt>
<totfact> 0.47078491E+00</totfact>
</mgrwt>
</event>
<event>
 6    1  0.1719556E-004  0.2779116E+04  0.7818608E-02  0.8309781E-01
          1   -1    0    0  501    0  0.00000000000E+00  0.00000000000E+00  0.17781861389E+04  0.17781861389E+04  0.00000000000E+00 0. -1.
         -1   -1    0    0    0  501 -0.00000000000E+00 -0.00000000000E+00 -0.10858657244E+04  0.10858657244E+04  0.00000000000E+00 0.  1.
         23    2    1    2    0    0 -0.31072759826E+03  0.99263862965E+03  0.12935294107E+04  0.16626629394E+04  0.96677941675E+02 0.  0.
         13    1    3    3    0    0 -0.18082503088E+03  0.50939056510E+03  0.74121665402E+03  0.91737591412E+03  0.00000000000E+00 0. -1.
        -13    1    3    3    0    0 -0.12990256738E+03  0.48324806455E+03  0.55231275666E+03  0.74528702529E+03  0.00000000000E+00 0.  1.
         22    1    1    2    0    0  0.31072759826E+03 -0.99263862965E+03 -0.60120899616E+03  0.12013889239E+04  0.00000000000E+00 0.  1.
<mgrwt>
<rscale>  0 0.27791160E+04</rscale>
<asrwt>0</asrwt>
<pdfrwt beam="1">  1        1 0.27356710E+00 0.27791160E+04</pdfrwt>
<pdfrwt beam="2">  1       -1 0.16705627E+00 0.27791160E+04</pdfrwt>
<totfact> 0.94585760E-01</totfact>
</mgrwt>
</event>
<event>
 6    1  0.1719556E-004  0.8232348E+03  0.7818608E-02  0.9526982E-01
          2   -1    0    0  501    0  0.00000000000E+00  0.00000000000E+00  0.13205054580E+04  0.13205054580E+04  0.00000000000E+00 0.  1.
         -2   -1    0    0    0  501 -0.00000000000E+00 -0.00000000000E+00 -0.12830608937E+03  0.12830608937E+03  0.00000000000E+00 0. -1.
         23    2    1    2    0    0  0.20180422355E+03 -0.32275786058E+03  0.35251978186E+03  0.52687912595E+03  0.91835916489E+02 0.  0.
         13    1    3    3    0    0  0.15075873716E+03 -0.16507196403E+03  0.17406752699E+03  0.28333099741E+03  0.00000000000E+00 0. -1.
        -13    1    3    3    0    0  0.51045486382E+02 -0.15768589655E+03  0.17845225486E+03  0.24354812854E+03  0.00000000000E+00 0.  1.
         22    1    1    2    0    0 -0.20180422355E+03  0.32275786058E+03  0.83967958675E+03  0.92193242139E+03  0.00000000000E+00 0.  1.
<mgrwt>
<rscale>  0 0.82323482E+03</rscale>
<asrwt>0</asrwt>
<pdfrwt beam="1">  1        2 0.20315468E+00 0.82323482E+03</pdfrwt>
<pdfrwt beam="2">  1       -2 0.19739399E-01 0.82323482E+03</pdfrwt>
<totfact> 0.35336878E+02</totfact>
</mgrwt>
</event>
<event>
 6    1  0.1719556E-004  0.2622447E+04  0.7818608E-02  0.8360616E-01
         -2   -1    0    0    0  501 -0.00000000000E+00  0.00000000000E+00  0.44666803313E+03  0.44666803313E+03  0.00000000000E+00 0. -1.
          2   -1    0    0  501    0  0.00000000000E+00 -0.00000000000E+00 -0.38491823307E+04  0.38491823307E+04  0.00000000000E+00 0.  1.
         23    2    1    2    0    0  0.85750205725E+03 -0.98448888804E+03 -0.15298326529E+04  0.20129870978E+04  0.84858478248E+02 0.  0.
         11    1    3    3    0    0  0.37972612191E+03 -0.37265305497E+03 -0.62657036475E+03  0.82198092984E+03  0.00000000000E+00 0. -1.
        -11    1    3    3    0    0  0.47777593534E+03 -0.61183583307E+03 -0.90326228814E+03  0.11910061680E+04  0.00000000000E+00 0.  1.
         22    1    1    2    0    0 -0.85750205725E+03  0.98448888804E+03 -0.18726816446E+04  0.22828632660E+04  0.00000000000E+00 0. -1.
<mgrwt>
<rscale>  0 0.26224467E+04</rscale>
<asrwt>0</asrwt>
<pdfrwt beam="1">  1        2 0.59218187E+00 0.26224467E+04</pdfrwt>
<pdfrwt beam="2">  1       -2 0.68718163E-01 0.26224467E+04</pdfrwt>
<totfact> 0.77069266E-01</totfact>
</mgrwt>
</event>
<event>
 6    1  0.1719556E-004  0.5021307E+04  0.7818608E-02  0.7825229E-01
         -1   -1    0    0    0  501 -0.00000000000E+00  0.00000000000E+00  0.23839570098E+04  0.23839570098E+04  0.00000000000E+00 0. -1.
          1   -1    0    0  501    0  0.00000000000E+00 -0.00000000000E+00 -0.26440834507E+04  0.26440834507E+04  0.00000000000E+00 0.  1.
         23    2    1    2    0    0 -0.15417215857E+04  0.10622040177E+04  0.15436354995E+04  0.24282827870E+04  0.92541425279E+02 0.  0.
         11    1    3    3    0    0 -0.88143370282E+03  0.58134030132E+03  0.92276817993E+03  0.14022778014E+04  0.00000000000E+00 0.  1.
        -11    1    3    3    0    0 -0.66028788290E+03  0.48086371637E+03  0.62086731956E+03  0.10260049856E+04  0.00000000000E+00 0. -1.
         22    1    1    2    0    0  0.15417215857E+04 -0.10622040177E+04 -0.18037619404E+04  0.25997576734E+04  0.00000000000E+00 0.  1.
<mgrwt>
<rscale>  0 0.50213071E+04</rscale>
<asrwt>0</asrwt>
<pdfrwt beam="1">  1        1 0.40678207E+00 0.50213071E+04</pdfrwt>
<pdfrwt beam="2">  1       -1 0.36676262E+00 0.50213071E+04</pdfrwt>
<totfact> 0.93049034E-03</totfact>
</mgrwt>
</event>
<event>
 6    1  0.2205014E-004  0.2971704E+04  0.7818608E-02  0.8251857E-01
         -2   -1    0    0    0  501 -0.00000000000E+00  0.00000000000E+00  0.19017718115E+04  0.19017718115E+04  0.00000000000E+00 0. -1.
          2   -1    0    0  501    0  0.00000000000E+00 -0.00000000000E+00 -0.11608941901E+04  0.11608941901E+04  0.00000000000E+00 0.  1.
         23    2    1    2    0    0 -0.14810599189E+04  0.27278633087E+02  0.27195249966E+03  0.15089049591E+04  0.92484628435E+02 0.  0.
         11    1    3    3    0    0 -0.75504171882E+03  0.46529907164E+02  0.17205090660E+03  0.77579284856E+03  0.00000000000E+00 0.  1.
        -11    1    3    3    0    0 -0.72601820007E+03 -0.19251274077E+02  0.99901593057E+02  0.73311211058E+03  0.00000000000E+00 0. -1.
         22    1    1    2    0    0  0.14810599189E+04 -0.27278633087E+02  0.46892512179E+03  0.15537610424E+04  0.00000000000E+00 0.  1.
<mgrwt>
<rscale>  0 0.29717038E+04</rscale>
<asrwt>0</asrwt>
<pdfrwt beam="1">  1        2 0.17859911E+00 0.29717038E+04</pdfrwt>
<pdfrwt beam="2">  1       -2 0.29258028E+00 0.29717038E+04</pdfrwt>
<totfact> 0.60533856E-01</totfact>
</mgrwt>
</event>
<event>
 6    1  0.1719556E-004  0.1758880E+04  0.7818608E-02  0.8728478E-01
          2   -1    0    0  501    0  0.00000000000E+00  0.00000000000E+00  0.18524114898E+04  0.18524114898E+04  0.00000000000E+00 0.  1.
         -2   -1    0    0    0  501 -0.00000000000E+00 -0.00000000000E+00 -0.41751756106E+03  0.41751756106E+03  0.00000000000E+00 0. -1.
         23    2    1    2    0    0 -0.73373511750E+03 -0.47074327803E+03  0.84305175851E+03  0.12162480693E+04  0.92502118956E+02 0.  0.
         13    1    3    3    0    0 -0.29052901268E+03 -0.21323726721E+03  0.40352039764E+03  0.54102305926E+03  0.00000000000E+00 0.  1.
        -13    1    3    3    0    0 -0.44320610482E+03 -0.25750601082E+03  0.43953136087E+03  0.67522501001E+03  0.00000000000E+00 0. -1.
         22    1    1    2    0    0  0.73373511750E+03  0.47074327803E+03  0.59184217019E+03  0.10536809815E+04  0.00000000000E+00 0. -1.
<mgrwt>
<rscale>  0 0.17588796E+04</rscale>
<asrwt>0</asrwt>
<pdfrwt beam="1">  1        2 0.28498638E+00 0.17588796E+04</pdfrwt>
<pdfrwt beam="2">  1       -2 0.64233472E-01 0.17588796E+04</pdfrwt>
<totfact> 0.17115951E+01</totfact>
</mgrwt>
</event>
<event>
 6    1  0.1719556E-004  0.1708181E+04  0.7818608E-02  0.8756712E-01
         -2   -1    0    0    0  501 -0.00000000000E+00  0.00000000000E+00  0.43150999671E+03  0.43150999671E+03  0.00000000000E+00 0. -1.
          2   -1    0    0  501    0  0.00000000000E+00 -0.00000000000E+00 -0.16905074970E+04  0.16905074970E+04  0.00000000000E+00 0.  1.
         23    2    1    2    0    0 -0.59060888234E+03 -0.22942840437E+03  0.75755333394E+02  0.64451237641E+03  0.90559859634E+02 0.  0.
         11    1    3    3    0    0 -0.39204407281E+03 -0.14025628663E+03  0.91367932559E+02  0.42628450601E+03  0.00000000000E+00 0.  1.
        -11    1    3    3    0    0 -0.19856480953E+03 -0.89172117748E+02 -0.15612599165E+02  0.21822787040E+03  0.00000000000E+00 0. -1.
         22    1    1    2    0    0  0.59060888234E+03  0.22942840437E+03 -0.13347528336E+04  0.14775051173E+04  0.00000000000E+00 0.  1.
<mgrwt>
<rscale>  0 0.17081814E+04</rscale>
<asrwt>0</asrwt>
<pdfrwt beam="1">  1        2 0.26007807E+00 0.17081814E+04</pdfrwt>
<pdfrwt beam="2">  1       -2 0.66386154E-01 0.17081814E+04</pdfrwt>
<totfact> 0.19689655E+01</totfact>
</mgrwt>
</event>
<event>
 6    1  0.1719556E-004  0.9063863E+03  0.7818608E-02  0.9417633E-01
          2   -1    0    0  501    0  0.00000000000E+00  0.00000000000E+00  0.15165687197E+04  0.15165687197E+04  0.00000000000E+00 0.  1.
         -2   -1    0    0    0  501 -0.00000000000E+00 -0.00000000000E+00 -0.13542680100E+03  0.13542680100E+03  0.00000000000E+00 0. -1.
         23    2    1    2    0    0  0.25802892263E+03 -0.25473064016E+03  0.11785877453E+04  0.12366705671E+04  0.93906304780E+02 0.  0.
         11    1    3    3    0    0  0.13989599590E+03 -0.17059849580E+03  0.57421836105E+03  0.61514344880E+03  0.00000000000E+00 0. -1.
        -11    1    3    3    0    0  0.11813292673E+03 -0.84132144361E+02  0.60436938429E+03  0.62152711828E+03  0.00000000000E+00 0.  1.
         22    1    1    2    0    0 -0.25802892263E+03  0.25473064016E+03  0.20255417337E+03  0.41532495362E+03  0.00000000000E+00 0. -1.
<mgrwt>
<rscale>  0 0.90638634E+03</rscale>
<asrwt>0</asrwt>
<pdfrwt beam="1">  1        2 0.23331825E+00 0.90638634E+03</pdfrwt>
<pdfrwt beam="2">  1       -2 0.20834894E-01 0.90638634E+03</pdfrwt>
<totfact> 0.24766701E+02</totfact>
</mgrwt>
</event>
<event>
 6    1  0.1719556E-004  0.1421463E+04  0.7818608E-02  0.8938428E-01
         -2   -1    0    0    0  501 -0.00000000000E+00  0.00000000000E+00  0.25969680612E+03  0.25969680612E+03  0.00000000000E+00 0. -1.
          2   -1    0    0  501    0  0.00000000000E+00 -0.00000000000E+00 -0.19451104322E+04  0.19451104322E+04  0.00000000000E+00 0.  1.
         23    2    1    2    0    0  0.16860012451E+03 -0.88233668398E+02 -0.19035484858E+04  0.19153353066E+04  0.93815331528E+02 0.  0.
         13    1    3    3    0    0  0.20892311562E+02 -0.40464734989E+02 -0.75092573561E+03  0.75230535281E+03  0.00000000000E+00 0.  1.
        -13    1    3    3    0    0  0.14770781295E+03 -0.47768933409E+02 -0.11526227502E+04  0.11630299538E+04  0.00000000000E+00 0. -1.
         22    1    1    2    0    0 -0.16860012451E+03  0.88233668398E+02  0.21813485976E+03  0.28947193174E+03  0.00000000000E+00 0. -1.
<mgrwt>
<rscale>  0 0.14214626E+04</rscale>
<asrwt>0</asrwt>
<pdfrwt beam="1">  1        2 0.29924776E+00 0.14214626E+04</pdfrwt>
<pdfrwt beam="2">  1       -2 0.39953355E-01 0.14214626E+04</pdfrwt>
<totfact> 0.41306303E+01</totfact>
</mgrwt>
</event>
<event>
 6    1  0.1719556E-004  0.1436266E+04  0.7818608E-02  0.8927978E-01
         -2   -1    0    0    0  501 -0.00000000000E+00  0.00000000000E+00  0.17921082263E+04  0.17921082263E+04  0.00000000000E+00 0. -1.
          2   -1    0    0  501    0  0.00000000000E+00 -0.00000000000E+00 -0.28776991117E+03  0.28776991117E+03  0.00000000000E+00 0.  1.
         23    2    1    2    0    0  0.52579831069E+02 -0.51048001471E+03  0.33479959048E+02  0.52206595761E+03  0.89874759446E+02 0.  0.
         13    1    3    3    0    0  0.71997666360E+02 -0.28767181631E+03  0.48150106789E+01  0.29658375240E+03  0.00000000000E+00 0.  1.
        -13    1    3    3    0    0 -0.19417835291E+02 -0.22280819840E+03  0.28664948369E+02  0.22548220521E+03  0.00000000000E+00 0. -1.
         22    1    1    2    0    0 -0.52579831069E+02  0.51048001471E+03  0.14708583560E+04  0.15578121798E+04  0.00000000000E+00 0. -1.
<mgrwt>
<rscale>  0 0.14362657E+04</rscale>
<asrwt>0</asrwt>
<pdfrwt beam="1">  1        2 0.44272295E-01 0.14362657E+04</pdfrwt>
<pdfrwt beam="2">  1       -2 0.27570895E+00 0.14362657E+04</pdfrwt>
<totfact> 0.50068244E+00</totfact>
</mgrwt>
</event>
<event>
 6    1  0.1719556E-004  0.5779658E+03  0.7818608E-02  0.9952205E-01
         -1   -1    0    0    0  501 -0.00000000000E+00  0.00000000000E+00  0.15603099914E+03  0.15603099914E+03  0.00000000000E+00 0. -1.
          1   -1    0    0  501    0  0.00000000000E+00 -0.00000000000E+00 -0.53522133468E+03  0.53522133468E+03  0.00000000000E+00 0.  1.
         23    2    1    2    0    0 -0.76243186752E+01 -0.28110563943E+03 -0.21686991349E+03  0.36655796959E+03  0.90849738224E+02 0.  0.
         13    1    3    3    0    0 -0.34674743317E+00 -0.54669013878E+02 -0.26065411394E+01  0.54732215092E+02  0.00000000000E+00 0.  1.
        -13    1    3    3    0    0 -0.72775712421E+01 -0.22643662555E+03 -0.21426337235E+03  0.31182575449E+03  0.00000000000E+00 0. -1.
         22    1    1    2    0    0  0.76243186752E+01  0.28110563943E+03 -0.16232042204E+03  0.32469436423E+03  0.00000000000E+00 0.  1.
<mgrwt>
<rscale>  0 0.57796581E+03</rscale>
<asrwt>0</asrwt>
<pdfrwt beam="1">  1        1 0.82341744E-01 0.57796581E+03</pdfrwt>
<pdfrwt beam="2">  1       -1 0.24004769E-01 0.57796581E+03</pdfrwt>
<totfact> 0.61071731E+02</totfact>
</mgrwt>
</event>
<event>
 6    1  0.1719556E-004  0.1991571E+04  0.7818608E-02  0.8610572E-01
          1   -1    0    0  501    0  0.00000000000E+00  0.00000000000E+00  0.12889858815E+04  0.12889858815E+04  0.00000000000E+00 0.  1.
         -1   -1    0    0    0  501 -0.00000000000E+00 -0.00000000000E+00 -0.76927789036E+03  0.76927789036E+03  0.00000000000E+00 0. -1.
         23    2    1    2    0    0 -0.71104378849E+03 -0.67082453497E+03  0.76332313476E+02  0.98487157075E+03  0.92501691495E+02 0.  0.
         11    1    3    3    0    0 -0.19130102220E+03 -0.23022034482E+03  0.45857709452E+02  0.30282076841E+03  0.00000000000E+00 0. -1.
        -11    1    3    3    0    0 -0.51974276628E+03 -0.44060419015E+03  0.30474604024E+02  0.68205080234E+03  0.00000000000E+00 0.  1.
         22    1    1    2    0    0  0.71104378849E+03  0.67082453497E+03  0.44337567767E+03  0.10733922011E+04  0.00000000000E+00 0.  1.
<mgrwt>
<rscale>  0 0.19915706E+04</rscale>
<asrwt>0</asrwt>
<pdfrwt beam="1">  1        1 0.19830552E+00 0.19915706E+04</pdfrwt>
<pdfrwt beam="2">  1       -1 0.11835044E+00 0.19915706E+04</pdfrwt>
<totfact> 0.54767060E+00</totfact>
</mgrwt>
</event>
<event>
 6    1  0.1719556E-004  0.1970031E+04  0.7818608E-02  0.8620762E-01
          2   -1    0    0  501    0  0.00000000000E+00  0.00000000000E+00  0.27237088719E+04  0.27237088719E+04  0.00000000000E+00 0.  1.
         -2   -1    0    0    0  501 -0.00000000000E+00 -0.00000000000E+00 -0.35622595951E+03  0.35622595951E+03  0.00000000000E+00 0. -1.
         23    2    1    2    0    0 -0.60196879537E+02  0.43599558022E+03 -0.18779943769E+03  0.48702455551E+03  0.90600654546E+02 0.  0.
         11    1    3    3    0    0 -0.54704279615E+02  0.15903894453E+03 -0.39278349585E+02  0.17270996738E+03  0.00000000000E+00 0. -1.
        -11    1    3    3    0    0 -0.54925999223E+01  0.27695663569E+03 -0.14852108810E+03  0.31431458814E+03  0.00000000000E+00 0.  1.
         22    1    1    2    0    0  0.60196879537E+02 -0.43599558022E+03  0.25552823501E+04  0.25929102759E+04  0.00000000000E+00 0.  1.
<mgrwt>
<rscale>  0 0.19700313E+04</rscale>
<asrwt>0</asrwt>
<pdfrwt beam="1">  1        2 0.41903212E+00 0.19700313E+04</pdfrwt>
<pdfrwt beam="2">  1       -2 0.54803996E-01 0.19700313E+04</pdfrwt>
<totfact> 0.75077759E+00</totfact>
</mgrwt>
</event>
<event>
 6    1  0.1719556E-004  0.3921955E+04  0.7818608E-02  0.8020478E-01
         -2   -1    0    0    0  501 -0.00000000000E+00  0.00000000000E+00  0.12699874779E+04  0.12699874779E+04  0.00000000000E+00 0. -1.
          2   -1    0    0  501    0  0.00000000000E+00 -0.00000000000E+00 -0.30279300736E+04  0.30279300736E+04  0.00000000000E+00 0.  1.
         23    2    1    2    0    0  0.14486052593E+04  0.12657741787E+04 -0.12904395216E+04  0.23182204552E+04  0.90942021352E+02 0.  0.
         13    1    3    3    0    0  0.14028427097E+04  0.12078384562E+04 -0.12536909230E+04  0.22357509555E+04  0.00000000000E+00 0. -1.
        -13    1    3    3    0    0  0.45762549562E+02  0.57935722488E+02 -0.36748598609E+02  0.82469499709E+02  0.00000000000E+00 0.  1.
         22    1    1    2    0    0 -0.14486052593E+04 -0.12657741787E+04 -0.46750307413E+03  0.19796970963E+04  0.00000000000E+00 0.  1.
<mgrwt>
<rscale>  0 0.39219553E+04</rscale>
<asrwt>0</asrwt>
<pdfrwt beam="1">  1        2 0.46583540E+00 0.39219553E+04</pdfrwt>
<pdfrwt beam="2">  1       -2 0.19538269E+00 0.39219553E+04</pdfrwt>
<totfact> 0.18927165E-01</totfact>
</mgrwt>
</event>
<event>
 6    1  0.1719556E-004  0.1567815E+04  0.7818608E-02  0.8840568E-01
          1   -1    0    0  501    0  0.00000000000E+00  0.00000000000E+00  0.11461123729E+04  0.11461123729E+04  0.00000000000E+00 0.  1.
         -1   -1    0    0    0  501 -0.00000000000E+00 -0.00000000000E+00 -0.53616971231E+03  0.53616971231E+03  0.00000000000E+00 0. -1.
         23    2    1    2    0    0 -0.37483167568E+03 -0.58179308476E+03 -0.82989899221E+02  0.70292642408E+03  0.90753819377E+02 0.  0.
         11    1    3    3    0    0 -0.25283216808E+03 -0.39240366530E+03 -0.12857008049E+02  0.46697970450E+03  0.00000000000E+00 0.  1.
        -11    1    3    3    0    0 -0.12199950760E+03 -0.18938941946E+03 -0.70132891172E+02  0.23594671958E+03  0.00000000000E+00 0. -1.
         22    1    1    2    0    0  0.37483167568E+03  0.58179308476E+03  0.69293255984E+03  0.97935566116E+03  0.00000000000E+00 0.  1.
<mgrwt>
<rscale>  0 0.15678147E+04</rscale>
<asrwt>0</asrwt>
<pdfrwt beam="1">  1        1 0.17632498E+00 0.15678147E+04</pdfrwt>
<pdfrwt beam="2">  1       -1 0.82487649E-01 0.15678147E+04</pdfrwt>
<totfact> 0.16459436E+01</totfact>
</mgrwt>
</event>
<event>
 6    1  0.1719556E-004  0.9411381E+03  0.7818608E-02  0.9375569E-01
          1   -1    0    0  501    0  0.00000000000E+00  0.00000000000E+00  0.64077231098E+03  0.64077231098E+03  0.00000000000E+00 0.  1.
         -1   -1    0    0    0  501 -0.00000000000E+00 -0.00000000000E+00 -0.34557552980E+03  0.34557552980E+03  0.00000000000E+00 0. -1.
         23    2    1    2    0    0  0.27948623274E+03 -0.90631771438E+02 -0.23022975527E+03  0.38435139768E+03  0.91616507254E+02 0.  0.
         13    1    3    3    0    0  0.22649445629E+03 -0.76051159924E+02 -0.22657077568E+03  0.32926863508E+03  0.00000000000E+00 0. -1.
        -13    1    3    3    0    0  0.52991776458E+02 -0.14580611514E+02 -0.36589795876E+01  0.55082762602E+02  0.00000000000E+00 0.  1.
         22    1    1    2    0    0 -0.27948623274E+03  0.90631771438E+02  0.52542653645E+03  0.60199644309E+03  0.00000000000E+00 0.  1.
<mgrwt>
<rscale>  0 0.94113810E+03</rscale>
<asrwt>0</asrwt>
<pdfrwt beam="1">  1        1 0.98580356E-01 0.94113810E+03</pdfrwt>
<pdfrwt beam="2">  1       -1 0.53165466E-01 0.94113810E+03</pdfrwt>
<totfact> 0.11162535E+02</totfact>
</mgrwt>
</event>
<event>
 6    1  0.1719556E-004  0.2536720E+04  0.7818608E-02  0.8390020E-01
         -2   -1    0    0    0  501 -0.00000000000E+00  0.00000000000E+00  0.10826513079E+04  0.10826513079E+04  0.00000000000E+00 0. -1.
          2   -1    0    0  501    0  0.00000000000E+00 -0.00000000000E+00 -0.14859230274E+04  0.14859230274E+04  0.00000000000E+00 0.  1.
         23    2    1    2    0    0  0.50522984830E+03 -0.97643385170E+03  0.43514438432E+03  0.11859602064E+04  0.92036457850E+02 0.  0.
         11    1    3    3    0    0  0.39517635142E+03 -0.67292617727E+03  0.30452704929E+03  0.83769368658E+03  0.00000000000E+00 0. -1.
        -11    1    3    3    0    0  0.11005349688E+03 -0.30350767442E+03  0.13061733503E+03  0.34826651981E+03  0.00000000000E+00 0.  1.
         22    1    1    2    0    0 -0.50522984830E+03  0.97643385170E+03 -0.83841610379E+03  0.13826141289E+04  0.00000000000E+00 0.  1.
<mgrwt>
<rscale>  0 0.25367195E+04</rscale>
<asrwt>0</asrwt>
<pdfrwt beam="1">  1        2 0.22860354E+00 0.25367195E+04</pdfrwt>
<pdfrwt beam="2">  1       -2 0.16656174E+00 0.25367195E+04</pdfrwt>
<totfact> 0.25936070E+00</totfact>
</mgrwt>
</event>
<event>
 6    1  0.1719556E-004  0.3484469E+04  0.7818608E-02  0.8117481E-01
         -1   -1    0    0    0  501 -0.00000000000E+00  0.00000000000E+00  0.21372439697E+04  0.21372439697E+04  0.00000000000E+00 0. -1.
          1   -1    0    0  501    0  0.00000000000E+00 -0.00000000000E+00 -0.14202312702E+04  0.14202312702E+04  0.00000000000E+00 0.  1.
         23    2    1    2    0    0 -0.14166415018E+04 -0.52591682865E+03  0.12416462306E+04  0.19578809172E+04  0.90281053133E+02 0.  0.
         13    1    3    3    0    0 -0.32368667373E+03 -0.10897768877E+03  0.23476766454E+03  0.41444547978E+03  0.00000000000E+00 0.  1.
        -13    1    3    3    0    0 -0.10929548280E+04 -0.41693913988E+03  0.10068785661E+04  0.15434354374E+04  0.00000000000E+00 0. -1.
         22    1    1    2    0    0  0.14166415018E+04  0.52591682865E+03 -0.52463353116E+03  0.15995943227E+04  0.00000000000E+00 0.  1.
<mgrwt>
<rscale>  0 0.34844688E+04</rscale>
<asrwt>0</asrwt>
<pdfrwt beam="1">  1        1 0.21849712E+00 0.34844688E+04</pdfrwt>
<pdfrwt beam="2">  1       -1 0.32880676E+00 0.34844688E+04</pdfrwt>
<totfact> 0.13015518E-01</totfact>
</mgrwt>
</event>
<event>
 6    1  0.1719556E-004  0.1398156E+04  0.7818608E-02  0.8955154E-01
         -1   -1    0    0    0  501 -0.00000000000E+00  0.00000000000E+00  0.13728212820E+04  0.13728212820E+04  0.00000000000E+00 0.  1.
          1   -1    0    0  501    0  0.00000000000E+00 -0.00000000000E+00 -0.35598965563E+03  0.35598965563E+03  0.00000000000E+00 0. -1.
         23    2    1    2    0    0  0.90281809722E+02  0.57472030532E+03  0.98268011087E+03  0.11460412057E+04  0.96415819569E+02 0.  0.
         11    1    3    3    0    0  0.33635887986E+02  0.34068482761E+03  0.65902500263E+03  0.74263818837E+03  0.00000000000E+00 0. -1.
        -11    1    3    3    0    0  0.56645921737E+02  0.23403547770E+03  0.32365510824E+03  0.40340301729E+03  0.00000000000E+00 0.  1.
         22    1    1    2    0    0 -0.90281809722E+02 -0.57472030532E+03  0.34151515526E+02  0.58276973199E+03  0.00000000000E+00 0. -1.
<mgrwt>
<rscale>  0 0.13981562E+04</rscale>
<asrwt>0</asrwt>
<pdfrwt beam="1">  1        1 0.54767640E-01 0.13981562E+04</pdfrwt>
<pdfrwt beam="2">  1       -1 0.21120327E+00 0.13981562E+04</pdfrwt>
<totfact> 0.86169277E+00</totfact>
</mgrwt>
</event>
<event>
 6    1  0.1719556E-004  0.1796331E+04  0.7818608E-02  0.8708253E-01
         -2   -1    0    0    0  501 -0.00000000000E+00  0.00000000000E+00  0.71130882874E+03  0.71130882874E+03  0.00000000000E+00 0. -1.
          2   -1    0    0  501    0  0.00000000000E+00 -0.00000000000E+00 -0.11341080100E+04  0.11341080100E+04  0.00000000000E+00 0.  1.
         23    2    1    2    0    0  0.41643751876E+03  0.28390430077E+03  0.54903465639E+03  0.75066441603E+03  0.89644590253E+02 0.  0.
         13    1    3    3    0    0  0.11477682380E+03  0.39330942387E+02  0.16186240364E+03  0.20228712274E+03  0.00000000000E+00 0.  1.
        -13    1    3    3    0    0  0.30166069495E+03  0.24457335839E+03  0.38717225275E+03  0.54837729330E+03  0.00000000000E+00 0. -1.
         22    1    1    2    0    0 -0.41643751876E+03 -0.28390430077E+03 -0.97183383764E+03  0.10947524227E+04  0.00000000000E+00 0.  1.
<mgrwt>
<rscale>  0 0.17963307E+04</rscale>
<asrwt>0</asrwt>
<pdfrwt beam="1">  1        2 0.17447816E+00 0.17963307E+04</pdfrwt>
<pdfrwt beam="2">  1       -2 0.10943213E+00 0.17963307E+04</pdfrwt>
<totfact> 0.13045317E+01</totfact>
</mgrwt>
</event>
<event>
 6    1  0.1719556E-004  0.1046284E+04  0.7818608E-02  0.9259190E-01
          2   -1    0    0  501    0  0.00000000000E+00  0.00000000000E+00  0.57880568289E+03  0.57880568289E+03  0.00000000000E+00 0.  1.
         -2   -1    0    0    0  501 -0.00000000000E+00 -0.00000000000E+00 -0.47283104040E+03  0.47283104040E+03  0.00000000000E+00 0. -1.
         23    2    1    2    0    0  0.13520387615E+03 -0.48784013288E+03 -0.61932649952E+02  0.51828792351E+03  0.92296452571E+02 0.  0.
         13    1    3    3    0    0  0.11799167486E+02 -0.46105632610E+02 -0.34574275790E+02  0.58824571891E+02  0.00000000000E+00 0. -1.
        -13    1    3    3    0    0  0.12340470866E+03 -0.44173450027E+03 -0.27358374162E+02  0.45946335162E+03  0.00000000000E+00 0.  1.
         22    1    1    2    0    0 -0.13520387615E+03  0.48784013288E+03  0.16790729243E+03  0.53334879978E+03  0.00000000000E+00 0.  1.
<mgrwt>
<rscale>  0 0.10462835E+04</rscale>
<asrwt>0</asrwt>
<pdfrwt beam="1">  1        2 0.89047028E-01 0.10462835E+04</pdfrwt>
<pdfrwt beam="2">  1       -2 0.72743237E-01 0.10462835E+04</pdfrwt>
<totfact> 0.88193967E+01</totfact>
</mgrwt>
</event>
<event>
 6    1  0.2253830E-004  0.5137909E+04  0.7818608E-02  0.7807579E-01
         -2   -1    0    0    0  501 -0.00000000000E+00  0.00000000000E+00  0.17263670303E+04  0.17263670303E+04  0.00000000000E+00 0. -1.
          2   -1    0    0  501    0  0.00000000000E+00 -0.00000000000E+00 -0.38227828108E+04  0.38227828108E+04  0.00000000000E+00 0.  1.
         23    2    1    2    0    0 -0.40971059230E+01 -0.13277892580E+04 -0.34227965801E+04  0.36723634585E+04  0.87611885352E+02 0.  0.
         13    1    3    3    0    0 -0.40500343480E+02 -0.81342084184E+03 -0.21491799722E+04  0.22983185803E+04  0.00000000000E+00 0.  1.
        -13    1    3    3    0    0  0.36403237557E+02 -0.51436841621E+03 -0.12736166079E+04  0.13740448782E+04  0.00000000000E+00 0. -1.
         22    1    1    2    0    0  0.40971059230E+01  0.13277892580E+04  0.13263807996E+04  0.18767863825E+04  0.00000000000E+00 0. -1.
<mgrwt>
<rscale>  0 0.51379086E+04</rscale>
<asrwt>0</asrwt>
<pdfrwt beam="1">  1        2 0.58812043E+00 0.51379086E+04</pdfrwt>
<pdfrwt beam="2">  1       -2 0.26559493E+00 0.51379086E+04</pdfrwt>
<totfact> 0.17457901E-02</totfact>
</mgrwt>
</event>
<event>
 6    1  0.1719556E-004  0.1341844E+04  0.7818608E-02  0.8997025E-01
          1   -1    0    0  501    0  0.00000000000E+00  0.00000000000E+00  0.99173457052E+03  0.99173457052E+03  0.00000000000E+00 0. -1.
         -1   -1    0    0    0  501 -0.00000000000E+00 -0.00000000000E+00 -0.45388795350E+03  0.45388795350E+03  0.00000000000E+00 0.  1.
         23    2    1    2    0    0  0.22584133112E+03 -0.34434953134E+03 -0.29603186040E+03  0.51560412546E+03  0.92907724332E+02 0.  0.
         13    1    3    3    0    0  0.18521549645E+03 -0.29111799419E+03 -0.20090179098E+03  0.39926932800E+03  0.00000000000E+00 0. -1.
        -13    1    3    3    0    0  0.40625834667E+02 -0.53231537151E+02 -0.95130069427E+02  0.11633479746E+03  0.00000000000E+00 0.  1.
         22    1    1    2    0    0 -0.22584133112E+03  0.34434953134E+03  0.83387847742E+03  0.93001839857E+03  0.00000000000E+00 0. -1.
<mgrwt>
<rscale>  0 0.13418441E+04</rscale>
<asrwt>0</asrwt>
<pdfrwt beam="1">  1        1 0.15257455E+00 0.13418441E+04</pdfrwt>
<pdfrwt beam="2">  1       -1 0.69828916E-01 0.13418441E+04</pdfrwt>
<totfact> 0.31198567E+01</totfact>
</mgrwt>
</event>
<event>
 6    1  0.1719556E-004  0.1364566E+04  0.7818608E-02  0.8979874E-01
          1   -1    0    0  501    0  0.00000000000E+00  0.00000000000E+00  0.42580393377E+03  0.42580393377E+03  0.00000000000E+00 0.  1.
         -1   -1    0    0    0  501 -0.00000000000E+00 -0.00000000000E+00 -0.10932506273E+04  0.10932506273E+04  0.00000000000E+00 0. -1.
         23    2    1    2    0    0  0.19703444441E+03  0.62757155441E+03 -0.14716862847E+03  0.68039021035E+03  0.92755619452E+02 0.  0.
         11    1    3    3    0    0  0.20976586865E+02  0.20969645603E+03 -0.41453896504E+02  0.21478139212E+03  0.00000000000E+00 0.  1.
        -11    1    3    3    0    0  0.17605785755E+03  0.41787509838E+03 -0.10571473197E+03  0.46560881822E+03  0.00000000000E+00 0. -1.
         22    1    1    2    0    0 -0.19703444441E+03 -0.62757155441E+03 -0.52027806505E+03  0.83866435071E+03  0.00000000000E+00 0. -1.
<mgrwt>
<rscale>  0 0.13645665E+04</rscale>
<asrwt>0</asrwt>
<pdfrwt beam="1">  1        1 0.65508297E-01 0.13645665E+04</pdfrwt>
<pdfrwt beam="2">  1       -1 0.16819241E+00 0.13645665E+04</pdfrwt>
<totfact> 0.13687244E+01</totfact>
</mgrwt>
</event>
<event>
 6    1  0.1719556E-004  0.3412289E+04  0.7818608E-02  0.8134897E-01
          1   -1    0    0  501    0  0.00000000000E+00  0.00000000000E+00  0.13008268211E+04  0.13008268211E+04  0.00000000000E+00 0.  1.
         -1   -1    0    0    0  501 -0.00000000000E+00 -0.00000000000E+00 -0.22377528552E+04  0.22377528552E+04  0.00000000000E+00 0. -1.
         23    2    1    2    0    0 -0.16194113704E+04  0.34800698772E+03 -0.49917470941E+02  0.16596474686E+04  0.91301237113E+02 0.  0.
         11    1    3    3    0    0 -0.28540000683E+03  0.27181038788E+02  0.93894887432E-02  0.28669142445E+03  0.00000000000E+00 0. -1.
        -11    1    3    3    0    0 -0.13340113636E+04  0.32082594893E+03 -0.49926860429E+02  0.13729560441E+04  0.00000000000E+00 0.  1.
         22    1    1    2    0    0  0.16194113704E+04 -0.34800698772E+03 -0.88700856316E+03  0.18789322078E+04  0.00000000000E+00 0. -1.
<mgrwt>
<rscale>  0 0.34122889E+04</rscale>
<asrwt>0</asrwt>
<pdfrwt beam="1">  1        1 0.20012720E+00 0.34122889E+04</pdfrwt>
<pdfrwt beam="2">  1       -1 0.34426967E+00 0.34122889E+04</pdfrwt>
<totfact> 0.12583360E-01</totfact>
</mgrwt>
</event>
<event>
 6    1  0.1719556E-004  0.1314683E+04  0.7818608E-02  0.9018002E-01
          2   -1    0    0  501    0  0.00000000000E+00  0.00000000000E+00  0.82443955354E+03  0.82443955354E+03  0.00000000000E+00 0.  1.
         -2   -1    0    0    0  501 -0.00000000000E+00 -0.00000000000E+00 -0.52411070733E+03  0.52411070733E+03  0.00000000000E+00 0. -1.
         23    2    1    2    0    0 -0.10049246307E+03 -0.13072112247E+03 -0.49846056183E+03  0.53292089322E+03  0.91405687658E+02 0.  0.
         11    1    3    3    0    0 -0.10757638462E+03 -0.10826059793E+03 -0.33952983338E+03  0.37225467539E+03  0.00000000000E+00 0.  1.
        -11    1    3    3    0    0  0.70839215532E+01 -0.22460524547E+02 -0.15893072844E+03  0.16066621783E+03  0.00000000000E+00 0. -1.
         22    1    1    2    0    0  0.10049246307E+03  0.13072112247E+03  0.79878940804E+03  0.81562936766E+03  0.00000000000E+00 0.  1.
<mgrwt>
<rscale>  0 0.13146826E+04</rscale>
<asrwt>0</asrwt>
<pdfrwt beam="1">  1        2 0.12683685E+00 0.13146826E+04</pdfrwt>
<pdfrwt beam="2">  1       -2 0.80632417E-01 0.13146826E+04</pdfrwt>
<totfact> 0.44009031E+01</totfact>
</mgrwt>
</event>
<event>
 6    1  0.1719556E-004  0.2995436E+04  0.7818608E-02  0.8245035E-01
         -2   -1    0    0    0  501 -0.00000000000E+00  0.00000000000E+00  0.16111004224E+04  0.16111004224E+04  0.00000000000E+00 0. -1.
          2   -1    0    0  501    0  0.00000000000E+00 -0.00000000000E+00 -0.13923152976E+04  0.13923152976E+04  0.00000000000E+00 0.  1.
         23    2    1    2    0    0 -0.86824889204E+03 -0.10502235010E+04  0.72933988000E+03  0.15482553513E+04  0.91282154652E+02 0.  0.
         13    1    3    3    0    0 -0.50974745145E+03 -0.54733867667E+03  0.38719340986E+03  0.84222373980E+03  0.00000000000E+00 0. -1.
        -13    1    3    3    0    0 -0.35850144060E+03 -0.50288482428E+03  0.34214647014E+03  0.70603161150E+03  0.00000000000E+00 0.  1.
         22    1    1    2    0    0  0.86824889204E+03  0.10502235010E+04 -0.51055475528E+03  0.14551603687E+04  0.00000000000E+00 0.  1.
<mgrwt>
<rscale>  0 0.29954364E+04</rscale>
<asrwt>0</asrwt>
<pdfrwt beam="1">  1        2 0.21420235E+00 0.29954364E+04</pdfrwt>
<pdfrwt beam="2">  1       -2 0.24786160E+00 0.29954364E+04</pdfrwt>
<totfact> 0.82922490E-01</totfact>
</mgrwt>
</event>
<event>
 6    1  0.1719556E-004  0.3463166E+04  0.7818608E-02  0.8122575E-01
         -2   -1    0    0    0  501 -0.00000000000E+00  0.00000000000E+00  0.88751728632E+03  0.88751728632E+03  0.00000000000E+00 0. -1.
          2   -1    0    0  501    0  0.00000000000E+00 -0.00000000000E+00 -0.33783910714E+04  0.33783910714E+04  0.00000000000E+00 0.  1.
         23    2    1    2    0    0  0.14387737975E+04 -0.95359437507E+03 -0.13963230213E+04  0.22220263535E+04  0.90944287185E+02 0.  0.
         11    1    3    3    0    0  0.35772745501E+03 -0.22414668279E+03 -0.39069196540E+03  0.57519638325E+03  0.00000000000E+00 0. -1.
        -11    1    3    3    0    0  0.10810463425E+04 -0.72944769228E+03 -0.10056310559E+04  0.16468299703E+04  0.00000000000E+00 0.  1.
         22    1    1    2    0    0 -0.14387737975E+04  0.95359437507E+03 -0.10945507638E+04  0.20438820042E+04  0.00000000000E+00 0.  1.
<mgrwt>
<rscale>  0 0.34631665E+04</rscale>
<asrwt>0</asrwt>
<pdfrwt beam="1">  1        2 0.51975246E+00 0.34631665E+04</pdfrwt>
<pdfrwt beam="2">  1       -2 0.13654112E+00 0.34631665E+04</pdfrwt>
<totfact> 0.31108681E-01</totfact>
</mgrwt>
</event>
<event>
 6    1  0.1719556E-004  0.3842387E+04  0.7818608E-02  0.8037119E-01
          2   -1    0    0  501    0  0.00000000000E+00  0.00000000000E+00  0.33339512247E+04  0.33339512247E+04  0.00000000000E+00 0.  1.
         -2   -1    0    0    0  501 -0.00000000000E+00 -0.00000000000E+00 -0.11070900068E+04  0.11070900068E+04  0.00000000000E+00 0. -1.
         23    2    1    2    0    0 -0.14049535997E+04 -0.62056997241E+03 -0.21790391313E+03  0.15538491260E+04  0.89237228872E+02 0.  0.
         11    1    3    3    0    0 -0.47347228179E+03 -0.16344446278E+03 -0.71964699649E+02  0.50603261954E+03  0.00000000000E+00 0. -1.
        -11    1    3    3    0    0 -0.93148131789E+03 -0.45712550963E+03 -0.14593921348E+03  0.10478165064E+04  0.00000000000E+00 0.  1.
         22    1    1    2    0    0  0.14049535997E+04  0.62056997241E+03  0.24447651310E+04  0.28871921055E+04  0.00000000000E+00 0.  1.
<mgrwt>
<rscale>  0 0.38423868E+04</rscale>
<asrwt>0</asrwt>
<pdfrwt beam="1">  1        2 0.51291557E+00 0.38423868E+04</pdfrwt>
<pdfrwt beam="2">  1       -2 0.17032154E+00 0.38423868E+04</pdfrwt>
<totfact> 0.17881853E-01</totfact>
</mgrwt>
</event>
<event>
 6    1  0.1719556E-004  0.1442321E+04  0.7818608E-02  0.8923741E-01
          1   -1    0    0  501    0  0.00000000000E+00  0.00000000000E+00  0.22473886437E+04  0.22473886437E+04  0.00000000000E+00 0. -1.
         -1   -1    0    0    0  501 -0.00000000000E+00 -0.00000000000E+00 -0.23141202613E+03  0.23141202613E+03  0.00000000000E+00 0.  1.
         23    2    1    2    0    0 -0.49657585947E+02 -0.60154276106E+03  0.16812466554E+04  0.17886095972E+04  0.90633357566E+02 0.  0.
         11    1    3    3    0    0 -0.62124770464E+02 -0.47940474879E+03  0.12497379786E+04  0.13399751548E+04  0.00000000000E+00 0.  1.
        -11    1    3    3    0    0  0.12467184517E+02 -0.12213801227E+03  0.43150867678E+03  0.44863444235E+03  0.00000000000E+00 0. -1.
         22    1    1    2    0    0  0.49657585947E+02  0.60154276106E+03  0.33472996214E+03  0.69019107266E+03  0.00000000000E+00 0.  1.
<mgrwt>
<rscale>  0 0.14423214E+04</rscale>
<asrwt>0</asrwt>
<pdfrwt beam="1">  1        1 0.34575209E+00 0.14423214E+04</pdfrwt>
<pdfrwt beam="2">  1       -1 0.35601852E-01 0.14423214E+04</pdfrwt>
<totfact> 0.14814507E+01</totfact>
</mgrwt>
</event>
<event>
 6    1  0.1719556E-004  0.2015696E+04  0.7818608E-02  0.8599317E-01
          2   -1    0    0  501    0  0.00000000000E+00  0.00000000000E+00  0.18350487359E+04  0.18350487359E+04  0.00000000000E+00 0.  1.
         -2   -1    0    0    0  501 -0.00000000000E+00 -0.00000000000E+00 -0.55353193112E+03  0.55353193112E+03  0.00000000000E+00 0. -1.
         23    2    1    2    0    0  0.16549896587E+03 -0.69128337504E+03 -0.20107213299E+03  0.74439923825E+03  0.91856469224E+02 0.  0.
         13    1    3    3    0    0  0.63884360701E+02 -0.15588603676E+03 -0.17587861370E+02  0.16938418127E+03  0.00000000000E+00 0. -1.
        -13    1    3    3    0    0  0.10161460517E+03 -0.53539733828E+03 -0.18348427161E+03  0.57501505698E+03  0.00000000000E+00 0.  1.
         22    1    1    2    0    0 -0.16549896587E+03  0.69128337504E+03  0.14825889378E+04  0.16441814288E+04  0.00000000000E+00 0.  1.
<mgrwt>
<rscale>  0 0.20156965E+04</rscale>
<asrwt>0</asrwt>
<pdfrwt beam="1">  1        2 0.28231519E+00 0.20156965E+04</pdfrwt>
<pdfrwt beam="2">  1       -2 0.85158760E-01 0.20156965E+04</pdfrwt>
<totfact> 0.91847079E+00</totfact>
</mgrwt>
</event>
<event>
 6    1  0.1719556E-004  0.2195390E+04  0.7818608E-02  0.8520349E-01
         -2   -1    0    0    0  501 -0.00000000000E+00  0.00000000000E+00  0.77447357986E+03  0.77447357986E+03  0.00000000000E+00 0. -1.
          2   -1    0    0  501    0  0.00000000000E+00 -0.00000000000E+00 -0.15558110666E+04  0.15558110666E+04  0.00000000000E+00 0.  1.
         23    2    1    2    0    0  0.55396012982E+02  0.80486297221E+03 -0.11785036679E+04  0.14310549218E+04  0.90411126560E+02 0.  0.
         11    1    3    3    0    0  0.40180447722E+02  0.15489886287E+03 -0.27057294256E+03  0.31435305525E+03  0.00000000000E+00 0.  1.
        -11    1    3    3    0    0  0.15215565260E+02  0.64996410934E+03 -0.90793072534E+03  0.11167018666E+04  0.00000000000E+00 0. -1.
         22    1    1    2    0    0 -0.55396012982E+02 -0.80486297221E+03  0.39716618111E+03  0.89922972466E+03  0.00000000000E+00 0. -1.
<mgrwt>
<rscale>  0 0.21953902E+04</rscale>
<asrwt>0</asrwt>
<pdfrwt beam="1">  1        2 0.23935555E+00 0.21953902E+04</pdfrwt>
<pdfrwt beam="2">  1       -2 0.11914978E+00 0.21953902E+04</pdfrwt>
<totfact> 0.58358881E+00</totfact>
</mgrwt>
</event>
<event>
 6    1  0.1719556E-004  0.9493505E+03  0.7818608E-02  0.9365910E-01
         -1   -1    0    0    0  501 -0.00000000000E+00  0.00000000000E+00  0.36432369252E+03  0.36432369252E+03  0.00000000000E+00 0.  1.
          1   -1    0    0  501    0  0.00000000000E+00 -0.00000000000E+00 -0.61845170263E+03  0.61845170263E+03  0.00000000000E+00 0. -1.
         23    2    1    2    0    0  0.20311618389E+03  0.39509327265E+03  0.33223495205E+02  0.45369528226E+03  0.85911176561E+02 0.  0.
         11    1    3    3    0    0  0.16490175289E+03  0.24676083853E+03 -0.78406565722E+00  0.29678968024E+03  0.00000000000E+00 0. -1.
        -11    1    3    3    0    0  0.38214431001E+02  0.14833243412E+03  0.34007560862E+02  0.15690560202E+03  0.00000000000E+00 0.  1.
         22    1    1    2    0    0 -0.20311618389E+03 -0.39509327265E+03 -0.28735150531E+03  0.52908011289E+03  0.00000000000E+00 0. -1.
<mgrwt>
<rscale>  0 0.94935053E+03</rscale>
<asrwt>0</asrwt>
<pdfrwt beam="1">  1        1 0.95146414E-01 0.94935053E+03</pdfrwt>
<pdfrwt beam="2">  1       -1 0.56049800E-01 0.94935053E+03</pdfrwt>
<totfact> 0.10610666E+02</totfact>
</mgrwt>
</event>
<event>
 6    1  0.1719556E-004  0.1856246E+04  0.7818608E-02  0.8676947E-01
         -2   -1    0    0    0  501 -0.00000000000E+00  0.00000000000E+00  0.41154646758E+03  0.41154646758E+03  0.00000000000E+00 0. -1.
          2   -1    0    0  501    0  0.00000000000E+00 -0.00000000000E+00 -0.20931113531E+04  0.20931113531E+04  0.00000000000E+00 0.  1.
         23    2    1    2    0    0 -0.70161247278E+03  0.17362719764E+03 -0.16236531341E+04  0.17795645600E+04  0.90521033600E+02 0.  0.
         13    1    3    3    0    0 -0.10853083583E+03  0.59795835244E+02 -0.30455181869E+03  0.32879521667E+03  0.00000000000E+00 0. -1.
        -13    1    3    3    0    0 -0.59308163695E+03  0.11383136240E+03 -0.13191013154E+04  0.14507693433E+04  0.00000000000E+00 0.  1.
         22    1    1    2    0    0  0.70161247278E+03 -0.17362719764E+03 -0.57911751379E+02  0.72509326067E+03  0.00000000000E+00 0. -1.
<mgrwt>
<rscale>  0 0.18562463E+04</rscale>
<asrwt>0</asrwt>
<pdfrwt beam="1">  1        2 0.32201714E+00 0.18562463E+04</pdfrwt>
<pdfrwt beam="2">  1       -2 0.63314840E-01 0.18562463E+04</pdfrwt>
<totfact> 0.12869608E+01</totfact>
</mgrwt>
</event>
<event>
 6    1  0.1719556E-004  0.2489048E+04  0.7818608E-02  0.8406898E-01
         -1   -1    0    0    0  501 -0.00000000000E+00  0.00000000000E+00  0.14380598998E+04  0.14380598998E+04  0.00000000000E+00 0. -1.
          1   -1    0    0  501    0  0.00000000000E+00 -0.00000000000E+00 -0.10770346871E+04  0.10770346871E+04  0.00000000000E+00 0.  1.
         23    2    1    2    0    0 -0.63394022661E+03  0.60392654790E+02  0.12599334582E+04  0.14134759970E+04  0.70388857919E+02 0.  0.
         13    1    3    3    0    0 -0.52768427904E+03  0.41897291080E+02  0.98666488055E+03  0.11196935598E+04  0.00000000000E+00 0.  1.
        -13    1    3    3    0    0 -0.10625594757E+03  0.18495363710E+02  0.27326857766E+03  0.29378243720E+03  0.00000000000E+00 0. -1.
         22    1    1    2    0    0  0.63394022661E+03 -0.60392654790E+02 -0.89890824549E+03  0.11016185898E+04  0.00000000000E+00 0.  1.
<mgrwt>
<rscale>  0 0.24890483E+04</rscale>
<asrwt>0</asrwt>
<pdfrwt beam="1">  1        1 0.16569764E+00 0.24890483E+04</pdfrwt>
<pdfrwt beam="2">  1       -1 0.22123998E+00 0.24890483E+04</pdfrwt>
<totfact> 0.12669452E+00</totfact>
</mgrwt>
</event>
<event>
 6    1  0.1719556E-004  0.2094889E+04  0.7818608E-02  0.8563498E-01
          1   -1    0    0  501    0  0.00000000000E+00  0.00000000000E+00  0.24807734582E+04  0.24807734582E+04  0.00000000000E+00 0.  1.
         -1   -1    0    0    0  501 -0.00000000000E+00 -0.00000000000E+00 -0.44225703320E+03  0.44225703320E+03  0.00000000000E+00 0. -1.
         23    2    1    2    0    0  0.34774318430E+03 -0.51073306793E+03 -0.15535638713E+03  0.64380880304E+03  0.92631414420E+02 0.  0.
         13    1    3    3    0    0  0.30837802451E+03 -0.47766413405E+03 -0.11910388875E+03  0.58090082396E+03  0.00000000000E+00 0.  1.
        -13    1    3    3    0    0  0.39365159795E+02 -0.33068933886E+02 -0.36252498372E+02  0.62907979083E+02  0.00000000000E+00 0. -1.
         22    1    1    2    0    0 -0.34774318430E+03  0.51073306793E+03  0.21938728122E+04  0.22792216884E+04  0.00000000000E+00 0.  1.
<mgrwt>
<rscale>  0 0.20948886E+04</rscale>
<asrwt>0</asrwt>
<pdfrwt beam="1">  1        1 0.38165745E+00 0.20948886E+04</pdfrwt>
<pdfrwt beam="2">  1       -1 0.68039545E-01 0.20948886E+04</pdfrwt>
<totfact> 0.28116493E+00</totfact>
</mgrwt>
</event>
<event>
 6    1  0.1719556E-004  0.4067688E+04  0.7818608E-02  0.7991029E-01
         -2   -1    0    0    0  501 -0.00000000000E+00  0.00000000000E+00  0.10872821047E+04  0.10872821047E+04  0.00000000000E+00 0. -1.
          2   -1    0    0  501    0  0.00000000000E+00 -0.00000000000E+00 -0.38044592210E+04  0.38044592210E+04  0.00000000000E+00 0.  1.
         23    2    1    2    0    0 -0.70813276664E+03  0.51275433995E+03  0.84791683700E+03  0.12210106185E+04  0.86804030927E+02 0.  0.
         13    1    3    3    0    0 -0.24698154452E+02  0.39024569840E+02  0.33434121774E+02  0.57015404789E+02  0.00000000000E+00 0. -1.
        -13    1    3    3    0    0 -0.68343461219E+03  0.47372977011E+03  0.81448271522E+03  0.11639952137E+04  0.00000000000E+00 0.  1.
         22    1    1    2    0    0  0.70813276664E+03 -0.51275433995E+03 -0.35650939533E+04  0.36707307071E+04  0.00000000000E+00 0.  1.
<mgrwt>
<rscale>  0 0.40676875E+04</rscale>
<asrwt>0</asrwt>
<pdfrwt beam="1">  1        2 0.58530140E+00 0.40676875E+04</pdfrwt>
<pdfrwt beam="2">  1       -2 0.16727417E+00 0.40676875E+04</pdfrwt>
<totfact> 0.84982767E-02</totfact>
</mgrwt>
</event>
<event>
 6    1  0.1719556E-004  0.8206302E+03  0.7818608E-02  0.9530627E-01
         -2   -1    0    0    0  501 -0.00000000000E+00  0.00000000000E+00  0.17898408410E+03  0.17898408410E+03  0.00000000000E+00 0. -1.
          2   -1    0    0  501    0  0.00000000000E+00 -0.00000000000E+00 -0.94063370466E+03  0.94063370466E+03  0.00000000000E+00 0.  1.
         23    2    1    2    0    0 -0.17231799460E+03  0.20364121088E+01  0.11540056126E+03  0.22579752737E+03  0.89272591469E+02 0.  0.
         11    1    3    3    0    0 -0.12872345559E+03  0.35539798825E+02  0.55854049915E+02  0.14474971576E+03  0.00000000000E+00 0.  1.
        -11    1    3    3    0    0 -0.43594539010E+02 -0.33503386717E+02  0.59546511349E+02  0.81047811610E+02  0.00000000000E+00 0. -1.
         22    1    1    2    0    0  0.17231799460E+03 -0.20364121088E+01 -0.87705018182E+03  0.89382026139E+03  0.00000000000E+00 0.  1.
<mgrwt>
<rscale>  0 0.82063015E+03</rscale>
<asrwt>0</asrwt>
<pdfrwt beam="1">  1        2 0.14471287E+00 0.82063015E+03</pdfrwt>
<pdfrwt beam="2">  1       -2 0.27536014E-01 0.82063015E+03</pdfrwt>
<totfact> 0.33222912E+02</totfact>
</mgrwt>
</event>
<event>
 6    1  0.1719556E-004  0.5702486E+04  0.7818608E-02  0.7728425E-01
          1   -1    0    0  501    0  0.00000000000E+00  0.00000000000E+00  0.37173680574E+04  0.37173680574E+04  0.00000000000E+00 0. -1.
         -1   -1    0    0    0  501 -0.00000000000E+00 -0.00000000000E+00 -0.21869202733E+04  0.21869202733E+04  0.00000000000E+00 0.  1.
         23    2    1    2    0    0 -0.28211362418E+03 -0.81610839531E+03 -0.20473170503E+04  0.22237962142E+04  0.90230193098E+02 0.  0.
         11    1    3    3    0    0 -0.44174957398E+02 -0.54938405070E+02 -0.17994188035E+03  0.19325820944E+03  0.00000000000E+00 0. -1.
        -11    1    3    3    0    0 -0.23793866678E+03 -0.76116999024E+03 -0.18673751700E+04  0.20305380047E+04  0.00000000000E+00 0.  1.
         22    1    1    2    0    0  0.28211362418E+03  0.81610839531E+03  0.35777648344E+04  0.36804921165E+04  0.00000000000E+00 0. -1.
<mgrwt>
<rscale>  0 0.57024863E+04</rscale>
<asrwt>0</asrwt>
<pdfrwt beam="1">  1        1 0.57190278E+00 0.57024863E+04</pdfrwt>
<pdfrwt beam="2">  1       -1 0.33644927E+00 0.57024863E+04</pdfrwt>
<totfact> 0.21740392E-03</totfact>
</mgrwt>
</event>
<event>
 6    1  0.1719556E-004  0.7694249E+03  0.7818608E-02  0.9605359E-01
          2   -1    0    0  501    0  0.00000000000E+00  0.00000000000E+00  0.36081644910E+03  0.36081644910E+03  0.00000000000E+00 0. -1.
         -2   -1    0    0    0  501 -0.00000000000E+00 -0.00000000000E+00 -0.41019101897E+03  0.41019101897E+03  0.00000000000E+00 0.  1.
         23    2    1    2    0    0  0.16076655036E+03  0.46464061382E+02 -0.36618816072E+03  0.41271199774E+03  0.90733848776E+02 0.  0.
         13    1    3    3    0    0  0.15787445098E+01  0.12097655097E+02 -0.99397946967E+02  0.10014388426E+03  0.00000000000E+00 0. -1.
        -13    1    3    3    0    0  0.15918780585E+03  0.34366406285E+02 -0.26679021375E+03  0.31256811348E+03  0.00000000000E+00 0.  1.
         22    1    1    2    0    0 -0.16076655036E+03 -0.46464061382E+02  0.31681359085E+03  0.35829547034E+03  0.00000000000E+00 0. -1.
<mgrwt>
<rscale>  0 0.76942489E+03</rscale>
<asrwt>0</asrwt>
<pdfrwt beam="1">  1        2 0.55510223E-01 0.76942489E+03</pdfrwt>
<pdfrwt beam="2">  1       -2 0.63106311E-01 0.76942489E+03</pdfrwt>
<totfact> 0.20951568E+02</totfact>
</mgrwt>
</event>
<event>
 6    1  0.1719556E-004  0.4152407E+04  0.7818608E-02  0.7974488E-01
         -2   -1    0    0    0  501 -0.00000000000E+00  0.00000000000E+00  0.19476449963E+04  0.19476449963E+04  0.00000000000E+00 0. -1.
          2   -1    0    0  501    0  0.00000000000E+00 -0.00000000000E+00 -0.22132482422E+04  0.22132482422E+04  0.00000000000E+00 0.  1.
         23    2    1    2    0    0 -0.81425729623E+03  0.14099770125E+04  0.11564087862E+04  0.19991420179E+04  0.90760159986E+02 0.  0.
         11    1    3    3    0    0 -0.16435297808E+03  0.30930334216E+03  0.20646968289E+03  0.40658355700E+03  0.00000000000E+00 0.  1.
        -11    1    3    3    0    0 -0.64990431815E+03  0.11006736703E+04  0.94993910327E+03  0.15925584609E+04  0.00000000000E+00 0. -1.
         22    1    1    2    0    0  0.81425729623E+03 -0.14099770125E+04 -0.14220120320E+04  0.21617512205E+04  0.00000000000E+00 0.  1.
<mgrwt>
<rscale>  0 0.41524074E+04</rscale>
<asrwt>0</asrwt>
<pdfrwt beam="1">  1        2 0.34049973E+00 0.41524074E+04</pdfrwt>
<pdfrwt beam="2">  1       -2 0.29963769E+00 0.41524074E+04</pdfrwt>
<totfact> 0.12636393E-01</totfact>
</mgrwt>
</event>
<event>
 6    1  0.1719556E-004  0.1735924E+04  0.7818608E-02  0.8741137E-01
          2   -1    0    0  501    0  0.00000000000E+00  0.00000000000E+00  0.20866535510E+04  0.20866535510E+04  0.00000000000E+00 0.  1.
         -2   -1    0    0    0  501 -0.00000000000E+00 -0.00000000000E+00 -0.36103638916E+03  0.36103638916E+03  0.00000000000E+00 0. -1.
         23    2    1    2    0    0 -0.34550665174E+03 -0.68482754555E+03  0.14307489374E+04  0.16259169281E+04  0.90552315509E+02 0.  0.
         13    1    3    3    0    0 -0.15890407962E+03 -0.41225375708E+03  0.79906440830E+03  0.91307589792E+03  0.00000000000E+00 0.  1.
        -13    1    3    3    0    0 -0.18660257213E+03 -0.27257378847E+03  0.63168452908E+03  0.71284103022E+03  0.00000000000E+00 0. -1.
         22    1    1    2    0    0  0.34550665174E+03  0.68482754555E+03  0.29486822450E+03  0.82177301207E+03  0.00000000000E+00 0. -1.
<mgrwt>
<rscale>  0 0.17359238E+04</rscale>
<asrwt>0</asrwt>
<pdfrwt beam="1">  1        2 0.32102362E+00 0.17359238E+04</pdfrwt>
<pdfrwt beam="2">  1       -2 0.55544061E-01 0.17359238E+04</pdfrwt>
<totfact> 0.17279645E+01</totfact>
</mgrwt>
</event>
<event>
 6    1  0.1719556E-004  0.3491062E+04  0.7818608E-02  0.8115911E-01
          2   -1    0    0  501    0  0.00000000000E+00  0.00000000000E+00  0.24233050291E+04  0.24233050291E+04  0.00000000000E+00 0.  1.
         -2   -1    0    0    0  501 -0.00000000000E+00 -0.00000000000E+00 -0.12573233437E+04  0.12573233437E+04  0.00000000000E+00 0. -1.
         23    2    1    2    0    0  0.92752538489E+03  0.14143777955E+04  0.13367341175E+03  0.16991066696E+04  0.91252428702E+02 0.  0.
         11    1    3    3    0    0  0.86336988028E+03  0.13532829931E+04  0.12813803544E+03  0.16103421269E+04  0.00000000000E+00 0.  1.
        -11    1    3    3    0    0  0.64155504603E+02  0.61094802389E+02  0.55353763124E+01  0.88764542699E+02  0.00000000000E+00 0. -1.
         22    1    1    2    0    0 -0.92752538489E+03 -0.14143777955E+04  0.10323082736E+04  0.19815217031E+04  0.00000000000E+00 0.  1.
<mgrwt>
<rscale>  0 0.34910617E+04</rscale>
<asrwt>0</asrwt>
<pdfrwt beam="1">  1        2 0.37281616E+00 0.34910617E+04</pdfrwt>
<pdfrwt beam="2">  1       -2 0.19343436E+00 0.34910617E+04</pdfrwt>
<totfact> 0.46596846E-01</totfact>
</mgrwt>
</event>
<event>
 6    1  0.1719556E-004  0.2987296E+04  0.7818608E-02  0.8247368E-01
         -1   -1    0    0    0  501 -0.00000000000E+00  0.00000000000E+00  0.20365040394E+04  0.20365040394E+04  0.00000000000E+00 0. -1.
          1   -1    0    0  501    0  0.00000000000E+00 -0.00000000000E+00 -0.10954974588E+04  0.10954974588E+04  0.00000000000E+00 0.  1.
         23    2    1    2    0    0  0.56154181929E+03 -0.64396416897E+03 -0.81162692454E+03  0.11821955414E+04  0.93962586691E+02 0.  0.
         13    1    3    3    0    0  0.26355534021E+03 -0.36201500110E+03 -0.45883582765E+03  0.64112915634E+03  0.00000000000E+00 0.  1.
        -13    1    3    3    0    0  0.29798647908E+03 -0.28194916787E+03 -0.35279109689E+03  0.54106638504E+03  0.00000000000E+00 0. -1.
         22    1    1    2    0    0 -0.56154181929E+03  0.64396416897E+03  0.17526335052E+04  0.19498059568E+04  0.00000000000E+00 0. -1.
<mgrwt>
<rscale>  0 0.29872964E+04</rscale>
<asrwt>0</asrwt>
<pdfrwt beam="1">  1        1 0.16853807E+00 0.29872964E+04</pdfrwt>
<pdfrwt beam="2">  1       -1 0.31330831E+00 0.29872964E+04</pdfrwt>
<totfact> 0.29456914E-01</totfact>
</mgrwt>
</event>
<event>
 6    1  0.1719556E-004  0.1843500E+04  0.7818608E-02  0.8683502E-01
          2   -1    0    0  501    0  0.00000000000E+00  0.00000000000E+00  0.34201362602E+04  0.34201362602E+04  0.00000000000E+00 0.  1.
         -2   -1    0    0    0  501 -0.00000000000E+00 -0.00000000000E+00 -0.24841803237E+03  0.24841803237E+03  0.00000000000E+00 0. -1.
         23    2    1    2    0    0  0.32019730365E+03  0.35013656398E+03  0.31571130608E+04  0.31938594037E+04  0.90846490207E+02 0.  0.
         13    1    3    3    0    0  0.67864550359E+02  0.73534284073E+02  0.94526297418E+03  0.95054456944E+03  0.00000000000E+00 0. -1.
        -13    1    3    3    0    0  0.25233275329E+03  0.27660227991E+03  0.22118500866E+04  0.22433148342E+04  0.00000000000E+00 0.  1.
         22    1    1    2    0    0 -0.32019730365E+03 -0.35013656398E+03  0.14605167055E+02  0.47469488896E+03  0.00000000000E+00 0. -1.
<mgrwt>
<rscale>  0 0.18435005E+04</rscale>
<asrwt>0</asrwt>
<pdfrwt beam="1">  1        2 0.52617478E+00 0.18435005E+04</pdfrwt>
<pdfrwt beam="2">  1       -2 0.38218161E-01 0.18435005E+04</pdfrwt>
<totfact> 0.56554445E+00</totfact>
</mgrwt>
</event>
<event>
 6    1  0.1719556E-004  0.3427833E+04  0.7818608E-02  0.8131109E-01
          2   -1    0    0  501    0  0.00000000000E+00  0.00000000000E+00  0.21122274329E+04  0.21122274329E+04  0.00000000000E+00 0.  1.
         -2   -1    0    0    0  501 -0.00000000000E+00 -0.00000000000E+00 -0.13907165446E+04  0.13907165446E+04  0.00000000000E+00 0. -1.
         23    2    1    2    0    0 -0.14282997252E+04  0.65307900638E+02 -0.60252462369E+03  0.15542584554E+04  0.91532491018E+02 0.  0.
         11    1    3    3    0    0 -0.54920904612E+03 -0.18739979498E+02 -0.22261408802E+03  0.59290707144E+03  0.00000000000E+00 0. -1.
        -11    1    3    3    0    0 -0.87909067911E+03  0.84047880136E+02 -0.37991053568E+03  0.96135138392E+03  0.00000000000E+00 0.  1.
         22    1    1    2    0    0  0.14282997252E+04 -0.65307900638E+02  0.13240355120E+04  0.19486855221E+04  0.00000000000E+00 0.  1.
<mgrwt>
<rscale>  0 0.34278329E+04</rscale>
<asrwt>0</asrwt>
<pdfrwt beam="1">  1        2 0.32495807E+00 0.34278329E+04</pdfrwt>
<pdfrwt beam="2">  1       -2 0.21395639E+00 0.34278329E+04</pdfrwt>
<totfact> 0.51635279E-01</totfact>
</mgrwt>
</event>
<event>
 6    1  0.1719556E-004  0.2069117E+04  0.7818608E-02  0.8574971E-01
         -2   -1    0    0    0  501 -0.00000000000E+00  0.00000000000E+00  0.29116357436E+03  0.29116357436E+03  0.00000000000E+00 0. -1.
          2   -1    0    0  501    0  0.00000000000E+00 -0.00000000000E+00 -0.36759787129E+04  0.36759787129E+04  0.00000000000E+00 0.  1.
         23    2    1    2    0    0 -0.95700947814E+03  0.30296546058E+03 -0.21598481223E+04  0.23834127010E+04  0.89760683048E+02 0.  0.
         11    1    3    3    0    0 -0.23434609073E+03  0.87474201357E+02 -0.62870222152E+03  0.67663602438E+03  0.00000000000E+00 0. -1.
        -11    1    3    3    0    0 -0.72266338740E+03  0.21549125923E+03 -0.15311459008E+04  0.17067766766E+04  0.00000000000E+00 0.  1.
         22    1    1    2    0    0  0.95700947814E+03 -0.30296546058E+03 -0.12249670162E+04  0.15837295862E+04  0.00000000000E+00 0. -1.
<mgrwt>
<rscale>  0 0.20691168E+04</rscale>
<asrwt>0</asrwt>
<pdfrwt beam="1">  1        2 0.56553522E+00 0.20691168E+04</pdfrwt>
<pdfrwt beam="2">  1       -2 0.44794393E-01 0.20691168E+04</pdfrwt>
<totfact> 0.26713829E+00</totfact>
</mgrwt>
</event>
<event>
 6    1  0.1719556E-004  0.3872611E+04  0.7818608E-02  0.8030750E-01
         -1   -1    0    0    0  501 -0.00000000000E+00  0.00000000000E+00  0.12478383760E+04  0.12478383760E+04  0.00000000000E+00 0. -1.
          1   -1    0    0  501    0  0.00000000000E+00 -0.00000000000E+00 -0.30046188630E+04  0.30046188630E+04  0.00000000000E+00 0.  1.
         23    2    1    2    0    0 -0.14712336869E+04  0.11092190499E+04 -0.22844000548E+03  0.18585649921E+04  0.84755717355E+02 0.  0.
         11    1    3    3    0    0 -0.71778062908E+03  0.49178718385E+03 -0.92305633628E+02  0.87497656865E+03  0.00000000000E+00 0. -1.
        -11    1    3    3    0    0 -0.75345305787E+03  0.61743186607E+03 -0.13613437185E+03  0.98358842350E+03  0.00000000000E+00 0.  1.
         22    1    1    2    0    0  0.14712336869E+04 -0.11092190499E+04 -0.15283404815E+04  0.23938922469E+04  0.00000000000E+00 0.  1.
<mgrwt>
<rscale>  0 0.38726109E+04</rscale>
<asrwt>0</asrwt>
<pdfrwt beam="1">  1        1 0.46224905E+00 0.38726109E+04</pdfrwt>
<pdfrwt beam="2">  1       -1 0.19197514E+00 0.38726109E+04</pdfrwt>
<totfact> 0.80236801E-02</totfact>
</mgrwt>
</event>
<event>
 6    1  0.1719556E-004  0.1049117E+04  0.7818608E-02  0.9256256E-01
          2   -1    0    0  501    0  0.00000000000E+00  0.00000000000E+00  0.17957167942E+04  0.17957167942E+04  0.00000000000E+00 0.  1.
         -2   -1    0    0    0  501 -0.00000000000E+00 -0.00000000000E+00 -0.15323213596E+03  0.15323213596E+03  0.00000000000E+00 0. -1.
         23    2    1    2    0    0  0.48636903642E+03  0.12740031701E+03  0.57755343667E+03  0.77129694971E+03  0.92440965338E+02 0.  0.
         13    1    3    3    0    0  0.43746565728E+03  0.10994102795E+03  0.46761894952E+03  0.64971587089E+03  0.00000000000E+00 0. -1.
        -13    1    3    3    0    0  0.48903379134E+02  0.17459289062E+02  0.10993448714E+03  0.12158107883E+03  0.00000000000E+00 0.  1.
         22    1    1    2    0    0 -0.48636903642E+03 -0.12740031701E+03  0.10649312216E+04  0.11776519804E+04  0.00000000000E+00 0.  1.
<mgrwt>
<rscale>  0 0.10491168E+04</rscale>
<asrwt>0</asrwt>
<pdfrwt beam="1">  1        2 0.27626411E+00 0.10491168E+04</pdfrwt>
<pdfrwt beam="2">  1       -2 0.23574176E-01 0.10491168E+04</pdfrwt>
<totfact> 0.13793878E+02</totfact>
</mgrwt>
</event>
<event>
 6    1  0.1719556E-004  0.2642927E+04  0.7818608E-02  0.8353764E-01
          2   -1    0    0  501    0  0.00000000000E+00  0.00000000000E+00  0.22795430618E+04  0.22795430618E+04  0.00000000000E+00 0.  1.
         -2   -1    0    0    0  501 -0.00000000000E+00 -0.00000000000E+00 -0.76605935807E+03  0.76605935807E+03  0.00000000000E+00 0. -1.
         23    2    1    2    0    0 -0.30388137458E+03  0.57947508462E+03 -0.56325944714E+03  0.86821927073E+03  0.91696421784E+02 0.  0.
         13    1    3    3    0    0 -0.11575142035E+03  0.31773921450E+03 -0.29944410007E+03  0.45168946059E+03  0.00000000000E+00 0. -1.
        -13    1    3    3    0    0 -0.18812995423E+03  0.26173587012E+03 -0.26381534707E+03  0.41652981014E+03  0.00000000000E+00 0.  1.
         22    1    1    2    0    0  0.30388137458E+03 -0.57947508462E+03  0.20767431509E+04  0.21773831492E+04  0.00000000000E+00 0.  1.
<mgrwt>
<rscale>  0 0.26429266E+04</rscale>
<asrwt>0</asrwt>
<pdfrwt beam="1">  1        2 0.35069893E+00 0.26429266E+04</pdfrwt>
<pdfrwt beam="2">  1       -2 0.11785529E+00 0.26429266E+04</pdfrwt>
<totfact> 0.22786536E+00</totfact>
</mgrwt>
</event>
<event>
 6    1  0.1719556E-004  0.3557914E+04  0.7818608E-02  0.8100200E-01
          2   -1    0    0  501    0  0.00000000000E+00  0.00000000000E+00  0.26904858872E+04  0.26904858872E+04  0.00000000000E+00 0.  1.
         -2   -1    0    0    0  501 -0.00000000000E+00 -0.00000000000E+00 -0.11762517513E+04  0.11762517513E+04  0.00000000000E+00 0. -1.
         23    2    1    2    0    0 -0.45561794822E+02  0.13642601250E+04  0.19955529282E+04  0.24193436541E+04  0.87810372472E+02 0.  0.
         11    1    3    3    0    0  0.75388031679E+01  0.20592629722E+03  0.35286571134E+03  0.40862780581E+03  0.00000000000E+00 0.  1.
        -11    1    3    3    0    0 -0.53100597990E+02  0.11583338278E+04  0.16426872169E+04  0.20107158483E+04  0.00000000000E+00 0. -1.
         22    1    1    2    0    0  0.45561794822E+02 -0.13642601250E+04 -0.48131879237E+03  0.14473939843E+04  0.00000000000E+00 0. -1.
<mgrwt>
<rscale>  0 0.35579144E+04</rscale>
<asrwt>0</asrwt>
<pdfrwt beam="1">  1        2 0.41392090E+00 0.35579144E+04</pdfrwt>
<pdfrwt beam="2">  1       -2 0.18096181E+00 0.35579144E+04</pdfrwt>
<totfact> 0.39281292E-01</totfact>
</mgrwt>
</event>
<event>
 6    1  0.1719556E-004  0.1767117E+04  0.7818608E-02  0.8723984E-01
          2   -1    0    0  501    0  0.00000000000E+00  0.00000000000E+00  0.17319264915E+04  0.17319264915E+04  0.00000000000E+00 0.  1.
         -2   -1    0    0    0  501 -0.00000000000E+00 -0.00000000000E+00 -0.45075572593E+03  0.45075572593E+03  0.00000000000E+00 0. -1.
         23    2    1    2    0    0 -0.16601901033E+03  0.44970014554E+03  0.15556893484E+04  0.16302756779E+04  0.88526292241E+02 0.  0.
         13    1    3    3    0    0 -0.17227166039E+02  0.15260669581E+03  0.43176220406E+03  0.45826212991E+03  0.00000000000E+00 0. -1.
        -13    1    3    3    0    0 -0.14879184429E+03  0.29709344973E+03  0.11239271443E+04  0.11720135480E+04  0.00000000000E+00 0.  1.
         22    1    1    2    0    0  0.16601901033E+03 -0.44970014554E+03 -0.27451858280E+03  0.55240653959E+03  0.00000000000E+00 0. -1.
<mgrwt>
<rscale>  0 0.17671172E+04</rscale>
<asrwt>0</asrwt>
<pdfrwt beam="1">  1        2 0.26645023E+00 0.17671172E+04</pdfrwt>
<pdfrwt beam="2">  1       -2 0.69347036E-01 0.17671172E+04</pdfrwt>
<totfact> 0.16904893E+01</totfact>
</mgrwt>
</event>
<event>
 6    1  0.1719556E-004  0.3048288E+04  0.7818608E-02  0.8230075E-01
         -2   -1    0    0    0  501 -0.00000000000E+00  0.00000000000E+00  0.17435889926E+04  0.17435889926E+04  0.00000000000E+00 0. -1.
          2   -1    0    0  501    0  0.00000000000E+00 -0.00000000000E+00 -0.13323180226E+04  0.13323180226E+04  0.00000000000E+00 0.  1.
         23    2    1    2    0    0 -0.55249970904E+03  0.11424289175E+04  0.10552177139E+04  0.16528584675E+04  0.89760401551E+02 0.  0.
         11    1    3    3    0    0 -0.27867045056E+03  0.51277456671E+03  0.43923817327E+03  0.73042805883E+03  0.00000000000E+00 0.  1.
        -11    1    3    3    0    0 -0.27382925848E+03  0.62965435082E+03  0.61597954068E+03  0.92243040867E+03  0.00000000000E+00 0. -1.
         22    1    1    2    0    0  0.55249970904E+03 -0.11424289175E+04 -0.64394674399E+03  0.14230485477E+04  0.00000000000E+00 0. -1.
<mgrwt>
<rscale>  0 0.30482881E+04</rscale>
<asrwt>0</asrwt>
<pdfrwt beam="1">  1        2 0.20497200E+00 0.30482881E+04</pdfrwt>
<pdfrwt beam="2">  1       -2 0.26824446E+00 0.30482881E+04</pdfrwt>
<totfact> 0.67054500E-01</totfact>
</mgrwt>
</event>
<event>
 6    1  0.1719556E-004  0.7880273E+03  0.7818608E-02  0.9577511E-01
          2   -1    0    0  501    0  0.00000000000E+00  0.00000000000E+00  0.94404591485E+03  0.94404591485E+03  0.00000000000E+00 0.  1.
         -2   -1    0    0    0  501 -0.00000000000E+00 -0.00000000000E+00 -0.16444830976E+03  0.16444830976E+03  0.00000000000E+00 0. -1.
         23    2    1    2    0    0  0.32535349260E+03 -0.11080254775E+03  0.14076979840E+03  0.38307498973E+03  0.93798784019E+02 0.  0.
         11    1    3    3    0    0  0.19237556158E+03 -0.85958086055E+02  0.40195973385E+02  0.21450609672E+03  0.00000000000E+00 0. -1.
        -11    1    3    3    0    0  0.13297793102E+03 -0.24844461693E+02  0.10057382502E+03  0.16856889302E+03  0.00000000000E+00 0.  1.
         22    1    1    2    0    0 -0.32535349260E+03  0.11080254775E+03  0.63882780669E+03  0.72541923488E+03  0.00000000000E+00 0.  1.
<mgrwt>
<rscale>  0 0.78802730E+03</rscale>
<asrwt>0</asrwt>
<pdfrwt beam="1">  1        2 0.14523783E+00 0.78802730E+03</pdfrwt>
<pdfrwt beam="2">  1       -2 0.25299740E-01 0.78802730E+03</pdfrwt>
<totfact> 0.38616190E+02</totfact>
</mgrwt>
</event>
<event>
 6    1  0.1719556E-004  0.2594533E+04  0.7818608E-02  0.8370061E-01
          2   -1    0    0  501    0  0.00000000000E+00  0.00000000000E+00  0.17262757038E+04  0.17262757038E+04  0.00000000000E+00 0. -1.
         -2   -1    0    0    0  501 -0.00000000000E+00 -0.00000000000E+00 -0.97487308811E+03  0.97487308811E+03  0.00000000000E+00 0.  1.
         23    2    1    2    0    0 -0.90320980199E+03  0.46615097005E+03 -0.46015042274E+03  0.11197110163E+04  0.94496958235E+02 0.  0.
         11    1    3    3    0    0 -0.56336464773E+03  0.30457834706E+03 -0.24115642301E+03  0.68432749190E+03  0.00000000000E+00 0. -1.
        -11    1    3    3    0    0 -0.33984515426E+03  0.16157262299E+03 -0.21899399973E+03  0.43538352437E+03  0.00000000000E+00 0.  1.
         22    1    1    2    0    0  0.90320980199E+03 -0.46615097005E+03  0.12115530384E+04  0.15814377756E+04  0.00000000000E+00 0. -1.
<mgrwt>
<rscale>  0 0.25945325E+04</rscale>
<asrwt>0</asrwt>
<pdfrwt beam="1">  1        2 0.26558088E+00 0.25945325E+04</pdfrwt>
<pdfrwt beam="2">  1       -2 0.14998048E+00 0.25945325E+04</pdfrwt>
<totfact> 0.25154764E+00</totfact>
</mgrwt>
</event>
<event>
 6    1  0.1719556E-004  0.1179099E+04  0.7818608E-02  0.9131350E-01
          2   -1    0    0  501    0  0.00000000000E+00  0.00000000000E+00  0.32418295186E+04  0.32418295186E+04  0.00000000000E+00 0.  1.
         -2   -1    0    0    0  501 -0.00000000000E+00 -0.00000000000E+00 -0.10721377408E+03  0.10721377408E+03  0.00000000000E+00 0. -1.
         23    2    1    2    0    0 -0.22135973176E+03  0.49413972111E+03  0.22137148187E+04  0.22807583541E+04  0.90283865716E+02 0.  0.
         13    1    3    3    0    0 -0.18492545444E+03  0.43996119539E+03  0.18131258000E+04  0.18748835814E+04  0.00000000000E+00 0. -1.
        -13    1    3    3    0    0 -0.36434277317E+02  0.54178525723E+02  0.40058901862E+03  0.40587477262E+03  0.00000000000E+00 0.  1.
         22    1    1    2    0    0  0.22135973176E+03 -0.49413972111E+03  0.92090092586E+03  0.10682849386E+04  0.00000000000E+00 0. -1.
<mgrwt>
<rscale>  0 0.11790993E+04</rscale>
<asrwt>0</asrwt>
<pdfrwt beam="1">  1        2 0.49874293E+00 0.11790993E+04</pdfrwt>
<pdfrwt beam="2">  1       -2 0.16494429E-01 0.11790993E+04</pdfrwt>
<totfact> 0.36671388E+01</totfact>
</mgrwt>
</event>
<event>
 6    1  0.1719556E-004  0.1538204E+04  0.7818608E-02  0.8859438E-01
         -2   -1    0    0    0  501 -0.00000000000E+00  0.00000000000E+00  0.30613847087E+03  0.30613847087E+03  0.00000000000E+00 0. -1.
          2   -1    0    0  501    0  0.00000000000E+00 -0.00000000000E+00 -0.19321910789E+04  0.19321910789E+04  0.00000000000E+00 0.  1.
         23    2    1    2    0    0 -0.25731684746E+03 -0.36298468765E+03  0.93372296207E+02  0.46226878371E+03  0.83691094171E+02 0.  0.
         13    1    3    3    0    0 -0.14473097006E+03 -0.22236868598E+03  0.95890229635E+02  0.28211668214E+03  0.00000000000E+00 0. -1.
        -13    1    3    3    0    0 -0.11258587739E+03 -0.14061600166E+03 -0.25179334276E+01  0.18015210157E+03  0.00000000000E+00 0.  1.
         22    1    1    2    0    0  0.25731684746E+03  0.36298468765E+03 -0.17194249043E+04  0.17760607661E+04  0.00000000000E+00 0.  1.
<mgrwt>
<rscale>  0 0.15382042E+04</rscale>
<asrwt>0</asrwt>
<pdfrwt beam="1">  1        2 0.29726017E+00 0.15382042E+04</pdfrwt>
<pdfrwt beam="2">  1       -2 0.47098225E-01 0.15382042E+04</pdfrwt>
<totfact> 0.30003941E+01</totfact>
</mgrwt>
</event>
<event>
 6    1  0.1719556E-004  0.1658969E+04  0.7818608E-02  0.8785118E-01
         -1   -1    0    0    0  501 -0.00000000000E+00  0.00000000000E+00  0.74734421616E+03  0.74734421616E+03  0.00000000000E+00 0. -1.
          1   -1    0    0  501    0  0.00000000000E+00 -0.00000000000E+00 -0.92065316781E+03  0.92065316781E+03  0.00000000000E+00 0.  1.
         23    2    1    2    0    0  0.26473391022E+03  0.16523130298E+03  0.68330698354E+03  0.75630868319E+03  0.87800705114E+02 0.  0.
         11    1    3    3    0    0  0.19124627615E+03  0.11917316542E+03  0.38969041415E+03  0.45015108617E+03  0.00000000000E+00 0.  1.
        -11    1    3    3    0    0  0.73487634060E+02  0.46058137555E+02  0.29361656939E+03  0.30615759702E+03  0.00000000000E+00 0. -1.
         22    1    1    2    0    0 -0.26473391022E+03 -0.16523130298E+03 -0.85661593519E+03  0.91168870078E+03  0.00000000000E+00 0.  1.
<mgrwt>
<rscale>  0 0.16589693E+04</rscale>
<asrwt>0</asrwt>
<pdfrwt beam="1">  1        1 0.14163895E+00 0.16589693E+04</pdfrwt>
<pdfrwt beam="2">  1       -1 0.11497603E+00 0.16589693E+04</pdfrwt>
<totfact> 0.11480559E+01</totfact>
</mgrwt>
</event>
<event>
 6    1  0.1719556E-004  0.3751736E+04  0.7818608E-02  0.8056592E-01
          2   -1    0    0  501    0  0.00000000000E+00  0.00000000000E+00  0.13101140396E+04  0.13101140396E+04  0.00000000000E+00 0.  1.
         -2   -1    0    0    0  501 -0.00000000000E+00 -0.00000000000E+00 -0.26859350709E+04  0.26859350709E+04  0.00000000000E+00 0. -1.
         23    2    1    2    0    0 -0.12044635725E+04  0.10732351319E+04 -0.17060975345E+04  0.23493406621E+04  0.77888405061E+02 0.  0.
         13    1    3    3    0    0 -0.72887534233E+02  0.63800685447E+02 -0.13117674981E+03  0.16306581432E+03  0.00000000000E+00 0.  1.
        -13    1    3    3    0    0 -0.11315760383E+04  0.10094344464E+04 -0.15749207847E+04  0.21862748478E+04  0.00000000000E+00 0. -1.
         22    1    1    2    0    0  0.12044635725E+04 -0.10732351319E+04  0.33027650315E+03  0.16467084485E+04  0.00000000000E+00 0.  1.
<mgrwt>
<rscale>  0 0.37517363E+04</rscale>
<asrwt>0</asrwt>
<pdfrwt beam="1">  1        2 0.20155601E+00 0.37517363E+04</pdfrwt>
<pdfrwt beam="2">  1       -2 0.41322078E+00 0.37517363E+04</pdfrwt>
<totfact> 0.79729970E-02</totfact>
</mgrwt>
</event>
<event>
 6    1  0.1719556E-004  0.4548205E+04  0.7818608E-02  0.7902251E-01
         -2   -1    0    0    0  501 -0.00000000000E+00  0.00000000000E+00  0.16993115360E+04  0.16993115360E+04  0.00000000000E+00 0. -1.
          2   -1    0    0  501    0  0.00000000000E+00 -0.00000000000E+00 -0.30433165033E+04  0.30433165033E+04  0.00000000000E+00 0.  1.
         23    2    1    2    0    0 -0.11981172849E+04  0.50835269772E+03  0.12709907905E+04  0.18216504106E+04  0.95315976693E+02 0.  0.
         13    1    3    3    0    0 -0.27949287472E+03  0.76208473915E+02  0.29144992695E+03  0.41093437242E+03  0.00000000000E+00 0. -1.
        -13    1    3    3    0    0 -0.91862441019E+03  0.43214422380E+03  0.97954086351E+03  0.14107160382E+04  0.00000000000E+00 0.  1.
         22    1    1    2    0    0  0.11981172849E+04 -0.50835269772E+03 -0.26149957578E+04  0.29209776287E+04  0.00000000000E+00 0.  1.
<mgrwt>
<rscale>  0 0.45482053E+04</rscale>
<asrwt>0</asrwt>
<pdfrwt beam="1">  1        2 0.46820253E+00 0.45482053E+04</pdfrwt>
<pdfrwt beam="2">  1       -2 0.26143255E+00 0.45482053E+04</pdfrwt>
<totfact> 0.67438462E-02</totfact>
</mgrwt>
</event>
<event>
 6    1  0.1719556E-004  0.2714857E+04  0.7818608E-02  0.8330201E-01
          2   -1    0    0  501    0  0.00000000000E+00  0.00000000000E+00  0.28269677918E+04  0.28269677918E+04  0.00000000000E+00 0.  1.
         -2   -1    0    0    0  501 -0.00000000000E+00 -0.00000000000E+00 -0.65179797661E+03  0.65179797661E+03  0.00000000000E+00 0. -1.
         23    2    1    2    0    0 -0.49251178843E+03 -0.11290358800E+04  0.36275033093E+03  0.12873839516E+04  0.92085592295E+02 0.  0.
         13    1    3    3    0    0 -0.48315233196E+03 -0.10621362233E+04  0.33208532999E+03  0.12131983347E+04  0.00000000000E+00 0.  1.
        -13    1    3    3    0    0 -0.93594564652E+01 -0.66899656630E+02  0.30665000941E+02  0.74185616970E+02  0.00000000000E+00 0. -1.
         22    1    1    2    0    0  0.49251178843E+03  0.11290358800E+04  0.18124194843E+04  0.21913818168E+04  0.00000000000E+00 0.  1.
<mgrwt>
<rscale>  0 0.27148568E+04</rscale>
<asrwt>0</asrwt>
<pdfrwt beam="1">  1        2 0.43491812E+00 0.27148568E+04</pdfrwt>
<pdfrwt beam="2">  1       -2 0.10027661E+00 0.27148568E+04</pdfrwt>
<totfact> 0.16007102E+00</totfact>
</mgrwt>
</event>
<event>
 6    1  0.1719556E-004  0.4503654E+04  0.7818608E-02  0.7909997E-01
         -2   -1    0    0    0  501 -0.00000000000E+00  0.00000000000E+00  0.14179528142E+04  0.14179528142E+04  0.00000000000E+00 0. -1.
          2   -1    0    0  501    0  0.00000000000E+00 -0.00000000000E+00 -0.35760886667E+04  0.35760886667E+04  0.00000000000E+00 0.  1.
         23    2    1    2    0    0  0.22433579686E+04 -0.49168947557E+02 -0.88141739708E+03  0.24123593597E+04  0.86651553612E+02 0.  0.
         11    1    3    3    0    0  0.13711273509E+04 -0.54139925251E+02 -0.50150120583E+03  0.14609670781E+04  0.00000000000E+00 0.  1.
        -11    1    3    3    0    0  0.87223061776E+03  0.49709776935E+01 -0.37991619126E+03  0.95139228164E+03  0.00000000000E+00 0. -1.
         22    1    1    2    0    0 -0.22433579686E+04  0.49168947557E+02 -0.12767184554E+04  0.25816821212E+04  0.00000000000E+00 0.  1.
<mgrwt>
<rscale>  0 0.45036541E+04</rscale>
<asrwt>0</asrwt>
<pdfrwt beam="1">  1        2 0.55016749E+00 0.45036541E+04</pdfrwt>
<pdfrwt beam="2">  1       -2 0.21814659E+00 0.45036541E+04</pdfrwt>
<totfact> 0.55124036E-02</totfact>
</mgrwt>
</event>
<event>
 6    1  0.1719556E-004  0.1875288E+04  0.7818608E-02  0.8667256E-01
          2   -1    0    0  501    0  0.00000000000E+00  0.00000000000E+00  0.61173102156E+03  0.61173102156E+03  0.00000000000E+00 0.  1.
         -2   -1    0    0    0  501 -0.00000000000E+00 -0.00000000000E+00 -0.14371948178E+04  0.14371948178E+04  0.00000000000E+00 0. -1.
         23    2    1    2    0    0 -0.64702174455E+03  0.50432172513E+03 -0.90484145929E+03  0.12247423927E+04  0.90985282902E+02 0.  0.
         11    1    3    3    0    0 -0.38940687779E+03  0.24653288361E+03 -0.51200605280E+03  0.68888778279E+03  0.00000000000E+00 0.  1.
        -11    1    3    3    0    0 -0.25761486676E+03  0.25778884152E+03 -0.39283540649E+03  0.53585460992E+03  0.00000000000E+00 0. -1.
         22    1    1    2    0    0  0.64702174455E+03 -0.50432172513E+03  0.79377663047E+02  0.82418344666E+03  0.00000000000E+00 0.  1.
<mgrwt>
<rscale>  0 0.18752884E+04</rscale>
<asrwt>0</asrwt>
<pdfrwt beam="1">  1        2 0.94112464E-01 0.18752884E+04</pdfrwt>
<pdfrwt beam="2">  1       -2 0.22110690E+00 0.18752884E+04</pdfrwt>
<totfact> 0.44182804E+00</totfact>
</mgrwt>
</event>
<event>
 6    1  0.1719556E-004  0.5283362E+04  0.7818608E-02  0.7786223E-01
          1   -1    0    0  501    0  0.00000000000E+00  0.00000000000E+00  0.28310995046E+04  0.28310995046E+04  0.00000000000E+00 0.  1.
         -1   -1    0    0    0  501 -0.00000000000E+00 -0.00000000000E+00 -0.24649362228E+04  0.24649362228E+04  0.00000000000E+00 0. -1.
         23    2    1    2    0    0  0.14835381598E+04  0.11962559530E+04 -0.16494097081E+04  0.25221488777E+04  0.93641869164E+02 0.  0.
         13    1    3    3    0    0  0.67018625597E+03  0.49994204132E+03 -0.67822794887E+03  0.10766080127E+04  0.00000000000E+00 0.  1.
        -13    1    3    3    0    0  0.81335190380E+03  0.69631391164E+03 -0.97118175927E+03  0.14455408650E+04  0.00000000000E+00 0. -1.
         22    1    1    2    0    0 -0.14835381598E+04 -0.11962559530E+04  0.20155729899E+04  0.27738868496E+04  0.00000000000E+00 0.  1.
<mgrwt>
<rscale>  0 0.52833625E+04</rscale>
<asrwt>0</asrwt>
<pdfrwt beam="1">  1        1 0.43555377E+00 0.52833625E+04</pdfrwt>
<pdfrwt beam="2">  1       -1 0.37922096E+00 0.52833625E+04</pdfrwt>
<totfact> 0.55381775E-03</totfact>
</mgrwt>
</event>
<event>
 6    1  0.1719556E-004  0.1925871E+04  0.7818608E-02  0.8642085E-01
         -1   -1    0    0    0  501 -0.00000000000E+00  0.00000000000E+00  0.84147219907E+03  0.84147219907E+03  0.00000000000E+00 0. -1.
          1   -1    0    0  501    0  0.00000000000E+00 -0.00000000000E+00 -0.11019310527E+04  0.11019310527E+04  0.00000000000E+00 0.  1.
         23    2    1    2    0    0  0.12630444714E+03 -0.33699065045E+03  0.76842940205E+03  0.85339107086E+03  0.90978360244E+02 0.  0.
         11    1    3    3    0    0  0.92993779652E+02 -0.14775936237E+03  0.43225616516E+03  0.46618243697E+03  0.00000000000E+00 0. -1.
        -11    1    3    3    0    0  0.33310667492E+02 -0.18923128809E+03  0.33617323689E+03  0.38720863389E+03  0.00000000000E+00 0.  1.
         22    1    1    2    0    0 -0.12630444714E+03  0.33699065045E+03 -0.10288882557E+04  0.10900121809E+04  0.00000000000E+00 0.  1.
<mgrwt>
<rscale>  0 0.19258706E+04</rscale>
<asrwt>0</asrwt>
<pdfrwt beam="1">  1        1 0.16952785E+00 0.19258706E+04</pdfrwt>
<pdfrwt beam="2">  1       -1 0.12945726E+00 0.19258706E+04</pdfrwt>
<totfact> 0.60469462E+00</totfact>
</mgrwt>
</event>
<event>
 6    1  0.1719556E-004  0.4245077E+04  0.7818608E-02  0.7956853E-01
         -2   -1    0    0    0  501 -0.00000000000E+00  0.00000000000E+00  0.11857247503E+04  0.11857247503E+04  0.00000000000E+00 0. -1.
          2   -1    0    0  501    0  0.00000000000E+00 -0.00000000000E+00 -0.37995072248E+04  0.37995072248E+04  0.00000000000E+00 0.  1.
         23    2    1    2    0    0  0.58083915900E+03  0.94014433443E+03 -0.34342460228E+04  0.36088577773E+04  0.92537630909E+02 0.  0.
         11    1    3    3    0    0  0.79492572879E+02  0.19790767845E+03 -0.66035177504E+03  0.69393874739E+03  0.00000000000E+00 0.  1.
        -11    1    3    3    0    0  0.50134658612E+03  0.74223665598E+03 -0.27738942478E+04  0.29149190299E+04  0.00000000000E+00 0. -1.
         22    1    1    2    0    0 -0.58083915900E+03 -0.94014433443E+03  0.82046354839E+03  0.13763741978E+04  0.00000000000E+00 0. -1.
<mgrwt>
<rscale>  0 0.42450770E+04</rscale>
<asrwt>0</asrwt>
<pdfrwt beam="1">  1        2 0.58453957E+00 0.42450770E+04</pdfrwt>
<pdfrwt beam="2">  1       -2 0.18241919E+00 0.42450770E+04</pdfrwt>
<totfact> 0.66143906E-02</totfact>
</mgrwt>
</event>
<event>
 6    1  0.1719556E-004  0.1470394E+04  0.7818608E-02  0.8904383E-01
         -2   -1    0    0    0  501 -0.00000000000E+00  0.00000000000E+00  0.24730461026E+03  0.24730461026E+03  0.00000000000E+00 0. -1.
          2   -1    0    0  501    0  0.00000000000E+00 -0.00000000000E+00 -0.21856231818E+04  0.21856231818E+04  0.00000000000E+00 0.  1.
         23    2    1    2    0    0 -0.38407750683E+03 -0.53732798645E+03 -0.14970458413E+04  0.16385988182E+04  0.87309447456E+02 0.  0.
         11    1    3    3    0    0 -0.20534998171E+03 -0.23608225765E+03 -0.62843474834E+03  0.70202113948E+03  0.00000000000E+00 0. -1.
        -11    1    3    3    0    0 -0.17872752512E+03 -0.30124572880E+03 -0.86861109300E+03  0.93657767870E+03  0.00000000000E+00 0.  1.
         22    1    1    2    0    0  0.38407750683E+03  0.53732798645E+03 -0.44127273017E+03  0.79432897383E+03  0.00000000000E+00 0. -1.
<mgrwt>
<rscale>  0 0.14703941E+04</rscale>
<asrwt>0</asrwt>
<pdfrwt beam="1">  1        2 0.33624972E+00 0.14703941E+04</pdfrwt>
<pdfrwt beam="2">  1       -2 0.38046863E-01 0.14703941E+04</pdfrwt>
<totfact> 0.33259267E+01</totfact>
</mgrwt>
</event>
<event>
 6    1  0.1719556E-004  0.1487458E+04  0.7818608E-02  0.8892836E-01
         -2   -1    0    0    0  501 -0.00000000000E+00  0.00000000000E+00  0.25043390378E+03  0.25043390378E+03  0.00000000000E+00 0. -1.
          2   -1    0    0  501    0  0.00000000000E+00 -0.00000000000E+00 -0.22086991469E+04  0.22086991469E+04  0.00000000000E+00 0.  1.
         23    2    1    2    0    0 -0.21148279804E+03 -0.31969638644E+03  0.65599430730E+02  0.39928864601E+03  0.90539406652E+02 0.  0.
         13    1    3    3    0    0 -0.10844570603E+03 -0.22632553855E+03  0.68720292077E+02  0.26020414889E+03  0.00000000000E+00 0. -1.
        -13    1    3    3    0    0 -0.10303709201E+03 -0.93370847884E+02 -0.31208613465E+01  0.13908449712E+03  0.00000000000E+00 0.  1.
         22    1    1    2    0    0  0.21148279804E+03  0.31969638644E+03 -0.20238646739E+04  0.20598444047E+04  0.00000000000E+00 0.  1.
<mgrwt>
<rscale>  0 0.14874584E+04</rscale>
<asrwt>0</asrwt>
<pdfrwt beam="1">  1        2 0.33979987E+00 0.14874584E+04</pdfrwt>
<pdfrwt beam="2">  1       -2 0.38528293E-01 0.14874584E+04</pdfrwt>
<totfact> 0.31460514E+01</totfact>
</mgrwt>
</event>
<event>
 6    1  0.1719556E-004  0.4726696E+04  0.7818608E-02  0.7872108E-01
         -2   -1    0    0    0  501 -0.00000000000E+00  0.00000000000E+00  0.22481544206E+04  0.22481544206E+04  0.00000000000E+00 0. -1.
          2   -1    0    0  501    0  0.00000000000E+00 -0.00000000000E+00 -0.24844436488E+04  0.24844436488E+04  0.00000000000E+00 0.  1.
         23    2    1    2    0    0 -0.79038361447E+03  0.18364493405E+03 -0.23398302248E+04  0.24779769384E+04  0.84454168457E+02 0.  0.
         11    1    3    3    0    0 -0.56913246401E+03  0.10863319853E+03 -0.17568600179E+04  0.18499378519E+04  0.00000000000E+00 0.  1.
        -11    1    3    3    0    0 -0.22125115046E+03  0.75011735512E+02 -0.58297020697E+03  0.62803908657E+03  0.00000000000E+00 0. -1.
         22    1    1    2    0    0  0.79038361447E+03 -0.18364493405E+03  0.21035409966E+04  0.22546211309E+04  0.00000000000E+00 0. -1.
<mgrwt>
<rscale>  0 0.47266957E+04</rscale>
<asrwt>0</asrwt>
<pdfrwt beam="1">  1        2 0.38222210E+00 0.47266957E+04</pdfrwt>
<pdfrwt beam="2">  1       -2 0.34586991E+00 0.47266957E+04</pdfrwt>
<totfact> 0.43680137E-02</totfact>
</mgrwt>
</event>
<event>
 6    1  0.1719556E-004  0.2828014E+04  0.7818608E-02  0.8294624E-01
         -2   -1    0    0    0  501 -0.00000000000E+00  0.00000000000E+00  0.85597083446E+03  0.85597083446E+03  0.00000000000E+00 0. -1.
          2   -1    0    0  501    0  0.00000000000E+00 -0.00000000000E+00 -0.23358459424E+04  0.23358459424E+04  0.00000000000E+00 0.  1.
         23    2    1    2    0    0 -0.15631532708E+03 -0.14014376011E+04 -0.64642318332E+03  0.15537984797E+04  0.89246580022E+02 0.  0.
         11    1    3    3    0    0 -0.63569402546E+02 -0.69460350657E+03 -0.27304267694E+03  0.74904432693E+03  0.00000000000E+00 0. -1.
        -11    1    3    3    0    0 -0.92745924534E+02 -0.70683409458E+03 -0.37338050638E+03  0.80475415272E+03  0.00000000000E+00 0.  1.
         22    1    1    2    0    0  0.15631532708E+03  0.14014376011E+04 -0.83345192464E+03  0.16380182972E+04  0.00000000000E+00 0. -1.
<mgrwt>
<rscale>  0 0.28280141E+04</rscale>
<asrwt>0</asrwt>
<pdfrwt beam="1">  1        2 0.35936091E+00 0.28280141E+04</pdfrwt>
<pdfrwt beam="2">  1       -2 0.13168782E+00 0.28280141E+04</pdfrwt>
<totfact> 0.15782452E+00</totfact>
</mgrwt>
</event>
<event>
 6    1  0.1719556E-004  0.2736834E+04  0.7818608E-02  0.8323152E-01
         -2   -1    0    0    0  501 -0.00000000000E+00  0.00000000000E+00  0.13075292132E+04  0.13075292132E+04  0.00000000000E+00 0. -1.
          2   -1    0    0  501    0  0.00000000000E+00 -0.00000000000E+00 -0.14321397043E+04  0.14321397043E+04  0.00000000000E+00 0.  1.
         23    2    1    2    0    0  0.50816884141E+03  0.34716155125E+03 -0.12840161910E+04  0.14270462408E+04  0.94903533216E+02 0.  0.
         11    1    3    3    0    0  0.18859722781E+03  0.17453141347E+03 -0.59615868041E+03  0.64918048404E+03  0.00000000000E+00 0. -1.
        -11    1    3    3    0    0  0.31957161360E+03  0.17263013778E+03 -0.68785751063E+03  0.77786575681E+03  0.00000000000E+00 0.  1.
         22    1    1    2    0    0 -0.50816884141E+03 -0.34716155125E+03  0.11594057000E+04  0.13126226766E+04  0.00000000000E+00 0. -1.
<mgrwt>
<rscale>  0 0.27368336E+04</rscale>
<asrwt>0</asrwt>
<pdfrwt beam="1">  1        2 0.22032919E+00 0.27368336E+04</pdfrwt>
<pdfrwt beam="2">  1       -2 0.20115834E+00 0.27368336E+04</pdfrwt>
<totfact> 0.15857803E+00</totfact>
</mgrwt>
</event>
<event>
 6    1  0.1719556E-004  0.1736640E+04  0.7818608E-02  0.8740739E-01
          2   -1    0    0  501    0  0.00000000000E+00  0.00000000000E+00  0.12186025495E+04  0.12186025495E+04  0.00000000000E+00 0.  1.
         -2   -1    0    0    0  501 -0.00000000000E+00 -0.00000000000E+00 -0.61872453600E+03  0.61872453600E+03  0.00000000000E+00 0. -1.
         23    2    1    2    0    0  0.43039636069E+03  0.57933039548E+03 -0.20506545172E+03  0.75621713891E+03  0.94592744298E+02 0.  0.
         13    1    3    3    0    0  0.35240743431E+03  0.50535636753E+03 -0.14441990905E+03  0.63279788882E+03  0.00000000000E+00 0.  1.
        -13    1    3    3    0    0  0.77988926380E+02  0.73974027950E+02 -0.60645542663E+02  0.12341925009E+03  0.00000000000E+00 0. -1.
         22    1    1    2    0    0 -0.43039636069E+03 -0.57933039548E+03  0.80494346522E+03  0.10811099466E+04  0.00000000000E+00 0.  1.
<mgrwt>
<rscale>  0 0.17366396E+04</rscale>
<asrwt>0</asrwt>
<pdfrwt beam="1">  1        2 0.18747732E+00 0.17366396E+04</pdfrwt>
<pdfrwt beam="2">  1       -2 0.95188390E-01 0.17366396E+04</pdfrwt>
<totfact> 0.16253762E+01</totfact>
</mgrwt>
</event>
<event>
 6    1  0.1719556E-004  0.1454022E+04  0.7818608E-02  0.8915617E-01
         -2   -1    0    0    0  501 -0.00000000000E+00  0.00000000000E+00  0.23835568501E+03  0.23835568501E+03  0.00000000000E+00 0. -1.
          2   -1    0    0  501    0  0.00000000000E+00 -0.00000000000E+00 -0.22174639997E+04  0.22174639997E+04  0.00000000000E+00 0.  1.
         23    2    1    2    0    0  0.23257258250E+03  0.51052569412E+02 -0.21484874303E+04  0.21636114443E+04  0.92303155794E+02 0.  0.
         11    1    3    3    0    0  0.17866589222E+03  0.78033507505E+02 -0.16112381172E+04  0.16229907577E+04  0.00000000000E+00 0. -1.
        -11    1    3    3    0    0  0.53906690285E+02 -0.26980938093E+02 -0.53724931312E+03  0.54062068655E+03  0.00000000000E+00 0.  1.
         22    1    1    2    0    0 -0.23257258250E+03 -0.51052569412E+02  0.16937911562E+03  0.29220824044E+03  0.00000000000E+00 0. -1.
<mgrwt>
<rscale>  0 0.14540222E+04</rscale>
<asrwt>0</asrwt>
<pdfrwt beam="1">  1        2 0.34114831E+00 0.14540222E+04</pdfrwt>
<pdfrwt beam="2">  1       -2 0.36670105E-01 0.14540222E+04</pdfrwt>
<totfact> 0.34325192E+01</totfact>
</mgrwt>
</event>
<event>
 6    1  0.1719556E-004  0.4922134E+04  0.7818608E-02  0.7840632E-01
         -1   -1    0    0    0  501 -0.00000000000E+00  0.00000000000E+00  0.18979328320E+04  0.18979328320E+04  0.00000000000E+00 0. -1.
          1   -1    0    0  501    0  0.00000000000E+00 -0.00000000000E+00 -0.31912879371E+04  0.31912879371E+04  0.00000000000E+00 0.  1.
         23    2    1    2    0    0  0.16641878808E+04 -0.98633635989E+03  0.92451851544E+03  0.21462046098E+04  0.95283913435E+02 0.  0.
         13    1    3    3    0    0  0.14928535043E+04 -0.90779861140E+03  0.81170768589E+03  0.19265459433E+04  0.00000000000E+00 0.  1.
        -13    1    3    3    0    0  0.17133437653E+03 -0.78537748491E+02  0.11281082955E+03  0.21965866653E+03  0.00000000000E+00 0. -1.
         22    1    1    2    0    0 -0.16641878808E+04  0.98633635989E+03 -0.22178736205E+04  0.29430161593E+04  0.00000000000E+00 0.  1.
<mgrwt>
<rscale>  0 0.49221337E+04</rscale>
<asrwt>0</asrwt>
<pdfrwt beam="1">  1        1 0.49096737E+00 0.49221337E+04</pdfrwt>
<pdfrwt beam="2">  1       -1 0.29198967E+00 0.49221337E+04</pdfrwt>
<totfact> 0.11662215E-02</totfact>
</mgrwt>
</event>
<event>
 6    1  0.1719556E-004  0.1584809E+04  0.7818608E-02  0.8829935E-01
         -1   -1    0    0    0  501 -0.00000000000E+00  0.00000000000E+00  0.71607618687E+03  0.71607618687E+03  0.00000000000E+00 0. -1.
          1   -1    0    0  501    0  0.00000000000E+00 -0.00000000000E+00 -0.87686925976E+03  0.87686925976E+03  0.00000000000E+00 0.  1.
         23    2    1    2    0    0  0.87614278411E+01 -0.72060688603E+03 -0.40534032717E+03  0.83192349793E+03  0.91896021519E+02 0.  0.
         13    1    3    3    0    0 -0.21081523836E+02 -0.56587823435E+03 -0.28695083679E+03  0.63482547956E+03  0.00000000000E+00 0. -1.
        -13    1    3    3    0    0  0.29842951677E+02 -0.15472865168E+03 -0.11838949039E+03  0.19709801838E+03  0.00000000000E+00 0.  1.
         22    1    1    2    0    0 -0.87614278411E+01  0.72060688603E+03  0.24454725428E+03  0.76102194869E+03  0.00000000000E+00 0. -1.
<mgrwt>
<rscale>  0 0.15848094E+04</rscale>
<asrwt>0</asrwt>
<pdfrwt beam="1">  1        1 0.13490296E+00 0.15848094E+04</pdfrwt>
<pdfrwt beam="2">  1       -1 0.11016557E+00 0.15848094E+04</pdfrwt>
<totfact> 0.13896710E+01</totfact>
</mgrwt>
</event>
<event>
 6    1  0.1719556E-004  0.2484536E+04  0.7818608E-02  0.8408516E-01
          2   -1    0    0  501    0  0.00000000000E+00  0.00000000000E+00  0.22103652552E+04  0.22103652552E+04  0.00000000000E+00 0.  1.
         -2   -1    0    0    0  501 -0.00000000000E+00 -0.00000000000E+00 -0.69817850954E+03  0.69817850954E+03  0.00000000000E+00 0. -1.
         23    2    1    2    0    0  0.11555099496E+04 -0.39291364210E+03  0.49649417363E+03  0.13207100912E+04  0.90467159038E+02 0.  0.
         11    1    3    3    0    0  0.64185464387E+03 -0.24437773380E+03  0.23862470461E+03  0.72707606912E+03  0.00000000000E+00 0. -1.
        -11    1    3    3    0    0  0.51365530575E+03 -0.14853590830E+03  0.25786946902E+03  0.59363402213E+03  0.00000000000E+00 0.  1.
         22    1    1    2    0    0 -0.11555099496E+04  0.39291364210E+03  0.10156925720E+04  0.15878336735E+04  0.00000000000E+00 0. -1.
<mgrwt>
<rscale>  0 0.24845358E+04</rscale>
<asrwt>0</asrwt>
<pdfrwt beam="1">  1        2 0.34005619E+00 0.24845358E+04</pdfrwt>
<pdfrwt beam="2">  1       -2 0.10741208E+00 0.24845358E+04</pdfrwt>
<totfact> 0.31660730E+00</totfact>
</mgrwt>
</event>
<event>
 6    1  0.2005682E-004  0.3619272E+04  0.7818608E-02  0.8086092E-01
         -2   -1    0    0    0  501 -0.00000000000E+00  0.00000000000E+00  0.16404472223E+04  0.16404472223E+04  0.00000000000E+00 0. -1.
          2   -1    0    0  501    0  0.00000000000E+00 -0.00000000000E+00 -0.19962737826E+04  0.19962737826E+04  0.00000000000E+00 0.  1.
         23    2    1    2    0    0 -0.13211264582E+04  0.98570767424E+03 -0.92619881052E+03  0.18924964662E+04  0.81877349011E+02 0.  0.
         13    1    3    3    0    0 -0.10975106921E+04  0.80445072233E+03 -0.73072882330E+03  0.15445501925E+04  0.00000000000E+00 0.  1.
        -13    1    3    3    0    0 -0.22361576603E+03  0.18125695191E+03 -0.19546998723E+03  0.34794627364E+03  0.00000000000E+00 0. -1.
         22    1    1    2    0    0  0.13211264582E+04 -0.98570767424E+03  0.57037225022E+03  0.17442245387E+04  0.00000000000E+00 0. -1.
<mgrwt>
<rscale>  0 0.36192716E+04</rscale>
<asrwt>0</asrwt>
<pdfrwt beam="1">  1        2 0.30711904E+00 0.36192716E+04</pdfrwt>
<pdfrwt beam="2">  1       -2 0.25237650E+00 0.36192716E+04</pdfrwt>
<totfact> 0.33945624E-01</totfact>
</mgrwt>
</event>
<event>
 6    1  0.1719556E-004  0.4186551E+04  0.7818608E-02  0.7967935E-01
          2   -1    0    0  501    0  0.00000000000E+00  0.00000000000E+00  0.34627014239E+04  0.34627014239E+04  0.00000000000E+00 0.  1.
         -2   -1    0    0    0  501 -0.00000000000E+00 -0.00000000000E+00 -0.12654290350E+04  0.12654290350E+04  0.00000000000E+00 0. -1.
         23    2    1    2    0    0 -0.10740280437E+04  0.17861337131E+04  0.13066097740E+04  0.24616155630E+04  0.92261579159E+02 0.  0.
         11    1    3    3    0    0 -0.77778415504E+03  0.12121536463E+04  0.91139227913E+03  0.17043768775E+04  0.00000000000E+00 0. -1.
        -11    1    3    3    0    0 -0.29624388868E+03  0.57398006676E+03  0.39521749483E+03  0.75723868551E+03  0.00000000000E+00 0.  1.
         22    1    1    2    0    0  0.10740280437E+04 -0.17861337131E+04  0.89066261495E+03  0.22665148959E+04  0.00000000000E+00 0.  1.
<mgrwt>
<rscale>  0 0.41865513E+04</rscale>
<asrwt>0</asrwt>
<pdfrwt beam="1">  1        2 0.53272329E+00 0.41865513E+04</pdfrwt>
<pdfrwt beam="2">  1       -2 0.19468139E+00 0.41865513E+04</pdfrwt>
<totfact> 0.96570854E-02</totfact>
</mgrwt>
</event>
<event>
 6    1  0.1719556E-004  0.2405210E+04  0.7818608E-02  0.8437556E-01
         -1   -1    0    0    0  501 -0.00000000000E+00  0.00000000000E+00  0.84601319224E+03  0.84601319224E+03  0.00000000000E+00 0. -1.
          1   -1    0    0  501    0  0.00000000000E+00 -0.00000000000E+00 -0.17094994289E+04  0.17094994289E+04  0.00000000000E+00 0.  1.
         23    2    1    2    0    0  0.94231446462E+03 -0.50016484970E+03  0.15184570198E+03  0.10827531796E+04  0.10571614597E+03 0.  0.
         13    1    3    3    0    0  0.53868557538E+03 -0.33578655900E+03  0.62198066154E+02  0.63781138416E+03  0.00000000000E+00 0. -1.
        -13    1    3    3    0    0  0.40362888924E+03 -0.16437829070E+03  0.89647635828E+02  0.44494179539E+03  0.00000000000E+00 0.  1.
         22    1    1    2    0    0 -0.94231446462E+03  0.50016484970E+03 -0.10153319386E+04  0.14727594416E+04  0.00000000000E+00 0.  1.
<mgrwt>
<rscale>  0 0.24052102E+04</rscale>
<asrwt>0</asrwt>
<pdfrwt beam="1">  1        1 0.26299991E+00 0.24052102E+04</pdfrwt>
<pdfrwt beam="2">  1       -1 0.13015588E+00 0.24052102E+04</pdfrwt>
<totfact> 0.21263338E+00</totfact>
</mgrwt>
</event>
<event>
 6    1  0.1719556E-004  0.2603185E+04  0.7818608E-02  0.8367120E-01
         -1   -1    0    0    0  501 -0.00000000000E+00  0.00000000000E+00  0.45299550987E+03  0.45299550987E+03  0.00000000000E+00 0. -1.
          1   -1    0    0  501    0  0.00000000000E+00 -0.00000000000E+00 -0.37398658685E+04  0.37398658685E+04  0.00000000000E+00 0.  1.
         23    2    1    2    0    0 -0.51127325333E+03 -0.18914463767E+03 -0.35463521713E+04  0.35891173559E+04  0.89295230096E+02 0.  0.
         11    1    3    3    0    0 -0.97651539637E+02 -0.72371491428E+02 -0.69308891975E+03  0.70366590556E+03  0.00000000000E+00 0. -1.
        -11    1    3    3    0    0 -0.41362171369E+03 -0.11677314624E+03 -0.28532632515E+04  0.28854514503E+04  0.00000000000E+00 0.  1.
         22    1    1    2    0    0  0.51127325333E+03  0.18914463767E+03  0.25948181268E+03  0.60374402245E+03  0.00000000000E+00 0. -1.
<mgrwt>
<rscale>  0 0.26031845E+04</rscale>
<asrwt>0</asrwt>
<pdfrwt beam="1">  1        1 0.57536399E+00 0.26031845E+04</pdfrwt>
<pdfrwt beam="2">  1       -1 0.69691615E-01 0.26031845E+04</pdfrwt>
<totfact> 0.29352348E-01</totfact>
</mgrwt>
</event>
<event>
 6    1  0.1719556E-004  0.1682879E+04  0.7818608E-02  0.8771190E-01
          1   -1    0    0  501    0  0.00000000000E+00  0.00000000000E+00  0.37529340871E+03  0.37529340871E+03  0.00000000000E+00 0. -1.
         -1   -1    0    0    0  501 -0.00000000000E+00 -0.00000000000E+00 -0.18865785121E+04  0.18865785121E+04  0.00000000000E+00 0.  1.
         23    2    1    2    0    0 -0.10215913706E+03  0.73597386420E+03 -0.12815991933E+04  0.14841511255E+04  0.90078039090E+02 0.  0.
         13    1    3    3    0    0 -0.25261607479E+02  0.33264641585E+03 -0.49649540653E+03  0.59816341873E+03  0.00000000000E+00 0. -1.
        -13    1    3    3    0    0 -0.76897529585E+02  0.40332744835E+03 -0.78510378675E+03  0.88598770681E+03  0.00000000000E+00 0.  1.
         22    1    1    2    0    0  0.10215913706E+03 -0.73597386420E+03 -0.22968591008E+03  0.77772079525E+03  0.00000000000E+00 0. -1.
<mgrwt>
<rscale>  0 0.16828791E+04</rscale>
<asrwt>0</asrwt>
<pdfrwt beam="1">  1        1 0.57737448E-01 0.16828791E+04</pdfrwt>
<pdfrwt beam="2">  1       -1 0.29024284E+00 0.16828791E+04</pdfrwt>
<totfact> 0.23805869E+00</totfact>
</mgrwt>
</event>
<event>
 6    1  0.1719556E-004  0.3337722E+03  0.7818608E-02  0.1069480E+00
         -1   -1    0    0    0  501 -0.00000000000E+00  0.00000000000E+00  0.11964585471E+04  0.11964585471E+04  0.00000000000E+00 0.  1.
          1   -1    0    0  501    0  0.00000000000E+00 -0.00000000000E+00 -0.23277840820E+02  0.23277840820E+02  0.00000000000E+00 0. -1.
         23    2    1    2    0    0 -0.28236263684E+02  0.52863522373E+02  0.11505402569E+04  0.11556705738E+04  0.90773090125E+02 0.  0.
         11    1    3    3    0    0 -0.23306789732E+01  0.46977996675E+02  0.23066446425E+03  0.23541125569E+03  0.00000000000E+00 0. -1.
        -11    1    3    3    0    0 -0.25905584711E+02  0.58855256983E+01  0.91987579266E+03  0.92025931815E+03  0.00000000000E+00 0.  1.
         22    1    1    2    0    0  0.28236263684E+02 -0.52863522373E+02  0.22640449355E+02  0.64065814063E+02  0.00000000000E+00 0. -1.
<mgrwt>
<rscale>  0 0.33377221E+03</rscale>
<asrwt>0</asrwt>
<pdfrwt beam="1">  1        1 0.35812072E-02 0.33377221E+03</pdfrwt>
<pdfrwt beam="2">  1       -1 0.18407050E+00 0.33377221E+03</pdfrwt>
<totfact> 0.56953436E+02</totfact>
</mgrwt>
</event>
<event>
 6    1  0.1719556E-004  0.1025737E+04  0.7818608E-02  0.9280759E-01
          1   -1    0    0  501    0  0.00000000000E+00  0.00000000000E+00  0.18422929133E+04  0.18422929133E+04  0.00000000000E+00 0.  1.
         -1   -1    0    0    0  501 -0.00000000000E+00 -0.00000000000E+00 -0.14277541138E+03  0.14277541138E+03  0.00000000000E+00 0. -1.
         23    2    1    2    0    0 -0.30070798160E+03 -0.28347697247E+03  0.28213650711E+03  0.50866954097E+03  0.91428710734E+02 0.  0.
         11    1    3    3    0    0 -0.25205726437E+03 -0.18297739469E+03  0.20213858217E+03  0.37131334192E+03  0.00000000000E+00 0.  1.
        -11    1    3    3    0    0 -0.48650717228E+02 -0.10049957778E+03  0.79997924947E+02  0.13735619905E+03  0.00000000000E+00 0. -1.
         22    1    1    2    0    0  0.30070798160E+03  0.28347697247E+03  0.14173809948E+04  0.14763987837E+04  0.00000000000E+00 0.  1.
<mgrwt>
<rscale>  0 0.10257371E+04</rscale>
<asrwt>0</asrwt>
<pdfrwt beam="1">  1        1 0.28342966E+00 0.10257371E+04</pdfrwt>
<pdfrwt beam="2">  1       -1 0.21965449E-01 0.10257371E+04</pdfrwt>
<totfact> 0.66839426E+01</totfact>
</mgrwt>
</event>
<event>
 6    1  0.1719556E-004  0.3657522E+04  0.7818608E-02  0.8077441E-01
         -2   -1    0    0    0  501 -0.00000000000E+00  0.00000000000E+00  0.19453897324E+04  0.19453897324E+04  0.00000000000E+00 0. -1.
          2   -1    0    0  501    0  0.00000000000E+00 -0.00000000000E+00 -0.17191245474E+04  0.17191245474E+04  0.00000000000E+00 0.  1.
         23    2    1    2    0    0  0.12411160899E+04  0.12111399380E+04 -0.46493268058E+03  0.17977032053E+04  0.91352717043E+02 0.  0.
         13    1    3    3    0    0  0.63749103892E+03  0.65598354470E+03 -0.28510498989E+03  0.95812008166E+03  0.00000000000E+00 0.  1.
        -13    1    3    3    0    0  0.60362505099E+03  0.55515639334E+03 -0.17982769069E+03  0.83958312369E+03  0.00000000000E+00 0. -1.
         22    1    1    2    0    0 -0.12411160899E+04 -0.12111399380E+04  0.69119786563E+03  0.18668110744E+04  0.00000000000E+00 0. -1.
<mgrwt>
<rscale>  0 0.36575222E+04</rscale>
<asrwt>0</asrwt>
<pdfrwt beam="1">  1        2 0.26448070E+00 0.36575222E+04</pdfrwt>
<pdfrwt beam="2">  1       -2 0.29929073E+00 0.36575222E+04</pdfrwt>
<totfact> 0.24919795E-01</totfact>
</mgrwt>
</event>
<event>
 6    1  0.1719556E-004  0.2144820E+04  0.7818608E-02  0.8541753E-01
          1   -1    0    0  501    0  0.00000000000E+00  0.00000000000E+00  0.19530761994E+04  0.19530761994E+04  0.00000000000E+00 0.  1.
         -1   -1    0    0    0  501 -0.00000000000E+00 -0.00000000000E+00 -0.58884706816E+03  0.58884706816E+03  0.00000000000E+00 0. -1.
         23    2    1    2    0    0 -0.28338901426E+03 -0.91389977483E+03  0.11460723694E+03  0.96805001646E+03  0.91999368290E+02 0.  0.
         13    1    3    3    0    0 -0.36306318745E+02 -0.24708498186E+03  0.17813876184E+02  0.25037266469E+03  0.00000000000E+00 0. -1.
        -13    1    3    3    0    0 -0.24708269551E+03 -0.66681479297E+03  0.96793360759E+02  0.71767735177E+03  0.00000000000E+00 0.  1.
         22    1    1    2    0    0  0.28338901426E+03  0.91389977483E+03  0.12496218943E+04  0.15738732511E+04  0.00000000000E+00 0.  1.
<mgrwt>
<rscale>  0 0.21448200E+04</rscale>
<asrwt>0</asrwt>
<pdfrwt beam="1">  1        1 0.30047326E+00 0.21448200E+04</pdfrwt>
<pdfrwt beam="2">  1       -1 0.90591858E-01 0.21448200E+04</pdfrwt>
<totfact> 0.34970026E+00</totfact>
</mgrwt>
</event>
<event>
 6    1  0.1719556E-004  0.3253890E+04  0.7818608E-02  0.8174728E-01
         -2   -1    0    0    0  501 -0.00000000000E+00  0.00000000000E+00  0.18487138864E+04  0.18487138864E+04  0.00000000000E+00 0. -1.
          2   -1    0    0  501    0  0.00000000000E+00 -0.00000000000E+00 -0.14317790510E+04  0.14317790510E+04  0.00000000000E+00 0.  1.
         23    2    1    2    0    0 -0.89934439895E+03  0.31458576803E+03  0.15366004081E+04  0.18103107895E+04  0.91103167982E+02 0.  0.
         13    1    3    3    0    0 -0.64675868293E+03  0.19212873044E+03  0.11334992038E+04  0.13191022280E+04  0.00000000000E+00 0.  1.
        -13    1    3    3    0    0 -0.25258571602E+03  0.12245703759E+03  0.40310120431E+03  0.49120856152E+03  0.00000000000E+00 0. -1.
         22    1    1    2    0    0  0.89934439895E+03 -0.31458576803E+03 -0.11196655726E+04  0.14701821479E+04  0.00000000000E+00 0.  1.
<mgrwt>
<rscale>  0 0.32538899E+04</rscale>
<asrwt>0</asrwt>
<pdfrwt beam="1">  1        2 0.22027370E+00 0.32538899E+04</pdfrwt>
<pdfrwt beam="2">  1       -2 0.28441752E+00 0.32538899E+04</pdfrwt>
<totfact> 0.46044587E-01</totfact>
</mgrwt>
</event>
<event>
 6    1  0.1719556E-004  0.1655475E+04  0.7818608E-02  0.8787174E-01
         -1   -1    0    0    0  501 -0.00000000000E+00  0.00000000000E+00  0.31706718607E+03  0.31706718607E+03  0.00000000000E+00 0. -1.
          1   -1    0    0  501    0  0.00000000000E+00 -0.00000000000E+00 -0.21608955680E+04  0.21608955680E+04  0.00000000000E+00 0.  1.
         23    2    1    2    0    0 -0.69666804299E+03  0.30136180750E+03 -0.14096394997E+04  0.16034998980E+04  0.89236218388E+02 0.  0.
         11    1    3    3    0    0 -0.27739673064E+03  0.16092895084E+03 -0.54477789275E+03  0.63216297410E+03  0.00000000000E+00 0. -1.
        -11    1    3    3    0    0 -0.41927131234E+03  0.14043285665E+03 -0.86486160694E+03  0.97133692391E+03  0.00000000000E+00 0.  1.
         22    1    1    2    0    0  0.69666804299E+03 -0.30136180750E+03 -0.43418888220E+03  0.87446285602E+03  0.00000000000E+00 0. -1.
<mgrwt>
<rscale>  0 0.16554746E+04</rscale>
<asrwt>0</asrwt>
<pdfrwt beam="1">  1        1 0.33244547E+00 0.16554746E+04</pdfrwt>
<pdfrwt beam="2">  1       -1 0.48779567E-01 0.16554746E+04</pdfrwt>
<totfact> 0.93147387E+00</totfact>
</mgrwt>
</event>
<event>
 6    1  0.1719556E-004  0.1490575E+04  0.7818608E-02  0.8890745E-01
         -1   -1    0    0    0  501 -0.00000000000E+00  0.00000000000E+00  0.88588761552E+03  0.88588761552E+03  0.00000000000E+00 0. -1.
          1   -1    0    0  501    0  0.00000000000E+00 -0.00000000000E+00 -0.62700198053E+03  0.62700198053E+03  0.00000000000E+00 0.  1.
         23    2    1    2    0    0  0.21381734146E+03  0.31867411066E+02  0.85084057024E+03  0.88269594902E+03  0.92136176742E+02 0.  0.
         13    1    3    3    0    0  0.21379587754E+03  0.47412121106E+02  0.77919101802E+03  0.80937953337E+03  0.00000000000E+00 0. -1.
        -13    1    3    3    0    0  0.21463920581E-01 -0.15544710040E+02  0.71649552218E+02  0.73316415652E+02  0.00000000000E+00 0.  1.
         22    1    1    2    0    0 -0.21381734146E+03 -0.31867411066E+02 -0.59195493525E+03  0.63019364703E+03  0.00000000000E+00 0.  1.
<mgrwt>
<rscale>  0 0.14905748E+04</rscale>
<asrwt>0</asrwt>
<pdfrwt beam="1">  1        1 0.96461842E-01 0.14905748E+04</pdfrwt>
<pdfrwt beam="2">  1       -1 0.13629040E+00 0.14905748E+04</pdfrwt>
<totfact> 0.13979878E+01</totfact>
</mgrwt>
</event>
<event>
 6    1  0.1719556E-004  0.2381784E+04  0.7818608E-02  0.8446355E-01
          2   -1    0    0  501    0  0.00000000000E+00  0.00000000000E+00  0.63884413673E+03  0.63884413673E+03  0.00000000000E+00 0.  1.
         -2   -1    0    0    0  501 -0.00000000000E+00 -0.00000000000E+00 -0.22199841103E+04  0.22199841103E+04  0.00000000000E+00 0. -1.
         23    2    1    2    0    0  0.30492083583E+02 -0.66826744328E+03 -0.19717650926E+04  0.20841675945E+04  0.91574225758E+02 0.  0.
         13    1    3    3    0    0  0.42608761270E+02 -0.37163221718E+03 -0.98187243174E+03  0.10507137972E+04  0.00000000000E+00 0. -1.
        -13    1    3    3    0    0 -0.12116677687E+02 -0.29663522609E+03 -0.98989266087E+03  0.10334537974E+04  0.00000000000E+00 0.  1.
         22    1    1    2    0    0 -0.30492083583E+02  0.66826744328E+03  0.39062511903E+03  0.77466065250E+03  0.00000000000E+00 0.  1.
<mgrwt>
<rscale>  0 0.23817841E+04</rscale>
<asrwt>0</asrwt>
<pdfrwt beam="1">  1        2 0.98283713E-01 0.23817841E+04</pdfrwt>
<pdfrwt beam="2">  1       -2 0.34153602E+00 0.23817841E+04</pdfrwt>
<totfact> 0.72806932E-01</totfact>
</mgrwt>
</event>
<event>
 6    1  0.1719556E-004  0.1228877E+04  0.7818608E-02  0.9087950E-01
          2   -1    0    0  501    0  0.00000000000E+00  0.00000000000E+00  0.40241900720E+03  0.40241900720E+03  0.00000000000E+00 0.  1.
         -2   -1    0    0    0  501 -0.00000000000E+00 -0.00000000000E+00 -0.93816245383E+03  0.93816245383E+03  0.00000000000E+00 0. -1.
         23    2    1    2    0    0 -0.58380458897E+03 -0.16072679200E+03 -0.35937522715E+03  0.70989401973E+03  0.90211227648E+02 0.  0.
         13    1    3    3    0    0 -0.45563807814E+03 -0.99221637525E+02 -0.30744490724E+03  0.55854575694E+03  0.00000000000E+00 0.  1.
        -13    1    3    3    0    0 -0.12816651083E+03 -0.61505154471E+02 -0.51930319908E+02  0.15134826280E+03  0.00000000000E+00 0. -1.
         22    1    1    2    0    0  0.58380458897E+03  0.16072679200E+03 -0.17636821947E+03  0.63068744130E+03  0.00000000000E+00 0. -1.
<mgrwt>
<rscale>  0 0.12288766E+04</rscale>
<asrwt>0</asrwt>
<pdfrwt beam="1">  1        2 0.61910617E-01 0.12288766E+04</pdfrwt>
<pdfrwt beam="2">  1       -2 0.14433268E+00 0.12288766E+04</pdfrwt>
<totfact> 0.25774455E+01</totfact>
</mgrwt>
</event>
<event>
 6    1  0.1719556E-004  0.1622462E+04  0.7818608E-02  0.8806866E-01
          2   -1    0    0  501    0  0.00000000000E+00  0.00000000000E+00  0.37080998166E+03  0.37080998166E+03  0.00000000000E+00 0.  1.
         -2   -1    0    0    0  501 -0.00000000000E+00 -0.00000000000E+00 -0.17747526010E+04  0.17747526010E+04  0.00000000000E+00 0. -1.
         23    2    1    2    0    0 -0.52963367692E+03 -0.21552713932E+03  0.53145389007E+02  0.58029287951E+03  0.83376340361E+02 0.  0.
         13    1    3    3    0    0 -0.29796721477E+03 -0.83659079930E+02  0.51343283287E+02  0.31371872031E+03  0.00000000000E+00 0. -1.
        -13    1    3    3    0    0 -0.23166646214E+03 -0.13186805939E+03  0.18021057198E+01  0.26657415920E+03  0.00000000000E+00 0.  1.
         22    1    1    2    0    0  0.52963367692E+03  0.21552713932E+03 -0.14570880083E+04  0.15652697031E+04  0.00000000000E+00 0. -1.
<mgrwt>
<rscale>  0 0.16224623E+04</rscale>
<asrwt>0</asrwt>
<pdfrwt beam="1">  1        2 0.57047690E-01 0.16224623E+04</pdfrwt>
<pdfrwt beam="2">  1       -2 0.27303886E+00 0.16224623E+04</pdfrwt>
<totfact> 0.38550914E+00</totfact>
</mgrwt>
</event>
<event>
 6    1  0.2329726E-004  0.3274231E+04  0.7818608E-02  0.8169484E-01
         -1   -1    0    0    0  501 -0.00000000000E+00  0.00000000000E+00  0.12241615366E+04  0.12241615366E+04  0.00000000000E+00 0. -1.
          1   -1    0    0  501    0  0.00000000000E+00 -0.00000000000E+00 -0.21893732302E+04  0.21893732302E+04  0.00000000000E+00 0.  1.
         23    2    1    2    0    0 -0.65495560970E+03  0.44287604970E+02 -0.20450877120E+04  0.21497861930E+04  0.90932301315E+02 0.  0.
         13    1    3    3    0    0 -0.23808233161E+03 -0.13063723654E+02 -0.84839829170E+03  0.88126813108E+03  0.00000000000E+00 0. -1.
        -13    1    3    3    0    0 -0.41687327809E+03  0.57351328623E+02 -0.11966894203E+04  0.12685180619E+04  0.00000000000E+00 0.  1.
         22    1    1    2    0    0  0.65495560970E+03 -0.44287604970E+02  0.10798760184E+04  0.12637485738E+04  0.00000000000E+00 0. -1.
<mgrwt>
<rscale>  0 0.32742306E+04</rscale>
<asrwt>0</asrwt>
<pdfrwt beam="1">  1        1 0.33682665E+00 0.32742306E+04</pdfrwt>
<pdfrwt beam="2">  1       -1 0.18833254E+00 0.32742306E+04</pdfrwt>
<totfact> 0.33434096E-01</totfact>
</mgrwt>
</event>
<event>
 6    1  0.1719556E-004  0.1935768E+04  0.7818608E-02  0.8637254E-01
         -2   -1    0    0    0  501 -0.00000000000E+00  0.00000000000E+00  0.65960714768E+03  0.65960714768E+03  0.00000000000E+00 0. -1.
          2   -1    0    0  501    0  0.00000000000E+00 -0.00000000000E+00 -0.14202384087E+04  0.14202384087E+04  0.00000000000E+00 0.  1.
         23    2    1    2    0    0 -0.45948431428E+03 -0.37972435130E+03  0.43515553663E+03  0.74372337503E+03  0.91911367429E+02 0.  0.
         11    1    3    3    0    0 -0.12914105398E+03 -0.64111068898E+02  0.13148377237E+03  0.19512976035E+03  0.00000000000E+00 0. -1.
        -11    1    3    3    0    0 -0.33034326030E+03 -0.31561328240E+03  0.30367176426E+03  0.54859361468E+03  0.00000000000E+00 0.  1.
         22    1    1    2    0    0  0.45948431428E+03  0.37972435130E+03 -0.11957867977E+04  0.13361221814E+04  0.00000000000E+00 0.  1.
<mgrwt>
<rscale>  0 0.19357680E+04</rscale>
<asrwt>0</asrwt>
<pdfrwt beam="1">  1        2 0.21849821E+00 0.19357680E+04</pdfrwt>
<pdfrwt beam="2">  1       -2 0.10147802E+00 0.19357680E+04</pdfrwt>
<totfact> 0.10497179E+01</totfact>
</mgrwt>
</event>
<event>
 6    1  0.1719556E-004  0.7233423E+04  0.7818608E-02  0.7553830E-01
          2   -1    0    0  501    0  0.00000000000E+00  0.00000000000E+00  0.37944072231E+04  0.37944072231E+04  0.00000000000E+00 0.  1.
         -2   -1    0    0    0  501 -0.00000000000E+00 -0.00000000000E+00 -0.34473371318E+04  0.34473371318E+04  0.00000000000E+00 0. -1.
         23    2    1    2    0    0 -0.19539857520E+04  0.27723078199E+04  0.14291051847E+04  0.36816108026E+04  0.90363185325E+02 0.  0.
         11    1    3    3    0    0 -0.14563347819E+04  0.20728695803E+04  0.11095997459E+04  0.27656664459E+04  0.00000000000E+00 0. -1.
        -11    1    3    3    0    0 -0.49765097010E+03  0.69943823960E+03  0.31950543879E+03  0.91594435665E+03  0.00000000000E+00 0.  1.
         22    1    1    2    0    0  0.19539857520E+04 -0.27723078199E+04 -0.10820350934E+04  0.35601335524E+04  0.00000000000E+00 0.  1.
<mgrwt>
<rscale>  0 0.72334227E+04</rscale>
<asrwt>0</asrwt>
<pdfrwt beam="1">  1        2 0.58375495E+00 0.72334227E+04</pdfrwt>
<pdfrwt beam="2">  1       -2 0.53035956E+00 0.72334227E+04</pdfrwt>
<totfact> 0.33708520E-04</totfact>
</mgrwt>
</event>
<event>
 6    1  0.1719556E-004  0.2526735E+04  0.7818608E-02  0.8393523E-01
          2   -1    0    0  501    0  0.00000000000E+00  0.00000000000E+00  0.85397024010E+03  0.85397024010E+03  0.00000000000E+00 0.  1.
         -2   -1    0    0    0  501 -0.00000000000E+00 -0.00000000000E+00 -0.18690310830E+04  0.18690310830E+04  0.00000000000E+00 0. -1.
         23    2    1    2    0    0  0.87326756638E+03  0.34951427864E+03  0.39802088307E+03  0.10254865403E+04  0.91899660334E+02 0.  0.
         11    1    3    3    0    0  0.50445948591E+03  0.20504955624E+03  0.27925942747E+03  0.61197264748E+03  0.00000000000E+00 0.  1.
        -11    1    3    3    0    0  0.36880808047E+03  0.14446472240E+03  0.11876145560E+03  0.41351389284E+03  0.00000000000E+00 0. -1.
         22    1    1    2    0    0 -0.87326756638E+03 -0.34951427864E+03 -0.14130817259E+04  0.16975147827E+04  0.00000000000E+00 0. -1.
<mgrwt>
<rscale>  0 0.25267346E+04</rscale>
<asrwt>0</asrwt>
<pdfrwt beam="1">  1        2 0.13138004E+00 0.25267346E+04</pdfrwt>
<pdfrwt beam="2">  1       -2 0.28754324E+00 0.25267346E+04</pdfrwt>
<totfact> 0.10630811E+00</totfact>
</mgrwt>
</event>
<event>
 6    1  0.1719556E-004  0.1758486E+04  0.7818608E-02  0.8728693E-01
         -2   -1    0    0    0  501 -0.00000000000E+00  0.00000000000E+00  0.23182139947E+03  0.23182139947E+03  0.00000000000E+00 0. -1.
          2   -1    0    0  501    0  0.00000000000E+00 -0.00000000000E+00 -0.33347597437E+04  0.33347597437E+04  0.00000000000E+00 0.  1.
         23    2    1    2    0    0 -0.78575820647E+03  0.37906229783E+03 -0.17345990997E+04  0.19437883429E+04  0.91514482153E+02 0.  0.
         11    1    3    3    0    0 -0.54892031976E+03  0.21916139212E+03 -0.11421189057E+04  0.12859941011E+04  0.00000000000E+00 0.  1.
        -11    1    3    3    0    0 -0.23683788671E+03  0.15990090572E+03 -0.59248019402E+03  0.65779424180E+03  0.00000000000E+00 0. -1.
         22    1    1    2    0    0  0.78575820647E+03 -0.37906229783E+03 -0.13683392445E+04  0.16227928003E+04  0.00000000000E+00 0. -1.
<mgrwt>
<rscale>  0 0.17584865E+04</rscale>
<asrwt>0</asrwt>
<pdfrwt beam="1">  1        2 0.51303994E+00 0.17584865E+04</pdfrwt>
<pdfrwt beam="2">  1       -2 0.35664832E-01 0.17584865E+04</pdfrwt>
<totfact> 0.74416797E+00</totfact>
</mgrwt>
</event>
<event>
 6    1  0.1719556E-004  0.5107913E+04  0.7818608E-02  0.7812073E-01
         -2   -1    0    0    0  501 -0.00000000000E+00  0.00000000000E+00  0.22439378550E+04  0.22439378550E+04  0.00000000000E+00 0. -1.
          2   -1    0    0  501    0  0.00000000000E+00 -0.00000000000E+00 -0.29068063662E+04  0.29068063662E+04  0.00000000000E+00 0.  1.
         23    2    1    2    0    0  0.65063615697E+03 -0.16485758889E+04  0.15214643359E+04  0.23378382759E+04  0.97489532311E+02 0.  0.
         13    1    3    3    0    0  0.38201843378E+03 -0.88696021343E+03  0.87899194101E+03  0.13058573185E+04  0.00000000000E+00 0.  1.
        -13    1    3    3    0    0  0.26861772318E+03 -0.76161567548E+03  0.64247239485E+03  0.10319809574E+04  0.00000000000E+00 0. -1.
         22    1    1    2    0    0 -0.65063615697E+03  0.16485758889E+04 -0.21843328470E+04  0.28129059453E+04  0.00000000000E+00 0.  1.
<mgrwt>
<rscale>  0 0.51079126E+04</rscale>
<asrwt>0</asrwt>
<pdfrwt beam="1">  1        2 0.44720098E+00 0.51079126E+04</pdfrwt>
<pdfrwt beam="2">  1       -2 0.34522121E+00 0.51079126E+04</pdfrwt>
<totfact> 0.23942782E-02</totfact>
</mgrwt>
</event>
<event>
 6    1  0.1719556E-004  0.2253887E+04  0.7818608E-02  0.8496328E-01
          2   -1    0    0  501    0  0.00000000000E+00  0.00000000000E+00  0.97754353575E+03  0.97754353575E+03  0.00000000000E+00 0.  1.
         -2   -1    0    0    0  501 -0.00000000000E+00 -0.00000000000E+00 -0.12991760572E+04  0.12991760572E+04  0.00000000000E+00 0. -1.
         23    2    1    2    0    0  0.10617132177E+04 -0.78155867813E+02 -0.52837412233E+03  0.11922448879E+04  0.94474141626E+02 0.  0.
         11    1    3    3    0    0  0.56567265125E+03 -0.87998619727E+02 -0.29318102563E+03  0.64318303711E+03  0.00000000000E+00 0.  1.
        -11    1    3    3    0    0  0.49604056642E+03  0.98427519142E+01 -0.23519309670E+03  0.54906185083E+03  0.00000000000E+00 0. -1.
         22    1    1    2    0    0 -0.10617132177E+04  0.78155867813E+02  0.20674160088E+03  0.10844747050E+04  0.00000000000E+00 0.  1.
<mgrwt>
<rscale>  0 0.22538866E+04</rscale>
<asrwt>0</asrwt>
<pdfrwt beam="1">  1        2 0.15039131E+00 0.22538866E+04</pdfrwt>
<pdfrwt beam="2">  1       -2 0.19987324E+00 0.22538866E+04</pdfrwt>
<totfact> 0.31576153E+00</totfact>
</mgrwt>
</event>
<event>
 6    1  0.1719556E-004  0.1931602E+04  0.7818608E-02  0.8639284E-01
          2   -1    0    0  501    0  0.00000000000E+00  0.00000000000E+00  0.28092932455E+04  0.28092932455E+04  0.00000000000E+00 0.  1.
         -2   -1    0    0    0  501 -0.00000000000E+00 -0.00000000000E+00 -0.33203053121E+03  0.33203053121E+03  0.00000000000E+00 0. -1.
         23    2    1    2    0    0  0.34859060649E+03  0.12206882457E+03  0.26888880572E+04  0.27156460881E+04  0.90545472290E+02 0.  0.
         11    1    3    3    0    0  0.18066031612E+03  0.11073643914E+03  0.15248054830E+04  0.15394584989E+04  0.00000000000E+00 0.  1.
        -11    1    3    3    0    0  0.16793029037E+03  0.11332385427E+02  0.11640825742E+04  0.11761875892E+04  0.00000000000E+00 0. -1.
         22    1    1    2    0    0 -0.34859060649E+03 -0.12206882457E+03 -0.21162534291E+03  0.42567768866E+03  0.00000000000E+00 0. -1.
<mgrwt>
<rscale>  0 0.19316015E+04</rscale>
<asrwt>0</asrwt>
<pdfrwt beam="1">  1        2 0.43219894E+00 0.19316015E+04</pdfrwt>
<pdfrwt beam="2">  1       -2 0.51081622E-01 0.19316015E+04</pdfrwt>
<totfact> 0.77381494E+00</totfact>
</mgrwt>
</event>
<event>
 6    1  0.1719556E-004  0.3335895E+04  0.7818608E-02  0.8153822E-01
         -2   -1    0    0    0  501 -0.00000000000E+00  0.00000000000E+00  0.11315122823E+04  0.11315122823E+04  0.00000000000E+00 0. -1.
          2   -1    0    0  501    0  0.00000000000E+00 -0.00000000000E+00 -0.24586992890E+04  0.24586992890E+04  0.00000000000E+00 0.  1.
         23    2    1    2    0    0  0.30115362987E+03 -0.13611305169E+04  0.31903564294E+03  0.14330331353E+04  0.91817386572E+02 0.  0.
         13    1    3    3    0    0  0.10715576641E+03 -0.67742403646E+03  0.17632167398E+03  0.70814900703E+03  0.00000000000E+00 0. -1.
        -13    1    3    3    0    0  0.19399786346E+03 -0.68370648044E+03  0.14271396896E+03  0.72488412822E+03  0.00000000000E+00 0.  1.
         22    1    1    2    0    0 -0.30115362987E+03  0.13611305169E+04 -0.16462226496E+04  0.21571784360E+04  0.00000000000E+00 0.  1.
<mgrwt>
<rscale>  0 0.33358947E+04</rscale>
<asrwt>0</asrwt>
<pdfrwt beam="1">  1        2 0.37826142E+00 0.33358947E+04</pdfrwt>
<pdfrwt beam="2">  1       -2 0.17407882E+00 0.33358947E+04</pdfrwt>
<totfact> 0.61078411E-01</totfact>
</mgrwt>
</event>
<event>
 6    1  0.1719556E-004  0.1885246E+04  0.7818608E-02  0.8662235E-01
         -2   -1    0    0    0  501 -0.00000000000E+00  0.00000000000E+00  0.19972304002E+04  0.19972304002E+04  0.00000000000E+00 0. -1.
          2   -1    0    0  501    0  0.00000000000E+00 -0.00000000000E+00 -0.44488509347E+03  0.44488509347E+03  0.00000000000E+00 0.  1.
         23    2    1    2    0    0 -0.33004045832E+03  0.86970780808E+03  0.95704586772E+03  0.13377152955E+04  0.90703051013E+02 0.  0.
         11    1    3    3    0    0 -0.13564945230E+03  0.47229182345E+03  0.47527047620E+03  0.68362443341E+03  0.00000000000E+00 0.  1.
        -11    1    3    3    0    0 -0.19439100601E+03  0.39741598462E+03  0.48177539152E+03  0.65409086213E+03  0.00000000000E+00 0. -1.
         22    1    1    2    0    0  0.33004045832E+03 -0.86970780808E+03  0.59529943904E+03  0.11044001981E+04  0.00000000000E+00 0.  1.
<mgrwt>
<rscale>  0 0.18852459E+04</rscale>
<asrwt>0</asrwt>
<pdfrwt beam="1">  1        2 0.68443862E-01 0.18852459E+04</pdfrwt>
<pdfrwt beam="2">  1       -2 0.30726621E+00 0.18852459E+04</pdfrwt>
<totfact> 0.18983072E+00</totfact>
</mgrwt>
</event>
<event>
 6    1  0.2077220E-004  0.4000549E+04  0.7818608E-02  0.8004436E-01
          2   -1    0    0  501    0  0.00000000000E+00  0.00000000000E+00  0.29187115636E+04  0.29187115636E+04  0.00000000000E+00 0.  1.
         -2   -1    0    0    0  501 -0.00000000000E+00 -0.00000000000E+00 -0.13708440608E+04  0.13708440608E+04  0.00000000000E+00 0. -1.
         23    2    1    2    0    0  0.71499188603E+03 -0.86230843856E+03  0.25499223205E+04  0.27865908550E+04  0.90529068405E+02 0.  0.
         13    1    3    3    0    0  0.31331838605E+03 -0.35918673892E+03  0.97892206612E+03  0.10887937987E+04  0.00000000000E+00 0.  1.
        -13    1    3    3    0    0  0.40167349998E+03 -0.50312169964E+03  0.15710002544E+04  0.16977970564E+04  0.00000000000E+00 0. -1.
         22    1    1    2    0    0 -0.71499188603E+03  0.86230843856E+03 -0.10020548177E+04  0.15029647694E+04  0.00000000000E+00 0. -1.
<mgrwt>
<rscale>  0 0.40005492E+04</rscale>
<asrwt>0</asrwt>
<pdfrwt beam="1">  1        2 0.44903254E+00 0.40005492E+04</pdfrwt>
<pdfrwt beam="2">  1       -2 0.21089909E+00 0.40005492E+04</pdfrwt>
<totfact> 0.17429851E-01</totfact>
</mgrwt>
</event>
<event>
 6    1  0.1719556E-004  0.2791778E+04  0.7818608E-02  0.8305825E-01
          2   -1    0    0  501    0  0.00000000000E+00  0.00000000000E+00  0.25155462837E+04  0.25155462837E+04  0.00000000000E+00 0.  1.
         -2   -1    0    0    0  501 -0.00000000000E+00 -0.00000000000E+00 -0.77458569298E+03  0.77458569298E+03  0.00000000000E+00 0. -1.
         23    2    1    2    0    0 -0.12289470941E+04 -0.47020495750E+03  0.14155459926E+04  0.19346621973E+04  0.87998286080E+02 0.  0.
         13    1    3    3    0    0 -0.25003034871E+03 -0.59999117910E+02  0.29113311341E+03  0.38842445746E+03  0.00000000000E+00 0.  1.
        -13    1    3    3    0    0 -0.97891674539E+03 -0.41020583959E+03  0.11244128791E+04  0.15462377398E+04  0.00000000000E+00 0. -1.
         22    1    1    2    0    0  0.12289470941E+04  0.47020495750E+03  0.32541459815E+03  0.13554697794E+04  0.00000000000E+00 0.  1.
<mgrwt>
<rscale>  0 0.27917780E+04</rscale>
<asrwt>0</asrwt>
<pdfrwt beam="1">  1        2 0.38700712E+00 0.27917780E+04</pdfrwt>
<pdfrwt beam="2">  1       -2 0.11916703E+00 0.27917780E+04</pdfrwt>
<totfact> 0.16035957E+00</totfact>
</mgrwt>
</event>
<event>
 6    1  0.1719556E-004  0.1338678E+04  0.7818608E-02  0.8999443E-01
         -2   -1    0    0    0  501 -0.00000000000E+00  0.00000000000E+00  0.29216859691E+03  0.29216859691E+03  0.00000000000E+00 0. -1.
          2   -1    0    0  501    0  0.00000000000E+00 -0.00000000000E+00 -0.15334116934E+04  0.15334116934E+04  0.00000000000E+00 0.  1.
         23    2    1    2    0    0  0.63692996369E+00 -0.85321732889E+02 -0.15245743363E+04  0.15296803153E+04  0.91185284525E+02 0.  0.
         13    1    3    3    0    0 -0.19762310786E+02 -0.40054394614E+02 -0.23839339859E+03  0.24254136956E+03  0.00000000000E+00 0. -1.
        -13    1    3    3    0    0  0.20399240750E+02 -0.45267338275E+02 -0.12861809378E+04  0.12871389457E+04  0.00000000000E+00 0.  1.
         22    1    1    2    0    0 -0.63692996369E+00  0.85321732889E+02  0.28333123983E+03  0.29589997507E+03  0.00000000000E+00 0. -1.
<mgrwt>
<rscale>  0 0.13386781E+04</rscale>
<asrwt>0</asrwt>
<pdfrwt beam="1">  1        2 0.23590949E+00 0.13386781E+04</pdfrwt>
<pdfrwt beam="2">  1       -2 0.44949015E-01 0.13386781E+04</pdfrwt>
<totfact> 0.55754005E+01</totfact>
</mgrwt>
</event>
<event>
 6    1  0.1719556E-004  0.9051539E+03  0.7818608E-02  0.9419162E-01
          2   -1    0    0  501    0  0.00000000000E+00  0.00000000000E+00  0.16259860397E+04  0.16259860397E+04  0.00000000000E+00 0.  1.
         -2   -1    0    0    0  501 -0.00000000000E+00 -0.00000000000E+00 -0.12597025562E+03  0.12597025562E+03  0.00000000000E+00 0. -1.
         23    2    1    2    0    0  0.61895164313E+02  0.26898923426E+03  0.14406138807E+04  0.14696181901E+04  0.90681045255E+02 0.  0.
         13    1    3    3    0    0  0.53622236671E+02  0.14150286264E+03  0.98006801215E+03  0.99168125567E+03  0.00000000000E+00 0. -1.
        -13    1    3    3    0    0  0.82729276420E+01  0.12748637162E+03  0.46054586854E+03  0.47793693445E+03  0.00000000000E+00 0.  1.
         22    1    1    2    0    0 -0.61895164313E+02 -0.26898923426E+03  0.59401903373E+02  0.28233810518E+03  0.00000000000E+00 0. -1.
<mgrwt>
<rscale>  0 0.90515386E+03</rscale>
<asrwt>0</asrwt>
<pdfrwt beam="1">  1        2 0.25015168E+00 0.90515386E+03</pdfrwt>
<pdfrwt beam="2">  1       -2 0.19380041E-01 0.90515386E+03</pdfrwt>
<totfact> 0.24449857E+02</totfact>
</mgrwt>
</event>
<event>
 6    1  0.1719556E-004  0.9130134E+03  0.7818608E-02  0.9409459E-01
          1   -1    0    0  501    0  0.00000000000E+00  0.00000000000E+00  0.54395694833E+03  0.54395694833E+03  0.00000000000E+00 0.  1.
         -1   -1    0    0    0  501 -0.00000000000E+00 -0.00000000000E+00 -0.38311556492E+03  0.38311556492E+03  0.00000000000E+00 0. -1.
         23    2    1    2    0    0  0.18367799942E+03 -0.35656428956E+03 -0.13044001845E+03  0.43137043021E+03  0.90499445255E+02 0.  0.
         13    1    3    3    0    0  0.56329936097E+02 -0.19821028391E+03 -0.44911310008E+02  0.21089666691E+03  0.00000000000E+00 0. -1.
        -13    1    3    3    0    0  0.12734806332E+03 -0.15835400565E+03 -0.85528708441E+02  0.22047376330E+03  0.00000000000E+00 0.  1.
         22    1    1    2    0    0 -0.18367799942E+03  0.35656428956E+03  0.29128140186E+03  0.49570208304E+03  0.00000000000E+00 0.  1.
<mgrwt>
<rscale>  0 0.91301341E+03</rscale>
<asrwt>0</asrwt>
<pdfrwt beam="1">  1        1 0.83685684E-01 0.91301341E+03</pdfrwt>
<pdfrwt beam="2">  1       -1 0.58940856E-01 0.91301341E+03</pdfrwt>
<totfact> 0.11580562E+02</totfact>
</mgrwt>
</event>
<event>
 6    1  0.1719556E-004  0.2363904E+04  0.7818608E-02  0.8453142E-01
          2   -1    0    0  501    0  0.00000000000E+00  0.00000000000E+00  0.46934165830E+04  0.46934165830E+04  0.00000000000E+00 0.  1.
         -2   -1    0    0    0  501 -0.00000000000E+00 -0.00000000000E+00 -0.29765328215E+03  0.29765328215E+03  0.00000000000E+00 0. -1.
         23    2    1    2    0    0  0.10818420238E+04  0.26014883816E+02  0.31957764860E+04  0.33752025147E+04  0.89138810920E+02 0.  0.
         13    1    3    3    0    0  0.67402042361E+03  0.55200547532E+02  0.20489648561E+04  0.21576857078E+04  0.00000000000E+00 0.  1.
        -13    1    3    3    0    0  0.40782160020E+03 -0.29185663716E+02  0.11468116299E+04  0.12175168069E+04  0.00000000000E+00 0. -1.
         22    1    1    2    0    0 -0.10818420238E+04 -0.26014883816E+02  0.11999868148E+04  0.16158673505E+04  0.00000000000E+00 0. -1.
<mgrwt>
<rscale>  0 0.23639043E+04</rscale>
<asrwt>0</asrwt>
<pdfrwt beam="1">  1        2 0.72206403E+00 0.23639043E+04</pdfrwt>
<pdfrwt beam="2">  1       -2 0.45792816E-01 0.23639043E+04</pdfrwt>
<totfact> 0.32130899E-01</totfact>
</mgrwt>
</event>
<event>
 6    1  0.1719556E-004  0.1635564E+04  0.7818608E-02  0.8798993E-01
          2   -1    0    0  501    0  0.00000000000E+00  0.00000000000E+00  0.30965400988E+03  0.30965400988E+03  0.00000000000E+00 0.  1.
         -2   -1    0    0    0  501 -0.00000000000E+00 -0.00000000000E+00 -0.21597248294E+04  0.21597248294E+04  0.00000000000E+00 0. -1.
         23    2    1    2    0    0 -0.53029065176E+02  0.46598529085E+03 -0.19345759954E+04  0.19928334608E+04  0.94056085690E+02 0.  0.
         11    1    3    3    0    0  0.22974792023E+01  0.29680852395E+03 -0.10889263422E+04  0.11286545782E+04  0.00000000000E+00 0.  1.
        -11    1    3    3    0    0 -0.55326544378E+02  0.16917676690E+03 -0.84564965325E+03  0.86417888253E+03  0.00000000000E+00 0. -1.
         22    1    1    2    0    0  0.53029065176E+02 -0.46598529085E+03  0.84505175896E+02  0.47654537853E+03  0.00000000000E+00 0.  1.
<mgrwt>
<rscale>  0 0.16355641E+04</rscale>
<asrwt>0</asrwt>
<pdfrwt beam="1">  1        2 0.47639080E-01 0.16355641E+04</pdfrwt>
<pdfrwt beam="2">  1       -2 0.33226535E+00 0.16355641E+04</pdfrwt>
<totfact> 0.20456932E+00</totfact>
</mgrwt>
</event>
<event>
 6    1  0.1719556E-004  0.3799170E+04  0.7818608E-02  0.8046333E-01
         -1   -1    0    0    0  501 -0.00000000000E+00  0.00000000000E+00  0.21361200843E+04  0.21361200843E+04  0.00000000000E+00 0.  1.
          1   -1    0    0  501    0  0.00000000000E+00 -0.00000000000E+00 -0.16892415783E+04  0.16892415783E+04  0.00000000000E+00 0. -1.
         23    2    1    2    0    0 -0.12134577404E+03  0.17795389550E+04 -0.43147394095E+03  0.18371497247E+04  0.86404051460E+02 0.  0.
         11    1    3    3    0    0 -0.63697322802E+02  0.12327501767E+04 -0.33369632164E+03  0.12787038680E+04  0.00000000000E+00 0. -1.
        -11    1    3    3    0    0 -0.57648451241E+02  0.54678877828E+03 -0.97777619317E+02  0.55844585667E+03  0.00000000000E+00 0.  1.
         22    1    1    2    0    0  0.12134577404E+03 -0.17795389550E+04  0.87835244691E+03  0.19882119379E+04  0.00000000000E+00 0.  1.
<mgrwt>
<rscale>  0 0.37991698E+04</rscale>
<asrwt>0</asrwt>
<pdfrwt beam="1">  1        1 0.25988332E+00 0.37991698E+04</pdfrwt>
<pdfrwt beam="2">  1       -1 0.32863386E+00 0.37991698E+04</pdfrwt>
<totfact> 0.82868984E-02</totfact>
</mgrwt>
</event>
<event>
 6    1  0.1719556E-004  0.4370864E+04  0.7818608E-02  0.7933643E-01
          2   -1    0    0  501    0  0.00000000000E+00  0.00000000000E+00  0.15142516081E+04  0.15142516081E+04  0.00000000000E+00 0.  1.
         -2   -1    0    0    0  501 -0.00000000000E+00 -0.00000000000E+00 -0.31541082073E+04  0.31541082073E+04  0.00000000000E+00 0. -1.
         23    2    1    2    0    0  0.15219769849E+04  0.21753612397E+02  0.85359022834E+03  0.17470306241E+04  0.81317657506E+02 0.  0.
         11    1    3    3    0    0  0.51266816021E+03 -0.30283414618E+02  0.29668716715E+03  0.59310117420E+03  0.00000000000E+00 0.  1.
        -11    1    3    3    0    0  0.10093088246E+04  0.52037027016E+02  0.55690306119E+03  0.11539294499E+04  0.00000000000E+00 0. -1.
         22    1    1    2    0    0 -0.15219769849E+04 -0.21753612397E+02 -0.24934468275E+04  0.29213291913E+04  0.00000000000E+00 0. -1.
<mgrwt>
<rscale>  0 0.43708642E+04</rscale>
<asrwt>0</asrwt>
<pdfrwt beam="1">  1        2 0.23296179E+00 0.43708642E+04</pdfrwt>
<pdfrwt beam="2">  1       -2 0.48524741E+00 0.43708642E+04</pdfrwt>
<totfact> 0.19544697E-02</totfact>
</mgrwt>
</event>
<event>
 6    1  0.1719556E-004  0.2699083E+04  0.7818608E-02  0.8335303E-01
         -1   -1    0    0    0  501 -0.00000000000E+00  0.00000000000E+00  0.97025521587E+03  0.97025521587E+03  0.00000000000E+00 0. -1.
          1   -1    0    0  501    0  0.00000000000E+00 -0.00000000000E+00 -0.18770958481E+04  0.18770958481E+04  0.00000000000E+00 0.  1.
         23    2    1    2    0    0 -0.45196550288E+03  0.11829308883E+04  0.32568653024E+02  0.12706176980E+04  0.99047033978E+02 0.  0.
         13    1    3    3    0    0 -0.35038784483E+03  0.79096707982E+03  0.12026816438E+02  0.86518507123E+03  0.00000000000E+00 0.  1.
        -13    1    3    3    0    0 -0.10157765804E+03  0.39196380847E+03  0.20541836586E+02  0.40543262673E+03  0.00000000000E+00 0. -1.
         22    1    1    2    0    0  0.45196550288E+03 -0.11829308883E+04 -0.93940928526E+03  0.15767333660E+04  0.00000000000E+00 0.  1.
<mgrwt>
<rscale>  0 0.26990828E+04</rscale>
<asrwt>0</asrwt>
<pdfrwt beam="1">  1        1 0.28878397E+00 0.26990828E+04</pdfrwt>
<pdfrwt beam="2">  1       -1 0.14927004E+00 0.26990828E+04</pdfrwt>
<totfact> 0.11146923E+00</totfact>
</mgrwt>
</event>
<event>
 6    1  0.1719556E-004  0.1792230E+04  0.7818608E-02  0.8710442E-01
          1   -1    0    0  501    0  0.00000000000E+00  0.00000000000E+00  0.34619147461E+04  0.34619147461E+04  0.00000000000E+00 0. -1.
         -1   -1    0    0    0  501 -0.00000000000E+00 -0.00000000000E+00 -0.23195899162E+03  0.23195899162E+03  0.00000000000E+00 0.  1.
         23    2    1    2    0    0 -0.29199752379E+03  0.24777645626E+03  0.32842404819E+04  0.33070888391E+04  0.62811788102E+02 0.  0.
         13    1    3    3    0    0 -0.26097282876E+03  0.24193129906E+03  0.29598889449E+04  0.29812044776E+04  0.00000000000E+00 0.  1.
        -13    1    3    3    0    0 -0.31024695030E+02  0.58451572015E+01  0.32435153699E+03  0.32588436156E+03  0.00000000000E+00 0. -1.
         22    1    1    2    0    0  0.29199752379E+03 -0.24777645626E+03 -0.54284727382E+02  0.38678489863E+03  0.00000000000E+00 0.  1.
<mgrwt>
<rscale>  0 0.17922302E+04</rscale>
<asrwt>0</asrwt>
<pdfrwt beam="1">  1        1 0.53260223E+00 0.17922302E+04</pdfrwt>
<pdfrwt beam="2">  1       -1 0.35686001E-01 0.17922302E+04</pdfrwt>
<totfact> 0.19065102E+00</totfact>
</mgrwt>
</event>
<event>
 6    1  0.1719556E-004  0.1458610E+04  0.7818608E-02  0.8912453E-01
          1   -1    0    0  501    0  0.00000000000E+00  0.00000000000E+00  0.98407065131E+03  0.98407065131E+03  0.00000000000E+00 0.  1.
         -1   -1    0    0    0  501 -0.00000000000E+00 -0.00000000000E+00 -0.54049525897E+03  0.54049525897E+03  0.00000000000E+00 0. -1.
         23    2    1    2    0    0  0.33515503661E+01 -0.50417429533E+03  0.76897766899E+03  0.92449125275E+03  0.95678984386E+02 0.  0.
         11    1    3    3    0    0 -0.38558684799E+02 -0.22892353225E+03  0.39638661097E+03  0.45936380043E+03  0.00000000000E+00 0. -1.
        -11    1    3    3    0    0  0.41910235165E+02 -0.27525076308E+03  0.37259105802E+03  0.46512745232E+03  0.00000000000E+00 0.  1.
         22    1    1    2    0    0 -0.33515503661E+01  0.50417429533E+03 -0.32540227664E+03  0.60007465753E+03  0.00000000000E+00 0. -1.
<mgrwt>
<rscale>  0 0.14586096E+04</rscale>
<asrwt>0</asrwt>
<pdfrwt beam="1">  1        1 0.15139548E+00 0.14586096E+04</pdfrwt>
<pdfrwt beam="2">  1       -1 0.83153117E-01 0.14586096E+04</pdfrwt>
<totfact> 0.21707090E+01</totfact>
</mgrwt>
</event>
<event>
 6    1  0.1719556E-004  0.1253326E+04  0.7818608E-02  0.9067419E-01
         -2   -1    0    0    0  501 -0.00000000000E+00  0.00000000000E+00  0.70073951862E+03  0.70073951862E+03  0.00000000000E+00 0. -1.
          2   -1    0    0  501    0  0.00000000000E+00 -0.00000000000E+00 -0.56041763073E+03  0.56041763073E+03  0.00000000000E+00 0.  1.
         23    2    1    2    0    0  0.86111324958E+02 -0.48026409904E+03  0.46090394776E+03  0.67734072081E+03  0.91045251911E+02 0.  0.
         13    1    3    3    0    0  0.22343649879E+02 -0.18819393582E+03  0.12182433048E+03  0.22529394946E+03  0.00000000000E+00 0.  1.
        -13    1    3    3    0    0  0.63767675079E+02 -0.29207016323E+03  0.33907961728E+03  0.45204677135E+03  0.00000000000E+00 0. -1.
         22    1    1    2    0    0 -0.86111324958E+02  0.48026409904E+03 -0.32058205987E+03  0.58381642854E+03  0.00000000000E+00 0. -1.
<mgrwt>
<rscale>  0 0.12533264E+04</rscale>
<asrwt>0</asrwt>
<pdfrwt beam="1">  1        2 0.86218097E-01 0.12533264E+04</pdfrwt>
<pdfrwt beam="2">  1       -2 0.10780608E+00 0.12533264E+04</pdfrwt>
<totfact> 0.36519757E+01</totfact>
</mgrwt>
</event>
<event>
 6    1  0.1719556E-004  0.1729523E+04  0.7818608E-02  0.8744703E-01
          1   -1    0    0  501    0  0.00000000000E+00  0.00000000000E+00  0.12769515330E+04  0.12769515330E+04  0.00000000000E+00 0.  1.
         -1   -1    0    0    0  501 -0.00000000000E+00 -0.00000000000E+00 -0.58562320114E+03  0.58562320114E+03  0.00000000000E+00 0. -1.
         23    2    1    2    0    0 -0.33914540555E+03 -0.24418065502E+02 -0.50682824194E+03  0.61710493387E+03  0.91256695883E+02 0.  0.
         13    1    3    3    0    0 -0.18792676498E+03 -0.34043407310E+01 -0.35557040345E+03  0.40219195708E+03  0.00000000000E+00 0. -1.
        -13    1    3    3    0    0 -0.15121864057E+03 -0.21013724771E+02 -0.15125783849E+03  0.21491297679E+03  0.00000000000E+00 0.  1.
         22    1    1    2    0    0  0.33914540555E+03  0.24418065502E+02  0.11981565738E+04  0.12454698003E+04  0.00000000000E+00 0.  1.
<mgrwt>
<rscale>  0 0.17295230E+04</rscale>
<asrwt>0</asrwt>
<pdfrwt beam="1">  1        1 0.19645408E+00 0.17295230E+04</pdfrwt>
<pdfrwt beam="2">  1       -1 0.90095878E-01 0.17295230E+04</pdfrwt>
<totfact> 0.10750012E+01</totfact>
</mgrwt>
</event>
<event>
 6    1  0.1719556E-004  0.1075121E+04  0.7818608E-02  0.9229785E-01
         -2   -1    0    0    0  501 -0.00000000000E+00  0.00000000000E+00  0.10468358630E+03  0.10468358630E+03  0.00000000000E+00 0. -1.
          2   -1    0    0  501    0  0.00000000000E+00 -0.00000000000E+00 -0.27604276142E+04  0.27604276142E+04  0.00000000000E+00 0.  1.
         23    2    1    2    0    0 -0.37424897905E+03 -0.19925576324E+03 -0.47537070828E+03  0.64389689962E+03  0.94131554499E+02 0.  0.
         11    1    3    3    0    0 -0.22869350847E+03 -0.13667213825E+03 -0.36019336359E+03  0.44801702352E+03  0.00000000000E+00 0.  1.
        -11    1    3    3    0    0 -0.14555547058E+03 -0.62583624990E+02 -0.11517734468E+03  0.19587987610E+03  0.00000000000E+00 0. -1.
         22    1    1    2    0    0  0.37424897905E+03  0.19925576324E+03 -0.21803733196E+04  0.22212143009E+04  0.00000000000E+00 0.  1.
<mgrwt>
<rscale>  0 0.10751213E+04</rscale>
<asrwt>0</asrwt>
<pdfrwt beam="1">  1        2 0.42468115E+00 0.10751213E+04</pdfrwt>
<pdfrwt beam="2">  1       -2 0.16105168E-01 0.10751213E+04</pdfrwt>
<totfact> 0.76694511E+01</totfact>
</mgrwt>
</event>
<event>
 6    1  0.1719556E-004  0.1023726E+04  0.7818608E-02  0.9282899E-01
          2   -1    0    0  501    0  0.00000000000E+00  0.00000000000E+00  0.35489655866E+03  0.35489655866E+03  0.00000000000E+00 0.  1.
         -2   -1    0    0    0  501 -0.00000000000E+00 -0.00000000000E+00 -0.73825350987E+03  0.73825350987E+03  0.00000000000E+00 0. -1.
         23    2    1    2    0    0  0.32834584934E+03  0.38672763500E+03 -0.21265934776E+03  0.55788664527E+03  0.92974460668E+02 0.  0.
         13    1    3    3    0    0  0.15477152289E+03  0.21135770964E+03 -0.15538311135E+03  0.30458203659E+03  0.00000000000E+00 0.  1.
        -13    1    3    3    0    0  0.17357432644E+03  0.17536992536E+03 -0.57276236406E+02  0.25330460868E+03  0.00000000000E+00 0. -1.
         22    1    1    2    0    0 -0.32834584934E+03 -0.38672763500E+03 -0.17069760346E+03  0.53526342326E+03  0.00000000000E+00 0. -1.
<mgrwt>
<rscale>  0 0.10237258E+04</rscale>
<asrwt>0</asrwt>
<pdfrwt beam="1">  1        2 0.54599471E-01 0.10237258E+04</pdfrwt>
<pdfrwt beam="2">  1       -2 0.11357746E+00 0.10237258E+04</pdfrwt>
<totfact> 0.55133161E+01</totfact>
</mgrwt>
</event>
<event>
 6    1  0.1719556E-004  0.2853936E+04  0.7818608E-02  0.8286716E-01
          2   -1    0    0  501    0  0.00000000000E+00  0.00000000000E+00  0.27630852565E+04  0.27630852565E+04  0.00000000000E+00 0.  1.
         -2   -1    0    0    0  501 -0.00000000000E+00 -0.00000000000E+00 -0.73694354029E+03  0.73694354029E+03  0.00000000000E+00 0. -1.
         23    2    1    2    0    0 -0.13414172595E+04  0.31348814682E+03  0.56438376791E+03  0.14914443744E+04  0.90566010922E+02 0.  0.
         11    1    3    3    0    0 -0.11314461797E+04  0.27241232285E+03  0.51043640874E+03  0.12707967023E+04  0.00000000000E+00 0.  1.
        -11    1    3    3    0    0 -0.20997107983E+03  0.41075823974E+02  0.53947359169E+02  0.22064767219E+03  0.00000000000E+00 0. -1.
         22    1    1    2    0    0  0.13414172595E+04 -0.31348814682E+03  0.14617579483E+04  0.20085844223E+04  0.00000000000E+00 0.  1.
<mgrwt>
<rscale>  0 0.28539361E+04</rscale>
<asrwt>0</asrwt>
<pdfrwt beam="1">  1        2 0.42509003E+00 0.28539361E+04</pdfrwt>
<pdfrwt beam="2">  1       -2 0.11337593E+00 0.28539361E+04</pdfrwt>
<totfact> 0.12868789E+00</totfact>
</mgrwt>
</event>
<event>
 6    1  0.1719556E-004  0.1906139E+04  0.7818608E-02  0.8651807E-01
         -1   -1    0    0    0  501 -0.00000000000E+00  0.00000000000E+00  0.58040177557E+03  0.58040177557E+03  0.00000000000E+00 0. -1.
          1   -1    0    0  501    0  0.00000000000E+00 -0.00000000000E+00 -0.15650220206E+04  0.15650220206E+04  0.00000000000E+00 0.  1.
         23    2    1    2    0    0 -0.42989775625E+03 -0.34731520148E+02  0.46042169851E+03  0.63739044841E+03  0.90885003998E+02 0.  0.
         13    1    3    3    0    0 -0.34459603122E+03 -0.39692058643E+02  0.31413421540E+03  0.46797669764E+03  0.00000000000E+00 0.  1.
        -13    1    3    3    0    0 -0.85301725021E+02  0.49605384947E+01  0.14628748311E+03  0.16941375077E+03  0.00000000000E+00 0. -1.
         22    1    1    2    0    0  0.42989775625E+03  0.34731520148E+02 -0.14450419435E+04  0.15080333477E+04  0.00000000000E+00 0.  1.
<mgrwt>
<rscale>  0 0.19061391E+04</rscale>
<asrwt>0</asrwt>
<pdfrwt beam="1">  1        1 0.24077262E+00 0.19061391E+04</pdfrwt>
<pdfrwt beam="2">  1       -1 0.89292581E-01 0.19061391E+04</pdfrwt>
<totfact> 0.67791445E+00</totfact>
</mgrwt>
</event>
<event>
 6    1  0.1719556E-004  0.1490946E+04  0.7818608E-02  0.8890496E-01
         -2   -1    0    0    0  501 -0.00000000000E+00  0.00000000000E+00  0.23878345660E+03  0.23878345660E+03  0.00000000000E+00 0. -1.
          2   -1    0    0  501    0  0.00000000000E+00 -0.00000000000E+00 -0.23273373152E+04  0.23273373152E+04  0.00000000000E+00 0.  1.
         23    2    1    2    0    0  0.13278388974E+03  0.46194837011E+03 -0.20226270344E+04  0.20809669775E+04  0.91518212228E+02 0.  0.
         11    1    3    3    0    0  0.13887963472E+03  0.37948112798E+03 -0.15930151323E+04  0.16434691026E+04  0.00000000000E+00 0. -1.
        -11    1    3    3    0    0 -0.60957449781E+01  0.82467242125E+02 -0.42961190205E+03  0.43749787487E+03  0.00000000000E+00 0.  1.
         22    1    1    2    0    0 -0.13278388974E+03 -0.46194837011E+03 -0.65926824269E+02  0.48515379436E+03  0.00000000000E+00 0. -1.
<mgrwt>
<rscale>  0 0.14909455E+04</rscale>
<asrwt>0</asrwt>
<pdfrwt beam="1">  1        2 0.35805191E+00 0.14909455E+04</pdfrwt>
<pdfrwt beam="2">  1       -2 0.36735915E-01 0.14909455E+04</pdfrwt>
<totfact> 0.29570917E+01</totfact>
</mgrwt>
</event>
<event>
 6    1  0.1719556E-004  0.3745867E+04  0.7818608E-02  0.8057873E-01
         -1   -1    0    0    0  501 -0.00000000000E+00  0.00000000000E+00  0.19280446420E+04  0.19280446420E+04  0.00000000000E+00 0. -1.
          1   -1    0    0  501    0  0.00000000000E+00 -0.00000000000E+00 -0.18193972308E+04  0.18193972308E+04  0.00000000000E+00 0.  1.
         23    2    1    2    0    0  0.93726427460E+03 -0.11501612907E+04 -0.10873238088E+04  0.18417445007E+04  0.91730179020E+02 0.  0.
         13    1    3    3    0    0  0.24231375521E+03 -0.32101797036E+03 -0.34251914348E+03  0.52828766492E+03  0.00000000000E+00 0. -1.
        -13    1    3    3    0    0  0.69495051938E+03 -0.82914332038E+03 -0.74480466530E+03  0.13134568358E+04  0.00000000000E+00 0.  1.
         22    1    1    2    0    0 -0.93726427460E+03  0.11501612907E+04  0.11959712200E+04  0.19056973721E+04  0.00000000000E+00 0. -1.
<mgrwt>
<rscale>  0 0.37458666E+04</rscale>
<asrwt>0</asrwt>
<pdfrwt beam="1">  1        1 0.27990727E+00 0.37458666E+04</pdfrwt>
<pdfrwt beam="2">  1       -1 0.29662225E+00 0.37458666E+04</pdfrwt>
<totfact> 0.10970935E-01</totfact>
</mgrwt>
</event>
<event>
 6    1  0.1719556E-004  0.1344369E+04  0.7818608E-02  0.8995101E-01
         -2   -1    0    0    0  501 -0.00000000000E+00  0.00000000000E+00  0.47366876119E+03  0.47366876119E+03  0.00000000000E+00 0. -1.
          2   -1    0    0  501    0  0.00000000000E+00 -0.00000000000E+00 -0.95389925261E+03  0.95389925261E+03  0.00000000000E+00 0.  1.
         23    2    1    2    0    0  0.13486721232E+03 -0.32553989294E+03  0.36279222621E+03  0.51386527806E+03  0.90961188130E+02 0.  0.
         13    1    3    3    0    0  0.57316663948E+02 -0.56598981239E+02  0.11259895903E+03  0.13844554965E+03  0.00000000000E+00 0. -1.
        -13    1    3    3    0    0  0.77550548371E+02 -0.26894091170E+03  0.25019326718E+03  0.37541972841E+03  0.00000000000E+00 0.  1.
         22    1    1    2    0    0 -0.13486721232E+03  0.32553989294E+03 -0.84302271763E+03  0.91370273574E+03  0.00000000000E+00 0.  1.
<mgrwt>
<rscale>  0 0.13443694E+04</rscale>
<asrwt>0</asrwt>
<pdfrwt beam="1">  1        2 0.14675373E+00 0.13443694E+04</pdfrwt>
<pdfrwt beam="2">  1       -2 0.72872118E-01 0.13443694E+04</pdfrwt>
<totfact> 0.44895434E+01</totfact>
</mgrwt>
</event>
<event>
 6    1  0.1719556E-004  0.2172948E+04  0.7818608E-02  0.8529773E-01
          1   -1    0    0  501    0  0.00000000000E+00  0.00000000000E+00  0.80519277174E+03  0.80519277174E+03  0.00000000000E+00 0.  1.
         -1   -1    0    0    0  501 -0.00000000000E+00 -0.00000000000E+00 -0.14660160271E+04  0.14660160271E+04  0.00000000000E+00 0. -1.
         23    2    1    2    0    0  0.31370360056E+03  0.10208020543E+03  0.74876258362E+03  0.82353392000E+03  0.93447276080E+02 0.  0.
         13    1    3    3    0    0  0.13220515986E+03  0.17982639538E+02  0.39765740531E+03  0.41944366918E+03  0.00000000000E+00 0. -1.
        -13    1    3    3    0    0  0.18149844070E+03  0.84097565897E+02  0.35110517831E+03  0.40409025082E+03  0.00000000000E+00 0.  1.
         22    1    1    2    0    0 -0.31370360056E+03 -0.10208020543E+03 -0.14095858390E+04  0.14476748789E+04  0.00000000000E+00 0. -1.
<mgrwt>
<rscale>  0 0.21729478E+04</rscale>
<asrwt>0</asrwt>
<pdfrwt beam="1">  1        1 0.12387581E+00 0.21729478E+04</pdfrwt>
<pdfrwt beam="2">  1       -1 0.22554092E+00 0.21729478E+04</pdfrwt>
<totfact> 0.20205274E+00</totfact>
</mgrwt>
</event>
<event>
 6    1  0.3188949E-004  0.4031247E+04  0.7818608E-02  0.7998273E-01
         -1   -1    0    0    0  501 -0.00000000000E+00  0.00000000000E+00  0.25115449033E+04  0.25115449033E+04  0.00000000000E+00 0. -1.
          1   -1    0    0  501    0  0.00000000000E+00 -0.00000000000E+00 -0.16176251424E+04  0.16176251424E+04  0.00000000000E+00 0.  1.
         23    2    1    2    0    0  0.33472748206E+03 -0.11998821083E+04 -0.11745932648E+04  0.17145260349E+04  0.90391513108E+02 0.  0.
         13    1    3    3    0    0  0.79850654098E+02 -0.42968730617E+03 -0.38491653923E+03  0.58238136149E+03  0.00000000000E+00 0. -1.
        -13    1    3    3    0    0  0.25487682796E+03 -0.77019480214E+03 -0.78967672555E+03  0.11321446734E+04  0.00000000000E+00 0.  1.
         22    1    1    2    0    0 -0.33472748206E+03  0.11998821083E+04  0.20685130257E+04  0.24146440107E+04  0.00000000000E+00 0. -1.
<mgrwt>
<rscale>  0 0.40312470E+04</rscale>
<asrwt>0</asrwt>
<pdfrwt beam="1">  1        1 0.24886541E+00 0.40312470E+04</pdfrwt>
<pdfrwt beam="2">  1       -1 0.38639152E+00 0.40312470E+04</pdfrwt>
<totfact> 0.37493865E-02</totfact>
</mgrwt>
</event>
<event>
 6    1  0.1719556E-004  0.1526211E+04  0.7818608E-02  0.8867208E-01
         -1   -1    0    0    0  501 -0.00000000000E+00  0.00000000000E+00  0.63697883285E+03  0.63697883285E+03  0.00000000000E+00 0.  1.
          1   -1    0    0  501    0  0.00000000000E+00 -0.00000000000E+00 -0.91420613273E+03  0.91420613273E+03  0.00000000000E+00 0. -1.
         23    2    1    2    0    0 -0.84768640320E+02  0.49753892185E+03 -0.71719080891E+03  0.88163392912E+03  0.90471141559E+02 0.  0.
         11    1    3    3    0    0  0.75171505471E+01  0.11829784977E+03 -0.21604586809E+03  0.24642789196E+03  0.00000000000E+00 0.  1.
        -11    1    3    3    0    0 -0.92285790867E+02  0.37924107207E+03 -0.50114494082E+03  0.63520603717E+03  0.00000000000E+00 0. -1.
         22    1    1    2    0    0  0.84768640320E+02 -0.49753892185E+03  0.43996350904E+03  0.66955103646E+03  0.00000000000E+00 0.  1.
<mgrwt>
<rscale>  0 0.15262109E+04</rscale>
<asrwt>0</asrwt>
<pdfrwt beam="1">  1        1 0.14064710E+00 0.15262109E+04</pdfrwt>
<pdfrwt beam="2">  1       -1 0.97996743E-01 0.15262109E+04</pdfrwt>
<totfact> 0.17074726E+01</totfact>
</mgrwt>
</event>
<event>
 6    1  0.1719556E-004  0.1636082E+04  0.7818608E-02  0.8798683E-01
          1   -1    0    0  501    0  0.00000000000E+00  0.00000000000E+00  0.94700829701E+03  0.94700829701E+03  0.00000000000E+00 0.  1.
         -1   -1    0    0    0  501 -0.00000000000E+00 -0.00000000000E+00 -0.70663711612E+03  0.70663711612E+03  0.00000000000E+00 0. -1.
         23    2    1    2    0    0  0.46323151385E+03  0.10874768678E+03 -0.54880383543E+03  0.73212129452E+03  0.91686669162E+02 0.  0.
         13    1    3    3    0    0  0.19469057759E+03  0.92161413597E+02 -0.23582765775E+03  0.31939447603E+03  0.00000000000E+00 0.  1.
        -13    1    3    3    0    0  0.26854093626E+03  0.16586273185E+02 -0.31297617768E+03  0.41272681848E+03  0.00000000000E+00 0. -1.
         22    1    1    2    0    0 -0.46323151385E+03 -0.10874768678E+03  0.78917501632E+03  0.92152411861E+03  0.00000000000E+00 0.  1.
<mgrwt>
<rscale>  0 0.16360822E+04</rscale>
<asrwt>0</asrwt>
<pdfrwt beam="1">  1        1 0.14569358E+00 0.16360822E+04</pdfrwt>
<pdfrwt beam="2">  1       -1 0.10871340E+00 0.16360822E+04</pdfrwt>
<totfact> 0.12514841E+01</totfact>
</mgrwt>
</event>
<event>
 6    1  0.1719556E-004  0.1610473E+04  0.7818608E-02  0.8814140E-01
          2   -1    0    0  501    0  0.00000000000E+00  0.00000000000E+00  0.35598869658E+04  0.35598869658E+04  0.00000000000E+00 0.  1.
         -2   -1    0    0    0  501 -0.00000000000E+00 -0.00000000000E+00 -0.18214215465E+03  0.18214215465E+03  0.00000000000E+00 0. -1.
         23    2    1    2    0    0 -0.38550318804E+03 -0.66213715646E+03  0.22506903980E+04  0.23792048573E+04  0.89275772801E+02 0.  0.
         13    1    3    3    0    0 -0.17928755925E+03 -0.32247708543E+03  0.94846725713E+03  0.10177060663E+04  0.00000000000E+00 0.  1.
        -13    1    3    3    0    0 -0.20621562879E+03 -0.33966007103E+03  0.13022231408E+04  0.13614987910E+04  0.00000000000E+00 0. -1.
         22    1    1    2    0    0  0.38550318804E+03  0.66213715646E+03  0.11270544132E+04  0.13628242632E+04  0.00000000000E+00 0. -1.
<mgrwt>
<rscale>  0 0.16104726E+04</rscale>
<asrwt>0</asrwt>
<pdfrwt beam="1">  1        2 0.54767487E+00 0.16104726E+04</pdfrwt>
<pdfrwt beam="2">  1       -2 0.28021873E-01 0.16104726E+04</pdfrwt>
<totfact> 0.83297968E+00</totfact>
</mgrwt>
</event>
<event>
 6    1  0.1719556E-004  0.1447335E+04  0.7818608E-02  0.8920250E-01
          2   -1    0    0  501    0  0.00000000000E+00  0.00000000000E+00  0.20029642866E+04  0.20029642866E+04  0.00000000000E+00 0.  1.
         -2   -1    0    0    0  501 -0.00000000000E+00 -0.00000000000E+00 -0.26145965841E+03  0.26145965841E+03  0.00000000000E+00 0. -1.
         23    2    1    2    0    0  0.58793047947E+03 -0.12792194563E+03  0.14952562641E+04  0.16142973961E+04  0.90213716732E+02 0.  0.
         11    1    3    3    0    0  0.36099413309E+03 -0.11991870907E+03  0.97921055627E+03  0.10505001544E+04  0.00000000000E+00 0.  1.
        -11    1    3    3    0    0  0.22693634638E+03 -0.80032365602E+01  0.51604570785E+03  0.56379724166E+03  0.00000000000E+00 0. -1.
         22    1    1    2    0    0 -0.58793047947E+03  0.12792194563E+03  0.24624836411E+03  0.65012654898E+03  0.00000000000E+00 0. -1.
<mgrwt>
<rscale>  0 0.14473346E+04</rscale>
<asrwt>0</asrwt>
<pdfrwt beam="1">  1        2 0.30814834E+00 0.14473346E+04</pdfrwt>
<pdfrwt beam="2">  1       -2 0.40224564E-01 0.14473346E+04</pdfrwt>
<totfact> 0.37784504E+01</totfact>
</mgrwt>
</event>
<event>
 6    1  0.1719556E-004  0.1018599E+04  0.7818608E-02  0.9288378E-01
          2   -1    0    0  501    0  0.00000000000E+00  0.00000000000E+00  0.34862560846E+03  0.34862560846E+03  0.00000000000E+00 0.  1.
         -2   -1    0    0    0  501 -0.00000000000E+00 -0.00000000000E+00 -0.74402414964E+03  0.74402414964E+03  0.00000000000E+00 0. -1.
         23    2    1    2    0    0  0.44728939513E+03  0.17593169140E+02 -0.45059417132E+03  0.64162439276E+03  0.90936414914E+02 0.  0.
         13    1    3    3    0    0  0.19071506953E+03  0.51997416023E+02 -0.18500793713E+03  0.27074694056E+03  0.00000000000E+00 0. -1.
        -13    1    3    3    0    0  0.25657432561E+03 -0.34404246884E+02 -0.26558623418E+03  0.37087745220E+03  0.00000000000E+00 0.  1.
         22    1    1    2    0    0 -0.44728939513E+03 -0.17593169140E+02  0.55195630129E+02  0.45102536535E+03  0.00000000000E+00 0.  1.
<mgrwt>
<rscale>  0 0.10185988E+04</rscale>
<asrwt>0</asrwt>
<pdfrwt beam="1">  1        2 0.53634709E-01 0.10185988E+04</pdfrwt>
<pdfrwt beam="2">  1       -2 0.11446525E+00 0.10185988E+04</pdfrwt>
<totfact> 0.55201308E+01</totfact>
</mgrwt>
</event>
<event>
 6    1  0.1719556E-004  0.3456389E+04  0.7818608E-02  0.8124204E-01
          2   -1    0    0  501    0  0.00000000000E+00  0.00000000000E+00  0.19419272438E+04  0.19419272438E+04  0.00000000000E+00 0.  1.
         -2   -1    0    0    0  501 -0.00000000000E+00 -0.00000000000E+00 -0.15379855131E+04  0.15379855131E+04  0.00000000000E+00 0. -1.
         23    2    1    2    0    0 -0.12327422022E+04  0.49923829738E+03  0.13111774426E+04  0.18699534868E+04  0.92992161343E+02 0.  0.
         13    1    3    3    0    0 -0.79139845110E+03  0.30560571442E+03  0.89499703029E+03  0.12331772157E+04  0.00000000000E+00 0.  1.
        -13    1    3    3    0    0 -0.44134375110E+03  0.19363258296E+03  0.41618041232E+03  0.63677627109E+03  0.00000000000E+00 0. -1.
         22    1    1    2    0    0  0.12327422022E+04 -0.49923829738E+03 -0.90723571181E+03  0.16099592701E+04  0.00000000000E+00 0. -1.
<mgrwt>
<rscale>  0 0.34563888E+04</rscale>
<asrwt>0</asrwt>
<pdfrwt beam="1">  1        2 0.29875804E+00 0.34563888E+04</pdfrwt>
<pdfrwt beam="2">  1       -2 0.23661316E+00 0.34563888E+04</pdfrwt>
<totfact> 0.46146446E-01</totfact>
</mgrwt>
</event>
<event>
 6    1  0.1719556E-004  0.1354839E+04  0.7818608E-02  0.8987173E-01
         -2   -1    0    0    0  501 -0.00000000000E+00  0.00000000000E+00  0.23174737260E+03  0.23174737260E+03  0.00000000000E+00 0. -1.
          2   -1    0    0  501    0  0.00000000000E+00 -0.00000000000E+00 -0.19801610934E+04  0.19801610934E+04  0.00000000000E+00 0.  1.
         23    2    1    2    0    0  0.95669636067E+02  0.29874571076E+03 -0.18526887008E+04  0.18813408475E+04  0.92662200526E+02 0.  0.
         11    1    3    3    0    0  0.68298023984E+02  0.75243650615E+02 -0.53944308194E+03  0.54893083872E+03  0.00000000000E+00 0. -1.
        -11    1    3    3    0    0  0.27371612083E+02  0.22350206014E+03 -0.13132456188E+04  0.13324100088E+04  0.00000000000E+00 0.  1.
         22    1    1    2    0    0 -0.95669636067E+02 -0.29874571076E+03  0.10427497999E+03  0.33056761852E+03  0.00000000000E+00 0. -1.
<mgrwt>
<rscale>  0 0.13548389E+04</rscale>
<asrwt>0</asrwt>
<pdfrwt beam="1">  1        2 0.30464016E+00 0.13548389E+04</pdfrwt>
<pdfrwt beam="2">  1       -2 0.35653443E-01 0.13548389E+04</pdfrwt>
<totfact> 0.49508859E+01</totfact>
</mgrwt>
</event>
<event>
 6    1  0.1719556E-004  0.1343198E+04  0.7818608E-02  0.8995993E-01
          2   -1    0    0  501    0  0.00000000000E+00  0.00000000000E+00  0.74090691380E+03  0.74090691380E+03  0.00000000000E+00 0.  1.
         -2   -1    0    0    0  501 -0.00000000000E+00 -0.00000000000E+00 -0.60877418618E+03  0.60877418618E+03  0.00000000000E+00 0. -1.
         23    2    1    2    0    0 -0.27049584379E+03 -0.54585031648E+03  0.34329154794E+03  0.70492640483E+03  0.89171631327E+02 0.  0.
         11    1    3    3    0    0 -0.68404611453E+02 -0.13074709744E+03  0.12873538730E+03  0.19582337526E+03  0.00000000000E+00 0.  1.
        -11    1    3    3    0    0 -0.20209123234E+03 -0.41510321904E+03  0.21455616064E+03  0.50910302957E+03  0.00000000000E+00 0. -1.
         22    1    1    2    0    0  0.27049584379E+03  0.54585031648E+03 -0.21115882032E+03  0.64475469514E+03  0.00000000000E+00 0. -1.
<mgrwt>
<rscale>  0 0.13431977E+04</rscale>
<asrwt>0</asrwt>
<pdfrwt beam="1">  1        2 0.11398568E+00 0.13431977E+04</pdfrwt>
<pdfrwt beam="2">  1       -2 0.93657566E-01 0.13431977E+04</pdfrwt>
<totfact> 0.35883629E+01</totfact>
</mgrwt>
</event>
<event>
 6    1  0.1719556E-004  0.4208165E+04  0.7818608E-02  0.7963821E-01
         -2   -1    0    0    0  501 -0.00000000000E+00  0.00000000000E+00  0.16429199477E+04  0.16429199477E+04  0.00000000000E+00 0. -1.
          2   -1    0    0  501    0  0.00000000000E+00 -0.00000000000E+00 -0.26946915921E+04  0.26946915921E+04  0.00000000000E+00 0.  1.
         23    2    1    2    0    0 -0.14491634610E+04  0.15230591396E+04 -0.58379930248E+03  0.21838283585E+04  0.92199754269E+02 0.  0.
         11    1    3    3    0    0 -0.35549180901E+03  0.32184766454E+03 -0.11765658774E+03  0.49376453709E+03  0.00000000000E+00 0. -1.
        -11    1    3    3    0    0 -0.10936716520E+04  0.12012114750E+04 -0.46614271473E+03  0.16900638214E+04  0.00000000000E+00 0.  1.
         22    1    1    2    0    0  0.14491634610E+04 -0.15230591396E+04 -0.46797234190E+03  0.21537831813E+04  0.00000000000E+00 0.  1.
<mgrwt>
<rscale>  0 0.42081647E+04</rscale>
<asrwt>0</asrwt>
<pdfrwt beam="1">  1        2 0.41456794E+00 0.42081647E+04</pdfrwt>
<pdfrwt beam="2">  1       -2 0.25275691E+00 0.42081647E+04</pdfrwt>
<totfact> 0.12822606E-01</totfact>
</mgrwt>
</event>
<event>
 6    1  0.1719556E-004  0.5417060E+04  0.7818608E-02  0.7767206E-01
          2   -1    0    0  501    0  0.00000000000E+00  0.00000000000E+00  0.52388081720E+04  0.52388081720E+04  0.00000000000E+00 0.  1.
         -2   -1    0    0    0  501 -0.00000000000E+00 -0.00000000000E+00 -0.14003442786E+04  0.14003442786E+04  0.00000000000E+00 0. -1.
         23    2    1    2    0    0 -0.12536976645E+04  0.21566904044E+04  0.62893182055E+03  0.25741595279E+04  0.87582566341E+02 0.  0.
         11    1    3    3    0    0 -0.48298129266E+03  0.86900208223E+03  0.21113198251E+03  0.10163721080E+04  0.00000000000E+00 0. -1.
        -11    1    3    3    0    0 -0.77071637180E+03  0.12876883222E+04  0.41779983804E+03  0.15577874199E+04  0.00000000000E+00 0.  1.
         22    1    1    2    0    0  0.12536976645E+04 -0.21566904044E+04  0.32095320729E+04  0.40649929226E+04  0.00000000000E+00 0.  1.
<mgrwt>
<rscale>  0 0.54170601E+04</rscale>
<asrwt>0</asrwt>
<pdfrwt beam="1">  1        2 0.80597048E+00 0.54170601E+04</pdfrwt>
<pdfrwt beam="2">  1       -2 0.21543758E+00 0.54170601E+04</pdfrwt>
<totfact> 0.11740726E-03</totfact>
</mgrwt>
</event>
<event>
 6    1  0.1719556E-004  0.1950795E+04  0.7818608E-02  0.8629977E-01
          2   -1    0    0  501    0  0.00000000000E+00  0.00000000000E+00  0.97208967613E+03  0.97208967613E+03  0.00000000000E+00 0.  1.
         -2   -1    0    0    0  501 -0.00000000000E+00 -0.00000000000E+00 -0.97871680861E+03  0.97871680861E+03  0.00000000000E+00 0. -1.
         23    2    1    2    0    0 -0.91373693038E+03  0.33072240004E+03  0.46138191666E+02  0.97762784583E+03  0.96617743635E+02 0.  0.
         13    1    3    3    0    0 -0.37585769387E+03  0.18152664909E+03  0.41111656073E+02  0.41941757073E+03  0.00000000000E+00 0. -1.
        -13    1    3    3    0    0 -0.53787923650E+03  0.14919575095E+03  0.50265355927E+01  0.55821027510E+03  0.00000000000E+00 0.  1.
         22    1    1    2    0    0  0.91373693038E+03 -0.33072240004E+03 -0.52765324148E+02  0.97317863892E+03  0.00000000000E+00 0.  1.
<mgrwt>
<rscale>  0 0.19507952E+04</rscale>
<asrwt>0</asrwt>
<pdfrwt beam="1">  1        2 0.14955226E+00 0.19507952E+04</pdfrwt>
<pdfrwt beam="2">  1       -2 0.15057182E+00 0.19507952E+04</pdfrwt>
<totfact> 0.72638683E+00</totfact>
</mgrwt>
</event>
<event>
 6    1  0.1719556E-004  0.2115580E+04  0.7818608E-02  0.8554411E-01
          1   -1    0    0  501    0  0.00000000000E+00  0.00000000000E+00  0.45626060527E+03  0.45626060527E+03  0.00000000000E+00 0.  1.
         -1   -1    0    0    0  501 -0.00000000000E+00 -0.00000000000E+00 -0.24523705219E+04  0.24523705219E+04  0.00000000000E+00 0. -1.
         23    2    1    2    0    0  0.23216191909E+03 -0.66999664946E+03  0.74018447851E+02  0.72042955684E+03  0.10365977419E+03 0.  0.
         13    1    3    3    0    0  0.23137549327E+03 -0.57030386376E+03  0.79596573776E+02  0.62057773926E+03  0.00000000000E+00 0.  1.
        -13    1    3    3    0    0  0.78642582296E+00 -0.99692785699E+02 -0.55781259248E+01  0.99851817584E+02  0.00000000000E+00 0. -1.
         22    1    1    2    0    0 -0.23216191909E+03  0.66999664946E+03 -0.20701283645E+04  0.21882015704E+04  0.00000000000E+00 0. -1.
<mgrwt>
<rscale>  0 0.21155804E+04</rscale>
<asrwt>0</asrwt>
<pdfrwt beam="1">  1        1 0.70193940E-01 0.21155804E+04</pdfrwt>
<pdfrwt beam="2">  1       -1 0.37728777E+00 0.21155804E+04</pdfrwt>
<totfact> 0.47165311E-01</totfact>
</mgrwt>
</event>
<event>
 6    1  0.1719556E-004  0.1932184E+04  0.7818608E-02  0.8639000E-01
          2   -1    0    0  501    0  0.00000000000E+00  0.00000000000E+00  0.19700498392E+04  0.19700498392E+04  0.00000000000E+00 0.  1.
         -2   -1    0    0    0  501 -0.00000000000E+00 -0.00000000000E+00 -0.47376155675E+03  0.47376155675E+03  0.00000000000E+00 0. -1.
         23    2    1    2    0    0 -0.49247122187E+02  0.60486223931E+03 -0.19700830244E+03  0.64505156429E+03  0.94845357141E+02 0.  0.
         11    1    3    3    0    0 -0.45431358969E+02  0.36952117189E+03 -0.16604077778E+03  0.40765113116E+03  0.00000000000E+00 0. -1.
        -11    1    3    3    0    0 -0.38157632174E+01  0.23534106743E+03 -0.30967524661E+02  0.23740043313E+03  0.00000000000E+00 0.  1.
         22    1    1    2    0    0  0.49247122187E+02 -0.60486223931E+03  0.16932965849E+04  0.17987598316E+04  0.00000000000E+00 0.  1.
<mgrwt>
<rscale>  0 0.19321841E+04</rscale>
<asrwt>0</asrwt>
<pdfrwt beam="1">  1        2 0.30308458E+00 0.19321841E+04</pdfrwt>
<pdfrwt beam="2">  1       -2 0.72886395E-01 0.19321841E+04</pdfrwt>
<totfact> 0.11031176E+01</totfact>
</mgrwt>
</event>
<event>
 6    1  0.1719556E-004  0.4833059E+04  0.7818608E-02  0.7854788E-01
         -2   -1    0    0    0  501 -0.00000000000E+00  0.00000000000E+00  0.16307941597E+04  0.16307941597E+04  0.00000000000E+00 0. -1.
          2   -1    0    0  501    0  0.00000000000E+00 -0.00000000000E+00 -0.35808416327E+04  0.35808416327E+04  0.00000000000E+00 0.  1.
         23    2    1    2    0    0  0.82765976680E+03  0.33709703964E+03 -0.33954451830E+04  0.35122742524E+04  0.91473110930E+02 0.  0.
         11    1    3    3    0    0  0.69501483631E+03  0.28626655001E+03 -0.29746732316E+04  0.30681712786E+04  0.00000000000E+00 0.  1.
        -11    1    3    3    0    0  0.13264493049E+03  0.50830489624E+02 -0.42077195140E+03  0.44410297381E+03  0.00000000000E+00 0. -1.
         22    1    1    2    0    0 -0.82765976680E+03 -0.33709703964E+03  0.14453977099E+04  0.16993615400E+04  0.00000000000E+00 0. -1.
<mgrwt>
<rscale>  0 0.48330593E+04</rscale>
<asrwt>0</asrwt>
<pdfrwt beam="1">  1        2 0.55089870E+00 0.48330593E+04</pdfrwt>
<pdfrwt beam="2">  1       -2 0.25089141E+00 0.48330593E+04</pdfrwt>
<totfact> 0.33281879E-02</totfact>
</mgrwt>
</event>
<event>
 6    1  0.1719556E-004  0.3638123E+04  0.7818608E-02  0.8081815E-01
          1   -1    0    0  501    0  0.00000000000E+00  0.00000000000E+00  0.25793422425E+04  0.25793422425E+04  0.00000000000E+00 0.  1.
         -1   -1    0    0    0  501 -0.00000000000E+00 -0.00000000000E+00 -0.12828793237E+04  0.12828793237E+04  0.00000000000E+00 0. -1.
         23    2    1    2    0    0  0.13390876002E+04  0.11823067606E+03  0.19478432494E+04  0.23684242477E+04  0.90586970705E+02 0.  0.
         11    1    3    3    0    0  0.48347087718E+03  0.24283645756E+01  0.66998486504E+03  0.82621407965E+03  0.00000000000E+00 0.  1.
        -11    1    3    3    0    0  0.85561672300E+03  0.11580231148E+03  0.12778583844E+04  0.15422101681E+04  0.00000000000E+00 0. -1.
         22    1    1    2    0    0 -0.13390876002E+04 -0.11823067606E+03 -0.65138033060E+03  0.14937973185E+04  0.00000000000E+00 0. -1.
<mgrwt>
<rscale>  0 0.36381231E+04</rscale>
<asrwt>0</asrwt>
<pdfrwt beam="1">  1        1 0.39682188E+00 0.36381231E+04</pdfrwt>
<pdfrwt beam="2">  1       -1 0.19736605E+00 0.36381231E+04</pdfrwt>
<totfact> 0.15097154E-01</totfact>
</mgrwt>
</event>
<event>
 6    1  0.1719556E-004  0.1563197E+04  0.7818608E-02  0.8843482E-01
          2   -1    0    0  501    0  0.00000000000E+00  0.00000000000E+00  0.63363141761E+03  0.63363141761E+03  0.00000000000E+00 0.  1.
         -2   -1    0    0    0  501 -0.00000000000E+00 -0.00000000000E+00 -0.96411894895E+03  0.96411894895E+03  0.00000000000E+00 0. -1.
         23    2    1    2    0    0  0.53697574549E+03  0.29620615072E+03 -0.65660696260E+03  0.90317501541E+03  0.92257087352E+02 0.  0.
         11    1    3    3    0    0  0.47184916564E+03  0.29199427239E+03 -0.58837785448E+03  0.80875879585E+03  0.00000000000E+00 0. -1.
        -11    1    3    3    0    0  0.65126579847E+02  0.42118783298E+01 -0.68229108122E+02  0.94416219564E+02  0.00000000000E+00 0.  1.
         22    1    1    2    0    0 -0.53697574549E+03 -0.29620615072E+03  0.32611943127E+03  0.69457535115E+03  0.00000000000E+00 0.  1.
<mgrwt>
<rscale>  0 0.15631968E+04</rscale>
<asrwt>0</asrwt>
<pdfrwt beam="1">  1        2 0.97481757E-01 0.15631968E+04</pdfrwt>
<pdfrwt beam="2">  1       -2 0.14832599E+00 0.15631968E+04</pdfrwt>
<totfact> 0.13763502E+01</totfact>
</mgrwt>
</event>
<event>
 6    1  0.1719556E-004  0.2880146E+04  0.7818608E-02  0.8278809E-01
         -2   -1    0    0    0  501 -0.00000000000E+00  0.00000000000E+00  0.14082060364E+04  0.14082060364E+04  0.00000000000E+00 0. -1.
          2   -1    0    0  501    0  0.00000000000E+00 -0.00000000000E+00 -0.14726609184E+04  0.14726609184E+04  0.00000000000E+00 0.  1.
         23    2    1    2    0    0 -0.63629881174E+03 -0.77243311118E+03  0.10012089054E+04  0.14189612134E+04  0.97481094396E+02 0.  0.
         11    1    3    3    0    0 -0.17511689937E+03 -0.22907215032E+03  0.35084569344E+03  0.45412848304E+03  0.00000000000E+00 0. -1.
        -11    1    3    3    0    0 -0.46118191237E+03 -0.54336096086E+03  0.65036321199E+03  0.96483273037E+03  0.00000000000E+00 0.  1.
         22    1    1    2    0    0  0.63629881174E+03  0.77243311118E+03 -0.10656637874E+04  0.14619057415E+04  0.00000000000E+00 0.  1.
<mgrwt>
<rscale>  0 0.28801458E+04</rscale>
<asrwt>0</asrwt>
<pdfrwt beam="1">  1        2 0.22656322E+00 0.28801458E+04</pdfrwt>
<pdfrwt beam="2">  1       -2 0.21664708E+00 0.28801458E+04</pdfrwt>
<totfact> 0.11805332E+00</totfact>
</mgrwt>
</event>
<event>
 6    1  0.1719556E-004  0.1368038E+04  0.7818608E-02  0.8977285E-01
          2   -1    0    0  501    0  0.00000000000E+00  0.00000000000E+00  0.70299210139E+03  0.70299210139E+03  0.00000000000E+00 0.  1.
         -2   -1    0    0    0  501 -0.00000000000E+00 -0.00000000000E+00 -0.66555820242E+03  0.66555820242E+03  0.00000000000E+00 0. -1.
         23    2    1    2    0    0 -0.48951867616E+03 -0.43450352601E+03  0.20676800352E+03  0.69246163552E+03  0.91259306158E+02 0.  0.
         13    1    3    3    0    0 -0.28671640133E+03 -0.19450848266E+03  0.10001809163E+03  0.36061539522E+03  0.00000000000E+00 0. -1.
        -13    1    3    3    0    0 -0.20280227483E+03 -0.23999504336E+03  0.10674991188E+03  0.33184624029E+03  0.00000000000E+00 0.  1.
         22    1    1    2    0    0  0.48951867616E+03  0.43450352601E+03 -0.16933410454E+03  0.67608866829E+03  0.00000000000E+00 0. -1.
<mgrwt>
<rscale>  0 0.13680382E+04</rscale>
<asrwt>0</asrwt>
<pdfrwt beam="1">  1        2 0.10815263E+00 0.13680382E+04</pdfrwt>
<pdfrwt beam="2">  1       -2 0.10239357E+00 0.13680382E+04</pdfrwt>
<totfact> 0.31043589E+01</totfact>
</mgrwt>
</event>
<event>
 6    1  0.1719556E-004  0.4379666E+04  0.7818608E-02  0.7932049E-01
          2   -1    0    0  501    0  0.00000000000E+00  0.00000000000E+00  0.43484978252E+04  0.43484978252E+04  0.00000000000E+00 0. -1.
         -2   -1    0    0    0  501 -0.00000000000E+00 -0.00000000000E+00 -0.11027644149E+04  0.11027644149E+04  0.00000000000E+00 0.  1.
         23    2    1    2    0    0  0.19280650324E+04 -0.96366223159E+03  0.11499398359E+04  0.24448640011E+04  0.94438826778E+02 0.  0.
         11    1    3    3    0    0  0.86976194024E+03 -0.41876388949E+03  0.46435514672E+03  0.10712024692E+04  0.00000000000E+00 0. -1.
        -11    1    3    3    0    0  0.10583030921E+04 -0.54489834210E+03  0.68558468921E+03  0.13736615319E+04  0.00000000000E+00 0.  1.
         22    1    1    2    0    0 -0.19280650324E+04  0.96366223159E+03  0.20957935744E+04  0.30063982391E+04  0.00000000000E+00 0.  1.
<mgrwt>
<rscale>  0 0.43796660E+04</rscale>
<asrwt>0</asrwt>
<pdfrwt beam="1">  1        2 0.66899966E+00 0.43796660E+04</pdfrwt>
<pdfrwt beam="2">  1       -2 0.16965607E+00 0.43796660E+04</pdfrwt>
<totfact> 0.27909436E-02</totfact>
</mgrwt>
</event>
<event>
 6    1  0.1719556E-004  0.4064991E+04  0.7818608E-02  0.7991563E-01
         -2   -1    0    0    0  501 -0.00000000000E+00  0.00000000000E+00  0.17027645907E+04  0.17027645907E+04  0.00000000000E+00 0. -1.
          2   -1    0    0  501    0  0.00000000000E+00 -0.00000000000E+00 -0.24260769475E+04  0.24260769475E+04  0.00000000000E+00 0.  1.
         23    2    1    2    0    0 -0.64578223403E+03  0.19258798119E+04 -0.39242443587E+03  0.20708001003E+04  0.90379056896E+02 0.  0.
         11    1    3    3    0    0 -0.50169290141E+03  0.15188957843E+04 -0.27185680551E+03  0.16225431561E+04  0.00000000000E+00 0.  1.
        -11    1    3    3    0    0 -0.14408933261E+03  0.40698402765E+03 -0.12056763036E+03  0.44825694420E+03  0.00000000000E+00 0. -1.
         22    1    1    2    0    0  0.64578223403E+03 -0.19258798119E+04 -0.33088792097E+03  0.20580414379E+04  0.00000000000E+00 0.  1.
<mgrwt>
<rscale>  0 0.40649910E+04</rscale>
<asrwt>0</asrwt>
<pdfrwt beam="1">  1        2 0.37324261E+00 0.40649910E+04</pdfrwt>
<pdfrwt beam="2">  1       -2 0.26196378E+00 0.40649910E+04</pdfrwt>
<totfact> 0.16358076E-01</totfact>
</mgrwt>
</event>
<event>
 6    1  0.1719556E-004  0.7592314E+03  0.7818608E-02  0.9620978E-01
          2   -1    0    0  501    0  0.00000000000E+00  0.00000000000E+00  0.15767187475E+03  0.15767187475E+03  0.00000000000E+00 0.  1.
         -2   -1    0    0    0  501 -0.00000000000E+00 -0.00000000000E+00 -0.91397465587E+03  0.91397465587E+03  0.00000000000E+00 0. -1.
         23    2    1    2    0    0  0.24668242239E+03 -0.93536474733E+02 -0.75753102501E+03  0.80782310822E+03  0.95517698294E+02 0.  0.
         11    1    3    3    0    0  0.56501701887E+02 -0.38687344626E+00 -0.27691735556E+03  0.28262309495E+03  0.00000000000E+00 0. -1.
        -11    1    3    3    0    0  0.19018072051E+03 -0.93149601287E+02 -0.48061366945E+03  0.52520001326E+03  0.00000000000E+00 0.  1.
         22    1    1    2    0    0 -0.24668242239E+03  0.93536474733E+02  0.12282438937E+01  0.26382342240E+03  0.00000000000E+00 0.  1.
<mgrwt>
<rscale>  0 0.75923145E+03</rscale>
<asrwt>0</asrwt>
<pdfrwt beam="1">  1        2 0.24257212E-01 0.75923145E+03</pdfrwt>
<pdfrwt beam="2">  1       -2 0.14061148E+00 0.75923145E+03</pdfrwt>
<totfact> 0.81364911E+01</totfact>
</mgrwt>
</event>
<event>
 6    1  0.1719556E-004  0.2134722E+04  0.7818608E-02  0.8546100E-01
         -2   -1    0    0    0  501 -0.00000000000E+00  0.00000000000E+00  0.66610468201E+03  0.66610468201E+03  0.00000000000E+00 0. -1.
          2   -1    0    0  501    0  0.00000000000E+00 -0.00000000000E+00 -0.17103309844E+04  0.17103309844E+04  0.00000000000E+00 0.  1.
         23    2    1    2    0    0  0.39567909357E+03  0.85693535452E+03 -0.10731473322E+04  0.14321176200E+04  0.91736218804E+02 0.  0.
         11    1    3    3    0    0  0.92978768645E+02  0.28240677852E+03 -0.37644300596E+03  0.47969571262E+03  0.00000000000E+00 0. -1.
        -11    1    3    3    0    0  0.30270032493E+03  0.57452857600E+03 -0.69670432628E+03  0.95242190735E+03  0.00000000000E+00 0.  1.
         22    1    1    2    0    0 -0.39567909357E+03 -0.85693535452E+03  0.28921029823E+02  0.94431804646E+03  0.00000000000E+00 0. -1.
<mgrwt>
<rscale>  0 0.21347220E+04</rscale>
<asrwt>0</asrwt>
<pdfrwt beam="1">  1        2 0.26312784E+00 0.21347220E+04</pdfrwt>
<pdfrwt beam="2">  1       -2 0.10247764E+00 0.21347220E+04</pdfrwt>
<totfact> 0.69300728E+00</totfact>
</mgrwt>
</event>
<event>
 6    1  0.1719556E-004  0.1855937E+04  0.7818608E-02  0.8677106E-01
          2   -1    0    0  501    0  0.00000000000E+00  0.00000000000E+00  0.29979498687E+04  0.29979498687E+04  0.00000000000E+00 0.  1.
         -2   -1    0    0    0  501 -0.00000000000E+00 -0.00000000000E+00 -0.28723811709E+03  0.28723811709E+03  0.00000000000E+00 0. -1.
         23    2    1    2    0    0  0.37475603311E+02  0.89877639327E+03  0.97002561165E+03  0.13258024536E+04  0.87172431113E+02 0.  0.
         11    1    3    3    0    0  0.54879624455E+02  0.47337554387E+03  0.54993847242E+03  0.72768709083E+03  0.00000000000E+00 0. -1.
        -11    1    3    3    0    0 -0.17404021144E+02  0.42540084940E+03  0.42008713923E+03  0.59811536276E+03  0.00000000000E+00 0.  1.
         22    1    1    2    0    0 -0.37475603311E+02 -0.89877639327E+03  0.17406861399E+04  0.19593855322E+04  0.00000000000E+00 0.  1.
<mgrwt>
<rscale>  0 0.18559369E+04</rscale>
<asrwt>0</asrwt>
<pdfrwt beam="1">  1        2 0.46122303E+00 0.18559369E+04</pdfrwt>
<pdfrwt beam="2">  1       -2 0.44190482E-01 0.18559369E+04</pdfrwt>
<totfact> 0.79974938E+00</totfact>
</mgrwt>
</event>
<event>
 6    1  0.1719556E-004  0.2474117E+04  0.7818608E-02  0.8412265E-01
         -1   -1    0    0    0  501 -0.00000000000E+00  0.00000000000E+00  0.15271739184E+04  0.15271739184E+04  0.00000000000E+00 0. -1.
          1   -1    0    0  501    0  0.00000000000E+00 -0.00000000000E+00 -0.10020558072E+04  0.10020558072E+04  0.00000000000E+00 0.  1.
         23    2    1    2    0    0  0.68454995211E+03  0.99051475261E+03  0.54552466948E+03  0.13250102524E+04  0.91251804885E+02 0.  0.
         13    1    3    3    0    0  0.62969525748E+02  0.68497006124E+02  0.20271136044E+02  0.95225626684E+02  0.00000000000E+00 0.  1.
        -13    1    3    3    0    0  0.62158042636E+03  0.92201774649E+03  0.52525353344E+03  0.12297846257E+04  0.00000000000E+00 0. -1.
         22    1    1    2    0    0 -0.68454995211E+03 -0.99051475261E+03 -0.20406558313E+02  0.12042194732E+04  0.00000000000E+00 0.  1.
<mgrwt>
<rscale>  0 0.24741168E+04</rscale>
<asrwt>0</asrwt>
<pdfrwt beam="1">  1        1 0.15416243E+00 0.24741168E+04</pdfrwt>
<pdfrwt beam="2">  1       -1 0.23494983E+00 0.24741168E+04</pdfrwt>
<totfact> 0.11748547E+00</totfact>
</mgrwt>
</event>
<event>
 6    1  0.1719556E-004  0.6093997E+03  0.7818608E-02  0.9886094E-01
          1   -1    0    0  501    0  0.00000000000E+00  0.00000000000E+00  0.25670060147E+03  0.25670060147E+03  0.00000000000E+00 0.  1.
         -1   -1    0    0    0  501 -0.00000000000E+00 -0.00000000000E+00 -0.36167430037E+03  0.36167430037E+03  0.00000000000E+00 0. -1.
         23    2    1    2    0    0 -0.14341675934E+03  0.13521087405E+03  0.17275428897E+03  0.27781186427E+03  0.92114278226E+02 0.  0.
         13    1    3    3    0    0 -0.73105387909E+02  0.11920736178E+03  0.82765727743E+02  0.16249602621E+03  0.00000000000E+00 0. -1.
        -13    1    3    3    0    0 -0.70311371430E+02  0.16003512266E+02  0.89988561224E+02  0.11531583806E+03  0.00000000000E+00 0.  1.
         22    1    1    2    0    0  0.14341675934E+03 -0.13521087405E+03 -0.27772798787E+03  0.34056303758E+03  0.00000000000E+00 0. -1.
<mgrwt>
<rscale>  0 0.60939974E+03</rscale>
<asrwt>0</asrwt>
<pdfrwt beam="1">  1        1 0.39492400E-01 0.60939974E+03</pdfrwt>
<pdfrwt beam="2">  1       -1 0.55642200E-01 0.60939974E+03</pdfrwt>
<totfact> 0.35575037E+02</totfact>
</mgrwt>
</event>
<event>
 6    1  0.1719556E-004  0.1669492E+04  0.7818608E-02  0.8778958E-01
         -1   -1    0    0    0  501 -0.00000000000E+00  0.00000000000E+00  0.22910811375E+03  0.22910811375E+03  0.00000000000E+00 0. -1.
          1   -1    0    0  501    0  0.00000000000E+00 -0.00000000000E+00 -0.30413611144E+04  0.30413611144E+04  0.00000000000E+00 0.  1.
         23    2    1    2    0    0  0.68443338883E+03 -0.19937998688E+03 -0.22516149731E+04  0.23635423067E+04  0.91437440851E+02 0.  0.
         13    1    3    3    0    0  0.51244274436E+03 -0.11157368655E+03 -0.15842645477E+04  0.16688140731E+04  0.00000000000E+00 0. -1.
        -13    1    3    3    0    0  0.17199064447E+03 -0.87806300328E+02 -0.66735042546E+03  0.69472823357E+03  0.00000000000E+00 0.  1.
         22    1    1    2    0    0 -0.68443338883E+03  0.19937998688E+03 -0.56063802758E+03  0.90692692147E+03  0.00000000000E+00 0. -1.
<mgrwt>
<rscale>  0 0.16694915E+04</rscale>
<asrwt>0</asrwt>
<pdfrwt beam="1">  1        1 0.46790172E+00 0.16694915E+04</pdfrwt>
<pdfrwt beam="2">  1       -1 0.35247402E-01 0.16694915E+04</pdfrwt>
<totfact> 0.40938876E+00</totfact>
</mgrwt>
</event>
<event>
 6    1  0.1719556E-004  0.3471085E+04  0.7818608E-02  0.8120677E-01
          2   -1    0    0  501    0  0.00000000000E+00  0.00000000000E+00  0.15832168644E+04  0.15832168644E+04  0.00000000000E+00 0.  1.
         -2   -1    0    0    0  501 -0.00000000000E+00 -0.00000000000E+00 -0.19025237929E+04  0.19025237929E+04  0.00000000000E+00 0. -1.
         23    2    1    2    0    0 -0.42764597917E+03  0.51893914446E+03  0.14455195124E+04  0.15971456013E+04  0.95752242078E+02 0.  0.
         11    1    3    3    0    0 -0.27145720329E+03  0.36915492764E+03  0.10650702564E+04  0.11594563488E+04  0.00000000000E+00 0. -1.
        -11    1    3    3    0    0 -0.15618877588E+03  0.14978421683E+03  0.38044925603E+03  0.43768925248E+03  0.00000000000E+00 0.  1.
         22    1    1    2    0    0  0.42764597917E+03 -0.51893914446E+03 -0.17648264409E+04  0.18885950560E+04  0.00000000000E+00 0. -1.
<mgrwt>
<rscale>  0 0.34710850E+04</rscale>
<asrwt>0</asrwt>
<pdfrwt beam="1">  1        2 0.24357183E+00 0.34710850E+04</pdfrwt>
<pdfrwt beam="2">  1       -2 0.29269597E+00 0.34710850E+04</pdfrwt>
<totfact> 0.33063704E-01</totfact>
</mgrwt>
</event>
<event>
 6    1  0.1719556E-004  0.1516257E+04  0.7818608E-02  0.8873714E-01
          2   -1    0    0  501    0  0.00000000000E+00  0.00000000000E+00  0.12630790031E+04  0.12630790031E+04  0.00000000000E+00 0.  1.
         -2   -1    0    0    0  501 -0.00000000000E+00 -0.00000000000E+00 -0.45504588854E+03  0.45504588854E+03  0.00000000000E+00 0. -1.
         23    2    1    2    0    0 -0.24040516608E+03  0.65951218134E+03  0.72316389763E+03  0.10110508183E+04  0.80664571876E+02 0.  0.
         13    1    3    3    0    0 -0.11216038386E+03  0.20992474866E+03  0.27038697296E+03  0.36021863771E+03  0.00000000000E+00 0. -1.
        -13    1    3    3    0    0 -0.12824478222E+03  0.44958743268E+03  0.45277692467E+03  0.65083218060E+03  0.00000000000E+00 0.  1.
         22    1    1    2    0    0  0.24040516608E+03 -0.65951218134E+03  0.84869216940E+02  0.70707407335E+03  0.00000000000E+00 0.  1.
<mgrwt>
<rscale>  0 0.15162571E+04</rscale>
<asrwt>0</asrwt>
<pdfrwt beam="1">  1        2 0.19431985E+00 0.15162571E+04</pdfrwt>
<pdfrwt beam="2">  1       -2 0.70007060E-01 0.15162571E+04</pdfrwt>
<totfact> 0.31165726E+01</totfact>
</mgrwt>
</event>
<event>
 6    1  0.1719556E-004  0.3597465E+04  0.7818608E-02  0.8091073E-01
          2   -1    0    0  501    0  0.00000000000E+00  0.00000000000E+00  0.18311128769E+04  0.18311128769E+04  0.00000000000E+00 0.  1.
         -2   -1    0    0    0  501 -0.00000000000E+00 -0.00000000000E+00 -0.17669248511E+04  0.17669248511E+04  0.00000000000E+00 0. -1.
         23    2    1    2    0    0 -0.60621448227E+03 -0.14131383820E+04  0.96320957677E+03  0.18168314418E+04  0.92993085521E+02 0.  0.
         11    1    3    3    0    0 -0.19063448351E+03 -0.46325844894E+03  0.36503190354E+03  0.61983722655E+03  0.00000000000E+00 0.  1.
        -11    1    3    3    0    0 -0.41557999875E+03 -0.94987993303E+03  0.59817767323E+03  0.11969942152E+04  0.00000000000E+00 0. -1.
         22    1    1    2    0    0  0.60621448227E+03  0.14131383820E+04 -0.89902155088E+03  0.17812062862E+04  0.00000000000E+00 0. -1.
<mgrwt>
<rscale>  0 0.35974651E+04</rscale>
<asrwt>0</asrwt>
<pdfrwt beam="1">  1        2 0.28170967E+00 0.35974651E+04</pdfrwt>
<pdfrwt beam="2">  1       -2 0.27183459E+00 0.35974651E+04</pdfrwt>
<totfact> 0.31929828E-01</totfact>
</mgrwt>
</event>
<event>
 6    1  0.1719556E-004  0.3700764E+04  0.7818608E-02  0.8067792E-01
         -2   -1    0    0    0  501 -0.00000000000E+00  0.00000000000E+00  0.18038657931E+04  0.18038657931E+04  0.00000000000E+00 0. -1.
          2   -1    0    0  501    0  0.00000000000E+00 -0.00000000000E+00 -0.18980980241E+04  0.18980980241E+04  0.00000000000E+00 0.  1.
         23    2    1    2    0    0 -0.56933750617E+03 -0.12916770276E+04  0.11480859520E+04  0.18215571570E+04  0.85990601996E+02 0.  0.
         11    1    3    3    0    0 -0.40745981145E+03 -0.83891601790E+03  0.78526751429E+03  0.12192000049E+04  0.00000000000E+00 0. -1.
        -11    1    3    3    0    0 -0.16187769471E+03 -0.45276100970E+03  0.36281843773E+03  0.60235715212E+03  0.00000000000E+00 0.  1.
         22    1    1    2    0    0  0.56933750617E+03  0.12916770276E+04 -0.12423181830E+04  0.18804066601E+04  0.00000000000E+00 0.  1.
<mgrwt>
<rscale>  0 0.37007643E+04</rscale>
<asrwt>0</asrwt>
<pdfrwt beam="1">  1        2 0.29201508E+00 0.37007643E+04</pdfrwt>
<pdfrwt beam="2">  1       -2 0.27751781E+00 0.37007643E+04</pdfrwt>
<totfact> 0.26832621E-01</totfact>
</mgrwt>
</event>
<event>
 6    1  0.1719556E-004  0.1660700E+04  0.7818608E-02  0.8784101E-01
          1   -1    0    0  501    0  0.00000000000E+00  0.00000000000E+00  0.80137371707E+03  0.80137371707E+03  0.00000000000E+00 0.  1.
         -1   -1    0    0    0  501 -0.00000000000E+00 -0.00000000000E+00 -0.86037421443E+03  0.86037421443E+03  0.00000000000E+00 0. -1.
         23    2    1    2    0    0 -0.11829354117E+02  0.63168696570E+03  0.50580106800E+03  0.81429931094E+03  0.89890439750E+02 0.  0.
         11    1    3    3    0    0  0.21813280838E+01  0.16986606129E+03  0.87730514156E+02  0.19119592068E+03  0.00000000000E+00 0. -1.
        -11    1    3    3    0    0 -0.14010682201E+02  0.46182090440E+03  0.41807055384E+03  0.62310339026E+03  0.00000000000E+00 0.  1.
         22    1    1    2    0    0  0.11829354117E+02 -0.63168696570E+03 -0.56480156536E+03  0.84744862056E+03  0.00000000000E+00 0. -1.
<mgrwt>
<rscale>  0 0.16607002E+04</rscale>
<asrwt>0</asrwt>
<pdfrwt beam="1">  1        1 0.12328826E+00 0.16607002E+04</pdfrwt>
<pdfrwt beam="2">  1       -1 0.13236526E+00 0.16607002E+04</pdfrwt>
<totfact> 0.10199955E+01</totfact>
</mgrwt>
</event>
<event>
 6    1  0.1719556E-004  0.2282569E+04  0.7818608E-02  0.8484826E-01
          1   -1    0    0  501    0  0.00000000000E+00  0.00000000000E+00  0.14546209548E+04  0.14546209548E+04  0.00000000000E+00 0.  1.
         -1   -1    0    0    0  501 -0.00000000000E+00 -0.00000000000E+00 -0.89544294446E+03  0.89544294446E+03  0.00000000000E+00 0. -1.
         23    2    1    2    0    0 -0.96465176730E+03  0.44279922181E+03 -0.14671663442E+03  0.10753437604E+04  0.90632495195E+02 0.  0.
         13    1    3    3    0    0 -0.43639108097E+03  0.15859013975E+03 -0.39677196327E+02  0.46600674661E+03  0.00000000000E+00 0.  1.
        -13    1    3    3    0    0 -0.52826068633E+03  0.28420908205E+03 -0.10703943809E+03  0.60933701377E+03  0.00000000000E+00 0. -1.
         22    1    1    2    0    0  0.96465176730E+03 -0.44279922181E+03  0.70589464477E+03  0.12747201389E+04  0.00000000000E+00 0.  1.
<mgrwt>
<rscale>  0 0.22825688E+04</rscale>
<asrwt>0</asrwt>
<pdfrwt beam="1">  1        1 0.22378784E+00 0.22825688E+04</pdfrwt>
<pdfrwt beam="2">  1       -1 0.13776045E+00 0.22825688E+04</pdfrwt>
<totfact> 0.27842421E+00</totfact>
</mgrwt>
</event>
<event>
 6    1  0.1719556E-004  0.2525597E+04  0.7818608E-02  0.8393923E-01
         -4   -1    0    0    0  501 -0.00000000000E+00  0.00000000000E+00  0.18505175398E+04  0.18505175398E+04  0.00000000000E+00 0. -1.
          4   -1    0    0  501    0  0.00000000000E+00 -0.00000000000E+00 -0.86173733799E+03  0.86173733799E+03  0.00000000000E+00 0.  1.
         23    2    1    2    0    0  0.10758226737E+03 -0.10222254135E+04  0.12797579337E+04  0.16439914361E+04  0.91699142687E+02 0.  0.
         13    1    3    3    0    0  0.81401827545E+02 -0.77979301466E+03  0.91127995479E+03  0.12021374960E+04  0.00000000000E+00 0. -1.
        -13    1    3    3    0    0  0.26180439828E+02 -0.24243239885E+03  0.36847797893E+03  0.44185394012E+03  0.00000000000E+00 0.  1.
         22    1    1    2    0    0 -0.10758226737E+03  0.10222254135E+04 -0.29097773196E+03  0.10682634416E+04  0.00000000000E+00 0.  1.
<mgrwt>
<rscale>  0 0.25255970E+04</rscale>
<asrwt>0</asrwt>
<pdfrwt beam="1">  1        4 0.13257498E+00 0.25255970E+04</pdfrwt>
<pdfrwt beam="2">  1       -4 0.28469500E+00 0.25255970E+04</pdfrwt>
<totfact> 0.28098239E-02</totfact>
</mgrwt>
</event>
<event>
 6    1  0.1719556E-004  0.1408019E+04  0.7818608E-02  0.8948034E-01
          1   -1    0    0  501    0  0.00000000000E+00  0.00000000000E+00  0.16189620606E+04  0.16189620606E+04  0.00000000000E+00 0.  1.
         -1   -1    0    0    0  501 -0.00000000000E+00 -0.00000000000E+00 -0.30614020479E+03  0.30614020479E+03  0.00000000000E+00 0. -1.
         23    2    1    2    0    0  0.37223371787E+03  0.19595991382E+03 -0.10780200178E+03  0.44350502818E+03  0.90095559767E+02 0.  0.
         11    1    3    3    0    0  0.19532599671E+03  0.14051579382E+03 -0.91384493107E+02  0.25738698274E+03  0.00000000000E+00 0.  1.
        -11    1    3    3    0    0  0.17690772115E+03  0.55444120008E+02 -0.16417508674E+02  0.18611804544E+03  0.00000000000E+00 0. -1.
         22    1    1    2    0    0 -0.37223371787E+03 -0.19595991382E+03  0.14206238576E+04  0.14815972372E+04  0.00000000000E+00 0.  1.
<mgrwt>
<rscale>  0 0.14080190E+04</rscale>
<asrwt>0</asrwt>
<pdfrwt beam="1">  1        1 0.24907108E+00 0.14080190E+04</pdfrwt>
<pdfrwt beam="2">  1       -1 0.47098494E-01 0.14080190E+04</pdfrwt>
<totfact> 0.23723732E+01</totfact>
</mgrwt>
</event>
<event>
 6    1  0.1719556E-004  0.2593899E+04  0.7818608E-02  0.8370277E-01
          2   -1    0    0  501    0  0.00000000000E+00  0.00000000000E+00  0.20101752924E+04  0.20101752924E+04  0.00000000000E+00 0. -1.
         -2   -1    0    0    0  501 -0.00000000000E+00 -0.00000000000E+00 -0.83678150555E+03  0.83678150555E+03  0.00000000000E+00 0.  1.
         23    2    1    2    0    0  0.34831509418E+03  0.12064858368E+04  0.93586490403E+03  0.15689304096E+04  0.93637772223E+02 0.  0.
         13    1    3    3    0    0  0.22173680968E+03  0.88616481707E+03  0.71140588910E+03  0.11578227994E+04  0.00000000000E+00 0.  1.
        -13    1    3    3    0    0  0.12657828450E+03  0.32032101969E+03  0.22445901492E+03  0.41110761017E+03  0.00000000000E+00 0. -1.
         22    1    1    2    0    0 -0.34831509418E+03 -0.12064858368E+04  0.23752888281E+03  0.12780263883E+04  0.00000000000E+00 0.  1.
<mgrwt>
<rscale>  0 0.25938986E+04</rscale>
<asrwt>0</asrwt>
<pdfrwt beam="1">  1        2 0.30925774E+00 0.25938986E+04</pdfrwt>
<pdfrwt beam="2">  1       -2 0.12873562E+00 0.25938986E+04</pdfrwt>
<totfact> 0.25982703E+00</totfact>
</mgrwt>
</event>
<event>
 6    1  0.1719556E-004  0.1212777E+04  0.7818608E-02  0.9101746E-01
          2   -1    0    0  501    0  0.00000000000E+00  0.00000000000E+00  0.71290646945E+03  0.71290646945E+03  0.00000000000E+00 0.  1.
         -2   -1    0    0    0  501 -0.00000000000E+00 -0.00000000000E+00 -0.51578581044E+03  0.51578581044E+03  0.00000000000E+00 0. -1.
         23    2    1    2    0    0 -0.38159243650E+03 -0.22263839375E+03 -0.31680570621E+03  0.55097482340E+03  0.89592179185E+02 0.  0.
         13    1    3    3    0    0 -0.10599913240E+03 -0.11058149094E+03 -0.11324531779E+03  0.19049562779E+03  0.00000000000E+00 0.  1.
        -13    1    3    3    0    0 -0.27559330410E+03 -0.11205690282E+03 -0.20356038842E+03  0.36047919561E+03  0.00000000000E+00 0. -1.
         22    1    1    2    0    0  0.38159243650E+03  0.22263839375E+03  0.51392636521E+03  0.67771745649E+03  0.00000000000E+00 0.  1.
<mgrwt>
<rscale>  0 0.12127770E+04</rscale>
<asrwt>0</asrwt>
<pdfrwt beam="1">  1        2 0.10967792E+00 0.12127770E+04</pdfrwt>
<pdfrwt beam="2">  1       -2 0.79351663E-01 0.12127770E+04</pdfrwt>
<totfact> 0.55592118E+01</totfact>
</mgrwt>
</event>
<event>
 6    1  0.1719556E-004  0.3422529E+04  0.7818608E-02  0.8132399E-01
          2   -1    0    0  501    0  0.00000000000E+00  0.00000000000E+00  0.26688961852E+04  0.26688961852E+04  0.00000000000E+00 0.  1.
         -2   -1    0    0    0  501 -0.00000000000E+00 -0.00000000000E+00 -0.10972427703E+04  0.10972427703E+04  0.00000000000E+00 0. -1.
         23    2    1    2    0    0 -0.13742374230E+04 -0.54684042438E+03  0.17307035127E+04  0.22785705107E+04  0.94794402874E+02 0.  0.
         13    1    3    3    0    0 -0.54575001108E+03 -0.17562458876E+03  0.63119131523E+03  0.85269545982E+03  0.00000000000E+00 0.  1.
        -13    1    3    3    0    0 -0.82848741193E+03 -0.37121583562E+03  0.10995121975E+04  0.14258750509E+04  0.00000000000E+00 0. -1.
         22    1    1    2    0    0  0.13742374230E+04  0.54684042438E+03 -0.15905009781E+03  0.14875684449E+04  0.00000000000E+00 0. -1.
<mgrwt>
<rscale>  0 0.34225295E+04</rscale>
<asrwt>0</asrwt>
<pdfrwt beam="1">  1        2 0.41059941E+00 0.34225295E+04</pdfrwt>
<pdfrwt beam="2">  1       -2 0.16880658E+00 0.34225295E+04</pdfrwt>
<totfact> 0.49791023E-01</totfact>
</mgrwt>
</event>
<event>
 6    1  0.1719556E-004  0.2094339E+04  0.7818608E-02  0.8563741E-01
         -2   -1    0    0    0  501 -0.00000000000E+00  0.00000000000E+00  0.18754987480E+04  0.18754987480E+04  0.00000000000E+00 0. -1.
          2   -1    0    0  501    0  0.00000000000E+00 -0.00000000000E+00 -0.58467838872E+03  0.58467838872E+03  0.00000000000E+00 0.  1.
         23    2    1    2    0    0  0.95275320738E+03 -0.84607048964E+02  0.15148363669E+03  0.97256657130E+03  0.89673945658E+02 0.  0.
         11    1    3    3    0    0  0.29204255427E+03  0.17022332759E+00  0.78790706531E+02  0.30248447550E+03  0.00000000000E+00 0. -1.
        -11    1    3    3    0    0  0.66071065310E+03 -0.84777272291E+02  0.72692930162E+02  0.67008209580E+03  0.00000000000E+00 0.  1.
         22    1    1    2    0    0 -0.95275320738E+03  0.84607048964E+02  0.11393367225E+04  0.14876105654E+04  0.00000000000E+00 0. -1.
<mgrwt>
<rscale>  0 0.20943386E+04</rscale>
<asrwt>0</asrwt>
<pdfrwt beam="1">  1        2 0.89950522E-01 0.20943386E+04</pdfrwt>
<pdfrwt beam="2">  1       -2 0.28853827E+00 0.20943386E+04</pdfrwt>
<totfact> 0.17630281E+00</totfact>
</mgrwt>
</event>
<event>
 6    1  0.1719556E-004  0.2782646E+04  0.7818608E-02  0.8308676E-01
          2   -1    0    0  501    0  0.00000000000E+00  0.00000000000E+00  0.10016050663E+04  0.10016050663E+04  0.00000000000E+00 0.  1.
         -2   -1    0    0    0  501 -0.00000000000E+00 -0.00000000000E+00 -0.19326782391E+04  0.19326782391E+04  0.00000000000E+00 0. -1.
         23    2    1    2    0    0 -0.36911138140E+03 -0.13258743569E+04 -0.67002631067E+03  0.15334508791E+04  0.91380082834E+02 0.  0.
         13    1    3    3    0    0 -0.13049490431E+03 -0.33805709676E+03 -0.15437635272E+03  0.39388269701E+03  0.00000000000E+00 0.  1.
        -13    1    3    3    0    0 -0.23861647709E+03 -0.98781726016E+03 -0.51564995795E+03  0.11395681821E+04  0.00000000000E+00 0. -1.
         22    1    1    2    0    0  0.36911138140E+03  0.13258743569E+04 -0.26104686217E+03  0.14008324263E+04  0.00000000000E+00 0. -1.
<mgrwt>
<rscale>  0 0.27826464E+04</rscale>
<asrwt>0</asrwt>
<pdfrwt beam="1">  1        2 0.15409309E+00 0.27826464E+04</pdfrwt>
<pdfrwt beam="2">  1       -2 0.29733511E+00 0.27826464E+04</pdfrwt>
<totfact> 0.72259056E-01</totfact>
</mgrwt>
</event>
<event>
 6    1  0.1719556E-004  0.1514703E+04  0.7818608E-02  0.8874734E-01
          2   -1    0    0  501    0  0.00000000000E+00  0.00000000000E+00  0.16888350551E+04  0.16888350551E+04  0.00000000000E+00 0.  1.
         -2   -1    0    0    0  501 -0.00000000000E+00 -0.00000000000E+00 -0.33963140404E+03  0.33963140404E+03  0.00000000000E+00 0. -1.
         23    2    1    2    0    0 -0.39271345975E+03  0.22611545683E+03 -0.13119394064E+03  0.48026456959E+03  0.89945235865E+02 0.  0.
         13    1    3    3    0    0 -0.19016196434E+03  0.14548958825E+03 -0.10221134921E+03  0.26033815102E+03  0.00000000000E+00 0. -1.
        -13    1    3    3    0    0 -0.20255149541E+03  0.80625868587E+02 -0.28982591425E+02  0.21992641856E+03  0.00000000000E+00 0.  1.
         22    1    1    2    0    0  0.39271345975E+03 -0.22611545683E+03  0.14803975917E+04  0.15482018896E+04  0.00000000000E+00 0.  1.
<mgrwt>
<rscale>  0 0.15147032E+04</rscale>
<asrwt>0</asrwt>
<pdfrwt beam="1">  1        2 0.25982077E+00 0.15147032E+04</pdfrwt>
<pdfrwt beam="2">  1       -2 0.52250986E-01 0.15147032E+04</pdfrwt>
<totfact> 0.33190585E+01</totfact>
</mgrwt>
</event>
<event>
 6    1  0.1719556E-004  0.1336498E+04  0.7818608E-02  0.9001112E-01
         -2   -1    0    0    0  501 -0.00000000000E+00  0.00000000000E+00  0.22249425774E+03  0.22249425774E+03  0.00000000000E+00 0. -1.
          2   -1    0    0  501    0  0.00000000000E+00 -0.00000000000E+00 -0.20070478202E+04  0.20070478202E+04  0.00000000000E+00 0.  1.
         23    2    1    2    0    0 -0.17094368602E+03  0.58210978638E+03 -0.13529912040E+04  0.14850156402E+04  0.81318548953E+02 0.  0.
         11    1    3    3    0    0 -0.11351795528E+03  0.26874310060E+03 -0.59011889663E+03  0.65829286222E+03  0.00000000000E+00 0. -1.
        -11    1    3    3    0    0 -0.57425730738E+02  0.31336668578E+03 -0.76287230739E+03  0.82672277802E+03  0.00000000000E+00 0.  1.
         22    1    1    2    0    0  0.17094368602E+03 -0.58210978638E+03 -0.43156235841E+03  0.74452643767E+03  0.00000000000E+00 0.  1.
<mgrwt>
<rscale>  0 0.13364978E+04</rscale>
<asrwt>0</asrwt>
<pdfrwt beam="1">  1        2 0.30877658E+00 0.13364978E+04</pdfrwt>
<pdfrwt beam="2">  1       -2 0.34229886E-01 0.13364978E+04</pdfrwt>
<totfact> 0.51789567E+01</totfact>
</mgrwt>
</event>
<event>
 6    1  0.1719556E-004  0.2451620E+04  0.7818608E-02  0.8420427E-01
          2   -1    0    0  501    0  0.00000000000E+00  0.00000000000E+00  0.26859121602E+04  0.26859121602E+04  0.00000000000E+00 0.  1.
         -2   -1    0    0    0  501 -0.00000000000E+00 -0.00000000000E+00 -0.55944118149E+03  0.55944118149E+03  0.00000000000E+00 0. -1.
         23    2    1    2    0    0 -0.68168697289E+03  0.78792494420E+03  0.21409637248E+03  0.10675793678E+04  0.91463671465E+02 0.  0.
         13    1    3    3    0    0 -0.49006157349E+03  0.60406244085E+03  0.12736874016E+03  0.78820972731E+03  0.00000000000E+00 0. -1.
        -13    1    3    3    0    0 -0.19162539940E+03  0.18386250335E+03  0.86727632326E+02  0.27936964052E+03  0.00000000000E+00 0.  1.
         22    1    1    2    0    0  0.68168697289E+03 -0.78792494420E+03  0.19123746062E+04  0.21777739739E+04  0.00000000000E+00 0.  1.
<mgrwt>
<rscale>  0 0.24516198E+04</rscale>
<asrwt>0</asrwt>
<pdfrwt beam="1">  1        2 0.41321725E+00 0.24516198E+04</pdfrwt>
<pdfrwt beam="2">  1       -2 0.86067876E-01 0.24516198E+04</pdfrwt>
<totfact> 0.28387100E+00</totfact>
</mgrwt>
</event>
<event>
 6    1  0.1719556E-004  0.1539638E+04  0.7818608E-02  0.8858514E-01
          1   -1    0    0  501    0  0.00000000000E+00  0.00000000000E+00  0.16272648129E+04  0.16272648129E+04  0.00000000000E+00 0.  1.
         -1   -1    0    0    0  501 -0.00000000000E+00 -0.00000000000E+00 -0.36418229462E+03  0.36418229462E+03  0.00000000000E+00 0. -1.
         23    2    1    2    0    0  0.68433712623E+03  0.65327857363E+02  0.10733098077E+04  0.12782860367E+04  0.97140192871E+02 0.  0.
         11    1    3    3    0    0  0.48456636425E+03  0.81062544983E+02  0.71062013499E+03  0.86391936766E+03  0.00000000000E+00 0. -1.
        -11    1    3    3    0    0  0.19977076198E+03 -0.15734687620E+02  0.36268967266E+03  0.41436666902E+03  0.00000000000E+00 0.  1.
         22    1    1    2    0    0 -0.68433712623E+03 -0.65327857363E+02  0.18977271063E+03  0.71316107086E+03  0.00000000000E+00 0. -1.
<mgrwt>
<rscale>  0 0.15396377E+04</rscale>
<asrwt>0</asrwt>
<pdfrwt beam="1">  1        1 0.25034843E+00 0.15396377E+04</pdfrwt>
<pdfrwt beam="2">  1       -1 0.56028046E-01 0.15396377E+04</pdfrwt>
<totfact> 0.16608629E+01</totfact>
</mgrwt>
</event>
<event>
 6    1  0.1719556E-004  0.1502413E+04  0.7818608E-02  0.8882850E-01
          2   -1    0    0  501    0  0.00000000000E+00  0.00000000000E+00  0.15167851639E+04  0.15167851639E+04  0.00000000000E+00 0.  1.
         -2   -1    0    0    0  501 -0.00000000000E+00 -0.00000000000E+00 -0.37204434296E+03  0.37204434296E+03  0.00000000000E+00 0. -1.
         23    2    1    2    0    0  0.12359458922E+03 -0.22310866499E+03 -0.31180454748E+03  0.41012145280E+03  0.76970327671E+02 0.  0.
         13    1    3    3    0    0  0.89080438210E+02 -0.87988545765E+02 -0.17104010650E+03  0.21197175918E+03  0.00000000000E+00 0. -1.
        -13    1    3    3    0    0  0.34514151011E+02 -0.13512011922E+03 -0.14076444098E+03  0.19814969363E+03  0.00000000000E+00 0.  1.
         22    1    1    2    0    0 -0.12359458922E+03  0.22310866499E+03  0.14565453685E+04  0.14787080541E+04  0.00000000000E+00 0.  1.
<mgrwt>
<rscale>  0 0.15024132E+04</rscale>
<asrwt>0</asrwt>
<pdfrwt beam="1">  1        2 0.23335156E+00 0.15024132E+04</pdfrwt>
<pdfrwt beam="2">  1       -2 0.57237592E-01 0.15024132E+04</pdfrwt>
<totfact> 0.34312664E+01</totfact>
</mgrwt>
</event>
<event>
 6    1  0.1719556E-004  0.1493613E+04  0.7818608E-02  0.8888712E-01
          2   -1    0    0  501    0  0.00000000000E+00  0.00000000000E+00  0.17558501892E+04  0.17558501892E+04  0.00000000000E+00 0.  1.
         -2   -1    0    0    0  501 -0.00000000000E+00 -0.00000000000E+00 -0.31763508637E+03  0.31763508637E+03  0.00000000000E+00 0. -1.
         23    2    1    2    0    0 -0.34678993147E+03 -0.24350262125E+03  0.15707980705E+04  0.16294863719E+04  0.90898156856E+02 0.  0.
         13    1    3    3    0    0 -0.49698346481E+02 -0.76426129058E+02  0.38720980589E+03  0.39779682329E+03  0.00000000000E+00 0. -1.
        -13    1    3    3    0    0 -0.29709158499E+03 -0.16707649219E+03  0.11835882646E+04  0.12316895486E+04  0.00000000000E+00 0.  1.
         22    1    1    2    0    0  0.34678993147E+03  0.24350262125E+03 -0.13258296766E+03  0.44399890365E+03  0.00000000000E+00 0. -1.
<mgrwt>
<rscale>  0 0.14936126E+04</rscale>
<asrwt>0</asrwt>
<pdfrwt beam="1">  1        2 0.27013079E+00 0.14936126E+04</pdfrwt>
<pdfrwt beam="2">  1       -2 0.48866937E-01 0.14936126E+04</pdfrwt>
<totfact> 0.34993294E+01</totfact>
</mgrwt>
</event>
<event>
 6    1  0.1719556E-004  0.1970303E+04  0.7818608E-02  0.8620632E-01
         -2   -1    0    0    0  501 -0.00000000000E+00  0.00000000000E+00  0.97556372459E+03  0.97556372459E+03  0.00000000000E+00 0. -1.
          2   -1    0    0  501    0  0.00000000000E+00 -0.00000000000E+00 -0.99483377986E+03  0.99483377986E+03  0.00000000000E+00 0.  1.
         23    2    1    2    0    0 -0.51015546899E+03  0.45458907207E+03  0.69714286887E+03  0.98036856303E+03  0.90578765563E+02 0.  0.
         13    1    3    3    0    0 -0.33011325797E+03  0.24591928254E+03  0.38025781115E+03  0.56039901816E+03  0.00000000000E+00 0.  1.
        -13    1    3    3    0    0 -0.18004221102E+03  0.20866978953E+03  0.31688505772E+03  0.41996954487E+03  0.00000000000E+00 0. -1.
         22    1    1    2    0    0  0.51015546899E+03 -0.45458907207E+03 -0.71641292413E+03  0.99002894142E+03  0.00000000000E+00 0.  1.
<mgrwt>
<rscale>  0 0.19703033E+04</rscale>
<asrwt>0</asrwt>
<pdfrwt beam="1">  1        2 0.15305135E+00 0.19703033E+04</pdfrwt>
<pdfrwt beam="2">  1       -2 0.15008673E+00 0.19703033E+04</pdfrwt>
<totfact> 0.70707921E+00</totfact>
</mgrwt>
</event>
<event>
 6    1  0.1719556E-004  0.3372215E+04  0.7818608E-02  0.8144760E-01
          2   -1    0    0  501    0  0.00000000000E+00  0.00000000000E+00  0.28850825059E+04  0.28850825059E+04  0.00000000000E+00 0.  1.
         -2   -1    0    0    0  501 -0.00000000000E+00 -0.00000000000E+00 -0.98539924816E+03  0.98539924816E+03  0.00000000000E+00 0. -1.
         23    2    1    2    0    0  0.28393101209E+02  0.50421763495E+03 -0.89434791086E+03  0.10311769514E+04  0.91793941765E+02 0.  0.
         13    1    3    3    0    0  0.35510612115E+02  0.76790089711E+02 -0.12292579220E+03  0.14922624380E+03  0.00000000000E+00 0. -1.
        -13    1    3    3    0    0 -0.71175109055E+01  0.42742754524E+03 -0.77142211866E+03  0.88195070755E+03  0.00000000000E+00 0.  1.
         22    1    1    2    0    0 -0.28393101209E+02 -0.50421763495E+03  0.27940311686E+04  0.28393048027E+04  0.00000000000E+00 0.  1.
<mgrwt>
<rscale>  0 0.33722148E+04</rscale>
<asrwt>0</asrwt>
<pdfrwt beam="1">  1        2 0.44385884E+00 0.33722148E+04</pdfrwt>
<pdfrwt beam="2">  1       -2 0.15159989E+00 0.33722148E+04</pdfrwt>
<totfact> 0.49600527E-01</totfact>
</mgrwt>
</event>
<event>
 6    1  0.1719556E-004  0.1501331E+04  0.7818608E-02  0.8883568E-01
          2   -1    0    0  501    0  0.00000000000E+00  0.00000000000E+00  0.10391964522E+04  0.10391964522E+04  0.00000000000E+00 0.  1.
         -2   -1    0    0    0  501 -0.00000000000E+00 -0.00000000000E+00 -0.54224491850E+03  0.54224491850E+03  0.00000000000E+00 0. -1.
         23    2    1    2    0    0 -0.64327414564E+03 -0.31744678135E+03  0.26647891278E+02  0.72367706655E+03  0.91783991545E+02 0.  0.
         13    1    3    3    0    0 -0.53542021313E+03 -0.26208776648E+03 -0.12577805976E+02  0.59625749737E+03  0.00000000000E+00 0.  1.
        -13    1    3    3    0    0 -0.10785393251E+03 -0.55359014874E+02  0.39225697253E+02  0.12741956918E+03  0.00000000000E+00 0. -1.
         22    1    1    2    0    0  0.64327414564E+03  0.31744678135E+03  0.47030364246E+03  0.85776430419E+03  0.00000000000E+00 0. -1.
<mgrwt>
<rscale>  0 0.15013314E+04</rscale>
<asrwt>0</asrwt>
<pdfrwt beam="1">  1        2 0.15987638E+00 0.15013314E+04</pdfrwt>
<pdfrwt beam="2">  1       -2 0.83422296E-01 0.15013314E+04</pdfrwt>
<totfact> 0.28891799E+01</totfact>
</mgrwt>
</event>
<event>
 6    1  0.1719556E-004  0.6855906E+03  0.7818608E-02  0.9742196E-01
         -1   -1    0    0    0  501 -0.00000000000E+00  0.00000000000E+00  0.17805257514E+03  0.17805257514E+03  0.00000000000E+00 0. -1.
          1   -1    0    0  501    0  0.00000000000E+00 -0.00000000000E+00 -0.65996588863E+03  0.65996588863E+03  0.00000000000E+00 0.  1.
         23    2    1    2    0    0 -0.32672671737E+02  0.22766343118E+03  0.55670569734E+02  0.25330094831E+03  0.90354948435E+02 0.  0.
         11    1    3    3    0    0 -0.70080949035E+01  0.11926101578E+03 -0.16450061786E+02  0.12059397917E+03  0.00000000000E+00 0.  1.
        -11    1    3    3    0    0 -0.25664576834E+02  0.10840241540E+03  0.72120631521E+02  0.13270696915E+03  0.00000000000E+00 0. -1.
         22    1    1    2    0    0  0.32672671737E+02 -0.22766343118E+03 -0.53758388323E+03  0.58471751546E+03  0.00000000000E+00 0.  1.
<mgrwt>
<rscale>  0 0.68559062E+03</rscale>
<asrwt>0</asrwt>
<pdfrwt beam="1">  1        1 0.10153321E+00 0.68559062E+03</pdfrwt>
<pdfrwt beam="2">  1       -1 0.27392704E-01 0.68559062E+03</pdfrwt>
<totfact> 0.36011590E+02</totfact>
</mgrwt>
</event>
<event>
 6    1  0.1719556E-004  0.1637966E+04  0.7818608E-02  0.8797557E-01
         -1   -1    0    0    0  501 -0.00000000000E+00  0.00000000000E+00  0.64443403026E+03  0.64443403026E+03  0.00000000000E+00 0.  1.
          1   -1    0    0  501    0  0.00000000000E+00 -0.00000000000E+00 -0.10408101159E+04  0.10408101159E+04  0.00000000000E+00 0. -1.
         23    2    1    2    0    0  0.78303066520E+03  0.22060031149E+03 -0.27239618734E+03  0.86233920921E+03  0.87336755036E+02 0.  0.
         13    1    3    3    0    0  0.40565829000E+03  0.15622830630E+03 -0.12753189939E+03  0.45302352842E+03  0.00000000000E+00 0. -1.
        -13    1    3    3    0    0  0.37737237520E+03  0.64372005187E+02 -0.14486428796E+03  0.40931568079E+03  0.00000000000E+00 0.  1.
         22    1    1    2    0    0 -0.78303066520E+03 -0.22060031149E+03 -0.12397989829E+03  0.82290493695E+03  0.00000000000E+00 0.  1.
<mgrwt>
<rscale>  0 0.16379664E+04</rscale>
<asrwt>0</asrwt>
<pdfrwt beam="1">  1        1 0.16012463E+00 0.16379664E+04</pdfrwt>
<pdfrwt beam="2">  1       -1 0.99143699E-01 0.16379664E+04</pdfrwt>
<totfact> 0.13081472E+01</totfact>
</mgrwt>
</event>
<event>
 6    1  0.1719556E-004  0.2775980E+04  0.7818608E-02  0.8310765E-01
         -2   -1    0    0    0  501 -0.00000000000E+00  0.00000000000E+00  0.15357401718E+04  0.15357401718E+04  0.00000000000E+00 0. -1.
          2   -1    0    0  501    0  0.00000000000E+00 -0.00000000000E+00 -0.12544542188E+04  0.12544542188E+04  0.00000000000E+00 0.  1.
         23    2    1    2    0    0  0.56778084495E+03  0.94310468799E+03 -0.70650260553E+03  0.13111582935E+04  0.90380299765E+02 0.  0.
         11    1    3    3    0    0  0.31480810555E+03  0.60004130308E+03 -0.45589744133E+03  0.81669834439E+03  0.00000000000E+00 0. -1.
        -11    1    3    3    0    0  0.25297273940E+03  0.34306338491E+03 -0.25060516420E+03  0.49445994910E+03  0.00000000000E+00 0.  1.
         22    1    1    2    0    0 -0.56778084495E+03 -0.94310468799E+03  0.98778855848E+03  0.14790360971E+04  0.00000000000E+00 0. -1.
<mgrwt>
<rscale>  0 0.27759796E+04</rscale>
<asrwt>0</asrwt>
<pdfrwt beam="1">  1        2 0.19299296E+00 0.27759796E+04</pdfrwt>
<pdfrwt beam="2">  1       -2 0.23626772E+00 0.27759796E+04</pdfrwt>
<totfact> 0.11976597E+00</totfact>
</mgrwt>
</event>
<event>
 6    1  0.1719556E-004  0.2263000E+04  0.7818608E-02  0.8492654E-01
         -2   -1    0    0    0  501 -0.00000000000E+00  0.00000000000E+00  0.30698991051E+03  0.30698991051E+03  0.00000000000E+00 0. -1.
          2   -1    0    0  501    0  0.00000000000E+00 -0.00000000000E+00 -0.41704685722E+04  0.41704685722E+04  0.00000000000E+00 0.  1.
         23    2    1    2    0    0 -0.97478238644E+03 -0.57077178602E+03 -0.19701156115E+04  0.22727351957E+04  0.89379048206E+02 0.  0.
         11    1    3    3    0    0 -0.11128287639E+03 -0.96167618047E+02 -0.22968302284E+03  0.27273866671E+03  0.00000000000E+00 0.  1.
        -11    1    3    3    0    0 -0.86349951005E+03 -0.47460416798E+03 -0.17404325887E+04  0.19999965289E+04  0.00000000000E+00 0. -1.
         22    1    1    2    0    0  0.97478238644E+03  0.57077178602E+03 -0.18933630502E+04  0.22047232870E+04  0.00000000000E+00 0.  1.
<mgrwt>
<rscale>  0 0.22629996E+04</rscale>
<asrwt>0</asrwt>
<pdfrwt beam="1">  1        2 0.64161047E+00 0.22629996E+04</pdfrwt>
<pdfrwt beam="2">  1       -2 0.47229223E-01 0.22629996E+04</pdfrwt>
<totfact> 0.96008279E-01</totfact>
</mgrwt>
</event>
<event>
 6    1  0.1719556E-004  0.1199852E+04  0.7818608E-02  0.9112986E-01
         -2   -1    0    0    0  501 -0.00000000000E+00  0.00000000000E+00  0.57447097575E+03  0.57447097575E+03  0.00000000000E+00 0. -1.
          2   -1    0    0  501    0  0.00000000000E+00 -0.00000000000E+00 -0.62650889999E+03  0.62650889999E+03  0.00000000000E+00 0.  1.
         23    2    1    2    0    0 -0.18500369214E+03  0.32810854455E+03  0.43875075934E+03  0.58230781799E+03  0.68546210428E+02 0.  0.
         13    1    3    3    0    0 -0.14860761318E+03  0.21612252381E+03  0.26891069827E+03  0.37564096107E+03  0.00000000000E+00 0.  1.
        -13    1    3    3    0    0 -0.36396078960E+02  0.11198602073E+03  0.16984006107E+03  0.20666685692E+03  0.00000000000E+00 0. -1.
         22    1    1    2    0    0  0.18500369214E+03 -0.32810854455E+03 -0.49078868358E+03  0.61867205775E+03  0.00000000000E+00 0.  1.
<mgrwt>
<rscale>  0 0.11998520E+04</rscale>
<asrwt>0</asrwt>
<pdfrwt beam="1">  1        2 0.96385984E-01 0.11998520E+04</pdfrwt>
<pdfrwt beam="2">  1       -2 0.88380151E-01 0.11998520E+04</pdfrwt>
<totfact> 0.51184709E+01</totfact>
</mgrwt>
</event>
<event>
 6    1  0.1719556E-004  0.3405548E+04  0.7818608E-02  0.8136546E-01
          2   -1    0    0  501    0  0.00000000000E+00  0.00000000000E+00  0.28314656818E+04  0.28314656818E+04  0.00000000000E+00 0.  1.
         -2   -1    0    0    0  501 -0.00000000000E+00 -0.00000000000E+00 -0.10240066220E+04  0.10240066220E+04  0.00000000000E+00 0. -1.
         23    2    1    2    0    0 -0.56917821375E+03  0.15179478171E+04  0.31922596283E+03  0.16547980514E+04  0.91224782727E+02 0.  0.
         13    1    3    3    0    0 -0.43882196001E+03  0.11097980782E+04  0.26953941995E+03  0.12234655638E+04  0.00000000000E+00 0.  1.
        -13    1    3    3    0    0 -0.13035625374E+03  0.40814973897E+03  0.49686542879E+02  0.43133248760E+03  0.00000000000E+00 0. -1.
         22    1    1    2    0    0  0.56917821375E+03 -0.15179478171E+04  0.14882330969E+04  0.22006742524E+04  0.00000000000E+00 0.  1.
<mgrwt>
<rscale>  0 0.34055482E+04</rscale>
<asrwt>0</asrwt>
<pdfrwt beam="1">  1        2 0.43561010E+00 0.34055482E+04</pdfrwt>
<pdfrwt beam="2">  1       -2 0.15753948E+00 0.34055482E+04</pdfrwt>
<totfact> 0.48119352E-01</totfact>
</mgrwt>
</event>
<event>
 6    1  0.1719556E-004  0.1815467E+04  0.7818608E-02  0.8698117E-01
         -2   -1    0    0    0  501 -0.00000000000E+00  0.00000000000E+00  0.16309224414E+04  0.16309224414E+04  0.00000000000E+00 0. -1.
          2   -1    0    0  501    0  0.00000000000E+00 -0.00000000000E+00 -0.50522359257E+03  0.50522359257E+03  0.00000000000E+00 0.  1.
         23    2    1    2    0    0  0.20764406756E+03  0.86216627085E+03  0.77952745855E+03  0.11841579202E+04  0.90112063146E+02 0.  0.
         11    1    3    3    0    0  0.87118388484E+02  0.49986867642E+03  0.48534447451E+03  0.70215209621E+03  0.00000000000E+00 0. -1.
        -11    1    3    3    0    0  0.12052567908E+03  0.36229759443E+03  0.29418298404E+03  0.48200582398E+03  0.00000000000E+00 0.  1.
         22    1    1    2    0    0 -0.20764406756E+03 -0.86216627085E+03  0.34617139033E+03  0.95198811383E+03  0.00000000000E+00 0.  1.
<mgrwt>
<rscale>  0 0.18154674E+04</rscale>
<asrwt>0</asrwt>
<pdfrwt beam="1">  1        2 0.77726707E-01 0.18154674E+04</pdfrwt>
<pdfrwt beam="2">  1       -2 0.25091114E+00 0.18154674E+04</pdfrwt>
<totfact> 0.36388128E+00</totfact>
</mgrwt>
</event>
<event>
 6    1  0.1719556E-004  0.3828363E+04  0.7818608E-02  0.8040095E-01
          2   -1    0    0  501    0  0.00000000000E+00  0.00000000000E+00  0.23629812881E+04  0.23629812881E+04  0.00000000000E+00 0.  1.
         -2   -1    0    0    0  501 -0.00000000000E+00 -0.00000000000E+00 -0.15506223905E+04  0.15506223905E+04  0.00000000000E+00 0. -1.
         23    2    1    2    0    0 -0.53936886717E+03  0.47851065849E+03 -0.14051439075E+04  0.15818211168E+04  0.88529202446E+02 0.  0.
         13    1    3    3    0    0 -0.42183595397E+03  0.36503765665E+03 -0.11608681387E+04  0.12879491055E+04  0.00000000000E+00 0. -1.
        -13    1    3    3    0    0 -0.11753291320E+03  0.11347300184E+03 -0.24427576874E+03  0.29387201130E+03  0.00000000000E+00 0.  1.
         22    1    1    2    0    0  0.53936886717E+03 -0.47851065849E+03  0.22175028051E+04  0.23317825618E+04  0.00000000000E+00 0.  1.
<mgrwt>
<rscale>  0 0.38283635E+04</rscale>
<asrwt>0</asrwt>
<pdfrwt beam="1">  1        2 0.36353558E+00 0.38283635E+04</pdfrwt>
<pdfrwt beam="2">  1       -2 0.23855729E+00 0.38283635E+04</pdfrwt>
<totfact> 0.25251049E-01</totfact>
</mgrwt>
</event>
<event>
 6    1  0.1719556E-004  0.9714417E+03  0.7818608E-02  0.9340434E-01
         -2   -1    0    0    0  501 -0.00000000000E+00  0.00000000000E+00  0.28526871714E+03  0.28526871714E+03  0.00000000000E+00 0. -1.
          2   -1    0    0  501    0  0.00000000000E+00 -0.00000000000E+00 -0.82702641506E+03  0.82702641506E+03  0.00000000000E+00 0.  1.
         23    2    1    2    0    0 -0.27333544067E+03  0.39631295277E+03 -0.28476599113E+03  0.56656538496E+03  0.90157895257E+02 0.  0.
         13    1    3    3    0    0 -0.19278480112E+03  0.33778170860E+03 -0.24294819678E+03  0.45856982950E+03  0.00000000000E+00 0.  1.
        -13    1    3    3    0    0 -0.80550639553E+02  0.58531244166E+02 -0.41817794352E+02  0.10799555547E+03  0.00000000000E+00 0. -1.
         22    1    1    2    0    0  0.27333544067E+03 -0.39631295277E+03 -0.25699170679E+03  0.54572974723E+03  0.00000000000E+00 0. -1.
<mgrwt>
<rscale>  0 0.97144174E+03</rscale>
<asrwt>0</asrwt>
<pdfrwt beam="1">  1        2 0.12723483E+00 0.97144174E+03</pdfrwt>
<pdfrwt beam="2">  1       -2 0.43887496E-01 0.97144174E+03</pdfrwt>
<totfact> 0.16209164E+02</totfact>
</mgrwt>
</event>
<event>
 6    1  0.1719556E-004  0.1819383E+04  0.7818608E-02  0.8696059E-01
          2   -1    0    0  501    0  0.00000000000E+00  0.00000000000E+00  0.71674022111E+03  0.71674022111E+03  0.00000000000E+00 0.  1.
         -2   -1    0    0    0  501 -0.00000000000E+00 -0.00000000000E+00 -0.11545863594E+04  0.11545863594E+04  0.00000000000E+00 0. -1.
         23    2    1    2    0    0  0.52076370137E+03  0.50847021255E+03  0.33798257857E+03  0.80753760348E+03  0.90266095054E+02 0.  0.
         13    1    3    3    0    0  0.28395540465E+03  0.26258202584E+03  0.22760636849E+03  0.44875901228E+03  0.00000000000E+00 0.  1.
        -13    1    3    3    0    0  0.23680829672E+03  0.24588818671E+03  0.11037621008E+03  0.35877859121E+03  0.00000000000E+00 0. -1.
         22    1    1    2    0    0 -0.52076370137E+03 -0.50847021255E+03 -0.77582871682E+03  0.10637889770E+04  0.00000000000E+00 0. -1.
<mgrwt>
<rscale>  0 0.18193828E+04</rscale>
<asrwt>0</asrwt>
<pdfrwt beam="1">  1        2 0.11026773E+00 0.18193828E+04</pdfrwt>
<pdfrwt beam="2">  1       -2 0.17762867E+00 0.18193828E+04</pdfrwt>
<totfact> 0.70531844E+00</totfact>
</mgrwt>
</event>
<event>
 6    1  0.1719556E-004  0.1588072E+04  0.7818608E-02  0.8827910E-01
         -1   -1    0    0    0  501 -0.00000000000E+00  0.00000000000E+00  0.59848583788E+03  0.59848583788E+03  0.00000000000E+00 0. -1.
          1   -1    0    0  501    0  0.00000000000E+00 -0.00000000000E+00 -0.10534804317E+04  0.10534804317E+04  0.00000000000E+00 0.  1.
         23    2    1    2    0    0  0.32306213574E+03 -0.63471250107E+03 -0.58709466015E+03  0.92761861130E+03  0.92558335626E+02 0.  0.
         11    1    3    3    0    0  0.22605516493E+03 -0.44331273072E+03 -0.35333657956E+03  0.61030636017E+03  0.00000000000E+00 0.  1.
        -11    1    3    3    0    0  0.97006970804E+02 -0.19139977035E+03 -0.23375808060E+03  0.31731225113E+03  0.00000000000E+00 0. -1.
         22    1    1    2    0    0 -0.32306213574E+03  0.63471250107E+03  0.13210006631E+03  0.72434765830E+03  0.00000000000E+00 0. -1.
<mgrwt>
<rscale>  0 0.15880719E+04</rscale>
<asrwt>0</asrwt>
<pdfrwt beam="1">  1        1 0.16207391E+00 0.15880719E+04</pdfrwt>
<pdfrwt beam="2">  1       -1 0.92074745E-01 0.15880719E+04</pdfrwt>
<totfact> 0.15174067E+01</totfact>
</mgrwt>
</event>
<event>
 6    1  0.1719556E-004  0.2192174E+04  0.7818608E-02  0.8521693E-01
          1   -1    0    0  501    0  0.00000000000E+00  0.00000000000E+00  0.61478219473E+03  0.61478219473E+03  0.00000000000E+00 0.  1.
         -1   -1    0    0    0  501 -0.00000000000E+00 -0.00000000000E+00 -0.19541987347E+04  0.19541987347E+04  0.00000000000E+00 0. -1.
         23    2    1    2    0    0 -0.69821316957E+03  0.14915211376E+03 -0.16425696916E+04  0.17933200393E+04  0.90628849420E+02 0.  0.
         11    1    3    3    0    0 -0.17796640731E+03  0.73756094216E+02 -0.49096546676E+03  0.52740790013E+03  0.00000000000E+00 0.  1.
        -11    1    3    3    0    0 -0.52024676226E+03  0.75396019541E+02 -0.11516042248E+04  0.12659121391E+04  0.00000000000E+00 0. -1.
         22    1    1    2    0    0  0.69821316957E+03 -0.14915211376E+03  0.30315315161E+03  0.77566089017E+03  0.00000000000E+00 0.  1.
<mgrwt>
<rscale>  0 0.21921739E+04</rscale>
<asrwt>0</asrwt>
<pdfrwt beam="1">  1        1 0.94581875E-01 0.21921739E+04</pdfrwt>
<pdfrwt beam="2">  1       -1 0.30064596E+00 0.21921739E+04</pdfrwt>
<totfact> 0.98686154E-01</totfact>
</mgrwt>
</event>
<event>
 6    1  0.1719556E-004  0.1841522E+04  0.7818608E-02  0.8684525E-01
          2   -1    0    0  501    0  0.00000000000E+00  0.00000000000E+00  0.34488692645E+04  0.34488692645E+04  0.00000000000E+00 0.  1.
         -2   -1    0    0    0  501 -0.00000000000E+00 -0.00000000000E+00 -0.24581987115E+03  0.24581987115E+03  0.00000000000E+00 0. -1.
         23    2    1    2    0    0 -0.24664284996E+03  0.68458866901E+03  0.27292368337E+04  0.28263616151E+04  0.10045866779E+03 0.  0.
         11    1    3    3    0    0 -0.69893709199E+02  0.24251666130E+03  0.77962387149E+03  0.81945887181E+03  0.00000000000E+00 0.  1.
        -11    1    3    3    0    0 -0.17674914077E+03  0.44207200772E+03  0.19496129622E+04  0.20069027433E+04  0.00000000000E+00 0. -1.
         22    1    1    2    0    0  0.24664284996E+03 -0.68458866901E+03  0.47381255965E+03  0.86832752050E+03  0.00000000000E+00 0. -1.
<mgrwt>
<rscale>  0 0.18415218E+04</rscale>
<asrwt>0</asrwt>
<pdfrwt beam="1">  1        2 0.53059524E+00 0.18415218E+04</pdfrwt>
<pdfrwt beam="2">  1       -2 0.37818444E-01 0.18415218E+04</pdfrwt>
<totfact> 0.55173661E+00</totfact>
</mgrwt>
</event>
<event>
 6    1  0.1719556E-004  0.3652022E+04  0.7818608E-02  0.8078678E-01
         -2   -1    0    0    0  501 -0.00000000000E+00  0.00000000000E+00  0.33615098244E+04  0.33615098244E+04  0.00000000000E+00 0. -1.
          2   -1    0    0  501    0  0.00000000000E+00 -0.00000000000E+00 -0.99191018693E+03  0.99191018693E+03  0.00000000000E+00 0.  1.
         23    2    1    2    0    0 -0.11912719556E+04  0.11936761289E+04  0.20168682357E+04  0.26305122905E+04  0.88576844665E+02 0.  0.
         13    1    3    3    0    0 -0.61108644962E+03  0.62060101090E+03  0.97316620296E+03  0.13059956823E+04  0.00000000000E+00 0. -1.
        -13    1    3    3    0    0 -0.58018550596E+03  0.57307511797E+03  0.10437020328E+04  0.13245166082E+04  0.00000000000E+00 0.  1.
         22    1    1    2    0    0  0.11912719556E+04 -0.11936761289E+04  0.35273140174E+03  0.17229077208E+04  0.00000000000E+00 0.  1.
<mgrwt>
<rscale>  0 0.36520218E+04</rscale>
<asrwt>0</asrwt>
<pdfrwt beam="1">  1        2 0.15260157E+00 0.36520218E+04</pdfrwt>
<pdfrwt beam="2">  1       -2 0.51715535E+00 0.36520218E+04</pdfrwt>
<totfact> 0.26837524E-02</totfact>
</mgrwt>
</event>
<event>
 6    1  0.1719556E-004  0.1360914E+04  0.7818608E-02  0.8982608E-01
          1   -1    0    0  501    0  0.00000000000E+00  0.00000000000E+00  0.14853563001E+04  0.14853563001E+04  0.00000000000E+00 0.  1.
         -1   -1    0    0    0  501 -0.00000000000E+00 -0.00000000000E+00 -0.31172417467E+03  0.31172417467E+03  0.00000000000E+00 0. -1.
         23    2    1    2    0    0 -0.52166421525E+03 -0.32304256649E+03  0.96839679547E+03  0.11500784702E+04  0.91641044208E+02 0.  0.
         11    1    3    3    0    0 -0.30120681862E+03 -0.20215994157E+03  0.65006531146E+03  0.74443206455E+03  0.00000000000E+00 0. -1.
        -11    1    3    3    0    0 -0.22045739663E+03 -0.12088262492E+03  0.31833148400E+03  0.40564640569E+03  0.00000000000E+00 0.  1.
         22    1    1    2    0    0  0.52166421525E+03  0.32304256649E+03  0.20523532998E+03  0.64700200457E+03  0.00000000000E+00 0.  1.
<mgrwt>
<rscale>  0 0.13609136E+04</rscale>
<asrwt>0</asrwt>
<pdfrwt beam="1">  1        1 0.22851635E+00 0.13609136E+04</pdfrwt>
<pdfrwt beam="2">  1       -1 0.47957566E-01 0.13609136E+04</pdfrwt>
<totfact> 0.28452653E+01</totfact>
</mgrwt>
</event>
<event>
 6    1  0.1719556E-004  0.2307870E+04  0.7818608E-02  0.8474825E-01
          1   -1    0    0  501    0  0.00000000000E+00  0.00000000000E+00  0.74501198377E+03  0.74501198377E+03  0.00000000000E+00 0. -1.
         -1   -1    0    0    0  501 -0.00000000000E+00 -0.00000000000E+00 -0.17873077869E+04  0.17873077869E+04  0.00000000000E+00 0.  1.
         23    2    1    2    0    0 -0.73728897094E+03  0.27529951684E+03 -0.14451819624E+04  0.16481805803E+04  0.92539020433E+02 0.  0.
         13    1    3    3    0    0 -0.45318854644E+03  0.14372491553E+03 -0.94991968079E+03  0.10622542586E+04  0.00000000000E+00 0.  1.
        -13    1    3    3    0    0 -0.28410042450E+03  0.13157460131E+03 -0.49526228158E+03  0.58592632170E+03  0.00000000000E+00 0. -1.
         22    1    1    2    0    0  0.73728897094E+03 -0.27529951684E+03  0.40288615924E+03  0.88413919037E+03  0.00000000000E+00 0. -1.
<mgrwt>
<rscale>  0 0.23078698E+04</rscale>
<asrwt>0</asrwt>
<pdfrwt beam="1">  1        1 0.11461723E+00 0.23078698E+04</pdfrwt>
<pdfrwt beam="2">  1       -1 0.27497043E+00 0.23078698E+04</pdfrwt>
<totfact> 0.10725309E+00</totfact>
</mgrwt>
</event>
<event>
 6    1  0.1719556E-004  0.4238053E+04  0.7818608E-02  0.7958173E-01
         -2   -1    0    0    0  501 -0.00000000000E+00  0.00000000000E+00  0.26232915520E+04  0.26232915520E+04  0.00000000000E+00 0. -1.
          2   -1    0    0  501    0  0.00000000000E+00 -0.00000000000E+00 -0.17116942539E+04  0.17116942539E+04  0.00000000000E+00 0.  1.
         23    2    1    2    0    0 -0.86635059378E+03  0.26116577557E+03  0.24148305481E+04  0.25804257136E+04  0.91757144937E+02 0.  0.
         13    1    3    3    0    0 -0.67003797176E+03  0.23096286475E+03  0.18096040346E+04  0.19434406321E+04  0.00000000000E+00 0.  1.
        -13    1    3    3    0    0 -0.19631262202E+03  0.30202910826E+02  0.60522651347E+03  0.63698508145E+03  0.00000000000E+00 0. -1.
         22    1    1    2    0    0  0.86635059378E+03 -0.26116577557E+03 -0.15032332500E+04  0.17545600923E+04  0.00000000000E+00 0.  1.
<mgrwt>
<rscale>  0 0.42380529E+04</rscale>
<asrwt>0</asrwt>
<pdfrwt beam="1">  1        2 0.26333758E+00 0.42380529E+04</pdfrwt>
<pdfrwt beam="2">  1       -2 0.40358332E+00 0.42380529E+04</pdfrwt>
<totfact> 0.52564920E-02</totfact>
</mgrwt>
</event>
<event>
 6    1  0.1719556E-004  0.1439880E+04  0.7818608E-02  0.8925447E-01
         -1   -1    0    0    0  501 -0.00000000000E+00  0.00000000000E+00  0.86416774187E+03  0.86416774187E+03  0.00000000000E+00 0. -1.
          1   -1    0    0  501    0  0.00000000000E+00 -0.00000000000E+00 -0.59978364579E+03  0.59978364579E+03  0.00000000000E+00 0.  1.
         23    2    1    2    0    0 -0.25916216031E+03  0.66114017825E+03  0.35825602970E+02  0.71795517762E+03  0.99522874854E+02 0.  0.
         13    1    3    3    0    0 -0.13596490805E+03  0.21680788509E+03  0.16903730477E+02  0.25647193094E+03  0.00000000000E+00 0. -1.
        -13    1    3    3    0    0 -0.12319725226E+03  0.44433229316E+03  0.18921872493E+02  0.46148324668E+03  0.00000000000E+00 0.  1.
         22    1    1    2    0    0  0.25916216031E+03 -0.66114017825E+03  0.22855849311E+03  0.74599621004E+03  0.00000000000E+00 0. -1.
<mgrwt>
<rscale>  0 0.14398801E+04</rscale>
<asrwt>0</asrwt>
<pdfrwt beam="1">  1        1 0.92274407E-01 0.14398801E+04</pdfrwt>
<pdfrwt beam="2">  1       -1 0.13294888E+00 0.14398801E+04</pdfrwt>
<totfact> 0.15959665E+01</totfact>
</mgrwt>
</event>
<event>
 6    1  0.1719556E-004  0.2835302E+04  0.7818608E-02  0.8292392E-01
          1   -1    0    0  501    0  0.00000000000E+00  0.00000000000E+00  0.16046361340E+04  0.16046361340E+04  0.00000000000E+00 0.  1.
         -1   -1    0    0    0  501 -0.00000000000E+00 -0.00000000000E+00 -0.12524547288E+04  0.12524547288E+04  0.00000000000E+00 0. -1.
         23    2    1    2    0    0 -0.12508107203E+04  0.66404564123E+03  0.16726746511E+03  0.14289181713E+04  0.91349130903E+02 0.  0.
         13    1    3    3    0    0 -0.12664786027E+03  0.99951268552E+02  0.19883358286E+02  0.16255855725E+03  0.00000000000E+00 0. -1.
        -13    1    3    3    0    0 -0.11241628600E+04  0.56409437267E+03  0.14738410682E+03  0.12663596140E+04  0.00000000000E+00 0.  1.
         22    1    1    2    0    0  0.12508107203E+04 -0.66404564123E+03  0.18491394010E+03  0.14281726915E+04  0.00000000000E+00 0. -1.
<mgrwt>
<rscale>  0 0.28353018E+04</rscale>
<asrwt>0</asrwt>
<pdfrwt beam="1">  1        1 0.24686710E+00 0.28353018E+04</pdfrwt>
<pdfrwt beam="2">  1       -1 0.19268534E+00 0.28353018E+04</pdfrwt>
<totfact> 0.80901702E-01</totfact>
</mgrwt>
</event>
<event>
 6    1  0.1719556E-004  0.2522306E+04  0.7818608E-02  0.8395082E-01
         -1   -1    0    0    0  501 -0.00000000000E+00  0.00000000000E+00  0.40420237877E+03  0.40420237877E+03  0.00000000000E+00 0. -1.
          1   -1    0    0  501    0  0.00000000000E+00 -0.00000000000E+00 -0.39349282513E+04  0.39349282513E+04  0.00000000000E+00 0.  1.
         23    2    1    2    0    0 -0.21096951976E+03  0.69633780801E+03 -0.35362900175E+04  0.36115143570E+04  0.91073497481E+02 0.  0.
         11    1    3    3    0    0 -0.65313441060E+02  0.37162253574E+03 -0.18442408816E+04  0.18824435141E+04  0.00000000000E+00 0. -1.
        -11    1    3    3    0    0 -0.14565607870E+03  0.32471527226E+03 -0.16920491359E+04  0.17290708429E+04  0.00000000000E+00 0.  1.
         22    1    1    2    0    0  0.21096951976E+03 -0.69633780801E+03  0.55641449469E+01  0.72761627307E+03  0.00000000000E+00 0. -1.
<mgrwt>
<rscale>  0 0.25223064E+04</rscale>
<asrwt>0</asrwt>
<pdfrwt beam="1">  1        1 0.60537357E+00 0.25223064E+04</pdfrwt>
<pdfrwt beam="2">  1       -1 0.62184982E-01 0.25223064E+04</pdfrwt>
<totfact> 0.25490792E-01</totfact>
</mgrwt>
</event>
<event>
 6    1  0.1719556E-004  0.5584497E+03  0.7818608E-02  0.9995569E-01
          1   -1    0    0  501    0  0.00000000000E+00  0.00000000000E+00  0.33633984269E+03  0.33633984269E+03  0.00000000000E+00 0.  1.
         -1   -1    0    0    0  501 -0.00000000000E+00 -0.00000000000E+00 -0.23180878491E+03  0.23180878491E+03  0.00000000000E+00 0. -1.
         23    2    1    2    0    0  0.10719423243E+03 -0.20389702832E+03 -0.94089001464E+02  0.26398661558E+03  0.88156629855E+02 0.  0.
         11    1    3    3    0    0  0.15253665724E+02  0.66532989354E+01 -0.33922210655E+01  0.16983753074E+02  0.00000000000E+00 0. -1.
        -11    1    3    3    0    0  0.91940566701E+02 -0.21055032725E+03 -0.90696780399E+02  0.24700286251E+03  0.00000000000E+00 0.  1.
         22    1    1    2    0    0 -0.10719423243E+03  0.20389702832E+03  0.19862005925E+03  0.30416201202E+03  0.00000000000E+00 0.  1.
<mgrwt>
<rscale>  0 0.55844975E+03</rscale>
<asrwt>0</asrwt>
<pdfrwt beam="1">  1        1 0.51744591E-01 0.55844975E+03</pdfrwt>
<pdfrwt beam="2">  1       -1 0.35662890E-01 0.55844975E+03</pdfrwt>
<totfact> 0.57177055E+02</totfact>
</mgrwt>
</event>
<event>
 6    1  0.1719556E-004  0.2103897E+04  0.7818608E-02  0.8559529E-01
         -2   -1    0    0    0  501 -0.00000000000E+00  0.00000000000E+00  0.57045732215E+03  0.57045732215E+03  0.00000000000E+00 0. -1.
          2   -1    0    0  501    0  0.00000000000E+00 -0.00000000000E+00 -0.19398391594E+04  0.19398391594E+04  0.00000000000E+00 0.  1.
         23    2    1    2    0    0 -0.72218280938E+03  0.72020860016E+03 -0.98817801598E+03  0.14214600424E+04  0.61680003834E+02 0.  0.
         11    1    3    3    0    0 -0.12157573443E+03  0.12484463106E+03 -0.13785929789E+03  0.22219817083E+03  0.00000000000E+00 0. -1.
        -11    1    3    3    0    0 -0.60060707495E+03  0.59536396910E+03 -0.85031871809E+03  0.11992618715E+04  0.00000000000E+00 0.  1.
         22    1    1    2    0    0  0.72218280938E+03 -0.72020860016E+03 -0.38120382127E+03  0.10888364392E+04  0.00000000000E+00 0.  1.
<mgrwt>
<rscale>  0 0.21038968E+04</rscale>
<asrwt>0</asrwt>
<pdfrwt beam="1">  1        2 0.29843680E+00 0.21038968E+04</pdfrwt>
<pdfrwt beam="2">  1       -2 0.87762664E-01 0.21038968E+04</pdfrwt>
<totfact> 0.74444400E+00</totfact>
</mgrwt>
</event>
<event>
 6    1  0.1719556E-004  0.1696187E+04  0.7818608E-02  0.8763542E-01
          2   -1    0    0  501    0  0.00000000000E+00  0.00000000000E+00  0.81204123358E+03  0.81204123358E+03  0.00000000000E+00 0.  1.
         -2   -1    0    0    0  501 -0.00000000000E+00 -0.00000000000E+00 -0.88574659551E+03  0.88574659551E+03  0.00000000000E+00 0. -1.
         23    2    1    2    0    0  0.80206569035E+03 -0.18682830104E+03 -0.22939166170E+03  0.85966348889E+03  0.90479798685E+02 0.  0.
         11    1    3    3    0    0  0.25037264670E+03 -0.10160683041E+03 -0.79350081039E+02  0.28161471119E+03  0.00000000000E+00 0. -1.
        -11    1    3    3    0    0  0.55169304365E+03 -0.85221470632E+02 -0.15004158066E+03  0.57804877770E+03  0.00000000000E+00 0.  1.
         22    1    1    2    0    0 -0.80206569035E+03  0.18682830104E+03  0.15568629976E+03  0.83812434020E+03  0.00000000000E+00 0. -1.
<mgrwt>
<rscale>  0 0.16961872E+04</rscale>
<asrwt>0</asrwt>
<pdfrwt beam="1">  1        2 0.12492942E+00 0.16961872E+04</pdfrwt>
<pdfrwt beam="2">  1       -2 0.13626871E+00 0.16961872E+04</pdfrwt>
<totfact> 0.12375878E+01</totfact>
</mgrwt>
</event>
<event>
 6    1  0.1719556E-004  0.4574865E+04  0.7818608E-02  0.7897660E-01
          2   -1    0    0  501    0  0.00000000000E+00  0.00000000000E+00  0.32999452692E+04  0.32999452692E+04  0.00000000000E+00 0.  1.
         -2   -1    0    0    0  501 -0.00000000000E+00 -0.00000000000E+00 -0.15855860867E+04  0.15855860867E+04  0.00000000000E+00 0. -1.
         23    2    1    2    0    0 -0.20174659795E+03  0.12416150925E+04 -0.11815670545E+04  0.17282067769E+04  0.91039725725E+02 0.  0.
         13    1    3    3    0    0 -0.17021236961E+03  0.79694843860E+03 -0.74077019068E+03  0.11012899436E+04  0.00000000000E+00 0. -1.
        -13    1    3    3    0    0 -0.31534228341E+02  0.44466665387E+03 -0.44079686383E+03  0.62691683322E+03  0.00000000000E+00 0.  1.
         22    1    1    2    0    0  0.20174659795E+03 -0.12416150925E+04  0.28959262370E+04  0.31573245791E+04  0.00000000000E+00 0.  1.
<mgrwt>
<rscale>  0 0.45748649E+04</rscale>
<asrwt>0</asrwt>
<pdfrwt beam="1">  1        2 0.50768389E+00 0.45748649E+04</pdfrwt>
<pdfrwt beam="2">  1       -2 0.24393632E+00 0.45748649E+04</pdfrwt>
<totfact> 0.58685017E-02</totfact>
</mgrwt>
</event>
<event>
 6    1  0.1719556E-004  0.2051296E+04  0.7818608E-02  0.8583007E-01
          2   -1    0    0  501    0  0.00000000000E+00  0.00000000000E+00  0.29528344944E+03  0.29528344944E+03  0.00000000000E+00 0.  1.
         -2   -1    0    0    0  501 -0.00000000000E+00 -0.00000000000E+00 -0.35625209094E+04  0.35625209094E+04  0.00000000000E+00 0. -1.
         23    2    1    2    0    0 -0.36449512289E+03  0.93487802223E+03 -0.12562900263E+04  0.16104140518E+04  0.91187592812E+02 0.  0.
         11    1    3    3    0    0 -0.20763503972E+03  0.50741001327E+03 -0.75692009534E+03  0.93461503413E+03  0.00000000000E+00 0.  1.
        -11    1    3    3    0    0 -0.15686008317E+03  0.42746800895E+03 -0.49936993091E+03  0.67579901766E+03  0.00000000000E+00 0. -1.
         22    1    1    2    0    0  0.36449512289E+03 -0.93487802223E+03 -0.20109474337E+04  0.22473903070E+04  0.00000000000E+00 0.  1.
<mgrwt>
<rscale>  0 0.20512957E+04</rscale>
<asrwt>0</asrwt>
<pdfrwt beam="1">  1        2 0.45428220E-01 0.20512957E+04</pdfrwt>
<pdfrwt beam="2">  1       -2 0.54808018E+00 0.20512957E+04</pdfrwt>
<totfact> 0.89191942E-02</totfact>
</mgrwt>
</event>
<event>
 6    1  0.1719556E-004  0.1205016E+04  0.7818608E-02  0.9108477E-01
          2   -1    0    0  501    0  0.00000000000E+00  0.00000000000E+00  0.89930877419E+03  0.89930877419E+03  0.00000000000E+00 0.  1.
         -2   -1    0    0    0  501 -0.00000000000E+00 -0.00000000000E+00 -0.40366114301E+03  0.40366114301E+03  0.00000000000E+00 0. -1.
         23    2    1    2    0    0  0.28837774925E+03  0.45437082161E+03  0.53446786186E+03  0.76341308043E+03  0.86770191924E+02 0.  0.
         13    1    3    3    0    0  0.30063244416E+02  0.88836453283E+02  0.12887003660E+03  0.15938381483E+03  0.00000000000E+00 0. -1.
        -13    1    3    3    0    0  0.25831450484E+03  0.36553436833E+03  0.40559782526E+03  0.60402926560E+03  0.00000000000E+00 0.  1.
         22    1    1    2    0    0 -0.28837774925E+03 -0.45437082161E+03 -0.38820230688E+02  0.53955683677E+03  0.00000000000E+00 0.  1.
<mgrwt>
<rscale>  0 0.12050162E+04</rscale>
<asrwt>0</asrwt>
<pdfrwt beam="1">  1        2 0.13835520E+00 0.12050162E+04</pdfrwt>
<pdfrwt beam="2">  1       -2 0.62101714E-01 0.12050162E+04</pdfrwt>
<totfact> 0.69718949E+01</totfact>
</mgrwt>
</event>
<event>
 6    1  0.1719556E-004  0.3016928E+03  0.7818608E-02  0.1084397E+00
         -2   -1    0    0    0  501 -0.00000000000E+00  0.00000000000E+00  0.25298330562E+03  0.25298330562E+03  0.00000000000E+00 0. -1.
          2   -1    0    0  501    0  0.00000000000E+00 -0.00000000000E+00 -0.89945190426E+02  0.89945190426E+02  0.00000000000E+00 0.  1.
         23    2    1    2    0    0  0.62365632141E+02 -0.11391923174E+03  0.50523114158E+02  0.17109517887E+03  0.99266871287E+02 0.  0.
         13    1    3    3    0    0  0.35723505580E+02  0.38963046725E+01 -0.80903661120E+01  0.36834821363E+02  0.00000000000E+00 0.  1.
        -13    1    3    3    0    0  0.26642126561E+02 -0.11781553642E+03  0.58613480270E+02  0.13426035751E+03  0.00000000000E+00 0. -1.
         22    1    1    2    0    0 -0.62365632141E+02  0.11391923174E+03  0.11251500104E+03  0.17183331718E+03  0.00000000000E+00 0. -1.
<mgrwt>
<rscale>  0 0.30169277E+03</rscale>
<asrwt>0</asrwt>
<pdfrwt beam="1">  1        2 0.13837722E-01 0.30169277E+03</pdfrwt>
<pdfrwt beam="2">  1       -2 0.38920508E-01 0.30169277E+03</pdfrwt>
<totfact> 0.26963505E+03</totfact>
</mgrwt>
</event>
<event>
 6    1  0.1719556E-004  0.2574298E+04  0.7818608E-02  0.8376984E-01
          2   -1    0    0  501    0  0.00000000000E+00  0.00000000000E+00  0.14018095994E+04  0.14018095994E+04  0.00000000000E+00 0.  1.
         -2   -1    0    0    0  501 -0.00000000000E+00 -0.00000000000E+00 -0.11818667161E+04  0.11818667161E+04  0.00000000000E+00 0. -1.
         23    2    1    2    0    0  0.12181327395E+04 -0.32841388592E+03  0.35488799267E+03  0.13148527526E+04  0.10577911958E+03 0.  0.
         13    1    3    3    0    0  0.82442353844E+03 -0.23791240261E+03  0.19207292305E+03  0.87929999990E+03  0.00000000000E+00 0.  1.
        -13    1    3    3    0    0  0.39370920102E+03 -0.90501483314E+02  0.16281506962E+03  0.43555275266E+03  0.00000000000E+00 0. -1.
         22    1    1    2    0    0 -0.12181327395E+04  0.32841388592E+03 -0.13494510939E+03  0.12688235630E+04  0.00000000000E+00 0.  1.
<mgrwt>
<rscale>  0 0.25742977E+04</rscale>
<asrwt>0</asrwt>
<pdfrwt beam="1">  1        2 0.21566302E+00 0.25742977E+04</pdfrwt>
<pdfrwt beam="2">  1       -2 0.18182565E+00 0.25742977E+04</pdfrwt>
<totfact> 0.22543510E+00</totfact>
</mgrwt>
</event>
<event>
 6    1  0.1719556E-004  0.2870526E+04  0.7818608E-02  0.8281701E-01
          1   -1    0    0  501    0  0.00000000000E+00  0.00000000000E+00  0.91665761522E+03  0.91665761522E+03  0.00000000000E+00 0.  1.
         -1   -1    0    0    0  501 -0.00000000000E+00 -0.00000000000E+00 -0.22472730743E+04  0.22472730743E+04  0.00000000000E+00 0. -1.
         23    2    1    2    0    0 -0.66531272225E+03  0.83598702977E+03 -0.17195964492E+04  0.20269075838E+04  0.99131592580E+02 0.  0.
         11    1    3    3    0    0 -0.35031814053E+03  0.50276467649E+03 -0.10394590932E+04  0.12066359542E+04  0.00000000000E+00 0. -1.
        -11    1    3    3    0    0 -0.31499458172E+03  0.33322235327E+03 -0.68013735598E+03  0.82027162954E+03  0.00000000000E+00 0.  1.
         22    1    1    2    0    0  0.66531272225E+03 -0.83598702977E+03  0.38898099014E+03  0.11370231058E+04  0.00000000000E+00 0.  1.
<mgrwt>
<rscale>  0 0.28705261E+04</rscale>
<asrwt>0</asrwt>
<pdfrwt beam="1">  1        1 0.14102425E+00 0.28705261E+04</pdfrwt>
<pdfrwt beam="2">  1       -1 0.34573432E+00 0.28705261E+04</pdfrwt>
<totfact> 0.25159481E-01</totfact>
</mgrwt>
</event>
<event>
 6    1  0.1719556E-004  0.1418820E+04  0.7818608E-02  0.8940307E-01
         -2   -1    0    0    0  501 -0.00000000000E+00  0.00000000000E+00  0.29031114771E+03  0.29031114771E+03  0.00000000000E+00 0. -1.
          2   -1    0    0  501    0  0.00000000000E+00 -0.00000000000E+00 -0.17335276514E+04  0.17335276514E+04  0.00000000000E+00 0.  1.
         23    2    1    2    0    0  0.39505932767E+03 -0.52800823672E+03 -0.10858472849E+04  0.12737872482E+04  0.92763447467E+02 0.  0.
         13    1    3    3    0    0  0.23300640964E+03 -0.28345097954E+03 -0.68452524526E+03  0.77666676002E+03  0.00000000000E+00 0.  1.
        -13    1    3    3    0    0  0.16205291804E+03 -0.24455725717E+03 -0.40132203964E+03  0.49712048820E+03  0.00000000000E+00 0. -1.
         22    1    1    2    0    0 -0.39505932767E+03  0.52800823672E+03 -0.35736921874E+03  0.75005155085E+03  0.00000000000E+00 0. -1.
<mgrwt>
<rscale>  0 0.14188198E+04</rscale>
<asrwt>0</asrwt>
<pdfrwt beam="1">  1        2 0.26669657E+00 0.14188198E+04</pdfrwt>
<pdfrwt beam="2">  1       -2 0.44663253E-01 0.14188198E+04</pdfrwt>
<totfact> 0.43408313E+01</totfact>
</mgrwt>
</event>
<event>
 6    1  0.1719556E-004  0.1801606E+04  0.7818608E-02  0.8705446E-01
         -2   -1    0    0    0  501 -0.00000000000E+00  0.00000000000E+00  0.31581543373E+03  0.31581543373E+03  0.00000000000E+00 0. -1.
          2   -1    0    0  501    0  0.00000000000E+00 -0.00000000000E+00 -0.25693688853E+04  0.25693688853E+04  0.00000000000E+00 0.  1.
         23    2    1    2    0    0  0.34907533870E+03  0.21566076514E+02 -0.24550335997E+04  0.24815595703E+04  0.92893690264E+02 0.  0.
         13    1    3    3    0    0  0.16241475833E+03  0.16162426306E+02 -0.83529132248E+03  0.85108834510E+03  0.00000000000E+00 0. -1.
        -13    1    3    3    0    0  0.18666058037E+03  0.54036502078E+01 -0.16197422772E+04  0.16304712252E+04  0.00000000000E+00 0.  1.
         22    1    1    2    0    0 -0.34907533870E+03 -0.21566076514E+02  0.20148014808E+03  0.40362474876E+03  0.00000000000E+00 0. -1.
<mgrwt>
<rscale>  0 0.18016063E+04</rscale>
<asrwt>0</asrwt>
<pdfrwt beam="1">  1        2 0.39528754E+00 0.18016063E+04</pdfrwt>
<pdfrwt beam="2">  1       -2 0.48586987E-01 0.18016063E+04</pdfrwt>
<totfact> 0.12028912E+01</totfact>
</mgrwt>
</event>
<event>
 6    1  0.1719556E-004  0.1850478E+04  0.7818608E-02  0.8679907E-01
          3   -1    0    0  501    0  0.00000000000E+00  0.00000000000E+00  0.11939144178E+04  0.11939144178E+04  0.00000000000E+00 0.  1.
         -3   -1    0    0    0  501 -0.00000000000E+00 -0.00000000000E+00 -0.71702595897E+03  0.71702595897E+03  0.00000000000E+00 0. -1.
         23    2    1    2    0    0 -0.24007798722E+01 -0.22355577509E+03  0.11640046548E+04  0.11883674634E+04  0.85600486108E+02 0.  0.
         11    1    3    3    0    0 -0.17576971905E+02 -0.87017286382E+02  0.66119281239E+03  0.66712584512E+03  0.00000000000E+00 0. -1.
        -11    1    3    3    0    0  0.15176192033E+02 -0.13653848871E+03  0.50281184245E+03  0.52124161827E+03  0.00000000000E+00 0.  1.
         22    1    1    2    0    0  0.24007798722E+01  0.22355577509E+03 -0.68711619602E+03  0.72257291338E+03  0.00000000000E+00 0. -1.
<mgrwt>
<rscale>  0 0.18504785E+04</rscale>
<asrwt>0</asrwt>
<pdfrwt beam="1">  1        3 0.18367914E+00 0.18504785E+04</pdfrwt>
<pdfrwt beam="2">  1       -3 0.11031169E+00 0.18504785E+04</pdfrwt>
<totfact> 0.31968507E-01</totfact>
</mgrwt>
</event>
<event>
 6    1  0.1719556E-004  0.1590596E+04  0.7818608E-02  0.8826346E-01
          1   -1    0    0  501    0  0.00000000000E+00  0.00000000000E+00  0.14865326452E+04  0.14865326452E+04  0.00000000000E+00 0.  1.
         -1   -1    0    0    0  501 -0.00000000000E+00 -0.00000000000E+00 -0.42548612517E+03  0.42548612517E+03  0.00000000000E+00 0. -1.
         23    2    1    2    0    0  0.58949919555E+03 -0.52953254673E+03  0.53761138048E+03  0.96233547318E+03  0.95653264011E+02 0.  0.
         11    1    3    3    0    0  0.34331501181E+03 -0.27475951218E+03  0.24867796087E+03  0.50517196586E+03  0.00000000000E+00 0. -1.
        -11    1    3    3    0    0  0.24618418374E+03 -0.25477303455E+03  0.28893341961E+03  0.45716350732E+03  0.00000000000E+00 0.  1.
         22    1    1    2    0    0 -0.58949919555E+03  0.52953254673E+03  0.52343513951E+03  0.94968329715E+03  0.00000000000E+00 0.  1.
<mgrwt>
<rscale>  0 0.15905961E+04</rscale>
<asrwt>0</asrwt>
<pdfrwt beam="1">  1        1 0.22869733E+00 0.15905961E+04</pdfrwt>
<pdfrwt beam="2">  1       -1 0.65459405E-01 0.15905961E+04</pdfrwt>
<totfact> 0.15183967E+01</totfact>
</mgrwt>
</event>
<event>
 6    1  0.1719556E-004  0.2357694E+04  0.7818608E-02  0.8455514E-01
         -2   -1    0    0    0  501 -0.00000000000E+00  0.00000000000E+00  0.27786880613E+03  0.27786880613E+03  0.00000000000E+00 0. -1.
          2   -1    0    0  501    0  0.00000000000E+00 -0.00000000000E+00 -0.50012088610E+04  0.50012088610E+04  0.00000000000E+00 0.  1.
         23    2    1    2    0    0 -0.27540637487E+03 -0.67137643161E+03 -0.44403639843E+04  0.45001871481E+04  0.90868422134E+02 0.  0.
         13    1    3    3    0    0 -0.26030318120E+03 -0.56879523126E+03 -0.36798339621E+04  0.37326215653E+04  0.00000000000E+00 0.  1.
        -13    1    3    3    0    0 -0.15103193668E+02 -0.10258120035E+03 -0.76053002218E+03  0.76756558271E+03  0.00000000000E+00 0. -1.
         22    1    1    2    0    0  0.27540637487E+03  0.67137643161E+03 -0.28297607060E+03  0.77889051912E+03  0.00000000000E+00 0. -1.
<mgrwt>
<rscale>  0 0.23576937E+04</rscale>
<asrwt>0</asrwt>
<pdfrwt beam="1">  1        2 0.76941674E+00 0.23576937E+04</pdfrwt>
<pdfrwt beam="2">  1       -2 0.42749048E-01 0.23576937E+04</pdfrwt>
<totfact> 0.16231785E-01</totfact>
</mgrwt>
</event>
<event>
 6    1  0.1719556E-004  0.9763374E+03  0.7818608E-02  0.9334885E-01
          2   -1    0    0  501    0  0.00000000000E+00  0.00000000000E+00  0.92434125556E+03  0.92434125556E+03  0.00000000000E+00 0.  1.
         -2   -1    0    0    0  501 -0.00000000000E+00 -0.00000000000E+00 -0.25781460440E+03  0.25781460440E+03  0.00000000000E+00 0. -1.
         23    2    1    2    0    0  0.12976172991E+03  0.12156215221E+03 -0.20882681004E+03  0.28892624479E+03  0.90853040343E+02 0.  0.
         11    1    3    3    0    0  0.64127854585E+02  0.92174116152E+02 -0.69280861558E+02  0.13194046840E+03  0.00000000000E+00 0. -1.
        -11    1    3    3    0    0  0.65633875321E+02  0.29388036058E+02 -0.13954594848E+03  0.15698577640E+03  0.00000000000E+00 0.  1.
         22    1    1    2    0    0 -0.12976172991E+03 -0.12156215221E+03  0.87535346119E+03  0.89322961517E+03  0.00000000000E+00 0.  1.
<mgrwt>
<rscale>  0 0.97633739E+03</rscale>
<asrwt>0</asrwt>
<pdfrwt beam="1">  1        2 0.14220635E+00 0.97633739E+03</pdfrwt>
<pdfrwt beam="2">  1       -2 0.39663786E-01 0.97633739E+03</pdfrwt>
<totfact> 0.16955764E+02</totfact>
</mgrwt>
</event>
<event>
 6    1  0.1719556E-004  0.2095980E+04  0.7818608E-02  0.8563016E-01
          1   -1    0    0  501    0  0.00000000000E+00  0.00000000000E+00  0.15896230715E+04  0.15896230715E+04  0.00000000000E+00 0.  1.
         -1   -1    0    0    0  501 -0.00000000000E+00 -0.00000000000E+00 -0.69090812646E+03  0.69090812646E+03  0.00000000000E+00 0. -1.
         23    2    1    2    0    0 -0.48899178860E+03 -0.50589867354E+03 -0.39175499101E+03  0.81071519142E+03  0.93491771965E+02 0.  0.
         11    1    3    3    0    0 -0.34105891392E+03 -0.29855742729E+03 -0.22283601355E+03  0.50508772415E+03  0.00000000000E+00 0.  1.
        -11    1    3    3    0    0 -0.14793287467E+03 -0.20734124625E+03 -0.16891897746E+03  0.30562746727E+03  0.00000000000E+00 0. -1.
         22    1    1    2    0    0  0.48899178860E+03  0.50589867354E+03  0.12904699360E+04  0.14698160065E+04  0.00000000000E+00 0.  1.
<mgrwt>
<rscale>  0 0.20959804E+04</rscale>
<asrwt>0</asrwt>
<pdfrwt beam="1">  1        1 0.24455740E+00 0.20959804E+04</pdfrwt>
<pdfrwt beam="2">  1       -1 0.10629356E+00 0.20959804E+04</pdfrwt>
<totfact> 0.43174083E+00</totfact>
</mgrwt>
</event>
<event>
 6    1  0.1719556E-004  0.2245952E+04  0.7818608E-02  0.8499542E-01
          1   -1    0    0  501    0  0.00000000000E+00  0.00000000000E+00  0.99918005910E+03  0.99918005910E+03  0.00000000000E+00 0. -1.
         -1   -1    0    0    0  501 -0.00000000000E+00 -0.00000000000E+00 -0.12621100158E+04  0.12621100158E+04  0.00000000000E+00 0.  1.
         23    2    1    2    0    0 -0.81616909698E+03 -0.26559856273E+03  0.59447178090E+03  0.10481073471E+04  0.91965870834E+02 0.  0.
         13    1    3    3    0    0 -0.55153394640E+03 -0.13624151798E+03  0.37380492033E+03  0.68005997068E+03  0.00000000000E+00 0.  1.
        -13    1    3    3    0    0 -0.26463515058E+03 -0.12935704475E+03  0.22066686057E+03  0.36804737643E+03  0.00000000000E+00 0. -1.
         22    1    1    2    0    0  0.81616909698E+03  0.26559856273E+03 -0.85740173764E+03  0.12131827278E+04  0.00000000000E+00 0.  1.
<mgrwt>
<rscale>  0 0.22459521E+04</rscale>
<asrwt>0</asrwt>
<pdfrwt beam="1">  1        1 0.15372001E+00 0.22459521E+04</pdfrwt>
<pdfrwt beam="2">  1       -1 0.19417077E+00 0.22459521E+04</pdfrwt>
<totfact> 0.22733058E+00</totfact>
</mgrwt>
</event>
<event>
 6    1  0.1719556E-004  0.1769605E+04  0.7818608E-02  0.8722632E-01
          1   -1    0    0  501    0  0.00000000000E+00  0.00000000000E+00  0.28266776783E+04  0.28266776783E+04  0.00000000000E+00 0.  1.
         -1   -1    0    0    0  501 -0.00000000000E+00 -0.00000000000E+00 -0.27695969306E+03  0.27695969306E+03  0.00000000000E+00 0. -1.
         23    2    1    2    0    0 -0.52349407275E+03  0.23989175111E+03  0.24510844722E+04  0.25194091057E+04  0.89515673166E+02 0.  0.
         13    1    3    3    0    0 -0.27000545542E+03  0.16053164904E+03  0.11995043345E+04  0.12399532268E+04  0.00000000000E+00 0. -1.
        -13    1    3    3    0    0 -0.25348861734E+03  0.79360102065E+02  0.12515801377E+04  0.12794558789E+04  0.00000000000E+00 0.  1.
         22    1    1    2    0    0  0.52349407275E+03 -0.23989175111E+03  0.98633513029E+02  0.58422826562E+03  0.00000000000E+00 0. -1.
<mgrwt>
<rscale>  0 0.17696054E+04</rscale>
<asrwt>0</asrwt>
<pdfrwt beam="1">  1        1 0.43487347E+00 0.17696054E+04</pdfrwt>
<pdfrwt beam="2">  1       -1 0.42609186E-01 0.17696054E+04</pdfrwt>
<totfact> 0.41010088E+00</totfact>
</mgrwt>
</event>
<event>
 6    1  0.1719556E-004  0.3082462E+04  0.7818608E-02  0.8220568E-01
          1   -1    0    0  501    0  0.00000000000E+00  0.00000000000E+00  0.18992167032E+04  0.18992167032E+04  0.00000000000E+00 0.  1.
         -1   -1    0    0    0  501 -0.00000000000E+00 -0.00000000000E+00 -0.12507222969E+04  0.12507222969E+04  0.00000000000E+00 0. -1.
         23    2    1    2    0    0 -0.36749339460E+02  0.14116997657E+04 -0.30316782152E+03  0.14470274526E+04  0.87925981094E+02 0.  0.
         11    1    3    3    0    0  0.90076219650E+01  0.99312593832E+03 -0.23333504984E+03  0.10202085630E+04  0.00000000000E+00 0. -1.
        -11    1    3    3    0    0 -0.45756961425E+02  0.41857382739E+03 -0.69832771685E+02  0.42681888957E+03  0.00000000000E+00 0.  1.
         22    1    1    2    0    0  0.36749339460E+02 -0.14116997657E+04  0.95166222786E+03  0.17029115474E+04  0.00000000000E+00 0.  1.
<mgrwt>
<rscale>  0 0.30824618E+04</rscale>
<asrwt>0</asrwt>
<pdfrwt beam="1">  1        1 0.29218718E+00 0.30824618E+04</pdfrwt>
<pdfrwt beam="2">  1       -1 0.19241882E+00 0.30824618E+04</pdfrwt>
<totfact> 0.50097518E-01</totfact>
</mgrwt>
</event>
<event>
 6    1  0.1719556E-004  0.1306216E+04  0.7818608E-02  0.9024651E-01
          2   -1    0    0  501    0  0.00000000000E+00  0.00000000000E+00  0.82700615398E+03  0.82700615398E+03  0.00000000000E+00 0.  1.
         -2   -1    0    0    0  501 -0.00000000000E+00 -0.00000000000E+00 -0.51577591890E+03  0.51577591890E+03  0.00000000000E+00 0. -1.
         23    2    1    2    0    0 -0.28511663934E+03  0.56179060005E+03  0.32037997388E+03  0.71271549381E+03  0.91759855741E+02 0.  0.
         11    1    3    3    0    0 -0.21007456931E+03  0.34513729400E+03  0.16896955149E+03  0.43795180752E+03  0.00000000000E+00 0. -1.
        -11    1    3    3    0    0 -0.75042070032E+02  0.21665330605E+03  0.15141042239E+03  0.27476368630E+03  0.00000000000E+00 0.  1.
         22    1    1    2    0    0  0.28511663934E+03 -0.56179060005E+03 -0.91497388068E+01  0.63006657906E+03  0.00000000000E+00 0. -1.
<mgrwt>
<rscale>  0 0.13062157E+04</rscale>
<asrwt>0</asrwt>
<pdfrwt beam="1">  1        2 0.12723172E+00 0.13062157E+04</pdfrwt>
<pdfrwt beam="2">  1       -2 0.79350142E-01 0.13062157E+04</pdfrwt>
<totfact> 0.45461719E+01</totfact>
</mgrwt>
</event>
<event>
 6    1  0.2059324E-004  0.2760504E+04  0.7818608E-02  0.8315636E-01
         -2   -1    0    0    0  501 -0.00000000000E+00  0.00000000000E+00  0.99504575753E+03  0.99504575753E+03  0.00000000000E+00 0. -1.
          2   -1    0    0  501    0  0.00000000000E+00 -0.00000000000E+00 -0.19145815060E+04  0.19145815060E+04  0.00000000000E+00 0.  1.
         23    2    1    2    0    0 -0.53658936075E+03 -0.88206882239E+02 -0.17957070819E+04  0.18784217546E+04  0.90530479763E+02 0.  0.
         11    1    3    3    0    0 -0.25006110338E+03  0.45472766443E+01 -0.81054078575E+03  0.84824972650E+03  0.00000000000E+00 0. -1.
        -11    1    3    3    0    0 -0.28652825737E+03 -0.92754158884E+02 -0.98516629618E+03  0.10301720281E+04  0.00000000000E+00 0.  1.
         22    1    1    2    0    0  0.53658936075E+03  0.88206882239E+02  0.87617133346E+03  0.10312055090E+04  0.00000000000E+00 0. -1.
<mgrwt>
<rscale>  0 0.27605045E+04</rscale>
<asrwt>0</asrwt>
<pdfrwt beam="1">  1        2 0.29455100E+00 0.27605045E+04</pdfrwt>
<pdfrwt beam="2">  1       -2 0.15308396E+00 0.27605045E+04</pdfrwt>
<totfact> 0.18468287E+00</totfact>
</mgrwt>
</event>
<event>
 6    1  0.1719556E-004  0.3730455E+04  0.7818608E-02  0.8061246E-01
         -2   -1    0    0    0  501 -0.00000000000E+00  0.00000000000E+00  0.96044316866E+03  0.96044316866E+03  0.00000000000E+00 0. -1.
          2   -1    0    0  501    0  0.00000000000E+00 -0.00000000000E+00 -0.36223625056E+04  0.36223625056E+04  0.00000000000E+00 0.  1.
         23    2    1    2    0    0 -0.79675593707E+03  0.81319718615E+03 -0.31450638262E+04  0.33460606381E+04  0.92658709866E+02 0.  0.
         13    1    3    3    0    0 -0.93387177336E+02  0.74679842110E+02 -0.40798711620E+03  0.42514906879E+03  0.00000000000E+00 0. -1.
        -13    1    3    3    0    0 -0.70336875974E+03  0.73851734404E+03 -0.27370767100E+04  0.29209115694E+04  0.00000000000E+00 0.  1.
         22    1    1    2    0    0  0.79675593707E+03 -0.81319718615E+03  0.48314448926E+03  0.12367450361E+04  0.00000000000E+00 0. -1.
<mgrwt>
<rscale>  0 0.37304548E+04</rscale>
<asrwt>0</asrwt>
<pdfrwt beam="1">  1        2 0.55728653E+00 0.37304548E+04</pdfrwt>
<pdfrwt beam="2">  1       -2 0.14776049E+00 0.37304548E+04</pdfrwt>
<totfact> 0.16690867E-01</totfact>
</mgrwt>
</event>
<event>
 6    1  0.1719556E-004  0.3171388E+04  0.7818608E-02  0.8196415E-01
         -2   -1    0    0    0  501 -0.00000000000E+00  0.00000000000E+00  0.20470734875E+04  0.20470734875E+04  0.00000000000E+00 0. -1.
          2   -1    0    0  501    0  0.00000000000E+00 -0.00000000000E+00 -0.12283021300E+04  0.12283021300E+04  0.00000000000E+00 0.  1.
         23    2    1    2    0    0 -0.46401884985E+03  0.10811268902E+04  0.15057431284E+04  0.19129956927E+04  0.90229185260E+02 0.  0.
         13    1    3    3    0    0 -0.21123183713E+03  0.55785031276E+03  0.70278962246E+03  0.92180752541E+03  0.00000000000E+00 0.  1.
        -13    1    3    3    0    0 -0.25278701272E+03  0.52327657745E+03  0.80295350590E+03  0.99118816727E+03  0.00000000000E+00 0. -1.
         22    1    1    2    0    0  0.46401884985E+03 -0.10811268902E+04 -0.68697177084E+03  0.13623799249E+04  0.00000000000E+00 0.  1.
<mgrwt>
<rscale>  0 0.31713875E+04</rscale>
<asrwt>0</asrwt>
<pdfrwt beam="1">  1        2 0.18896956E+00 0.31713875E+04</pdfrwt>
<pdfrwt beam="2">  1       -2 0.31493438E+00 0.31713875E+04</pdfrwt>
<totfact> 0.39561680E-01</totfact>
</mgrwt>
</event>
<event>
 6    1  0.1719556E-004  0.5117488E+04  0.7818608E-02  0.7810635E-01
          1   -1    0    0  501    0  0.00000000000E+00  0.00000000000E+00  0.36208949352E+04  0.36208949352E+04  0.00000000000E+00 0. -1.
         -1   -1    0    0    0  501 -0.00000000000E+00 -0.00000000000E+00 -0.18081636460E+04  0.18081636460E+04  0.00000000000E+00 0.  1.
         23    2    1    2    0    0  0.19770365258E+04  0.13378430768E+04  0.18815912187E+04  0.30409130219E+04  0.90933878382E+02 0.  0.
         13    1    3    3    0    0  0.12955564307E+04  0.91788444208E+03  0.12839185209E+04  0.20419170117E+04  0.00000000000E+00 0. -1.
        -13    1    3    3    0    0  0.68148009503E+03  0.41995863470E+03  0.59767269777E+03  0.99899601022E+03  0.00000000000E+00 0.  1.
         22    1    1    2    0    0 -0.19770365258E+04 -0.13378430768E+04 -0.68859929507E+02  0.23881455592E+04  0.00000000000E+00 0.  1.
<mgrwt>
<rscale>  0 0.51174879E+04</rscale>
<asrwt>0</asrwt>
<pdfrwt beam="1">  1        1 0.55706076E+00 0.51174879E+04</pdfrwt>
<pdfrwt beam="2">  1       -1 0.27817902E+00 0.51174879E+04</pdfrwt>
<totfact> 0.65358152E-03</totfact>
</mgrwt>
</event>
<event>
 6    1  0.1719556E-004  0.1021650E+04  0.7818608E-02  0.9285114E-01
          1   -1    0    0  501    0  0.00000000000E+00  0.00000000000E+00  0.13734794472E+03  0.13734794472E+03  0.00000000000E+00 0.  1.
         -1   -1    0    0    0  501 -0.00000000000E+00 -0.00000000000E+00 -0.18998605962E+04  0.18998605962E+04  0.00000000000E+00 0. -1.
         23    2    1    2    0    0  0.31359398838E+03  0.11788200938E+03 -0.16463079006E+04  0.16826089050E+04  0.92766728086E+02 0.  0.
         11    1    3    3    0    0  0.19405543038E+03  0.37966186620E+02 -0.79364791776E+03  0.81790950523E+03  0.00000000000E+00 0. -1.
        -11    1    3    3    0    0  0.11953855800E+03  0.79915822763E+02 -0.85265998288E+03  0.86469939978E+03  0.00000000000E+00 0.  1.
         22    1    1    2    0    0 -0.31359398838E+03 -0.11788200938E+03 -0.11620475089E+03  0.35459963595E+03  0.00000000000E+00 0.  1.
<mgrwt>
<rscale>  0 0.10216495E+04</rscale>
<asrwt>0</asrwt>
<pdfrwt beam="1">  1        1 0.21130453E-01 0.10216495E+04</pdfrwt>
<pdfrwt beam="2">  1       -1 0.29228625E+00 0.10216495E+04</pdfrwt>
<totfact> 0.91477408E+00</totfact>
</mgrwt>
</event>
<event>
 6    1  0.1719556E-004  0.3098293E+04  0.7818608E-02  0.8216207E-01
         -2   -1    0    0    0  501 -0.00000000000E+00  0.00000000000E+00  0.91897193944E+03  0.91897193944E+03  0.00000000000E+00 0. -1.
          2   -1    0    0  501    0  0.00000000000E+00 -0.00000000000E+00 -0.26114555090E+04  0.26114555090E+04  0.00000000000E+00 0.  1.
         23    2    1    2    0    0 -0.39764225601E+03 -0.12706861014E+04 -0.17463821397E+04  0.21978856713E+04  0.89935056181E+02 0.  0.
         13    1    3    3    0    0 -0.37375431525E+03 -0.10940807256E+04 -0.15227249421E+04  0.19119090386E+04  0.00000000000E+00 0.  1.
        -13    1    3    3    0    0 -0.23887940760E+02 -0.17660537574E+03 -0.22365719759E+03  0.28597663277E+03  0.00000000000E+00 0. -1.
         22    1    1    2    0    0  0.39764225601E+03  0.12706861014E+04  0.53898570149E+02  0.13325417771E+04  0.00000000000E+00 0. -1.
<mgrwt>
<rscale>  0 0.30982926E+04</rscale>
<asrwt>0</asrwt>
<pdfrwt beam="1">  1        2 0.40176239E+00 0.30982926E+04</pdfrwt>
<pdfrwt beam="2">  1       -2 0.14138030E+00 0.30982926E+04</pdfrwt>
<totfact> 0.89050433E-01</totfact>
</mgrwt>
</event>
<event>
 6    1  0.1719556E-004  0.1087016E+04  0.7818608E-02  0.9217940E-01
          2   -1    0    0  501    0  0.00000000000E+00  0.00000000000E+00  0.10399252761E+04  0.10399252761E+04  0.00000000000E+00 0.  1.
         -2   -1    0    0    0  501 -0.00000000000E+00 -0.00000000000E+00 -0.28405969906E+03  0.28405969906E+03  0.00000000000E+00 0. -1.
         23    2    1    2    0    0 -0.21861058674E+03 -0.10583436517E+03  0.96763760183E+03  0.10017445494E+04  0.90432915602E+02 0.  0.
         13    1    3    3    0    0 -0.16838279791E+03 -0.58718460670E+02  0.81513211266E+03  0.83441056162E+03  0.00000000000E+00 0. -1.
        -13    1    3    3    0    0 -0.50227788835E+02 -0.47115904499E+02  0.15250548917E+03  0.16733398774E+03  0.00000000000E+00 0.  1.
         22    1    1    2    0    0  0.21861058674E+03  0.10583436517E+03 -0.21177202483E+03  0.32224042575E+03  0.00000000000E+00 0. -1.
<mgrwt>
<rscale>  0 0.10870158E+04</rscale>
<asrwt>0</asrwt>
<pdfrwt beam="1">  1        2 0.15998850E+00 0.10870158E+04</pdfrwt>
<pdfrwt beam="2">  1       -2 0.43701493E-01 0.10870158E+04</pdfrwt>
<totfact> 0.11712446E+02</totfact>
</mgrwt>
</event>
<event>
 6    1  0.1719556E-004  0.4421279E+04  0.7818608E-02  0.7924565E-01
         -2   -1    0    0    0  501 -0.00000000000E+00  0.00000000000E+00  0.15956271003E+04  0.15956271003E+04  0.00000000000E+00 0. -1.
          2   -1    0    0  501    0  0.00000000000E+00 -0.00000000000E+00 -0.30627006132E+04  0.30627006132E+04  0.00000000000E+00 0.  1.
         23    2    1    2    0    0  0.15652932708E+04  0.10204802220E+04  0.50887690345E+03  0.19387867679E+04  0.91736151937E+02 0.  0.
         11    1    3    3    0    0  0.88960679304E+03  0.59004217149E+03  0.24439071050E+03  0.10951149847E+04  0.00000000000E+00 0.  1.
        -11    1    3    3    0    0  0.67568647772E+03  0.43043805046E+03  0.26448619296E+03  0.84367178317E+03  0.00000000000E+00 0. -1.
         22    1    1    2    0    0 -0.15652932708E+04 -0.10204802220E+04 -0.19759504164E+04  0.27195409456E+04  0.00000000000E+00 0.  1.
<mgrwt>
<rscale>  0 0.44212795E+04</rscale>
<asrwt>0</asrwt>
<pdfrwt beam="1">  1        2 0.47118470E+00 0.44212795E+04</pdfrwt>
<pdfrwt beam="2">  1       -2 0.24548109E+00 0.44212795E+04</pdfrwt>
<totfact> 0.82991730E-02</totfact>
</mgrwt>
</event>
<event>
 6    1  0.1719556E-004  0.2903229E+04  0.7818608E-02  0.8271917E-01
          2   -1    0    0  501    0  0.00000000000E+00  0.00000000000E+00  0.10434137513E+04  0.10434137513E+04  0.00000000000E+00 0.  1.
         -2   -1    0    0    0  501 -0.00000000000E+00 -0.00000000000E+00 -0.20195099947E+04  0.20195099947E+04  0.00000000000E+00 0. -1.
         23    2    1    2    0    0 -0.61943399448E+03  0.69640964432E+03  0.68356145754E+03  0.11594667461E+04  0.91771470508E+02 0.  0.
         11    1    3    3    0    0 -0.38316618450E+03  0.46857510319E+03  0.39810648441E+03  0.72447755327E+03  0.00000000000E+00 0. -1.
        -11    1    3    3    0    0 -0.23626780998E+03  0.22783454113E+03  0.28545497314E+03  0.43498919280E+03  0.00000000000E+00 0.  1.
         22    1    1    2    0    0  0.61943399448E+03 -0.69640964432E+03 -0.16596577009E+04  0.19034569999E+04  0.00000000000E+00 0. -1.
<mgrwt>
<rscale>  0 0.29032289E+04</rscale>
<asrwt>0</asrwt>
<pdfrwt beam="1">  1        2 0.16052519E+00 0.29032289E+04</pdfrwt>
<pdfrwt beam="2">  1       -2 0.31069384E+00 0.29032289E+04</pdfrwt>
<totfact> 0.55717783E-01</totfact>
</mgrwt>
</event>
<event>
 6    1  0.1719556E-004  0.1950800E+04  0.7818608E-02  0.8629975E-01
          1   -1    0    0  501    0  0.00000000000E+00  0.00000000000E+00  0.76763194280E+03  0.76763194280E+03  0.00000000000E+00 0.  1.
         -1   -1    0    0    0  501 -0.00000000000E+00 -0.00000000000E+00 -0.12394026172E+04  0.12394026172E+04  0.00000000000E+00 0. -1.
         23    2    1    2    0    0  0.71163706797E+03  0.60299354163E+03 -0.52217252379E+03  0.10729206087E+04  0.92010652367E+02 0.  0.
         11    1    3    3    0    0  0.43300948397E+03  0.38203349237E+03 -0.37203313424E+03  0.68691735709E+03  0.00000000000E+00 0. -1.
        -11    1    3    3    0    0  0.27862758399E+03  0.22096004926E+03 -0.15013938955E+03  0.38600325158E+03  0.00000000000E+00 0.  1.
         22    1    1    2    0    0 -0.71163706797E+03 -0.60299354163E+03  0.50401849341E+02  0.93411395139E+03  0.00000000000E+00 0.  1.
<mgrwt>
<rscale>  0 0.19507999E+04</rscale>
<asrwt>0</asrwt>
<pdfrwt beam="1">  1        1 0.11809722E+00 0.19507999E+04</pdfrwt>
<pdfrwt beam="2">  1       -1 0.19067732E+00 0.19507999E+04</pdfrwt>
<totfact> 0.38443911E+00</totfact>
</mgrwt>
</event>
<event>
 6    1  0.1719556E-004  0.3610798E+04  0.7818608E-02  0.8088023E-01
         -3   -1    0    0    0  501 -0.00000000000E+00  0.00000000000E+00  0.15114082464E+04  0.15114082464E+04  0.00000000000E+00 0. -1.
          3   -1    0    0  501    0  0.00000000000E+00 -0.00000000000E+00 -0.21565755062E+04  0.21565755062E+04  0.00000000000E+00 0.  1.
         23    2    1    2    0    0 -0.17903957908E+04  0.25410674318E+02 -0.54806930640E+03  0.18747769037E+04  0.90805747878E+02 0.  0.
         13    1    3    3    0    0 -0.11419899497E+04  0.39506876324E+02 -0.38808006336E+03  0.12067758591E+04  0.00000000000E+00 0. -1.
        -13    1    3    3    0    0 -0.64840584111E+03 -0.14096202005E+02 -0.15998924304E+03  0.66800104460E+03  0.00000000000E+00 0.  1.
         22    1    1    2    0    0  0.17903957908E+04 -0.25410674318E+02 -0.97097953404E+02  0.17932068488E+04  0.00000000000E+00 0. -1.
<mgrwt>
<rscale>  0 0.36107983E+04</rscale>
<asrwt>0</asrwt>
<pdfrwt beam="1">  1        3 0.33178085E+00 0.36107983E+04</pdfrwt>
<pdfrwt beam="2">  1       -3 0.23252435E+00 0.36107983E+04</pdfrwt>
<totfact> 0.50414868E-03</totfact>
</mgrwt>
</event>
<event>
 6    1  0.1719556E-004  0.7787168E+03  0.7818608E-02  0.9591345E-01
          2   -1    0    0  501    0  0.00000000000E+00  0.00000000000E+00  0.65528396312E+03  0.65528396312E+03  0.00000000000E+00 0.  1.
         -2   -1    0    0    0  501 -0.00000000000E+00 -0.00000000000E+00 -0.23135000623E+03  0.23135000623E+03  0.00000000000E+00 0. -1.
         23    2    1    2    0    0  0.28528456178E+03  0.19420996286E+03  0.22806458792E+02  0.35747609065E+03  0.90356128486E+02 0.  0.
         11    1    3    3    0    0  0.83667594907E+01  0.29572072857E+02  0.17296452760E+02  0.35265811143E+02  0.00000000000E+00 0. -1.
        -11    1    3    3    0    0  0.27691780229E+03  0.16463789000E+03  0.55100060320E+01  0.32221027950E+03  0.00000000000E+00 0.  1.
         22    1    1    2    0    0 -0.28528456178E+03 -0.19420996286E+03  0.40112749809E+03  0.52915787870E+03  0.00000000000E+00 0.  1.
<mgrwt>
<rscale>  0 0.77871676E+03</rscale>
<asrwt>0</asrwt>
<pdfrwt beam="1">  1        2 0.10081292E+00 0.77871676E+03</pdfrwt>
<pdfrwt beam="2">  1       -2 0.35592309E-01 0.77871676E+03</pdfrwt>
<totfact> 0.33211557E+02</totfact>
</mgrwt>
</event>
<event>
 6    1  0.1719556E-004  0.1189070E+04  0.7818608E-02  0.9122477E-01
         -1   -1    0    0    0  501 -0.00000000000E+00  0.00000000000E+00  0.20669376808E+03  0.20669376808E+03  0.00000000000E+00 0. -1.
          1   -1    0    0  501    0  0.00000000000E+00 -0.00000000000E+00 -0.17101241971E+04  0.17101241971E+04  0.00000000000E+00 0.  1.
         23    2    1    2    0    0 -0.57973894744E+03 -0.45755146514E+02 -0.92698019395E+03  0.10979860812E+04  0.89946506529E+02 0.  0.
         11    1    3    3    0    0 -0.21671407668E+03 -0.53618763174E+02 -0.39871151821E+03  0.45695824486E+03  0.00000000000E+00 0. -1.
        -11    1    3    3    0    0 -0.36302487076E+03  0.78636166602E+01 -0.52826867574E+03  0.64102783638E+03  0.00000000000E+00 0.  1.
         22    1    1    2    0    0  0.57973894744E+03  0.45755146514E+02 -0.57645023505E+03  0.81883188391E+03  0.00000000000E+00 0. -1.
<mgrwt>
<rscale>  0 0.11890702E+04</rscale>
<asrwt>0</asrwt>
<pdfrwt beam="1">  1        1 0.26309603E+00 0.11890702E+04</pdfrwt>
<pdfrwt beam="2">  1       -1 0.31799042E-01 0.11890702E+04</pdfrwt>
<totfact> 0.42795380E+01</totfact>
</mgrwt>
</event>
<event>
 6    1  0.1719556E-004  0.2095160E+04  0.7818608E-02  0.8563378E-01
          1   -1    0    0  501    0  0.00000000000E+00  0.00000000000E+00  0.27709725552E+04  0.27709725552E+04  0.00000000000E+00 0.  1.
         -1   -1    0    0    0  501 -0.00000000000E+00 -0.00000000000E+00 -0.39604292495E+03  0.39604292495E+03  0.00000000000E+00 0. -1.
         23    2    1    2    0    0 -0.55554649039E+03 -0.23386152013E+03  0.24811201023E+04  0.25549701143E+04  0.92694170431E+02 0.  0.
         11    1    3    3    0    0 -0.24208413068E+03 -0.13412244262E+03  0.12832670678E+04  0.13127710856E+04  0.00000000000E+00 0. -1.
        -11    1    3    3    0    0 -0.31346235970E+03 -0.99739077507E+02  0.11978530345E+04  0.12421990287E+04  0.00000000000E+00 0.  1.
         22    1    1    2    0    0  0.55554649039E+03  0.23386152013E+03 -0.10619047202E+03  0.61204536590E+03  0.00000000000E+00 0. -1.
<mgrwt>
<rscale>  0 0.20951602E+04</rscale>
<asrwt>0</asrwt>
<pdfrwt beam="1">  1        1 0.42630346E+00 0.20951602E+04</pdfrwt>
<pdfrwt beam="2">  1       -1 0.60929683E-01 0.20951602E+04</pdfrwt>
<totfact> 0.21985398E+00</totfact>
</mgrwt>
</event>
<event>
 6    1  0.1719556E-004  0.3456577E+04  0.7818608E-02  0.8124158E-01
          2   -1    0    0  501    0  0.00000000000E+00  0.00000000000E+00  0.32048594938E+04  0.32048594938E+04  0.00000000000E+00 0.  1.
         -2   -1    0    0    0  501 -0.00000000000E+00 -0.00000000000E+00 -0.93201643594E+03  0.93201643594E+03  0.00000000000E+00 0. -1.
         23    2    1    2    0    0 -0.10115891700E+04 -0.13584368649E+04  0.73263292563E+03  0.18475724077E+04  0.90052390723E+02 0.  0.
         13    1    3    3    0    0 -0.55629205817E+03 -0.73476717929E+03  0.35034255789E+03  0.98594298497E+03  0.00000000000E+00 0. -1.
        -13    1    3    3    0    0 -0.45529711185E+03 -0.62366968561E+03  0.38229036774E+03  0.86162942270E+03  0.00000000000E+00 0.  1.
         22    1    1    2    0    0  0.10115891700E+04  0.13584368649E+04  0.15402101323E+04  0.22893035221E+04  0.00000000000E+00 0.  1.
<mgrwt>
<rscale>  0 0.34565773E+04</rscale>
<asrwt>0</asrwt>
<pdfrwt beam="1">  1        2 0.49305530E+00 0.34565773E+04</pdfrwt>
<pdfrwt beam="2">  1       -2 0.14338715E+00 0.34565773E+04</pdfrwt>
<totfact> 0.35783130E-01</totfact>
</mgrwt>
</event>
<event>
 6    1  0.1719556E-004  0.1433800E+04  0.7818608E-02  0.8929709E-01
         -2   -1    0    0    0  501 -0.00000000000E+00  0.00000000000E+00  0.70338949913E+03  0.70338949913E+03  0.00000000000E+00 0. -1.
          2   -1    0    0  501    0  0.00000000000E+00 -0.00000000000E+00 -0.73067046817E+03  0.73067046817E+03  0.00000000000E+00 0.  1.
         23    2    1    2    0    0  0.30825634560E+03 -0.61440850628E+03 -0.20684410941E+03  0.72359342440E+03  0.91011928056E+02 0.  0.
         13    1    3    3    0    0  0.17953982919E+03 -0.36493161631E+03 -0.75471110207E+02  0.41364903399E+03  0.00000000000E+00 0. -1.
        -13    1    3    3    0    0  0.12871651641E+03 -0.24947688997E+03 -0.13137299921E+03  0.30994439041E+03  0.00000000000E+00 0.  1.
         22    1    1    2    0    0 -0.30825634560E+03  0.61440850628E+03  0.17956314038E+03  0.71046654289E+03  0.00000000000E+00 0. -1.
<mgrwt>
<rscale>  0 0.14338005E+04</rscale>
<asrwt>0</asrwt>
<pdfrwt beam="1">  1        2 0.11241084E+00 0.14338005E+04</pdfrwt>
<pdfrwt beam="2">  1       -2 0.10821377E+00 0.14338005E+04</pdfrwt>
<totfact> 0.25746366E+01</totfact>
</mgrwt>
</event>
<event>
 6    1  0.1719556E-004  0.1301817E+04  0.7818608E-02  0.9028126E-01
          2   -1    0    0  501    0  0.00000000000E+00  0.00000000000E+00  0.57453180592E+03  0.57453180592E+03  0.00000000000E+00 0.  1.
         -2   -1    0    0    0  501 -0.00000000000E+00 -0.00000000000E+00 -0.73743826355E+03  0.73743826355E+03  0.00000000000E+00 0. -1.
         23    2    1    2    0    0 -0.25447521273E+03  0.13448612813E+03 -0.66661785139E+03  0.73182412168E+03  0.91340203233E+02 0.  0.
         13    1    3    3    0    0 -0.14622925978E+03  0.55389611850E+02 -0.45689695089E+03  0.48291389424E+03  0.00000000000E+00 0.  1.
        -13    1    3    3    0    0 -0.10824595295E+03  0.79096516276E+02 -0.20972090049E+03  0.24891022743E+03  0.00000000000E+00 0. -1.
         22    1    1    2    0    0  0.25447521273E+03 -0.13448612813E+03  0.50371139375E+03  0.58014594780E+03  0.00000000000E+00 0.  1.
<mgrwt>
<rscale>  0 0.13018168E+04</rscale>
<asrwt>0</asrwt>
<pdfrwt beam="1">  1        2 0.88389509E-01 0.13018168E+04</pdfrwt>
<pdfrwt beam="2">  1       -2 0.11345204E+00 0.13018168E+04</pdfrwt>
<totfact> 0.31213168E+01</totfact>
</mgrwt>
</event>
<event>
 6    1  0.1719556E-004  0.4134648E+04  0.7818608E-02  0.7977921E-01
          2   -1    0    0  501    0  0.00000000000E+00  0.00000000000E+00  0.29199719447E+04  0.29199719447E+04  0.00000000000E+00 0.  1.
         -2   -1    0    0    0  501 -0.00000000000E+00 -0.00000000000E+00 -0.14636538543E+04  0.14636538543E+04  0.00000000000E+00 0. -1.
         23    2    1    2    0    0  0.55632406810E+03  0.89856225581E+03  0.26110367619E+04  0.28182869199E+04  0.91200846355E+02 0.  0.
         13    1    3    3    0    0  0.40508689444E+03  0.68770539243E+03  0.18732094098E+04  0.20361600114E+04  0.00000000000E+00 0. -1.
        -13    1    3    3    0    0  0.15123717366E+03  0.21085686339E+03  0.73782735206E+03  0.78212690849E+03  0.00000000000E+00 0.  1.
         22    1    1    2    0    0 -0.55632406810E+03 -0.89856225581E+03 -0.11547186715E+04  0.15653388791E+04  0.00000000000E+00 0. -1.
<mgrwt>
<rscale>  0 0.41346478E+04</rscale>
<asrwt>0</asrwt>
<pdfrwt beam="1">  1        2 0.44922645E+00 0.41346478E+04</pdfrwt>
<pdfrwt beam="2">  1       -2 0.22517752E+00 0.41346478E+04</pdfrwt>
<totfact> 0.13963533E-01</totfact>
</mgrwt>
</event>
<event>
 6    1  0.1719556E-004  0.3167193E+04  0.7818608E-02  0.8197536E-01
         -2   -1    0    0    0  501 -0.00000000000E+00  0.00000000000E+00  0.17385960277E+04  0.17385960277E+04  0.00000000000E+00 0. -1.
          2   -1    0    0  501    0  0.00000000000E+00 -0.00000000000E+00 -0.14424154296E+04  0.14424154296E+04  0.00000000000E+00 0.  1.
         23    2    1    2    0    0  0.39373780901E+03  0.10009581888E+04  0.13135295095E+04  0.17004893988E+04  0.96735024363E+02 0.  0.
         13    1    3    3    0    0  0.73222378983E+02  0.22938852555E+03  0.23786863736E+03  0.33847023662E+03  0.00000000000E+00 0.  1.
        -13    1    3    3    0    0  0.32051543002E+03  0.77156966324E+03  0.10756608722E+04  0.13620191621E+04  0.00000000000E+00 0. -1.
         22    1    1    2    0    0 -0.39373780901E+03 -0.10009581888E+04 -0.10173489114E+04  0.14805220585E+04  0.00000000000E+00 0.  1.
<mgrwt>
<rscale>  0 0.31671929E+04</rscale>
<asrwt>0</asrwt>
<pdfrwt beam="1">  1        2 0.22191007E+00 0.31671929E+04</pdfrwt>
<pdfrwt beam="2">  1       -2 0.26747631E+00 0.31671929E+04</pdfrwt>
<totfact> 0.58027937E-01</totfact>
</mgrwt>
</event>
<event>
 6    1  0.1719556E-004  0.1891631E+04  0.7818608E-02  0.8659034E-01
          2   -1    0    0  501    0  0.00000000000E+00  0.00000000000E+00  0.49465379723E+03  0.49465379723E+03  0.00000000000E+00 0.  1.
         -2   -1    0    0    0  501 -0.00000000000E+00 -0.00000000000E+00 -0.18084702660E+04  0.18084702660E+04  0.00000000000E+00 0. -1.
         23    2    1    2    0    0  0.12602135123E+03 -0.91732027258E+03 -0.87965016711E+03  0.12804519550E+04  0.91732923064E+02 0.  0.
         13    1    3    3    0    0  0.27857436924E+02 -0.47890385521E+03 -0.49031642906E+03  0.68595563992E+03  0.00000000000E+00 0. -1.
        -13    1    3    3    0    0  0.98163914307E+02 -0.43841641737E+03 -0.38933373805E+03  0.59449631511E+03  0.00000000000E+00 0.  1.
         22    1    1    2    0    0 -0.12602135123E+03  0.91732027258E+03 -0.43416630169E+03  0.10226721082E+04  0.00000000000E+00 0.  1.
<mgrwt>
<rscale>  0 0.18916307E+04</rscale>
<asrwt>0</asrwt>
<pdfrwt beam="1">  1        2 0.76100585E-01 0.18916307E+04</pdfrwt>
<pdfrwt beam="2">  1       -2 0.27822619E+00 0.18916307E+04</pdfrwt>
<totfact> 0.25246731E+00</totfact>
</mgrwt>
</event>
<event>
 6    1  0.1719556E-004  0.2785514E+04  0.7818608E-02  0.8307780E-01
         -2   -1    0    0    0  501 -0.00000000000E+00  0.00000000000E+00  0.68280564403E+03  0.68280564403E+03  0.00000000000E+00 0. -1.
          2   -1    0    0  501    0  0.00000000000E+00 -0.00000000000E+00 -0.28408841386E+04  0.28408841386E+04  0.00000000000E+00 0.  1.
         23    2    1    2    0    0  0.94385216157E+03 -0.24190870210E+03 -0.23364366502E+04  0.25331402611E+04  0.92122954117E+02 0.  0.
         13    1    3    3    0    0  0.55073124717E+03 -0.18783653710E+03 -0.13887030806E+04  0.15056838039E+04  0.00000000000E+00 0. -1.
        -13    1    3    3    0    0  0.39312091440E+03 -0.54072164991E+02 -0.94773356962E+03  0.10274564572E+04  0.00000000000E+00 0.  1.
         22    1    1    2    0    0 -0.94385216157E+03  0.24190870210E+03  0.17835815563E+03  0.99054952159E+03  0.00000000000E+00 0. -1.
<mgrwt>
<rscale>  0 0.27855138E+04</rscale>
<asrwt>0</asrwt>
<pdfrwt beam="1">  1        2 0.43705910E+00 0.27855138E+04</pdfrwt>
<pdfrwt beam="2">  1       -2 0.10504702E+00 0.27855138E+04</pdfrwt>
<totfact> 0.13964887E+00</totfact>
</mgrwt>
</event>
<event>
 6    1  0.1719556E-004  0.1668376E+04  0.7818608E-02  0.8779609E-01
         -2   -1    0    0    0  501 -0.00000000000E+00  0.00000000000E+00  0.73760214427E+03  0.73760214427E+03  0.00000000000E+00 0. -1.
          2   -1    0    0  501    0  0.00000000000E+00 -0.00000000000E+00 -0.94342192387E+03  0.94342192387E+03  0.00000000000E+00 0.  1.
         23    2    1    2    0    0 -0.68723345196E+03 -0.78417302032E+02  0.36219745544E+03  0.78599185082E+03  0.90316676669E+02 0.  0.
         11    1    3    3    0    0 -0.22880868103E+03 -0.55448496045E+02  0.88073670388E+02  0.25136610679E+03  0.00000000000E+00 0.  1.
        -11    1    3    3    0    0 -0.45842477093E+03 -0.22968805987E+02  0.27412378505E+03  0.53462574403E+03  0.00000000000E+00 0. -1.
         22    1    1    2    0    0  0.68723345196E+03  0.78417302032E+02 -0.56801723504E+03  0.89503221732E+03  0.00000000000E+00 0.  1.
<mgrwt>
<rscale>  0 0.16683765E+04</rscale>
<asrwt>0</asrwt>
<pdfrwt beam="1">  1        2 0.14514183E+00 0.16683765E+04</pdfrwt>
<pdfrwt beam="2">  1       -2 0.11347725E+00 0.16683765E+04</pdfrwt>
<totfact> 0.15935924E+01</totfact>
</mgrwt>
</event>
<event>
 6    1  0.1719556E-004  0.3477441E+04  0.7818608E-02  0.8119157E-01
         -2   -1    0    0    0  501 -0.00000000000E+00  0.00000000000E+00  0.12286380462E+04  0.12286380462E+04  0.00000000000E+00 0. -1.
          2   -1    0    0  501    0  0.00000000000E+00 -0.00000000000E+00 -0.24605690122E+04  0.24605690122E+04  0.00000000000E+00 0.  1.
         23    2    1    2    0    0  0.13041418484E+04  0.14418494472E+03  0.59203022641E+03  0.14423404201E+04  0.90944156183E+02 0.  0.
         13    1    3    3    0    0  0.11077499269E+04  0.10570029100E+03  0.47017851495E+03  0.12080357147E+04  0.00000000000E+00 0. -1.
        -13    1    3    3    0    0  0.19639192142E+03  0.38484653722E+02  0.12185171146E+03  0.23430470536E+03  0.00000000000E+00 0.  1.
         22    1    1    2    0    0 -0.13041418484E+04 -0.14418494472E+03 -0.18239611924E+04  0.22468666383E+04  0.00000000000E+00 0.  1.
<mgrwt>
<rscale>  0 0.34774408E+04</rscale>
<asrwt>0</asrwt>
<pdfrwt beam="1">  1        2 0.37854908E+00 0.34774408E+04</pdfrwt>
<pdfrwt beam="2">  1       -2 0.18902124E+00 0.34774408E+04</pdfrwt>
<totfact> 0.47526235E-01</totfact>
</mgrwt>
</event>
<event>
 6    1  0.1719556E-004  0.2035510E+04  0.7818608E-02  0.8590196E-01
          1   -1    0    0  501    0  0.00000000000E+00  0.00000000000E+00  0.28674831750E+04  0.28674831750E+04  0.00000000000E+00 0. -1.
         -1   -1    0    0    0  501 -0.00000000000E+00 -0.00000000000E+00 -0.36123136120E+03  0.36123136120E+03  0.00000000000E+00 0.  1.
         23    2    1    2    0    0 -0.10110142001E+04  0.43272775811E+02  0.11167067406E+04  0.15097445666E+04  0.90953097689E+02 0.  0.
         13    1    3    3    0    0 -0.71535502937E+02  0.15354292233E+02  0.11348026573E+03  0.13502167671E+03  0.00000000000E+00 0. -1.
        -13    1    3    3    0    0 -0.93947869716E+03  0.27918483578E+02  0.10032264749E+04  0.13747228899E+04  0.00000000000E+00 0.  1.
         22    1    1    2    0    0  0.10110142001E+04 -0.43272775811E+02  0.13895450732E+04  0.17189699696E+04  0.00000000000E+00 0.  1.
<mgrwt>
<rscale>  0 0.20355096E+04</rscale>
<asrwt>0</asrwt>
<pdfrwt beam="1">  1        1 0.44115124E+00 0.20355096E+04</pdfrwt>
<pdfrwt beam="2">  1       -1 0.55574057E-01 0.20355096E+04</pdfrwt>
<totfact> 0.22606885E+00</totfact>
</mgrwt>
</event>
<event>
 6    1  0.1719556E-004  0.1764087E+04  0.7818608E-02  0.8725634E-01
         -1   -1    0    0    0  501 -0.00000000000E+00  0.00000000000E+00  0.69578975272E+03  0.69578975272E+03  0.00000000000E+00 0. -1.
          1   -1    0    0  501    0  0.00000000000E+00 -0.00000000000E+00 -0.11181545008E+04  0.11181545008E+04  0.00000000000E+00 0.  1.
         23    2    1    2    0    0  0.46307421273E+03  0.74148276202E+03 -0.31216215219E+03  0.93282052500E+03  0.92057100387E+02 0.  0.
         11    1    3    3    0    0  0.17261846876E+03  0.20136309938E+03 -0.10945538135E+03  0.28692283641E+03  0.00000000000E+00 0. -1.
        -11    1    3    3    0    0  0.29045574397E+03  0.54011966265E+03 -0.20270677084E+03  0.64589768859E+03  0.00000000000E+00 0.  1.
         22    1    1    2    0    0 -0.46307421273E+03 -0.74148276202E+03 -0.11020259592E+03  0.88112372855E+03  0.00000000000E+00 0.  1.
<mgrwt>
<rscale>  0 0.17640867E+04</rscale>
<asrwt>0</asrwt>
<pdfrwt beam="1">  1        1 0.17202377E+00 0.17640867E+04</pdfrwt>
<pdfrwt beam="2">  1       -1 0.10704458E+00 0.17640867E+04</pdfrwt>
<totfact> 0.94650072E+00</totfact>
</mgrwt>
</event>
<event>
 6    1  0.1719556E-004  0.8942914E+03  0.7818608E-02  0.9432746E-01
          1   -1    0    0  501    0  0.00000000000E+00  0.00000000000E+00  0.10031411217E+04  0.10031411217E+04  0.00000000000E+00 0.  1.
         -1   -1    0    0    0  501 -0.00000000000E+00 -0.00000000000E+00 -0.19931321667E+03  0.19931321667E+03  0.00000000000E+00 0. -1.
         23    2    1    2    0    0  0.63834360722E+02 -0.24361434264E+03 -0.83301142227E+02  0.28027175340E+03  0.90500839257E+02 0.  0.
         11    1    3    3    0    0  0.70484036976E+02 -0.16085587072E+03 -0.21841149686E+02  0.17697357552E+03  0.00000000000E+00 0. -1.
        -11    1    3    3    0    0 -0.66496762538E+01 -0.82758471926E+02 -0.61459992542E+02  0.10329817788E+03  0.00000000000E+00 0.  1.
         22    1    1    2    0    0 -0.63834360722E+02  0.24361434264E+03  0.88712904725E+03  0.92218258497E+03  0.00000000000E+00 0.  1.
<mgrwt>
<rscale>  0 0.89429142E+03</rscale>
<asrwt>0</asrwt>
<pdfrwt beam="1">  1        1 0.15432940E+00 0.89429142E+03</pdfrwt>
<pdfrwt beam="2">  1       -1 0.30663572E-01 0.89429142E+03</pdfrwt>
<totfact> 0.14867733E+02</totfact>
</mgrwt>
</event>
<event>
 6    1  0.1719556E-004  0.2634335E+04  0.7818608E-02  0.8356631E-01
         -2   -1    0    0    0  501 -0.00000000000E+00  0.00000000000E+00  0.96302686741E+03  0.96302686741E+03  0.00000000000E+00 0. -1.
          2   -1    0    0  501    0  0.00000000000E+00 -0.00000000000E+00 -0.18015384689E+04  0.18015384689E+04  0.00000000000E+00 0.  1.
         23    2    1    2    0    0  0.12849736525E+03 -0.64277352016E+03  0.77711334363E+03  0.10210306122E+04  0.94493338533E+02 0.  0.
         11    1    3    3    0    0  0.11434642973E+03 -0.56601517375E+03  0.63075695170E+03  0.85516233256E+03  0.00000000000E+00 0. -1.
        -11    1    3    3    0    0  0.14150935519E+02 -0.76758346406E+02  0.14635639193E+03  0.16586827960E+03  0.00000000000E+00 0.  1.
         22    1    1    2    0    0 -0.12849736525E+03  0.64277352016E+03 -0.16156249451E+04  0.17435347242E+04  0.00000000000E+00 0.  1.
<mgrwt>
<rscale>  0 0.26343348E+04</rscale>
<asrwt>0</asrwt>
<pdfrwt beam="1">  1        2 0.27715976E+00 0.26343348E+04</pdfrwt>
<pdfrwt beam="2">  1       -2 0.14815798E+00 0.26343348E+04</pdfrwt>
<totfact> 0.23519875E+00</totfact>
</mgrwt>
</event>
<event>
 6    1  0.1719556E-004  0.2283319E+04  0.7818608E-02  0.8484527E-01
         -3   -1    0    0    0  501 -0.00000000000E+00  0.00000000000E+00  0.61188730512E+03  0.61188730512E+03  0.00000000000E+00 0.  1.
          3   -1    0    0  501    0  0.00000000000E+00 -0.00000000000E+00 -0.21301087662E+04  0.21301087662E+04  0.00000000000E+00 0. -1.
         23    2    1    2    0    0  0.82450975329E+03 -0.76664264108E+03 -0.97432695054E+03  0.14916447163E+04  0.90186921117E+02 0.  0.
         13    1    3    3    0    0  0.54334855866E+03 -0.44679536187E+03 -0.59510904301E+03  0.92141658584E+03  0.00000000000E+00 0. -1.
        -13    1    3    3    0    0  0.28116119463E+03 -0.31984727921E+03 -0.37921790753E+03  0.57022813046E+03  0.00000000000E+00 0.  1.
         22    1    1    2    0    0 -0.82450975329E+03  0.76664264108E+03 -0.54389451054E+03  0.12503513550E+04  0.00000000000E+00 0.  1.
<mgrwt>
<rscale>  0 0.22833191E+04</rscale>
<asrwt>0</asrwt>
<pdfrwt beam="1">  1        3 0.32770904E+00 0.22833191E+04</pdfrwt>
<pdfrwt beam="2">  1       -3 0.94136508E-01 0.22833191E+04</pdfrwt>
<totfact> 0.64962985E-02</totfact>
</mgrwt>
</event>
<event>
 6    1  0.1719556E-004  0.1929339E+04  0.7818608E-02  0.8640389E-01
         -2   -1    0    0    0  501 -0.00000000000E+00  0.00000000000E+00  0.20649591933E+04  0.20649591933E+04  0.00000000000E+00 0. -1.
          2   -1    0    0  501    0  0.00000000000E+00 -0.00000000000E+00 -0.45065666157E+03  0.45065666157E+03  0.00000000000E+00 0.  1.
         23    2    1    2    0    0 -0.19319406386E+03  0.88197270646E+03  0.37433324291E+03  0.98175678753E+03  0.92310410344E+02 0.  0.
         13    1    3    3    0    0 -0.10681814256E+03  0.28607480528E+03  0.13280679898E+03  0.33299632978E+03  0.00000000000E+00 0. -1.
        -13    1    3    3    0    0 -0.86375921300E+02  0.59589790118E+03  0.24152644393E+03  0.64876045774E+03  0.00000000000E+00 0.  1.
         22    1    1    2    0    0  0.19319406386E+03 -0.88197270646E+03  0.12399692888E+04  0.15338590673E+04  0.00000000000E+00 0. -1.
<mgrwt>
<rscale>  0 0.19293394E+04</rscale>
<asrwt>0</asrwt>
<pdfrwt beam="1">  1        2 0.69331795E-01 0.19293394E+04</pdfrwt>
<pdfrwt beam="2">  1       -2 0.31768602E+00 0.19293394E+04</pdfrwt>
<totfact> 0.16082522E+00</totfact>
</mgrwt>
</event>
<event>
 6    1  0.1719556E-004  0.3428699E+04  0.7818608E-02  0.8130898E-01
         -2   -1    0    0    0  501 -0.00000000000E+00  0.00000000000E+00  0.87756625326E+03  0.87756625326E+03  0.00000000000E+00 0. -1.
          2   -1    0    0  501    0  0.00000000000E+00 -0.00000000000E+00 -0.33490285655E+04  0.33490285655E+04  0.00000000000E+00 0.  1.
         23    2    1    2    0    0  0.72809731235E+02  0.23399639994E+03 -0.33267551292E+04  0.33368862290E+04  0.86339118192E+02 0.  0.
         13    1    3    3    0    0  0.73668404806E+02  0.12797323735E+03 -0.22794751011E+04  0.22842528144E+04  0.00000000000E+00 0.  1.
        -13    1    3    3    0    0 -0.85867357023E+00  0.10602316259E+03 -0.10472800281E+04  0.10526334146E+04  0.00000000000E+00 0. -1.
         22    1    1    2    0    0 -0.72809731235E+02 -0.23399639994E+03  0.85529281691E+03  0.88970858982E+03  0.00000000000E+00 0. -1.
<mgrwt>
<rscale>  0 0.34286991E+04</rscale>
<asrwt>0</asrwt>
<pdfrwt beam="1">  1        2 0.51523517E+00 0.34286991E+04</pdfrwt>
<pdfrwt beam="2">  1       -2 0.13501019E+00 0.34286991E+04</pdfrwt>
<totfact> 0.33618010E-01</totfact>
</mgrwt>
</event>
<event>
 6    1  0.1719556E-004  0.3372422E+04  0.7818608E-02  0.8144708E-01
          2   -1    0    0  501    0  0.00000000000E+00  0.00000000000E+00  0.22711110451E+04  0.22711110451E+04  0.00000000000E+00 0.  1.
         -2   -1    0    0    0  501 -0.00000000000E+00 -0.00000000000E+00 -0.12519457870E+04  0.12519457870E+04  0.00000000000E+00 0. -1.
         23    2    1    2    0    0 -0.91633862441E+03 -0.67157829242E+01 -0.96719176160E+03  0.13355157956E+04  0.91765790121E+02 0.  0.
         11    1    3    3    0    0 -0.64424653710E+03 -0.12828130939E+02 -0.73782415732E+03  0.97959310361E+03  0.00000000000E+00 0.  1.
        -11    1    3    3    0    0 -0.27209208731E+03  0.61123480144E+01 -0.22936760428E+03  0.35592269199E+03  0.00000000000E+00 0. -1.
         22    1    1    2    0    0  0.91633862441E+03  0.67157829242E+01  0.19863570198E+04  0.21875410365E+04  0.00000000000E+00 0.  1.
<mgrwt>
<rscale>  0 0.33724222E+04</rscale>
<asrwt>0</asrwt>
<pdfrwt beam="1">  1        2 0.34940170E+00 0.33724222E+04</pdfrwt>
<pdfrwt beam="2">  1       -2 0.19260704E+00 0.33724222E+04</pdfrwt>
<totfact> 0.58200107E-01</totfact>
</mgrwt>
</event>
<event>
 6    1  0.1719556E-004  0.7823637E+04  0.7818608E-02  0.7497985E-01
          2   -1    0    0  501    0  0.00000000000E+00  0.00000000000E+00  0.50550857572E+04  0.50550857572E+04  0.00000000000E+00 0.  1.
         -2   -1    0    0    0  501 -0.00000000000E+00 -0.00000000000E+00 -0.30271142823E+04  0.30271142823E+04  0.00000000000E+00 0. -1.
         23    2    1    2    0    0  0.19998270122E+04  0.33546272960E+04  0.79531361669E+03  0.39868028953E+04  0.96131174377E+02 0.  0.
         13    1    3    3    0    0  0.11608908291E+04  0.20392341963E+04  0.47599826856E+03  0.23943094988E+04  0.00000000000E+00 0. -1.
        -13    1    3    3    0    0  0.83893618316E+03  0.13153930998E+04  0.31931534814E+03  0.15924933965E+04  0.00000000000E+00 0.  1.
         22    1    1    2    0    0 -0.19998270122E+04 -0.33546272960E+04  0.12326578582E+04  0.40953971443E+04  0.00000000000E+00 0.  1.
<mgrwt>
<rscale>  0 0.78236366E+04</rscale>
<asrwt>0</asrwt>
<pdfrwt beam="1">  1        2 0.77770550E+00 0.78236366E+04</pdfrwt>
<pdfrwt beam="2">  1       -2 0.46570989E+00 0.78236366E+04</pdfrwt>
<totfact> 0.45931052E-05</totfact>
</mgrwt>
</event>
<event>
 6    1  0.1719556E-004  0.3422890E+04  0.7818608E-02  0.8132311E-01
          2   -1    0    0  501    0  0.00000000000E+00  0.00000000000E+00  0.18637972797E+04  0.18637972797E+04  0.00000000000E+00 0.  1.
         -2   -1    0    0    0  501 -0.00000000000E+00 -0.00000000000E+00 -0.15715464853E+04  0.15715464853E+04  0.00000000000E+00 0. -1.
         23    2    1    2    0    0  0.15920309053E+04 -0.61364461345E+03  0.26388033432E+03  0.17289068345E+04  0.91454341184E+02 0.  0.
         11    1    3    3    0    0  0.32900968256E+03 -0.92239051481E+02  0.70255449714E+02  0.34884271821E+03  0.00000000000E+00 0.  1.
        -11    1    3    3    0    0  0.12630212227E+04 -0.52140556197E+03  0.19362488461E+03  0.13800641163E+04  0.00000000000E+00 0. -1.
         22    1    1    2    0    0 -0.15920309053E+04  0.61364461345E+03  0.28370460092E+02  0.17064369306E+04  0.00000000000E+00 0.  1.
<mgrwt>
<rscale>  0 0.34228900E+04</rscale>
<asrwt>0</asrwt>
<pdfrwt beam="1">  1        2 0.28673804E+00 0.34228900E+04</pdfrwt>
<pdfrwt beam="2">  1       -2 0.24177638E+00 0.34228900E+04</pdfrwt>
<totfact> 0.47499678E-01</totfact>
</mgrwt>
</event>
<event>
 6    1  0.1719556E-004  0.2319653E+04  0.7818608E-02  0.8470212E-01
          2   -1    0    0  501    0  0.00000000000E+00  0.00000000000E+00  0.26360645075E+04  0.26360645075E+04  0.00000000000E+00 0.  1.
         -2   -1    0    0    0  501 -0.00000000000E+00 -0.00000000000E+00 -0.51030510880E+03  0.51030510880E+03  0.00000000000E+00 0. -1.
         23    2    1    2    0    0 -0.74121055250E+03 -0.44272343471E+03  0.16540616486E+02  0.86729063697E+03  0.80760969636E+02 0.  0.
         13    1    3    3    0    0 -0.17409810411E+03 -0.10832900593E+03  0.38192046849E+02  0.20857601929E+03  0.00000000000E+00 0. -1.
        -13    1    3    3    0    0 -0.56711244839E+03 -0.33439442877E+03 -0.21651430364E+02  0.65871461768E+03  0.00000000000E+00 0.  1.
         22    1    1    2    0    0  0.74121055250E+03  0.44272343471E+03  0.21092187823E+04  0.22790789794E+04  0.00000000000E+00 0.  1.
<mgrwt>
<rscale>  0 0.23196527E+04</rscale>
<asrwt>0</asrwt>
<pdfrwt beam="1">  1        2 0.40554838E+00 0.23196527E+04</pdfrwt>
<pdfrwt beam="2">  1       -2 0.78508480E-01 0.23196527E+04</pdfrwt>
<totfact> 0.37827836E+00</totfact>
</mgrwt>
</event>
<event>
 6    1  0.1861213E-004  0.3199125E+04  0.7818608E-02  0.8189048E-01
          1   -1    0    0  501    0  0.00000000000E+00  0.00000000000E+00  0.17884336981E+04  0.17884336981E+04  0.00000000000E+00 0.  1.
         -1   -1    0    0    0  501 -0.00000000000E+00 -0.00000000000E+00 -0.14306370662E+04  0.14306370662E+04  0.00000000000E+00 0. -1.
         23    2    1    2    0    0 -0.74176302700E+02 -0.73291048038E+03 -0.12481408918E+04  0.14522387898E+04  0.92097343650E+02 0.  0.
         11    1    3    3    0    0 -0.86157064167E+02 -0.42129089103E+03 -0.75038375673E+03  0.86486116627E+03  0.00000000000E+00 0. -1.
        -11    1    3    3    0    0  0.11980761466E+02 -0.31161958935E+03 -0.49775713509E+03  0.58737762355E+03  0.00000000000E+00 0.  1.
         22    1    1    2    0    0  0.74176302700E+02  0.73291048038E+03  0.16059375237E+04  0.17668319745E+04  0.00000000000E+00 0.  1.
<mgrwt>
<rscale>  0 0.31991246E+04</rscale>
<asrwt>0</asrwt>
<pdfrwt beam="1">  1        1 0.27514364E+00 0.31991246E+04</pdfrwt>
<pdfrwt beam="2">  1       -1 0.22009801E+00 0.31991246E+04</pdfrwt>
<totfact> 0.38144472E-01</totfact>
</mgrwt>
</event>
<event>
 6    1  0.1719556E-004  0.1061494E+04  0.7818608E-02  0.9243557E-01
          3   -1    0    0  501    0  0.00000000000E+00  0.00000000000E+00  0.12922069109E+04  0.12922069109E+04  0.00000000000E+00 0.  1.
         -3   -1    0    0    0  501 -0.00000000000E+00 -0.00000000000E+00 -0.21799338989E+03  0.21799338989E+03  0.00000000000E+00 0. -1.
         23    2    1    2    0    0  0.33189248284E+03 -0.21590992778E+03  0.10355521223E+04  0.11123756902E+04  0.90784144801E+02 0.  0.
         11    1    3    3    0    0  0.24402869739E+03 -0.17908266580E+03  0.68085238048E+03  0.74510440231E+03  0.00000000000E+00 0.  1.
        -11    1    3    3    0    0  0.87863785448E+02 -0.36827261982E+02  0.35469974186E+03  0.36727128787E+03  0.00000000000E+00 0. -1.
         22    1    1    2    0    0 -0.33189248284E+03  0.21590992778E+03  0.38661398692E+02  0.39782461064E+03  0.00000000000E+00 0. -1.
<mgrwt>
<rscale>  0 0.10614944E+04</rscale>
<asrwt>0</asrwt>
<pdfrwt beam="1">  1        3 0.19880106E+00 0.10614944E+04</pdfrwt>
<pdfrwt beam="2">  1       -3 0.33537445E-01 0.10614944E+04</pdfrwt>
<totfact> 0.34360361E+00</totfact>
</mgrwt>
</event>
<event>
 6    1  0.1969133E-004  0.2279968E+04  0.7818608E-02  0.8485862E-01
          2   -1    0    0  501    0  0.00000000000E+00  0.00000000000E+00  0.10920868803E+04  0.10920868803E+04  0.00000000000E+00 0.  1.
         -2   -1    0    0    0  501 -0.00000000000E+00 -0.00000000000E+00 -0.11899818528E+04  0.11899818528E+04  0.00000000000E+00 0. -1.
         23    2    1    2    0    0  0.28109584052E+03 -0.57652392469E+03  0.89201609670E+03  0.11025270288E+04  0.92078363953E+02 0.  0.
         13    1    3    3    0    0  0.86250685950E+02 -0.27993522637E+03  0.39011763828E+03  0.48784698778E+03  0.00000000000E+00 0. -1.
        -13    1    3    3    0    0  0.19484515457E+03 -0.29658869831E+03  0.50189845842E+03  0.61468004099E+03  0.00000000000E+00 0.  1.
         22    1    1    2    0    0 -0.28109584052E+03  0.57652392469E+03 -0.98991106915E+03  0.11795417043E+04  0.00000000000E+00 0. -1.
<mgrwt>
<rscale>  0 0.22799680E+04</rscale>
<asrwt>0</asrwt>
<pdfrwt beam="1">  1        2 0.16801337E+00 0.22799680E+04</pdfrwt>
<pdfrwt beam="2">  1       -2 0.18307413E+00 0.22799680E+04</pdfrwt>
<totfact> 0.34551722E+00</totfact>
</mgrwt>
</event>
<event>
 6    1  0.1807861E-004  0.4517355E+04  0.7818608E-02  0.7907605E-01
         -2   -1    0    0    0  501 -0.00000000000E+00  0.00000000000E+00  0.20293144764E+04  0.20293144764E+04  0.00000000000E+00 0. -1.
          2   -1    0    0  501    0  0.00000000000E+00 -0.00000000000E+00 -0.25139646949E+04  0.25139646949E+04  0.00000000000E+00 0.  1.
         23    2    1    2    0    0 -0.22404285124E+04  0.24165184773E+03 -0.10140892565E+03  0.22574993431E+04  0.90022102908E+02 0.  0.
         13    1    3    3    0    0 -0.14077578148E+04  0.10805889029E+03 -0.64987689623E+02  0.14133938548E+04  0.00000000000E+00 0.  1.
        -13    1    3    3    0    0 -0.83267069758E+03  0.13359295744E+03 -0.36421236028E+02  0.84410548827E+03  0.00000000000E+00 0. -1.
         22    1    1    2    0    0  0.22404285124E+04 -0.24165184773E+03 -0.38324129286E+03  0.22857798283E+04  0.00000000000E+00 0. -1.
<mgrwt>
<rscale>  0 0.45173554E+04</rscale>
<asrwt>0</asrwt>
<pdfrwt beam="1">  1        2 0.38676380E+00 0.45173554E+04</pdfrwt>
<pdfrwt beam="2">  1       -2 0.31220223E+00 0.45173554E+04</pdfrwt>
<totfact> 0.69149285E-02</totfact>
</mgrwt>
</event>
<event>
 6    1  0.1719556E-004  0.1670625E+04  0.7818608E-02  0.8778298E-01
          2   -1    0    0  501    0  0.00000000000E+00  0.00000000000E+00  0.10947170933E+04  0.10947170933E+04  0.00000000000E+00 0.  1.
         -2   -1    0    0    0  501 -0.00000000000E+00 -0.00000000000E+00 -0.63737616948E+03  0.63737616948E+03  0.00000000000E+00 0. -1.
         23    2    1    2    0    0 -0.21460667188E+03 -0.20948043070E+03 -0.57608825221E+03  0.65602916788E+03  0.92512271142E+02 0.  0.
         11    1    3    3    0    0 -0.79446926137E+02 -0.13856630787E+03 -0.26269085034E+03  0.30743929254E+03  0.00000000000E+00 0.  1.
        -11    1    3    3    0    0 -0.13515974574E+03 -0.70914122838E+02 -0.31339740188E+03  0.34858987534E+03  0.00000000000E+00 0. -1.
         22    1    1    2    0    0  0.21460667188E+03  0.20948043070E+03  0.10334291760E+04  0.10760640949E+04  0.00000000000E+00 0.  1.
<mgrwt>
<rscale>  0 0.16706245E+04</rscale>
<asrwt>0</asrwt>
<pdfrwt beam="1">  1        2 0.16841801E+00 0.16706245E+04</pdfrwt>
<pdfrwt beam="2">  1       -2 0.98057872E-01 0.16706245E+04</pdfrwt>
<totfact> 0.18116256E+01</totfact>
</mgrwt>
</event>
<event>
 6    1  0.1719556E-004  0.1159851E+04  0.7818608E-02  0.9148743E-01
          2   -1    0    0  501    0  0.00000000000E+00  0.00000000000E+00  0.12107766100E+04  0.12107766100E+04  0.00000000000E+00 0. -1.
         -2   -1    0    0    0  501 -0.00000000000E+00 -0.00000000000E+00 -0.27776677825E+03  0.27776677825E+03  0.00000000000E+00 0.  1.
         23    2    1    2    0    0 -0.36843400963E+03 -0.34493220598E+02  0.10362248195E+04  0.11043731976E+04  0.94577382441E+02 0.  0.
         11    1    3    3    0    0 -0.19958477067E+03 -0.41825312533E+02  0.68309626621E+03  0.71288424471E+03  0.00000000000E+00 0.  1.
        -11    1    3    3    0    0 -0.16884923896E+03  0.73320919349E+01  0.35312855332E+03  0.39148895289E+03  0.00000000000E+00 0. -1.
         22    1    1    2    0    0  0.36843400963E+03  0.34493220598E+02 -0.10321498774E+03  0.38417019069E+03  0.00000000000E+00 0.  1.
<mgrwt>
<rscale>  0 0.11598509E+04</rscale>
<asrwt>0</asrwt>
<pdfrwt beam="1">  1        2 0.18627332E+00 0.11598509E+04</pdfrwt>
<pdfrwt beam="2">  1       -2 0.42733351E-01 0.11598509E+04</pdfrwt>
<totfact> 0.95784891E+01</totfact>
</mgrwt>
</event>
<event>
 6    1  0.1719556E-004  0.2466776E+04  0.7818608E-02  0.8414918E-01
          1   -1    0    0  501    0  0.00000000000E+00  0.00000000000E+00  0.22210160662E+04  0.22210160662E+04  0.00000000000E+00 0.  1.
         -1   -1    0    0    0  501 -0.00000000000E+00 -0.00000000000E+00 -0.68493216984E+03  0.68493216984E+03  0.00000000000E+00 0. -1.
         23    2    1    2    0    0 -0.16063462508E+03  0.11885794690E+04  0.43904669474E+03  0.12805205204E+04  0.91903025248E+02 0.  0.
         13    1    3    3    0    0 -0.16735393716E+03  0.11315838989E+04  0.40328917579E+03  0.12129021477E+04  0.00000000000E+00 0.  1.
        -13    1    3    3    0    0  0.67193120877E+01  0.56995570158E+02  0.35757518950E+02  0.67618372755E+02  0.00000000000E+00 0. -1.
         22    1    1    2    0    0  0.16063462508E+03 -0.11885794690E+04  0.10970372016E+04  0.16254277156E+04  0.00000000000E+00 0.  1.
<mgrwt>
<rscale>  0 0.24667755E+04</rscale>
<asrwt>0</asrwt>
<pdfrwt beam="1">  1        1 0.34169478E+00 0.24667755E+04</pdfrwt>
<pdfrwt beam="2">  1       -1 0.10537418E+00 0.24667755E+04</pdfrwt>
<totfact> 0.15851417E+00</totfact>
</mgrwt>
</event>
<event>
 6    1  0.1719556E-004  0.2604703E+04  0.7818608E-02  0.8366606E-01
         -2   -1    0    0    0  501 -0.00000000000E+00  0.00000000000E+00  0.56339388359E+03  0.56339388359E+03  0.00000000000E+00 0. -1.
          2   -1    0    0  501    0  0.00000000000E+00 -0.00000000000E+00 -0.30105387481E+04  0.30105387481E+04  0.00000000000E+00 0.  1.
         23    2    1    2    0    0 -0.99477469441E+03  0.51400579252E+03 -0.31675278343E+03  0.11672026787E+04  0.90835675947E+02 0.  0.
         13    1    3    3    0    0 -0.58366784695E+03  0.25093739942E+03 -0.18078213900E+03  0.66054516558E+03  0.00000000000E+00 0.  1.
        -13    1    3    3    0    0 -0.41110684747E+03  0.26306839310E+03 -0.13597064443E+03  0.50665751315E+03  0.00000000000E+00 0. -1.
         22    1    1    2    0    0  0.99477469441E+03 -0.51400579252E+03 -0.21303920811E+04  0.24067299529E+04  0.00000000000E+00 0.  1.
<mgrwt>
<rscale>  0 0.26047028E+04</rscale>
<asrwt>0</asrwt>
<pdfrwt beam="1">  1        2 0.46315981E+00 0.26047028E+04</pdfrwt>
<pdfrwt beam="2">  1       -2 0.86675982E-01 0.26047028E+04</pdfrwt>
<totfact> 0.17471172E+00</totfact>
</mgrwt>
</event>
<event>
 6    1  0.1719556E-004  0.3660566E+04  0.7818608E-02  0.8076758E-01
         -1   -1    0    0    0  501 -0.00000000000E+00  0.00000000000E+00  0.18413149518E+04  0.18413149518E+04  0.00000000000E+00 0. -1.
          1   -1    0    0  501    0  0.00000000000E+00 -0.00000000000E+00 -0.18193166853E+04  0.18193166853E+04  0.00000000000E+00 0.  1.
         23    2    1    2    0    0  0.14805238248E+04  0.65485616447E+03  0.86240610116E+03  0.18366051240E+04  0.92664482432E+02 0.  0.
         11    1    3    3    0    0  0.71973468767E+03  0.31452531844E+03  0.47076856687E+03  0.91573317081E+03  0.00000000000E+00 0. -1.
        -11    1    3    3    0    0  0.76078913711E+03  0.34033084603E+03  0.39163753429E+03  0.92087195319E+03  0.00000000000E+00 0.  1.
         22    1    1    2    0    0 -0.14805238248E+04 -0.65485616447E+03 -0.84040783470E+03  0.18240265131E+04  0.00000000000E+00 0.  1.
<mgrwt>
<rscale>  0 0.36605655E+04</rscale>
<asrwt>0</asrwt>
<pdfrwt beam="1">  1        1 0.27989488E+00 0.36605655E+04</pdfrwt>
<pdfrwt beam="2">  1       -1 0.28327922E+00 0.36605655E+04</pdfrwt>
<totfact> 0.13485453E-01</totfact>
</mgrwt>
</event>
<event>
 6    1  0.1719556E-004  0.1360830E+04  0.7818608E-02  0.8982670E-01
         -1   -1    0    0    0  501 -0.00000000000E+00  0.00000000000E+00  0.38486717586E+03  0.38486717586E+03  0.00000000000E+00 0. -1.
          1   -1    0    0  501    0  0.00000000000E+00 -0.00000000000E+00 -0.12029208123E+04  0.12029208123E+04  0.00000000000E+00 0.  1.
         23    2    1    2    0    0  0.22282347023E+03 -0.17933874797E+03 -0.11273028940E+04  0.11665424675E+04  0.90536337187E+02 0.  0.
         13    1    3    3    0    0  0.19003668558E+03 -0.10152433065E+03 -0.79482373450E+03  0.82350828807E+03  0.00000000000E+00 0.  1.
        -13    1    3    3    0    0  0.32786784644E+02 -0.77814417322E+02 -0.33247915945E+03  0.34303417943E+03  0.00000000000E+00 0. -1.
         22    1    1    2    0    0 -0.22282347023E+03  0.17933874797E+03  0.30924925751E+03  0.42124552066E+03  0.00000000000E+00 0. -1.
<mgrwt>
<rscale>  0 0.13608302E+04</rscale>
<asrwt>0</asrwt>
<pdfrwt beam="1">  1        1 0.18506474E+00 0.13608302E+04</pdfrwt>
<pdfrwt beam="2">  1       -1 0.59210334E-01 0.13608302E+04</pdfrwt>
<totfact> 0.30067041E+01</totfact>
</mgrwt>
</event>
<event>
 6    1  0.1719556E-004  0.2950472E+04  0.7818608E-02  0.8258017E-01
         -2   -1    0    0    0  501 -0.00000000000E+00  0.00000000000E+00  0.13249660032E+04  0.13249660032E+04  0.00000000000E+00 0. -1.
          2   -1    0    0  501    0  0.00000000000E+00 -0.00000000000E+00 -0.16425489327E+04  0.16425489327E+04  0.00000000000E+00 0.  1.
         23    2    1    2    0    0  0.13145021967E+04  0.53769222825E+03  0.23704698296E+03  0.14428368397E+04  0.92509006487E+02 0.  0.
         13    1    3    3    0    0  0.10030740420E+04  0.42053236010E+03  0.21984005946E+03  0.11096551948E+04  0.00000000000E+00 0. -1.
        -13    1    3    3    0    0  0.31142815467E+03  0.11715986815E+03  0.17206923498E+02  0.33318164482E+03  0.00000000000E+00 0.  1.
         22    1    1    2    0    0 -0.13145021967E+04 -0.53769222825E+03 -0.55462991242E+03  0.15246780963E+04  0.00000000000E+00 0. -1.
<mgrwt>
<rscale>  0 0.29504722E+04</rscale>
<asrwt>0</asrwt>
<pdfrwt beam="1">  1        2 0.25269984E+00 0.29504722E+04</pdfrwt>
<pdfrwt beam="2">  1       -2 0.20384092E+00 0.29504722E+04</pdfrwt>
<totfact> 0.11391238E+00</totfact>
</mgrwt>
</event>
<event>
 6    1  0.1719556E-004  0.1486024E+04  0.7818608E-02  0.8893800E-01
         -1   -1    0    0    0  501 -0.00000000000E+00  0.00000000000E+00  0.75697303334E+03  0.75697303334E+03  0.00000000000E+00 0. -1.
          1   -1    0    0  501    0  0.00000000000E+00 -0.00000000000E+00 -0.72930879875E+03  0.72930879875E+03  0.00000000000E+00 0.  1.
         23    2    1    2    0    0 -0.64532956997E+03  0.21279235266E+03  0.30703258852E+03  0.75158630577E+03  0.94245028388E+02 0.  0.
         11    1    3    3    0    0 -0.60480868114E+02  0.22137942805E+02  0.74027749805E+00  0.64409408709E+02  0.00000000000E+00 0. -1.
        -11    1    3    3    0    0 -0.58484870185E+03  0.19065440985E+03  0.30629231103E+03  0.68717689706E+03  0.00000000000E+00 0.  1.
         22    1    1    2    0    0  0.64532956997E+03 -0.21279235266E+03 -0.27936835393E+03  0.73469552633E+03  0.00000000000E+00 0.  1.
<mgrwt>
<rscale>  0 0.14860244E+04</rscale>
<asrwt>0</asrwt>
<pdfrwt beam="1">  1        1 0.11220135E+00 0.14860244E+04</pdfrwt>
<pdfrwt beam="2">  1       -1 0.11645739E+00 0.14860244E+04</pdfrwt>
<totfact> 0.16502846E+01</totfact>
</mgrwt>
</event>
<event>
 6    1  0.1719556E-004  0.9094163E+03  0.7818608E-02  0.9413887E-01
         -1   -1    0    0    0  501 -0.00000000000E+00  0.00000000000E+00  0.13165951308E+03  0.13165951308E+03  0.00000000000E+00 0. -1.
          1   -1    0    0  501    0  0.00000000000E+00 -0.00000000000E+00 -0.15704107523E+04  0.15704107523E+04  0.00000000000E+00 0.  1.
         23    2    1    2    0    0  0.16352149132E+03 -0.28475776862E+03 -0.13009930483E+04  0.13459753566E+04  0.10602114823E+03 0.  0.
         13    1    3    3    0    0  0.10340893823E+03 -0.17062560030E+03 -0.57548828680E+03  0.60909217055E+03  0.00000000000E+00 0. -1.
        -13    1    3    3    0    0  0.60112553085E+02 -0.11413216831E+03 -0.72550476151E+03  0.73688318603E+03  0.00000000000E+00 0.  1.
         22    1    1    2    0    0 -0.16352149132E+03  0.28475776862E+03 -0.13775819092E+03  0.35609490881E+03  0.00000000000E+00 0. -1.
<mgrwt>
<rscale>  0 0.90941633E+03</rscale>
<asrwt>0</asrwt>
<pdfrwt beam="1">  1        1 0.24160166E+00 0.90941633E+03</pdfrwt>
<pdfrwt beam="2">  1       -1 0.20255309E-01 0.90941633E+03</pdfrwt>
<totfact> 0.11814335E+02</totfact>
</mgrwt>
</event>
<event>
 6    1  0.1719556E-004  0.2321499E+04  0.7818608E-02  0.8469492E-01
          2   -1    0    0  501    0  0.00000000000E+00  0.00000000000E+00  0.86371404759E+03  0.86371404759E+03  0.00000000000E+00 0.  1.
         -2   -1    0    0    0  501 -0.00000000000E+00 -0.00000000000E+00 -0.15599369120E+04  0.15599369120E+04  0.00000000000E+00 0. -1.
         23    2    1    2    0    0 -0.10372796247E+04 -0.28213870840E+03 -0.80087406533E+03  0.13436032085E+04  0.91208786884E+02 0.  0.
         13    1    3    3    0    0 -0.38365665694E+03 -0.60485215669E+02 -0.27457685467E+03  0.47565043976E+03  0.00000000000E+00 0.  1.
        -13    1    3    3    0    0 -0.65362296778E+03 -0.22165349273E+03 -0.52629721066E+03  0.86795276876E+03  0.00000000000E+00 0. -1.
         22    1    1    2    0    0  0.10372796247E+04  0.28213870840E+03  0.10465120096E+03  0.10800477510E+04  0.00000000000E+00 0.  1.
<mgrwt>
<rscale>  0 0.23214990E+04</rscale>
<asrwt>0</asrwt>
<pdfrwt beam="1">  1        2 0.13287908E+00 0.23214990E+04</pdfrwt>
<pdfrwt beam="2">  1       -2 0.23999029E+00 0.23214990E+04</pdfrwt>
<totfact> 0.20813377E+00</totfact>
</mgrwt>
</event>
<event>
 6    1  0.1719556E-004  0.2319873E+04  0.7818608E-02  0.8470127E-01
          1   -1    0    0  501    0  0.00000000000E+00  0.00000000000E+00  0.37029208637E+04  0.37029208637E+04  0.00000000000E+00 0.  1.
         -1   -1    0    0    0  501 -0.00000000000E+00 -0.00000000000E+00 -0.36334891049E+03  0.36334891049E+03  0.00000000000E+00 0. -1.
         23    2    1    2    0    0 -0.90135328715E+03 -0.72164423451E+03  0.15128710432E+04  0.19052412311E+04  0.89203171453E+02 0.  0.
         11    1    3    3    0    0 -0.30280065385E+03 -0.27857324575E+03  0.59187829242E+03  0.72084062195E+03  0.00000000000E+00 0.  1.
        -11    1    3    3    0    0 -0.59855263330E+03 -0.44307098876E+03  0.92099275077E+03  0.11844006091E+04  0.00000000000E+00 0. -1.
         22    1    1    2    0    0  0.90135328715E+03  0.72164423451E+03  0.18267009100E+04  0.21610285431E+04  0.00000000000E+00 0. -1.
<mgrwt>
<rscale>  0 0.23198726E+04</rscale>
<asrwt>0</asrwt>
<pdfrwt beam="1">  1        1 0.56968011E+00 0.23198726E+04</pdfrwt>
<pdfrwt beam="2">  1       -1 0.55899835E-01 0.23198726E+04</pdfrwt>
<totfact> 0.50258040E-01</totfact>
</mgrwt>
</event>
<event>
 6    1  0.1719556E-004  0.3497555E+04  0.7818608E-02  0.8114370E-01
          2   -1    0    0  501    0  0.00000000000E+00  0.00000000000E+00  0.13707684514E+04  0.13707684514E+04  0.00000000000E+00 0.  1.
         -2   -1    0    0    0  501 -0.00000000000E+00 -0.00000000000E+00 -0.22310285822E+04  0.22310285822E+04  0.00000000000E+00 0. -1.
         23    2    1    2    0    0  0.11903806043E+04 -0.12236427553E+04 -0.81573406343E+03  0.18940821434E+04  0.88416785769E+02 0.  0.
         13    1    3    3    0    0  0.90936970455E+03 -0.96708527224E+03 -0.60138568645E+03  0.14573509966E+04  0.00000000000E+00 0.  1.
        -13    1    3    3    0    0  0.28101089976E+03 -0.25655748301E+03 -0.21434837699E+03  0.43673114681E+03  0.00000000000E+00 0. -1.
         22    1    1    2    0    0 -0.11903806043E+04  0.12236427553E+04 -0.44526067316E+02  0.17077148902E+04  0.00000000000E+00 0.  1.
<mgrwt>
<rscale>  0 0.34975555E+04</rscale>
<asrwt>0</asrwt>
<pdfrwt beam="1">  1        2 0.21088746E+00 0.34975555E+04</pdfrwt>
<pdfrwt beam="2">  1       -2 0.34323516E+00 0.34975555E+04</pdfrwt>
<totfact> 0.21205521E-01</totfact>
</mgrwt>
</event>
<event>
 6    1  0.1719556E-004  0.5002985E+04  0.7818608E-02  0.7828047E-01
          1   -1    0    0  501    0  0.00000000000E+00  0.00000000000E+00  0.29916491894E+04  0.29916491894E+04  0.00000000000E+00 0.  1.
         -1   -1    0    0    0  501 -0.00000000000E+00 -0.00000000000E+00 -0.20916440974E+04  0.20916440974E+04  0.00000000000E+00 0. -1.
         23    2    1    2    0    0 -0.16455667625E+02  0.17049823011E+04  0.23087757519E+04  0.28715360198E+04  0.89656033106E+02 0.  0.
         11    1    3    3    0    0 -0.30441837901E+02  0.14086613757E+04  0.18559883416E+04  0.23302245172E+04  0.00000000000E+00 0. -1.
        -11    1    3    3    0    0  0.13986170276E+02  0.29632092543E+03  0.45278741032E+03  0.54131150251E+03  0.00000000000E+00 0.  1.
         22    1    1    2    0    0  0.16455667625E+02 -0.17049823011E+04 -0.14087706600E+04  0.22117572670E+04  0.00000000000E+00 0. -1.
<mgrwt>
<rscale>  0 0.50029853E+04</rscale>
<asrwt>0</asrwt>
<pdfrwt beam="1">  1        1 0.46025372E+00 0.50029853E+04</pdfrwt>
<pdfrwt beam="2">  1       -1 0.32179140E+00 0.50029853E+04</pdfrwt>
<totfact> 0.10423446E-02</totfact>
</mgrwt>
</event>
<event>
 6    1  0.1719556E-004  0.2992619E+04  0.7818608E-02  0.8245842E-01
         -2   -1    0    0    0  501 -0.00000000000E+00  0.00000000000E+00  0.69358368023E+03  0.69358368023E+03  0.00000000000E+00 0. -1.
          2   -1    0    0  501    0  0.00000000000E+00 -0.00000000000E+00 -0.32280769645E+04  0.32280769645E+04  0.00000000000E+00 0.  1.
         23    2    1    2    0    0 -0.10343257198E+04 -0.19621411116E+03 -0.26593844715E+04  0.28615061839E+04  0.86960916533E+02 0.  0.
         13    1    3    3    0    0 -0.52548924399E+03 -0.67325909039E+02 -0.14161652946E+04  0.15120171511E+04  0.00000000000E+00 0.  1.
        -13    1    3    3    0    0 -0.50883647585E+03 -0.12888820212E+03 -0.12432191769E+04  0.13494890328E+04  0.00000000000E+00 0. -1.
         22    1    1    2    0    0  0.10343257198E+04  0.19621411116E+03  0.12489118725E+03  0.10601544608E+04  0.00000000000E+00 0. -1.
<mgrwt>
<rscale>  0 0.29926186E+04</rscale>
<asrwt>0</asrwt>
<pdfrwt beam="1">  1        2 0.49662722E+00 0.29926186E+04</pdfrwt>
<pdfrwt beam="2">  1       -2 0.10670518E+00 0.29926186E+04</pdfrwt>
<totfact> 0.75231355E-01</totfact>
</mgrwt>
</event>
<event>
 6    1  0.1719556E-004  0.4154346E+04  0.7818608E-02  0.7974114E-01
         -2   -1    0    0    0  501 -0.00000000000E+00  0.00000000000E+00  0.16581574994E+04  0.16581574994E+04  0.00000000000E+00 0. -1.
          2   -1    0    0  501    0  0.00000000000E+00 -0.00000000000E+00 -0.26020734647E+04  0.26020734647E+04  0.00000000000E+00 0.  1.
         23    2    1    2    0    0 -0.10581253534E+04  0.13282830615E+04 -0.16969736292E+04  0.24025278123E+04  0.91952355231E+02 0.  0.
         11    1    3    3    0    0 -0.72875450934E+03  0.87595705339E+03 -0.11880935658E+04  0.16461926422E+04  0.00000000000E+00 0. -1.
        -11    1    3    3    0    0 -0.32937084405E+03  0.45232600810E+03 -0.50888006347E+03  0.75633517009E+03  0.00000000000E+00 0.  1.
         22    1    1    2    0    0  0.10581253534E+04 -0.13282830615E+04  0.75305766395E+03  0.18577031518E+04  0.00000000000E+00 0. -1.
<mgrwt>
<rscale>  0 0.41543460E+04</rscale>
<asrwt>0</asrwt>
<pdfrwt beam="1">  1        2 0.40031899E+00 0.41543460E+04</pdfrwt>
<pdfrwt beam="2">  1       -2 0.25510116E+00 0.41543460E+04</pdfrwt>
<totfact> 0.14135250E-01</totfact>
</mgrwt>
</event>
<event>
 6    1  0.1719556E-004  0.1366523E+04  0.7818608E-02  0.8978414E-01
         -1   -1    0    0    0  501 -0.00000000000E+00  0.00000000000E+00  0.34941424785E+03  0.34941424785E+03  0.00000000000E+00 0. -1.
          1   -1    0    0  501    0  0.00000000000E+00 -0.00000000000E+00 -0.13360833257E+04  0.13360833257E+04  0.00000000000E+00 0.  1.
         23    2    1    2    0    0  0.16900131173E+03 -0.61396052154E+03 -0.20031470708E+03  0.67363683125E+03  0.90286395234E+02 0.  0.
         13    1    3    3    0    0  0.98523254367E+02 -0.48361935123E+03 -0.13484457836E+03  0.51164203194E+03  0.00000000000E+00 0.  1.
        -13    1    3    3    0    0  0.70478057368E+02 -0.13034117031E+03 -0.65470128725E+02  0.16199479931E+03  0.00000000000E+00 0. -1.
         22    1    1    2    0    0 -0.16900131173E+03  0.61396052154E+03 -0.78635437077E+03  0.10118607423E+04  0.00000000000E+00 0. -1.
<mgrwt>
<rscale>  0 0.13665234E+04</rscale>
<asrwt>0</asrwt>
<pdfrwt beam="1">  1        1 0.20555128E+00 0.13665234E+04</pdfrwt>
<pdfrwt beam="2">  1       -1 0.53756038E-01 0.13665234E+04</pdfrwt>
<totfact> 0.29104374E+01</totfact>
</mgrwt>
</event>
<event>
 6    1  0.1719556E-004  0.3554983E+04  0.7818608E-02  0.8100882E-01
         -3   -1    0    0    0  501 -0.00000000000E+00  0.00000000000E+00  0.12063354201E+04  0.12063354201E+04  0.00000000000E+00 0.  1.
          3   -1    0    0  501    0  0.00000000000E+00 -0.00000000000E+00 -0.26190699485E+04  0.26190699485E+04  0.00000000000E+00 0. -1.
         23    2    1    2    0    0 -0.97390804881E+03 -0.84054941137E+03  0.61135856113E+03  0.14270782359E+04  0.88163488619E+02 0.  0.
         13    1    3    3    0    0 -0.55177353763E+03 -0.42268550049E+03  0.31082639275E+03  0.76140010217E+03  0.00000000000E+00 0. -1.
        -13    1    3    3    0    0 -0.42213451118E+03 -0.41786391087E+03  0.30053216837E+03  0.66567813376E+03  0.00000000000E+00 0.  1.
         22    1    1    2    0    0  0.97390804881E+03  0.84054941137E+03 -0.20240930895E+04  0.23983271327E+04  0.00000000000E+00 0. -1.
<mgrwt>
<rscale>  0 0.35549835E+04</rscale>
<asrwt>0</asrwt>
<pdfrwt beam="1">  1        3 0.40293383E+00 0.35549835E+04</pdfrwt>
<pdfrwt beam="2">  1       -3 0.18559007E+00 0.35549835E+04</pdfrwt>
<totfact> 0.41187354E-03</totfact>
</mgrwt>
</event>
<event>
 6    1  0.1719556E-004  0.1379707E+04  0.7818608E-02  0.8968640E-01
          2   -1    0    0  501    0  0.00000000000E+00  0.00000000000E+00  0.13443323868E+04  0.13443323868E+04  0.00000000000E+00 0.  1.
         -2   -1    0    0    0  501 -0.00000000000E+00 -0.00000000000E+00 -0.35400316968E+03  0.35400316968E+03  0.00000000000E+00 0. -1.
         23    2    1    2    0    0 -0.23035196873E+03  0.64642953500E+03  0.46335986774E+03  0.83310156017E+03  0.91775101818E+02 0.  0.
         13    1    3    3    0    0 -0.71291065323E+02  0.31665890830E+03  0.24644386864E+03  0.40754123790E+03  0.00000000000E+00 0.  1.
        -13    1    3    3    0    0 -0.15906090341E+03  0.32977062669E+03  0.21691599911E+03  0.42556032227E+03  0.00000000000E+00 0. -1.
         22    1    1    2    0    0  0.23035196873E+03 -0.64642953500E+03  0.52696934942E+03  0.86523399635E+03  0.00000000000E+00 0.  1.
<mgrwt>
<rscale>  0 0.13797071E+04</rscale>
<asrwt>0</asrwt>
<pdfrwt beam="1">  1        2 0.20682036E+00 0.13797071E+04</pdfrwt>
<pdfrwt beam="2">  1       -2 0.54462027E-01 0.13797071E+04</pdfrwt>
<totfact> 0.48177687E+01</totfact>
</mgrwt>
</event>
<event>
 6    1  0.1719556E-004  0.1028328E+04  0.7818608E-02  0.9278010E-01
         -1   -1    0    0    0  501 -0.00000000000E+00  0.00000000000E+00  0.30750605054E+03  0.30750605054E+03  0.00000000000E+00 0. -1.
          1   -1    0    0  501    0  0.00000000000E+00 -0.00000000000E+00 -0.85970518429E+03  0.85970518429E+03  0.00000000000E+00 0.  1.
         23    2    1    2    0    0 -0.49118458825E+03  0.25323817990E+02 -0.12518950673E+03  0.51587352131E+03  0.92463408449E+02 0.  0.
         13    1    3    3    0    0 -0.16513246886E+02 -0.22500009504E+01  0.12538909616E+02  0.20856032254E+02  0.00000000000E+00 0.  1.
        -13    1    3    3    0    0 -0.47467134136E+03  0.27573818941E+02 -0.13772841635E+03  0.49501748905E+03  0.00000000000E+00 0. -1.
         22    1    1    2    0    0  0.49118458825E+03 -0.25323817990E+02 -0.42700962702E+03  0.65133771353E+03  0.00000000000E+00 0.  1.
<mgrwt>
<rscale>  0 0.10283279E+04</rscale>
<asrwt>0</asrwt>
<pdfrwt beam="1">  1        1 0.13226234E+00 0.10283279E+04</pdfrwt>
<pdfrwt beam="2">  1       -1 0.47308623E-01 0.10283279E+04</pdfrwt>
<totfact> 0.87659212E+01</totfact>
</mgrwt>
</event>
<event>
 6    1  0.1719556E-004  0.1667801E+04  0.7818608E-02  0.8779945E-01
          2   -1    0    0  501    0  0.00000000000E+00  0.00000000000E+00  0.17196989571E+04  0.17196989571E+04  0.00000000000E+00 0.  1.
         -2   -1    0    0    0  501 -0.00000000000E+00 -0.00000000000E+00 -0.40436729034E+03  0.40436729034E+03  0.00000000000E+00 0. -1.
         23    2    1    2    0    0 -0.11320873505E+03  0.63491291855E+03  0.13272212565E+04  0.14790298189E+04  0.10041070394E+03 0.  0.
         13    1    3    3    0    0 -0.12864762620E+03  0.48103066260E+03  0.10238797701E+04  0.11385387537E+04  0.00000000000E+00 0. -1.
        -13    1    3    3    0    0  0.15438891150E+02  0.15388225595E+03  0.30334148641E+03  0.34049106513E+03  0.00000000000E+00 0.  1.
         22    1    1    2    0    0  0.11320873505E+03 -0.63491291855E+03 -0.11889589787E+02  0.64503642856E+03  0.00000000000E+00 0.  1.
<mgrwt>
<rscale>  0 0.16678010E+04</rscale>
<asrwt>0</asrwt>
<pdfrwt beam="1">  1        2 0.26456907E+00 0.16678010E+04</pdfrwt>
<pdfrwt beam="2">  1       -2 0.62210353E-01 0.16678010E+04</pdfrwt>
<totfact> 0.21874891E+01</totfact>
</mgrwt>
</event>
<event>
 6    1  0.1719556E-004  0.3799404E+04  0.7818608E-02  0.8046283E-01
          1   -1    0    0  501    0  0.00000000000E+00  0.00000000000E+00  0.25147611966E+04  0.25147611966E+04  0.00000000000E+00 0.  1.
         -1   -1    0    0    0  501 -0.00000000000E+00 -0.00000000000E+00 -0.14350735347E+04  0.14350735347E+04  0.00000000000E+00 0. -1.
         23    2    1    2    0    0  0.70413065153E+03 -0.86568425231E+03 -0.10567440956E+04  0.15395339506E+04  0.90815760124E+02 0.  0.
         11    1    3    3    0    0  0.24755592053E+03 -0.24170688929E+03 -0.34614834338E+03  0.48941273967E+03  0.00000000000E+00 0. -1.
        -11    1    3    3    0    0  0.45657473100E+03 -0.62397736302E+03 -0.71059575221E+03  0.10501212109E+04  0.00000000000E+00 0.  1.
         22    1    1    2    0    0 -0.70413065153E+03  0.86568425231E+03  0.21364317575E+04  0.24103007807E+04  0.00000000000E+00 0.  1.
<mgrwt>
<rscale>  0 0.37994038E+04</rscale>
<asrwt>0</asrwt>
<pdfrwt beam="1">  1        1 0.38688634E+00 0.37994038E+04</pdfrwt>
<pdfrwt beam="2">  1       -1 0.22078054E+00 0.37994038E+04</pdfrwt>
<totfact> 0.11447091E-01</totfact>
</mgrwt>
</event>
<event>
 6    1  0.1719556E-004  0.2421370E+04  0.7818608E-02  0.8431546E-01
         -2   -1    0    0    0  501 -0.00000000000E+00  0.00000000000E+00  0.11607909834E+04  0.11607909834E+04  0.00000000000E+00 0. -1.
          2   -1    0    0  501    0  0.00000000000E+00 -0.00000000000E+00 -0.12627238871E+04  0.12627238871E+04  0.00000000000E+00 0.  1.
         23    2    1    2    0    0 -0.60636619711E+03  0.55344490556E+03  0.83724664026E+03  0.11761017696E+04  0.90841660299E+02 0.  0.
         13    1    3    3    0    0 -0.19855423830E+03  0.23890503134E+03  0.33069786122E+03  0.45371849749E+03  0.00000000000E+00 0.  1.
        -13    1    3    3    0    0 -0.40781195881E+03  0.31453987423E+03  0.50654877903E+03  0.72238327207E+03  0.00000000000E+00 0. -1.
         22    1    1    2    0    0  0.60636619711E+03 -0.55344490556E+03 -0.93917954396E+03  0.12474131009E+04  0.00000000000E+00 0.  1.
<mgrwt>
<rscale>  0 0.24213703E+04</rscale>
<asrwt>0</asrwt>
<pdfrwt beam="1">  1        2 0.19426521E+00 0.24213703E+04</pdfrwt>
<pdfrwt beam="2">  1       -2 0.17858323E+00 0.24213703E+04</pdfrwt>
<totfact> 0.28945535E+00</totfact>
</mgrwt>
</event>
<event>
 6    1  0.1719556E-004  0.1031037E+04  0.7818608E-02  0.9275144E-01
         -2   -1    0    0    0  501 -0.00000000000E+00  0.00000000000E+00  0.17615347304E+03  0.17615347304E+03  0.00000000000E+00 0. -1.
          2   -1    0    0  501    0  0.00000000000E+00 -0.00000000000E+00 -0.15086799869E+04  0.15086799869E+04  0.00000000000E+00 0.  1.
         23    2    1    2    0    0  0.20378277282E+03 -0.36258873592E+03 -0.18423360021E+03  0.46353307696E+03  0.89010584054E+02 0.  0.
         11    1    3    3    0    0  0.24609755884E+02 -0.79316280723E+02 -0.72437823028E+02  0.11019959472E+03  0.00000000000E+00 0. -1.
        -11    1    3    3    0    0  0.17917301694E+03 -0.28327245520E+03 -0.11179577718E+03  0.35333348224E+03  0.00000000000E+00 0.  1.
         22    1    1    2    0    0 -0.20378277282E+03  0.36258873592E+03 -0.11482929137E+04  0.12213003830E+04  0.00000000000E+00 0.  1.
<mgrwt>
<rscale>  0 0.10310368E+04</rscale>
<asrwt>0</asrwt>
<pdfrwt beam="1">  1        2 0.23210460E+00 0.10310368E+04</pdfrwt>
<pdfrwt beam="2">  1       -2 0.27100535E-01 0.10310368E+04</pdfrwt>
<totfact> 0.15475532E+02</totfact>
</mgrwt>
</event>
<event>
 6    1  0.1719556E-004  0.5434062E+03  0.7818608E-02  0.1003032E+00
         -1   -1    0    0    0  501 -0.00000000000E+00  0.00000000000E+00  0.34163560989E+02  0.34163560989E+02  0.00000000000E+00 0. -1.
          1   -1    0    0  501    0  0.00000000000E+00 -0.00000000000E+00 -0.21608571369E+04  0.21608571369E+04  0.00000000000E+00 0.  1.
         23    2    1    2    0    0  0.10071506500E+02 -0.38592037519E+02 -0.21477043255E+04  0.21499404117E+04  0.89549558197E+02 0.  0.
         11    1    3    3    0    0  0.37701558305E+02 -0.30823666706E+02 -0.60097652056E+03  0.60294633608E+03  0.00000000000E+00 0. -1.
        -11    1    3    3    0    0 -0.27630051804E+02 -0.77683708127E+01 -0.15467278049E+04  0.15469940756E+04  0.00000000000E+00 0.  1.
         22    1    1    2    0    0 -0.10071506500E+02  0.38592037519E+02  0.21010749618E+02  0.45080286185E+02  0.00000000000E+00 0. -1.
<mgrwt>
<rscale>  0 0.54340620E+03</rscale>
<asrwt>0</asrwt>
<pdfrwt beam="1">  1        1 0.33243956E+00 0.54340620E+03</pdfrwt>
<pdfrwt beam="2">  1       -1 0.52559324E-02 0.54340620E+03</pdfrwt>
<totfact> 0.41863243E+02</totfact>
</mgrwt>
</event>
<event>
 6    1  0.1719556E-004  0.3449228E+04  0.7818608E-02  0.8125929E-01
         -2   -1    0    0    0  501 -0.00000000000E+00  0.00000000000E+00  0.14464212396E+04  0.14464212396E+04  0.00000000000E+00 0. -1.
          2   -1    0    0  501    0  0.00000000000E+00 -0.00000000000E+00 -0.20563125784E+04  0.20563125784E+04  0.00000000000E+00 0.  1.
         23    2    1    2    0    0  0.74707015764E+03  0.13733432288E+04 -0.10417040243E+04  0.18808066802E+04  0.90005830713E+02 0.  0.
         13    1    3    3    0    0  0.17748784512E+03  0.25191247159E+03 -0.20030810048E+03  0.36753933616E+03  0.00000000000E+00 0. -1.
        -13    1    3    3    0    0  0.56958231252E+03  0.11214307572E+04 -0.84139592384E+03  0.15132673441E+04  0.00000000000E+00 0.  1.
         22    1    1    2    0    0 -0.74707015764E+03 -0.13733432288E+04  0.43181268552E+03  0.16219271377E+04  0.00000000000E+00 0. -1.
<mgrwt>
<rscale>  0 0.34492284E+04</rscale>
<asrwt>0</asrwt>
<pdfrwt beam="1">  1        2 0.31635578E+00 0.34492284E+04</pdfrwt>
<pdfrwt beam="2">  1       -2 0.22252634E+00 0.34492284E+04</pdfrwt>
<totfact> 0.48859132E-01</totfact>
</mgrwt>
</event>
<event>
 6    1  0.1719556E-004  0.2505347E+04  0.7818608E-02  0.8401083E-01
          2   -1    0    0  501    0  0.00000000000E+00  0.00000000000E+00  0.42337851262E+04  0.42337851262E+04  0.00000000000E+00 0.  1.
         -2   -1    0    0    0  501 -0.00000000000E+00 -0.00000000000E+00 -0.37063555136E+03  0.37063555136E+03  0.00000000000E+00 0. -1.
         23    2    1    2    0    0  0.68779885443E+03 -0.92659772787E+03  0.28219523447E+04  0.30501548427E+04  0.91536413998E+02 0.  0.
         13    1    3    3    0    0  0.43996315890E+03 -0.53662284763E+03  0.16144713820E+04  0.17572846967E+04  0.00000000000E+00 0. -1.
        -13    1    3    3    0    0  0.24783569554E+03 -0.38997488024E+03  0.12074809627E+04  0.12928701460E+04  0.00000000000E+00 0.  1.
         22    1    1    2    0    0 -0.68779885443E+03  0.92659772787E+03  0.10411972301E+04  0.15542658349E+04  0.00000000000E+00 0. -1.
<mgrwt>
<rscale>  0 0.25053473E+04</rscale>
<asrwt>0</asrwt>
<pdfrwt beam="1">  1        2 0.65135152E+00 0.25053473E+04</pdfrwt>
<pdfrwt beam="2">  1       -2 0.57020857E-01 0.25053473E+04</pdfrwt>
<totfact> 0.56093501E-01</totfact>
</mgrwt>
</event>
<event>
 6    1  0.1719556E-004  0.6685401E+03  0.7818608E-02  0.9772599E-01
          2   -1    0    0  501    0  0.00000000000E+00  0.00000000000E+00  0.54996100734E+03  0.54996100734E+03  0.00000000000E+00 0.  1.
         -2   -1    0    0    0  501 -0.00000000000E+00 -0.00000000000E+00 -0.20317159876E+03  0.20317159876E+03  0.00000000000E+00 0. -1.
         23    2    1    2    0    0 -0.12702167684E+03 -0.21793914130E+03  0.41255691162E+03  0.49244631924E+03  0.93103148775E+02 0.  0.
         11    1    3    3    0    0 -0.10599099094E+03 -0.18917063771E+03  0.27422647544E+03  0.34959945676E+03  0.00000000000E+00 0. -1.
        -11    1    3    3    0    0 -0.21030685892E+02 -0.28768503590E+02  0.13833043617E+03  0.14284686248E+03  0.00000000000E+00 0.  1.
         22    1    1    2    0    0  0.12702167684E+03  0.21793914130E+03 -0.65767503037E+02  0.26068628685E+03  0.00000000000E+00 0. -1.
<mgrwt>
<rscale>  0 0.66854007E+03</rscale>
<asrwt>0</asrwt>
<pdfrwt beam="1">  1        2 0.84609385E-01 0.66854007E+03</pdfrwt>
<pdfrwt beam="2">  1       -2 0.31257169E-01 0.66854007E+03</pdfrwt>
<totfact> 0.52608331E+02</totfact>
</mgrwt>
</event>
<event>
 6    1  0.1719556E-004  0.9082574E+03  0.7818608E-02  0.9415318E-01
          2   -1    0    0  501    0  0.00000000000E+00  0.00000000000E+00  0.34862704407E+04  0.34862704407E+04  0.00000000000E+00 0.  1.
         -2   -1    0    0    0  501 -0.00000000000E+00 -0.00000000000E+00 -0.59155727781E+02  0.59155727781E+02  0.00000000000E+00 0. -1.
         23    2    1    2    0    0  0.19397565689E+03  0.22314046281E+03  0.30529541127E+04  0.30685463342E+04  0.89607862813E+02 0.  0.
         11    1    3    3    0    0  0.10676801883E+03  0.64460222524E+02  0.14662408798E+04  0.14715355408E+04  0.00000000000E+00 0. -1.
        -11    1    3    3    0    0  0.87207638063E+02  0.15868024028E+03  0.15867132329E+04  0.15970107934E+04  0.00000000000E+00 0.  1.
         22    1    1    2    0    0 -0.19397565689E+03 -0.22314046281E+03  0.37416060017E+03  0.47687983427E+03  0.00000000000E+00 0. -1.
<mgrwt>
<rscale>  0 0.90825738E+03</rscale>
<asrwt>0</asrwt>
<pdfrwt beam="1">  1        2 0.53634914E+00 0.90825738E+03</pdfrwt>
<pdfrwt beam="2">  1       -2 0.91008839E-02 0.90825738E+03</pdfrwt>
<totfact> 0.69994952E+01</totfact>
</mgrwt>
</event>
<event>
 6    1  0.1719556E-004  0.1618044E+04  0.7818608E-02  0.8809539E-01
          1   -1    0    0  501    0  0.00000000000E+00  0.00000000000E+00  0.21092094013E+04  0.21092094013E+04  0.00000000000E+00 0. -1.
         -1   -1    0    0    0  501 -0.00000000000E+00 -0.00000000000E+00 -0.31031384601E+03  0.31031384601E+03  0.00000000000E+00 0.  1.
         23    2    1    2    0    0 -0.23727513622E+03  0.63446447687E+03  0.24796781482E+03  0.72712213682E+03  0.91509026813E+02 0.  0.
         11    1    3    3    0    0 -0.96795760964E+02  0.18275462156E+03  0.11064083850E+03  0.23454224819E+03  0.00000000000E+00 0. -1.
        -11    1    3    3    0    0 -0.14047937526E+03  0.45170985531E+03  0.13732697632E+03  0.49257988863E+03  0.00000000000E+00 0.  1.
         22    1    1    2    0    0  0.23727513622E+03 -0.63446447687E+03  0.15509277405E+04  0.16924011105E+04  0.00000000000E+00 0. -1.
<mgrwt>
<rscale>  0 0.16180444E+04</rscale>
<asrwt>0</asrwt>
<pdfrwt beam="1">  1        1 0.32449375E+00 0.16180444E+04</pdfrwt>
<pdfrwt beam="2">  1       -1 0.47740593E-01 0.16180444E+04</pdfrwt>
<totfact> 0.10553487E+01</totfact>
</mgrwt>
</event>
<event>
 6    1  0.1719556E-004  0.2520576E+04  0.7818608E-02  0.8395692E-01
          2   -1    0    0  501    0  0.00000000000E+00  0.00000000000E+00  0.16044062524E+04  0.16044062524E+04  0.00000000000E+00 0.  1.
         -2   -1    0    0    0  501 -0.00000000000E+00 -0.00000000000E+00 -0.98997718389E+03  0.98997718389E+03  0.00000000000E+00 0. -1.
         23    2    1    2    0    0  0.24088045075E+03 -0.11774804403E+03 -0.95814069161E+03  0.99912056018E+03  0.91215763032E+02 0.  0.
         11    1    3    3    0    0  0.12062215082E+03 -0.10688118869E+02 -0.45550242580E+03  0.47132409133E+03  0.00000000000E+00 0.  1.
        -11    1    3    3    0    0  0.12025829992E+03 -0.10705992516E+03 -0.50263826581E+03  0.52779646885E+03  0.00000000000E+00 0. -1.
         22    1    1    2    0    0 -0.24088045075E+03  0.11774804403E+03  0.15725697601E+04  0.15952628761E+04  0.00000000000E+00 0.  1.
<mgrwt>
<rscale>  0 0.25205758E+04</rscale>
<asrwt>0</asrwt>
<pdfrwt beam="1">  1        2 0.24683173E+00 0.25205758E+04</pdfrwt>
<pdfrwt beam="2">  1       -2 0.15230418E+00 0.25205758E+04</pdfrwt>
<totfact> 0.28410742E+00</totfact>
</mgrwt>
</event>
<event>
 6    1  0.1719556E-004  0.2893434E+04  0.7818608E-02  0.8274834E-01
         -2   -1    0    0    0  501 -0.00000000000E+00  0.00000000000E+00  0.14683123163E+04  0.14683123163E+04  0.00000000000E+00 0. -1.
          2   -1    0    0  501    0  0.00000000000E+00 -0.00000000000E+00 -0.14254393332E+04  0.14254393332E+04  0.00000000000E+00 0.  1.
         23    2    1    2    0    0  0.71160100039E+02 -0.36944584889E+03 -0.13740679512E+04  0.14277108566E+04  0.93496312848E+02 0.  0.
         13    1    3    3    0    0  0.89720541833E+02 -0.24170710041E+03 -0.95735862661E+03  0.99146741649E+03  0.00000000000E+00 0.  1.
        -13    1    3    3    0    0 -0.18560441794E+02 -0.12773874848E+03 -0.41670932454E+03  0.43624344009E+03  0.00000000000E+00 0. -1.
         22    1    1    2    0    0 -0.71160100039E+02  0.36944584889E+03  0.14169409343E+04  0.14660407928E+04  0.00000000000E+00 0. -1.
<mgrwt>
<rscale>  0 0.28934340E+04</rscale>
<asrwt>0</asrwt>
<pdfrwt beam="1">  1        2 0.21929836E+00 0.28934340E+04</pdfrwt>
<pdfrwt beam="2">  1       -2 0.22589420E+00 0.28934340E+04</pdfrwt>
<totfact> 0.10963447E+00</totfact>
</mgrwt>
</event>
<event>
 6    1  0.1719556E-004  0.1656447E+04  0.7818608E-02  0.8786602E-01
         -2   -1    0    0    0  501 -0.00000000000E+00  0.00000000000E+00  0.18892206449E+03  0.18892206449E+03  0.00000000000E+00 0.  1.
          2   -1    0    0  501    0  0.00000000000E+00 -0.00000000000E+00 -0.36308841924E+04  0.36308841924E+04  0.00000000000E+00 0. -1.
         23    2    1    2    0    0 -0.73644141614E+03  0.31511858325E+03 -0.21874962490E+04  0.23314076805E+04  0.93146402452E+02 0.  0.
         13    1    3    3    0    0 -0.44383961687E+03  0.17917032156E+03 -0.14329520306E+04  0.15107769960E+04  0.00000000000E+00 0. -1.
        -13    1    3    3    0    0 -0.29260179928E+03  0.13594826169E+03 -0.75454421841E+03  0.82063068449E+03  0.00000000000E+00 0.  1.
         22    1    1    2    0    0  0.73644141614E+03 -0.31511858325E+03 -0.12544658789E+04  0.14883985764E+04  0.00000000000E+00 0. -1.
<mgrwt>
<rscale>  0 0.16564470E+04</rscale>
<asrwt>0</asrwt>
<pdfrwt beam="1">  1        2 0.55859749E+00 0.16564470E+04</pdfrwt>
<pdfrwt beam="2">  1       -2 0.29064937E-01 0.16564470E+04</pdfrwt>
<totfact> 0.68974740E+00</totfact>
</mgrwt>
</event>
<event>
 6    1  0.1719556E-004  0.4057613E+03  0.7818608E-02  0.1041803E+00
          1   -1    0    0  501    0  0.00000000000E+00  0.00000000000E+00  0.96108723747E+03  0.96108723747E+03  0.00000000000E+00 0.  1.
         -1   -1    0    0    0  501 -0.00000000000E+00 -0.00000000000E+00 -0.42827069013E+02  0.42827069013E+02  0.00000000000E+00 0. -1.
         23    2    1    2    0    0  0.10715680562E+02 -0.18992147709E+03  0.40575878785E+03  0.45724927340E+03  0.90838928002E+02 0.  0.
         11    1    3    3    0    0  0.60262656112E+01 -0.80731924614E+01 -0.24282754340E+01  0.10362858453E+02  0.00000000000E+00 0.  1.
        -11    1    3    3    0    0  0.46894149507E+01 -0.18184828463E+03  0.40818706328E+03  0.44688641494E+03  0.00000000000E+00 0. -1.
         22    1    1    2    0    0 -0.10715680562E+02  0.18992147709E+03  0.51250138061E+03  0.54666503308E+03  0.00000000000E+00 0.  1.
<mgrwt>
<rscale>  0 0.40576126E+03</rscale>
<asrwt>0</asrwt>
<pdfrwt beam="1">  1        1 0.14785956E+00 0.40576126E+03</pdfrwt>
<pdfrwt beam="2">  1       -1 0.65887806E-02 0.40576126E+03</pdfrwt>
<totfact> 0.19862000E+03</totfact>
</mgrwt>
</event>
<event>
 6    1  0.1719556E-004  0.2740873E+04  0.7818608E-02  0.8321864E-01
          2   -1    0    0  501    0  0.00000000000E+00  0.00000000000E+00  0.22503688907E+04  0.22503688907E+04  0.00000000000E+00 0.  1.
         -2   -1    0    0    0  501 -0.00000000000E+00 -0.00000000000E+00 -0.83457278686E+03  0.83457278686E+03  0.00000000000E+00 0. -1.
         23    2    1    2    0    0  0.73246065300E+03  0.10003770497E+04  0.13616812793E+04  0.18439012818E+04  0.92429329622E+02 0.  0.
         11    1    3    3    0    0  0.41321009840E+03  0.60534957561E+03  0.74678536951E+03  0.10463646985E+04  0.00000000000E+00 0. -1.
        -11    1    3    3    0    0  0.31925055460E+03  0.39502747405E+03  0.61489590983E+03  0.79753658335E+03  0.00000000000E+00 0.  1.
         22    1    1    2    0    0 -0.73246065300E+03 -0.10003770497E+04  0.54114824535E+02  0.12410403958E+04  0.00000000000E+00 0. -1.
<mgrwt>
<rscale>  0 0.27408733E+04</rscale>
<asrwt>0</asrwt>
<pdfrwt beam="1">  1        2 0.34621060E+00 0.27408733E+04</pdfrwt>
<pdfrwt beam="2">  1       -2 0.12839581E+00 0.27408733E+04</pdfrwt>
<totfact> 0.18951915E+00</totfact>
</mgrwt>
</event>
<event>
 6    1  0.1719556E-004  0.6211672E+03  0.7818608E-02  0.9862438E-01
         -1   -1    0    0    0  501 -0.00000000000E+00  0.00000000000E+00  0.11491456018E+03  0.11491456018E+03  0.00000000000E+00 0.  1.
          1   -1    0    0  501    0  0.00000000000E+00 -0.00000000000E+00 -0.83942527944E+03  0.83942527944E+03  0.00000000000E+00 0. -1.
         23    2    1    2    0    0  0.74544182676E+02 -0.28627485863E+03 -0.26303192930E+03  0.40618584353E+03  0.91055004249E+02 0.  0.
         11    1    3    3    0    0  0.80974219679E+02 -0.17826911460E+03 -0.13144027779E+03  0.23582461300E+03  0.00000000000E+00 0.  1.
        -11    1    3    3    0    0 -0.64300370033E+01 -0.10800574403E+03 -0.13159165151E+03  0.17036123053E+03  0.00000000000E+00 0. -1.
         22    1    1    2    0    0 -0.74544182676E+02  0.28627485863E+03 -0.46147878995E+03  0.54815399609E+03  0.00000000000E+00 0. -1.
<mgrwt>
<rscale>  0 0.62116725E+03</rscale>
<asrwt>0</asrwt>
<pdfrwt beam="1">  1        1 0.12914235E+00 0.62116725E+03</pdfrwt>
<pdfrwt beam="2">  1       -1 0.17679163E-01 0.62116725E+03</pdfrwt>
<totfact> 0.51951224E+02</totfact>
</mgrwt>
</event>
<event>
 6    1  0.1719556E-004  0.3362689E+04  0.7818608E-02  0.8147125E-01
         -1   -1    0    0    0  501 -0.00000000000E+00  0.00000000000E+00  0.96708283378E+03  0.96708283378E+03  0.00000000000E+00 0. -1.
          1   -1    0    0  501    0  0.00000000000E+00 -0.00000000000E+00 -0.29231402816E+04  0.29231402816E+04  0.00000000000E+00 0.  1.
         23    2    1    2    0    0 -0.15648177715E+04 -0.28079344755E+03 -0.35010566371E+03  0.16304486241E+04  0.91044614989E+02 0.  0.
         13    1    3    3    0    0 -0.78696219884E+03 -0.16623355468E+03 -0.13784136099E+03  0.81605351412E+03  0.00000000000E+00 0.  1.
        -13    1    3    3    0    0 -0.77785557269E+03 -0.11455989287E+03 -0.21226430273E+03  0.81439511003E+03  0.00000000000E+00 0. -1.
         22    1    1    2    0    0  0.15648177715E+04  0.28079344755E+03 -0.16059517841E+04  0.22597744912E+04  0.00000000000E+00 0. -1.
<mgrwt>
<rscale>  0 0.33626887E+04</rscale>
<asrwt>0</asrwt>
<pdfrwt beam="1">  1        1 0.44971390E+00 0.33626887E+04</pdfrwt>
<pdfrwt beam="2">  1       -1 0.14878197E+00 0.33626887E+04</pdfrwt>
<totfact> 0.19994692E-01</totfact>
</mgrwt>
</event>
<event>
 6    1  0.1719556E-004  0.3088537E+04  0.7818608E-02  0.8218891E-01
         -1   -1    0    0    0  501 -0.00000000000E+00  0.00000000000E+00  0.92846451871E+03  0.92846451871E+03  0.00000000000E+00 0. -1.
          1   -1    0    0  501    0  0.00000000000E+00 -0.00000000000E+00 -0.25685041163E+04  0.25685041163E+04  0.00000000000E+00 0.  1.
         23    2    1    2    0    0  0.13284055035E+04  0.54221990813E+03 -0.14631761147E+04  0.20513046692E+04  0.91120208861E+02 0.  0.
         13    1    3    3    0    0  0.52563147072E+03  0.23926669402E+03 -0.64381722443E+03  0.86489167666E+03  0.00000000000E+00 0. -1.
        -13    1    3    3    0    0  0.80277403277E+03  0.30295321411E+03 -0.81935889031E+03  0.11864129925E+04  0.00000000000E+00 0.  1.
         22    1    1    2    0    0 -0.13284055035E+04 -0.54221990813E+03 -0.17686348281E+03  0.14456639658E+04  0.00000000000E+00 0.  1.
<mgrwt>
<rscale>  0 0.30885368E+04</rscale>
<asrwt>0</asrwt>
<pdfrwt beam="1">  1        1 0.39515448E+00 0.30885368E+04</pdfrwt>
<pdfrwt beam="2">  1       -1 0.14284069E+00 0.30885368E+04</pdfrwt>
<totfact> 0.40745803E-01</totfact>
</mgrwt>
</event>
<event>
 6    1  0.1719556E-004  0.1351423E+04  0.7818608E-02  0.8989751E-01
         -2   -1    0    0    0  501 -0.00000000000E+00  0.00000000000E+00  0.22813711345E+03  0.22813711345E+03  0.00000000000E+00 0. -1.
          2   -1    0    0  501    0  0.00000000000E+00 -0.00000000000E+00 -0.20013677379E+04  0.20013677379E+04  0.00000000000E+00 0.  1.
         23    2    1    2    0    0 -0.34935526250E+03  0.55446863529E+03 -0.64073651653E+03  0.92106017486E+03  0.91235931187E+02 0.  0.
         11    1    3    3    0    0 -0.86838008611E+02  0.12917696121E+03 -0.20916630411E+03  0.26072604362E+03  0.00000000000E+00 0. -1.
        -11    1    3    3    0    0 -0.26251725389E+03  0.42529167408E+03 -0.43157021242E+03  0.66033413124E+03  0.00000000000E+00 0.  1.
         22    1    1    2    0    0  0.34935526250E+03 -0.55446863529E+03 -0.11324941080E+04  0.13084446765E+04  0.00000000000E+00 0. -1.
<mgrwt>
<rscale>  0 0.13514233E+04</rscale>
<asrwt>0</asrwt>
<pdfrwt beam="1">  1        2 0.30790272E+00 0.13514233E+04</pdfrwt>
<pdfrwt beam="2">  1       -2 0.35098019E-01 0.13514233E+04</pdfrwt>
<totfact> 0.49672547E+01</totfact>
</mgrwt>
</event>
<event>
 6    1  0.1719556E-004  0.1679547E+04  0.7818608E-02  0.8773116E-01
          2   -1    0    0  501    0  0.00000000000E+00  0.00000000000E+00  0.16440108238E+04  0.16440108238E+04  0.00000000000E+00 0.  1.
         -2   -1    0    0    0  501 -0.00000000000E+00 -0.00000000000E+00 -0.42896295506E+03  0.42896295506E+03  0.00000000000E+00 0. -1.
         23    2    1    2    0    0  0.50927503038E+03 -0.24985561962E+03  0.13693939129E+04  0.14850863844E+04  0.91940161172E+02 0.  0.
         13    1    3    3    0    0  0.31031828080E+03 -0.14348640286E+03  0.93606086852E+03  0.99654188711E+03  0.00000000000E+00 0.  1.
        -13    1    3    3    0    0  0.19895674959E+03 -0.10636921676E+03  0.43333304434E+03  0.48854449725E+03  0.00000000000E+00 0. -1.
         22    1    1    2    0    0 -0.50927503038E+03  0.24985561962E+03 -0.15434604414E+03  0.58788739446E+03  0.00000000000E+00 0. -1.
<mgrwt>
<rscale>  0 0.16795472E+04</rscale>
<asrwt>0</asrwt>
<pdfrwt beam="1">  1        2 0.25292474E+00 0.16795472E+04</pdfrwt>
<pdfrwt beam="2">  1       -2 0.65994302E-01 0.16795472E+04</pdfrwt>
<totfact> 0.21217276E+01</totfact>
</mgrwt>
</event>
<event>
 6    1  0.1719556E-004  0.3442930E+04  0.7818608E-02  0.8127450E-01
         -1   -1    0    0    0  501 -0.00000000000E+00  0.00000000000E+00  0.13793749547E+04  0.13793749547E+04  0.00000000000E+00 0.  1.
          1   -1    0    0  501    0  0.00000000000E+00 -0.00000000000E+00 -0.21483943899E+04  0.21483943899E+04  0.00000000000E+00 0. -1.
         23    2    1    2    0    0 -0.14845547137E+04 -0.15814052809E+03  0.49052162287E+03  0.15744760226E+04  0.97222211757E+02 0.  0.
         11    1    3    3    0    0 -0.10300723410E+04 -0.78690794722E+02  0.30453482474E+03  0.10770249432E+04  0.00000000000E+00 0. -1.
        -11    1    3    3    0    0 -0.45448237276E+03 -0.79449733364E+02  0.18598679813E+03  0.49745107936E+03  0.00000000000E+00 0.  1.
         22    1    1    2    0    0  0.14845547137E+04  0.15814052809E+03 -0.12595410581E+04  0.19532933220E+04  0.00000000000E+00 0. -1.
<mgrwt>
<rscale>  0 0.34429298E+04</rscale>
<asrwt>0</asrwt>
<pdfrwt beam="1">  1        1 0.33052221E+00 0.34429298E+04</pdfrwt>
<pdfrwt beam="2">  1       -1 0.21221153E+00 0.34429298E+04</pdfrwt>
<totfact> 0.24051113E-01</totfact>
</mgrwt>
</event>
<event>
 6    1  0.1719556E-004  0.4577033E+04  0.7818608E-02  0.7897288E-01
          2   -1    0    0  501    0  0.00000000000E+00  0.00000000000E+00  0.15254314167E+04  0.15254314167E+04  0.00000000000E+00 0.  1.
         -2   -1    0    0    0  501 -0.00000000000E+00 -0.00000000000E+00 -0.34333285352E+04  0.34333285352E+04  0.00000000000E+00 0. -1.
         23    2    1    2    0    0  0.69881360864E+03  0.19027814658E+04 -0.21036147902E+04  0.29222867325E+04  0.75145160790E+02 0.  0.
         11    1    3    3    0    0  0.62667524191E+03  0.16359361394E+04 -0.18292409662E+04  0.25328109727E+04  0.00000000000E+00 0. -1.
        -11    1    3    3    0    0  0.72138366731E+02  0.26684532636E+03 -0.27437382404E+03  0.38947575980E+03  0.00000000000E+00 0.  1.
         22    1    1    2    0    0 -0.69881360864E+03 -0.19027814658E+04  0.19571767168E+03  0.20364732194E+04  0.00000000000E+00 0.  1.
<mgrwt>
<rscale>  0 0.45770328E+04</rscale>
<asrwt>0</asrwt>
<pdfrwt beam="1">  1        2 0.23468176E+00 0.45770328E+04</pdfrwt>
<pdfrwt beam="2">  1       -2 0.52820439E+00 0.45770328E+04</pdfrwt>
<totfact> 0.10420878E-02</totfact>
</mgrwt>
</event>
<event>
 6    1  0.1719556E-004  0.4596406E+03  0.7818608E-02  0.1024885E+00
         -2   -1    0    0    0  501 -0.00000000000E+00  0.00000000000E+00  0.29950382817E+02  0.29950382817E+02  0.00000000000E+00 0. -1.
          2   -1    0    0  501    0  0.00000000000E+00 -0.00000000000E+00 -0.17634959341E+04  0.17634959341E+04  0.00000000000E+00 0.  1.
         23    2    1    2    0    0 -0.56493613138E+01 -0.34160908681E+02 -0.17517089249E+04  0.17543465584E+04  0.89715140246E+02 0.  0.
         13    1    3    3    0    0 -0.11547563965E+02  0.29761221802E+02 -0.60825976178E+03  0.60909688421E+03  0.00000000000E+00 0. -1.
        -13    1    3    3    0    0  0.58982026508E+01 -0.63922130484E+02 -0.11434491632E+04  0.11452496742E+04  0.00000000000E+00 0.  1.
         22    1    1    2    0    0  0.56493613138E+01  0.34160908681E+02  0.18163373711E+02  0.39099758436E+02  0.00000000000E+00 0. -1.
<mgrwt>
<rscale>  0 0.45964063E+03</rscale>
<asrwt>0</asrwt>
<pdfrwt beam="1">  1        2 0.27130711E+00 0.45964063E+03</pdfrwt>
<pdfrwt beam="2">  1       -2 0.46077505E-02 0.45964063E+03</pdfrwt>
<totfact> 0.21779585E+03</totfact>
</mgrwt>
</event>
<event>
 6    1  0.1719556E-004  0.1832410E+04  0.7818608E-02  0.8689252E-01
          1   -1    0    0  501    0  0.00000000000E+00  0.00000000000E+00  0.16307674552E+04  0.16307674552E+04  0.00000000000E+00 0.  1.
         -1   -1    0    0    0  501 -0.00000000000E+00 -0.00000000000E+00 -0.51474618065E+03  0.51474618065E+03  0.00000000000E+00 0. -1.
         23    2    1    2    0    0 -0.79677466719E+03  0.43620059146E+03  0.67515679789E+03  0.11358194678E+04  0.95542322596E+02 0.  0.
         13    1    3    3    0    0 -0.14470266386E+03  0.99229679570E+02  0.90441727116E+02  0.19739578577E+03  0.00000000000E+00 0.  1.
        -13    1    3    3    0    0 -0.65207200333E+03  0.33697091189E+03  0.58471507077E+03  0.93842368202E+03  0.00000000000E+00 0. -1.
         22    1    1    2    0    0  0.79677466719E+03 -0.43620059146E+03  0.44086447669E+03  0.10096941681E+04  0.00000000000E+00 0.  1.
<mgrwt>
<rscale>  0 0.18324097E+04</rscale>
<asrwt>0</asrwt>
<pdfrwt beam="1">  1        1 0.25088730E+00 0.18324097E+04</pdfrwt>
<pdfrwt beam="2">  1       -1 0.79191721E-01 0.18324097E+04</pdfrwt>
<totfact> 0.79720089E+00</totfact>
</mgrwt>
</event>
<event>
 6    1  0.1719556E-004  0.4854363E+04  0.7818608E-02  0.7851374E-01
          2   -1    0    0  501    0  0.00000000000E+00  0.00000000000E+00  0.21712631016E+04  0.21712631016E+04  0.00000000000E+00 0.  1.
         -2   -1    0    0    0  501 -0.00000000000E+00 -0.00000000000E+00 -0.27132635078E+04  0.27132635078E+04  0.00000000000E+00 0. -1.
         23    2    1    2    0    0 -0.23656766033E+04 -0.50859318059E+03 -0.91696107634E+02  0.24232532040E+04  0.93032787933E+02 0.  0.
         11    1    3    3    0    0 -0.18390961282E+04 -0.43239602510E+03 -0.58347094855E+02  0.18901442471E+04  0.00000000000E+00 0. -1.
        -11    1    3    3    0    0 -0.52658047511E+03 -0.76197155497E+02 -0.33349012778E+02  0.53310895690E+03  0.00000000000E+00 0.  1.
         22    1    1    2    0    0  0.23656766033E+04  0.50859318059E+03 -0.45030429853E+03  0.24612734054E+04  0.00000000000E+00 0.  1.
<mgrwt>
<rscale>  0 0.48543625E+04</rscale>
<asrwt>0</asrwt>
<pdfrwt beam="1">  1        2 0.33404048E+00 0.48543625E+04</pdfrwt>
<pdfrwt beam="2">  1       -2 0.41742515E+00 0.48543625E+04</pdfrwt>
<totfact> 0.22528684E-02</totfact>
</mgrwt>
</event>
<event>
 6    1  0.1719556E-004  0.2291792E+04  0.7818608E-02  0.8481164E-01
         -2   -1    0    0    0  501 -0.00000000000E+00  0.00000000000E+00  0.13699970507E+04  0.13699970507E+04  0.00000000000E+00 0. -1.
          2   -1    0    0  501    0  0.00000000000E+00 -0.00000000000E+00 -0.95845279039E+03  0.95845279039E+03  0.00000000000E+00 0.  1.
         23    2    1    2    0    0 -0.10432871348E+04  0.45073472881E+03  0.33966890212E+03  0.11896891514E+04  0.91517607116E+02 0.  0.
         13    1    3    3    0    0 -0.46764896971E+03  0.15321961693E+03  0.15369297485E+03  0.51555149152E+03  0.00000000000E+00 0.  1.
        -13    1    3    3    0    0 -0.57563816509E+03  0.29751511188E+03  0.18597592726E+03  0.67413765985E+03  0.00000000000E+00 0. -1.
         22    1    1    2    0    0  0.10432871348E+04 -0.45073472881E+03  0.71875358219E+02  0.11387606898E+04  0.00000000000E+00 0.  1.
<mgrwt>
<rscale>  0 0.22917919E+04</rscale>
<asrwt>0</asrwt>
<pdfrwt beam="1">  1        2 0.14745428E+00 0.22917919E+04</pdfrwt>
<pdfrwt beam="2">  1       -2 0.21076878E+00 0.22917919E+04</pdfrwt>
<totfact> 0.27522900E+00</totfact>
</mgrwt>
</event>
<event>
 6    1  0.1719556E-004  0.3405974E+04  0.7818608E-02  0.8136442E-01
          2   -1    0    0  501    0  0.00000000000E+00  0.00000000000E+00  0.14353350447E+04  0.14353350447E+04  0.00000000000E+00 0.  1.
         -2   -1    0    0    0  501 -0.00000000000E+00 -0.00000000000E+00 -0.20205486222E+04  0.20205486222E+04  0.00000000000E+00 0. -1.
         23    2    1    2    0    0  0.15379824778E+04 -0.44008625388E+03  0.29619455231E+03  0.16294263572E+04  0.90736033887E+02 0.  0.
         13    1    3    3    0    0  0.60292618900E+03 -0.20807552986E+03  0.14687406016E+03  0.65451310534E+03  0.00000000000E+00 0. -1.
        -13    1    3    3    0    0  0.93505628881E+03 -0.23201072403E+03  0.14932049215E+03  0.97491325188E+03  0.00000000000E+00 0.  1.
         22    1    1    2    0    0 -0.15379824778E+04  0.44008625388E+03 -0.88140812985E+03  0.18264573097E+04  0.00000000000E+00 0.  1.
<mgrwt>
<rscale>  0 0.34059737E+04</rscale>
<asrwt>0</asrwt>
<pdfrwt beam="1">  1        2 0.22082078E+00 0.34059737E+04</pdfrwt>
<pdfrwt beam="2">  1       -2 0.31085363E+00 0.34059737E+04</pdfrwt>
<totfact> 0.31178385E-01</totfact>
</mgrwt>
</event>
<event>
 6    1  0.1719556E-004  0.7964413E+03  0.7818608E-02  0.9565182E-01
          2   -1    0    0  501    0  0.00000000000E+00  0.00000000000E+00  0.36066302320E+04  0.36066302320E+04  0.00000000000E+00 0.  1.
         -2   -1    0    0    0  501 -0.00000000000E+00 -0.00000000000E+00 -0.43968935820E+02  0.43968935820E+02  0.00000000000E+00 0. -1.
         23    2    1    2    0    0 -0.21702651542E+03 -0.24858818006E+03  0.27797138546E+04  0.28009502474E+04  0.98064179988E+02 0.  0.
         11    1    3    3    0    0 -0.30934575519E+02 -0.63539946189E+01  0.48008395192E+03  0.48112152529E+03  0.00000000000E+00 0.  1.
        -11    1    3    3    0    0 -0.18609193990E+03 -0.24223418545E+03  0.22996299027E+04  0.23198287221E+04  0.00000000000E+00 0. -1.
         22    1    1    2    0    0  0.21702651542E+03  0.24858818006E+03  0.78294744158E+03  0.84964892040E+03  0.00000000000E+00 0. -1.
<mgrwt>
<rscale>  0 0.79644132E+03</rscale>
<asrwt>0</asrwt>
<pdfrwt beam="1">  1        2 0.55486596E+00 0.79644132E+03</pdfrwt>
<pdfrwt beam="2">  1       -2 0.67644545E-02 0.79644132E+03</pdfrwt>
<totfact> 0.94271341E+01</totfact>
</mgrwt>
</event>
<event>
 6    1  0.1719556E-004  0.3104583E+04  0.7818608E-02  0.8214481E-01
         -1   -1    0    0    0  501 -0.00000000000E+00  0.00000000000E+00  0.87364108932E+03  0.87364108932E+03  0.00000000000E+00 0.  1.
          1   -1    0    0  501    0  0.00000000000E+00 -0.00000000000E+00 -0.27581224629E+04  0.27581224629E+04  0.00000000000E+00 0. -1.
         23    2    1    2    0    0  0.45688016532E+03 -0.50434078801E+03  0.68743640614E+03  0.97133873999E+03  0.88493047141E+02 0.  0.
         13    1    3    3    0    0  0.16353861340E+03 -0.12796019364E+03  0.23752160666E+03  0.31549200126E+03  0.00000000000E+00 0. -1.
        -13    1    3    3    0    0  0.29334155192E+03 -0.37638059437E+03  0.44991479948E+03  0.65584673873E+03  0.00000000000E+00 0.  1.
         22    1    1    2    0    0 -0.45688016532E+03  0.50434078801E+03 -0.25719177797E+04  0.26604248122E+04  0.00000000000E+00 0. -1.
<mgrwt>
<rscale>  0 0.31045831E+04</rscale>
<asrwt>0</asrwt>
<pdfrwt beam="1">  1        1 0.42432653E+00 0.31045831E+04</pdfrwt>
<pdfrwt beam="2">  1       -1 0.13440632E+00 0.31045831E+04</pdfrwt>
<totfact> 0.35055866E-01</totfact>
</mgrwt>
</event>
<event>
 6    1  0.1719556E-004  0.1282994E+04  0.7818608E-02  0.9043161E-01
          2   -1    0    0  501    0  0.00000000000E+00  0.00000000000E+00  0.19419653488E+04  0.19419653488E+04  0.00000000000E+00 0.  1.
         -2   -1    0    0    0  501 -0.00000000000E+00 -0.00000000000E+00 -0.21190832335E+03  0.21190832335E+03  0.00000000000E+00 0. -1.
         23    2    1    2    0    0  0.55837345936E+03 -0.29297319833E+03  0.69972732038E+03  0.94590284626E+03  0.86600557882E+02 0.  0.
         13    1    3    3    0    0  0.16026336820E+03 -0.78147077386E+02  0.25813429772E+03  0.31372699685E+03  0.00000000000E+00 0. -1.
        -13    1    3    3    0    0  0.39811009116E+03 -0.21482612095E+03  0.44159302266E+03  0.63217584942E+03  0.00000000000E+00 0.  1.
         22    1    1    2    0    0 -0.55837345936E+03  0.29297319833E+03  0.10303297051E+04  0.12079708259E+04  0.00000000000E+00 0.  1.
<mgrwt>
<rscale>  0 0.12829943E+04</rscale>
<asrwt>0</asrwt>
<pdfrwt beam="1">  1        2 0.29876389E+00 0.12829943E+04</pdfrwt>
<pdfrwt beam="2">  1       -2 0.32601282E-01 0.12829943E+04</pdfrwt>
<totfact> 0.61975384E+01</totfact>
</mgrwt>
</event>
<event>
 6    1  0.1719556E-004  0.1819247E+04  0.7818608E-02  0.8696131E-01
          2   -1    0    0  501    0  0.00000000000E+00  0.00000000000E+00  0.62655873466E+03  0.62655873466E+03  0.00000000000E+00 0.  1.
         -2   -1    0    0    0  501 -0.00000000000E+00 -0.00000000000E+00 -0.13205703755E+04  0.13205703755E+04  0.00000000000E+00 0. -1.
         23    2    1    2    0    0 -0.84864915015E+03  0.11046213848E+03 -0.66941934001E+03  0.10909678839E+04  0.98394139812E+02 0.  0.
         13    1    3    3    0    0 -0.28658280212E+03 -0.53011960224E+01 -0.24737572645E+03  0.37861927472E+03  0.00000000000E+00 0. -1.
        -13    1    3    3    0    0 -0.56206634803E+03  0.11576333450E+03 -0.42204361355E+03  0.71234860914E+03  0.00000000000E+00 0.  1.
         22    1    1    2    0    0  0.84864915015E+03 -0.11046213848E+03 -0.24592300798E+02  0.85616122626E+03  0.00000000000E+00 0. -1.
<mgrwt>
<rscale>  0 0.18192470E+04</rscale>
<asrwt>0</asrwt>
<pdfrwt beam="1">  1        2 0.96393652E-01 0.18192470E+04</pdfrwt>
<pdfrwt beam="2">  1       -2 0.20316467E+00 0.18192470E+04</pdfrwt>
<totfact> 0.56187205E+00</totfact>
</mgrwt>
</event>
<event>
 6    1  0.1719556E-004  0.2152778E+04  0.7818608E-02  0.8538344E-01
          1   -1    0    0  501    0  0.00000000000E+00  0.00000000000E+00  0.14136757063E+04  0.14136757063E+04  0.00000000000E+00 0. -1.
         -1   -1    0    0    0  501 -0.00000000000E+00 -0.00000000000E+00 -0.81957526969E+03  0.81957526969E+03  0.00000000000E+00 0.  1.
         23    2    1    2    0    0  0.67704346516E+03  0.39841714301E+03 -0.46357423043E+03  0.91575343334E+03  0.81112329494E+02 0.  0.
         13    1    3    3    0    0  0.40129480888E+03  0.19920048574E+03 -0.29177470597E+03  0.53465019985E+03  0.00000000000E+00 0.  1.
        -13    1    3    3    0    0  0.27574865628E+03  0.19921665727E+03 -0.17179952446E+03  0.38110323349E+03  0.00000000000E+00 0. -1.
         22    1    1    2    0    0 -0.67704346516E+03 -0.39841714301E+03  0.10576746670E+04  0.13174975426E+04  0.00000000000E+00 0. -1.
<mgrwt>
<rscale>  0 0.21527783E+04</rscale>
<asrwt>0</asrwt>
<pdfrwt beam="1">  1        1 0.21748857E+00 0.21527783E+04</pdfrwt>
<pdfrwt beam="2">  1       -1 0.12608850E+00 0.21527783E+04</pdfrwt>
<totfact> 0.37677042E+00</totfact>
</mgrwt>
</event>
<event>
 6    1  0.3986143E-004  0.2329627E+04  0.7818608E-02  0.8466330E-01
         -2   -1    0    0    0  501 -0.00000000000E+00  0.00000000000E+00  0.16657338949E+04  0.16657338949E+04  0.00000000000E+00 0. -1.
          2   -1    0    0  501    0  0.00000000000E+00 -0.00000000000E+00 -0.81453043995E+03  0.81453043995E+03  0.00000000000E+00 0.  1.
         23    2    1    2    0    0 -0.36051055587E+03 -0.10631430754E+04  0.75222117118E+03  0.13533044633E+04  0.73179372206E+02 0.  0.
         11    1    3    3    0    0 -0.16328917321E+03 -0.58873174241E+03  0.39416973395E+03  0.72707509775E+03  0.00000000000E+00 0. -1.
        -11    1    3    3    0    0 -0.19722138266E+03 -0.47441133295E+03  0.35805143722E+03  0.62622936557E+03  0.00000000000E+00 0.  1.
         22    1    1    2    0    0  0.36051055587E+03  0.10631430754E+04  0.98982283790E+02  0.11269598715E+04  0.00000000000E+00 0.  1.
<mgrwt>
<rscale>  0 0.23296274E+04</rscale>
<asrwt>0</asrwt>
<pdfrwt beam="1">  1        2 0.12531238E+00 0.23296274E+04</pdfrwt>
<pdfrwt beam="2">  1       -2 0.25626675E+00 0.23296274E+04</pdfrwt>
<totfact> 0.17883256E+00</totfact>
</mgrwt>
</event>
<event>
 6    1  0.1719556E-004  0.2485480E+04  0.7818608E-02  0.8408176E-01
          1   -1    0    0  501    0  0.00000000000E+00  0.00000000000E+00  0.14894848376E+04  0.14894848376E+04  0.00000000000E+00 0. -1.
         -1   -1    0    0    0  501 -0.00000000000E+00 -0.00000000000E+00 -0.10368707730E+04  0.10368707730E+04  0.00000000000E+00 0.  1.
         23    2    1    2    0    0  0.57873085375E+02 -0.85100541471E+03 -0.68971782271E+03  0.11007043031E+04  0.90993285024E+02 0.  0.
         11    1    3    3    0    0 -0.23580092491E+02 -0.20384087714E+03 -0.15197038461E+03  0.25534706138E+03  0.00000000000E+00 0. -1.
        -11    1    3    3    0    0  0.81453177866E+02 -0.64716453757E+03 -0.53774743810E+03  0.84535724168E+03  0.00000000000E+00 0.  1.
         22    1    1    2    0    0 -0.57873085375E+02  0.85100541471E+03  0.11423318874E+04  0.14256513076E+04  0.00000000000E+00 0. -1.
<mgrwt>
<rscale>  0 0.24854805E+04</rscale>
<asrwt>0</asrwt>
<pdfrwt beam="1">  1        1 0.22915151E+00 0.24854805E+04</pdfrwt>
<pdfrwt beam="2">  1       -1 0.15951858E+00 0.24854805E+04</pdfrwt>
<totfact> 0.17440596E+00</totfact>
</mgrwt>
</event>
<event>
 6    1  0.1719556E-004  0.1145278E+04  0.7818608E-02  0.9162151E-01
         -2   -1    0    0    0  501 -0.00000000000E+00  0.00000000000E+00  0.11626770418E+03  0.11626770418E+03  0.00000000000E+00 0. -1.
          2   -1    0    0  501    0  0.00000000000E+00 -0.00000000000E+00 -0.28203467309E+04  0.28203467309E+04  0.00000000000E+00 0.  1.
         23    2    1    2    0    0 -0.51033791287E+03  0.90245847830E+02 -0.75902296449E+03  0.92369809714E+03  0.92267088754E+02 0.  0.
         11    1    3    3    0    0 -0.23573440611E+03  0.19522512076E+02 -0.27506605073E+03  0.36278529597E+03  0.00000000000E+00 0. -1.
        -11    1    3    3    0    0 -0.27460350675E+03  0.70723335753E+02 -0.48395691376E+03  0.56091280117E+03  0.00000000000E+00 0.  1.
         22    1    1    2    0    0  0.51033791287E+03 -0.90245847830E+02 -0.19450560622E+04  0.20129163379E+04  0.00000000000E+00 0.  1.
<mgrwt>
<rscale>  0 0.11452777E+04</rscale>
<asrwt>0</asrwt>
<pdfrwt beam="1">  1        2 0.43389947E+00 0.11452777E+04</pdfrwt>
<pdfrwt beam="2">  1       -2 0.17887340E-01 0.11452777E+04</pdfrwt>
<totfact> 0.58565757E+01</totfact>
</mgrwt>
</event>
<event>
 6    1  0.1719556E-004  0.1106220E+04  0.7818608E-02  0.9199150E-01
          2   -1    0    0  501    0  0.00000000000E+00  0.00000000000E+00  0.51033008803E+03  0.51033008803E+03  0.00000000000E+00 0.  1.
         -2   -1    0    0    0  501 -0.00000000000E+00 -0.00000000000E+00 -0.59947634609E+03  0.59947634609E+03  0.00000000000E+00 0. -1.
         23    2    1    2    0    0 -0.28670473321E+03  0.14193357810E+03  0.40145021050E+03  0.52411911174E+03  0.10580088444E+03 0.  0.
         11    1    3    3    0    0 -0.14334954535E+02  0.49214610645E+01  0.78641239806E+02  0.80088427996E+02  0.00000000000E+00 0.  1.
        -11    1    3    3    0    0 -0.27236977867E+03  0.13701211703E+03  0.32280897070E+03  0.44403068375E+03  0.00000000000E+00 0. -1.
         22    1    1    2    0    0  0.28670473321E+03 -0.14193357810E+03 -0.49059646856E+03  0.58568732238E+03  0.00000000000E+00 0. -1.
<mgrwt>
<rscale>  0 0.11062203E+04</rscale>
<asrwt>0</asrwt>
<pdfrwt beam="1">  1        2 0.78512321E-01 0.11062203E+04</pdfrwt>
<pdfrwt beam="2">  1       -2 0.92227130E-01 0.11062203E+04</pdfrwt>
<totfact> 0.59621177E+01</totfact>
</mgrwt>
</event>
<event>
 6    1  0.1719556E-004  0.5782360E+04  0.7818608E-02  0.7717988E-01
         -1   -1    0    0    0  501 -0.00000000000E+00  0.00000000000E+00  0.23231348310E+04  0.23231348310E+04  0.00000000000E+00 0.  1.
          1   -1    0    0  501    0  0.00000000000E+00 -0.00000000000E+00 -0.35981216407E+04  0.35981216407E+04  0.00000000000E+00 0. -1.
         23    2    1    2    0    0  0.82131479071E+03  0.26751535517E+04 -0.13788774255E+04  0.31209354596E+04  0.89054349797E+02 0.  0.
         13    1    3    3    0    0  0.78195254904E+03  0.24711350737E+04 -0.12687144027E+04  0.28857571930E+04  0.00000000000E+00 0. -1.
        -13    1    3    3    0    0  0.39362241671E+02  0.20401847801E+03 -0.11016302289E+03  0.23517826653E+03  0.00000000000E+00 0.  1.
         22    1    1    2    0    0 -0.82131479071E+03 -0.26751535517E+04  0.10389061591E+03  0.28003210121E+04  0.00000000000E+00 0.  1.
<mgrwt>
<rscale>  0 0.57823600E+04</rscale>
<asrwt>0</asrwt>
<pdfrwt beam="1">  1        1 0.55355718E+00 0.57823600E+04</pdfrwt>
<pdfrwt beam="2">  1       -1 0.35740536E+00 0.57823600E+04</pdfrwt>
<totfact> 0.19641503E-03</totfact>
</mgrwt>
</event>
<event>
 6    1  0.1719556E-004  0.3148831E+04  0.7818608E-02  0.8202463E-01
         -1   -1    0    0    0  501 -0.00000000000E+00  0.00000000000E+00  0.16912037232E+04  0.16912037232E+04  0.00000000000E+00 0. -1.
          1   -1    0    0  501    0  0.00000000000E+00 -0.00000000000E+00 -0.14656926592E+04  0.14656926592E+04  0.00000000000E+00 0.  1.
         23    2    1    2    0    0 -0.64541019160E+03 -0.14289272325E+04 -0.14805603059E+02  0.15706620203E+04  0.91502047825E+02 0.  0.
         13    1    3    3    0    0 -0.22628511846E+03 -0.60332613542E+03 -0.21927259686E+02  0.64473885041E+03  0.00000000000E+00 0.  1.
        -13    1    3    3    0    0 -0.41912507314E+03 -0.82560109710E+03  0.71216566270E+01  0.92592316985E+03  0.00000000000E+00 0. -1.
         22    1    1    2    0    0  0.64541019160E+03  0.14289272325E+04  0.24031666699E+03  0.15862343622E+04  0.00000000000E+00 0.  1.
<mgrwt>
<rscale>  0 0.31488315E+04</rscale>
<asrwt>0</asrwt>
<pdfrwt beam="1">  1        1 0.22549118E+00 0.31488315E+04</pdfrwt>
<pdfrwt beam="2">  1       -1 0.26018519E+00 0.31488315E+04</pdfrwt>
<totfact> 0.34748264E-01</totfact>
</mgrwt>
</event>
<event>
 6    1  0.1719556E-004  0.2183599E+04  0.7818608E-02  0.8525286E-01
          2   -1    0    0  501    0  0.00000000000E+00  0.00000000000E+00  0.22908784367E+04  0.22908784367E+04  0.00000000000E+00 0.  1.
         -2   -1    0    0    0  501 -0.00000000000E+00 -0.00000000000E+00 -0.52033573121E+03  0.52033573121E+03  0.00000000000E+00 0. -1.
         23    2    1    2    0    0  0.38571661276E+03 -0.20168477810E+03 -0.39961446110E+03  0.59783752061E+03  0.90906151898E+02 0.  0.
         11    1    3    3    0    0  0.32832560026E+03 -0.13164934370E+03 -0.32782867305E+03  0.48228714306E+03  0.00000000000E+00 0.  1.
        -11    1    3    3    0    0  0.57391012497E+02 -0.70035434394E+02 -0.71785788052E+02  0.11555037755E+03  0.00000000000E+00 0. -1.
         22    1    1    2    0    0 -0.38571661276E+03  0.20168477810E+03  0.21701571666E+04  0.22133766473E+04  0.00000000000E+00 0.  1.
<mgrwt>
<rscale>  0 0.21835988E+04</rscale>
<asrwt>0</asrwt>
<pdfrwt beam="1">  1        2 0.35244283E+00 0.21835988E+04</pdfrwt>
<pdfrwt beam="2">  1       -2 0.80051652E-01 0.21835988E+04</pdfrwt>
<totfact> 0.57957543E+00</totfact>
</mgrwt>
</event>
<event>
 6    1  0.1719556E-004  0.3089929E+04  0.7818608E-02  0.8218507E-01
          1   -1    0    0  501    0  0.00000000000E+00  0.00000000000E+00  0.21748566580E+04  0.21748566580E+04  0.00000000000E+00 0.  1.
         -1   -1    0    0    0  501 -0.00000000000E+00 -0.00000000000E+00 -0.10975045799E+04  0.10975045799E+04  0.00000000000E+00 0. -1.
         23    2    1    2    0    0  0.15285915374E+04  0.48852812754E+02  0.76073808974E+03  0.17105600012E+04  0.91183284052E+02 0.  0.
         11    1    3    3    0    0  0.13909532696E+04  0.18252104975E+02  0.68846857446E+03  0.15521189116E+04  0.00000000000E+00 0. -1.
        -11    1    3    3    0    0  0.13763826772E+03  0.30600707779E+02  0.72269515281E+02  0.15844108967E+03  0.00000000000E+00 0.  1.
         22    1    1    2    0    0 -0.15285915374E+04 -0.48852812754E+02  0.31661398834E+03  0.15618012367E+04  0.00000000000E+00 0. -1.
<mgrwt>
<rscale>  0 0.30899289E+04</rscale>
<asrwt>0</asrwt>
<pdfrwt beam="1">  1        1 0.33459333E+00 0.30899289E+04</pdfrwt>
<pdfrwt beam="2">  1       -1 0.16884686E+00 0.30899289E+04</pdfrwt>
<totfact> 0.48022366E-01</totfact>
</mgrwt>
</event>
<event>
 6    1  0.1719556E-004  0.3601187E+04  0.7818608E-02  0.8090220E-01
          1   -1    0    0  501    0  0.00000000000E+00  0.00000000000E+00  0.26744196867E+04  0.26744196867E+04  0.00000000000E+00 0.  1.
         -1   -1    0    0    0  501 -0.00000000000E+00 -0.00000000000E+00 -0.12122765226E+04  0.12122765226E+04  0.00000000000E+00 0. -1.
         23    2    1    2    0    0 -0.62653583705E+02  0.11625147167E+04  0.22123540787E+04  0.25017116050E+04  0.93190380825E+02 0.  0.
         11    1    3    3    0    0 -0.44925673513E+02  0.10796392659E+04  0.20036495039E+04  0.22764557090E+04  0.00000000000E+00 0. -1.
        -11    1    3    3    0    0 -0.17727910192E+02  0.82875450775E+02  0.20870457479E+03  0.22525589599E+03  0.00000000000E+00 0.  1.
         22    1    1    2    0    0  0.62653583705E+02 -0.11625147167E+04 -0.75021091453E+03  0.13849846044E+04  0.00000000000E+00 0. -1.
<mgrwt>
<rscale>  0 0.36011866E+04</rscale>
<asrwt>0</asrwt>
<pdfrwt beam="1">  1        1 0.41144918E+00 0.36011866E+04</pdfrwt>
<pdfrwt beam="2">  1       -1 0.18650408E+00 0.36011866E+04</pdfrwt>
<totfact> 0.15473371E-01</totfact>
</mgrwt>
</event>
<event>
 6    1  0.1719556E-004  0.4268751E+04  0.7818608E-02  0.7952422E-01
          2   -1    0    0  501    0  0.00000000000E+00  0.00000000000E+00  0.25637141802E+04  0.25637141802E+04  0.00000000000E+00 0.  1.
         -2   -1    0    0    0  501 -0.00000000000E+00 -0.00000000000E+00 -0.17769371362E+04  0.17769371362E+04  0.00000000000E+00 0. -1.
         23    2    1    2    0    0 -0.89771384962E+03 -0.18321792197E+04 -0.24056634598E+03  0.20563121800E+04  0.88185974386E+02 0.  0.
         13    1    3    3    0    0 -0.36730669467E+03 -0.66156460542E+03 -0.10693716175E+03  0.76421037134E+03  0.00000000000E+00 0.  1.
        -13    1    3    3    0    0 -0.53040715494E+03 -0.11706146143E+04 -0.13362918422E+03  0.12921018087E+04  0.00000000000E+00 0. -1.
         22    1    1    2    0    0  0.89771384962E+03  0.18321792197E+04  0.10273433901E+04  0.22843391364E+04  0.00000000000E+00 0. -1.
<mgrwt>
<rscale>  0 0.42687511E+04</rscale>
<asrwt>0</asrwt>
<pdfrwt beam="1">  1        2 0.39441757E+00 0.42687511E+04</pdfrwt>
<pdfrwt beam="2">  1       -2 0.27337494E+00 0.42687511E+04</pdfrwt>
<totfact> 0.11403498E-01</totfact>
</mgrwt>
</event>
<event>
 6    1  0.1719556E-004  0.3498974E+04  0.7818608E-02  0.8114033E-01
         -2   -1    0    0    0  501 -0.00000000000E+00  0.00000000000E+00  0.11047421070E+04  0.11047421070E+04  0.00000000000E+00 0. -1.
          2   -1    0    0  501    0  0.00000000000E+00 -0.00000000000E+00 -0.27705153947E+04  0.27705153947E+04  0.00000000000E+00 0.  1.
         23    2    1    2    0    0 -0.10295520000E+03  0.21251022537E+03 -0.27520431743E+04  0.27636178859E+04  0.89898927619E+02 0.  0.
         11    1    3    3    0    0 -0.15481564115E+01  0.72922723431E+02 -0.54814865624E+03  0.55298017118E+03  0.00000000000E+00 0. -1.
        -11    1    3    3    0    0 -0.10140704359E+03  0.13958750194E+03 -0.22038945180E+04  0.22106377147E+04  0.00000000000E+00 0.  1.
         22    1    1    2    0    0  0.10295520000E+03 -0.21251022537E+03  0.10862698865E+04  0.11116396158E+04  0.00000000000E+00 0. -1.
<mgrwt>
<rscale>  0 0.34989741E+04</rscale>
<asrwt>0</asrwt>
<pdfrwt beam="1">  1        2 0.42623313E+00 0.34989741E+04</pdfrwt>
<pdfrwt beam="2">  1       -2 0.16996033E+00 0.34989741E+04</pdfrwt>
<totfact> 0.42208531E-01</totfact>
</mgrwt>
</event>
<event>
 6    1  0.1719556E-004  0.3267143E+04  0.7818608E-02  0.8171306E-01
          2   -1    0    0  501    0  0.00000000000E+00  0.00000000000E+00  0.19119006245E+04  0.19119006245E+04  0.00000000000E+00 0.  1.
         -2   -1    0    0    0  501 -0.00000000000E+00 -0.00000000000E+00 -0.13957611434E+04  0.13957611434E+04  0.00000000000E+00 0. -1.
         23    2    1    2    0    0 -0.78095018360E+03  0.94904508894E+03  0.13457348925E+04  0.18248272131E+04  0.91772472639E+02 0.  0.
         13    1    3    3    0    0 -0.36368013916E+03  0.46813445435E+03  0.58568343228E+03  0.83332958295E+03  0.00000000000E+00 0. -1.
        -13    1    3    3    0    0 -0.41727004444E+03  0.48091063459E+03  0.76005146020E+03  0.99149763016E+03  0.00000000000E+00 0.  1.
         22    1    1    2    0    0  0.78095018360E+03 -0.94904508894E+03 -0.82959541139E+03  0.14828345547E+04  0.00000000000E+00 0. -1.
<mgrwt>
<rscale>  0 0.32671435E+04</rscale>
<asrwt>0</asrwt>
<pdfrwt beam="1">  1        2 0.29413856E+00 0.32671435E+04</pdfrwt>
<pdfrwt beam="2">  1       -2 0.21473248E+00 0.32671435E+04</pdfrwt>
<totfact> 0.66876494E-01</totfact>
</mgrwt>
</event>
<event>
 6    1  0.1719556E-004  0.1887281E+04  0.7818608E-02  0.8661213E-01
         -2   -1    0    0    0  501 -0.00000000000E+00  0.00000000000E+00  0.89915688840E+03  0.89915688840E+03  0.00000000000E+00 0.  1.
          2   -1    0    0  501    0  0.00000000000E+00 -0.00000000000E+00 -0.99032516948E+03  0.99032516948E+03  0.00000000000E+00 0. -1.
         23    2    1    2    0    0 -0.26568723241E+03 -0.45481198278E+03  0.73527201718E+03  0.90945797055E+03  0.95106339417E+02 0.  0.
         11    1    3    3    0    0 -0.11208974374E+03 -0.11766937719E+03  0.26378585318E+03  0.30982764454E+03  0.00000000000E+00 0. -1.
        -11    1    3    3    0    0 -0.15359748867E+03 -0.33714260559E+03  0.47148616400E+03  0.59963032601E+03  0.00000000000E+00 0.  1.
         22    1    1    2    0    0  0.26568723241E+03  0.45481198278E+03 -0.82644029826E+03  0.98002408733E+03  0.00000000000E+00 0. -1.
<mgrwt>
<rscale>  0 0.18872813E+04</rscale>
<asrwt>0</asrwt>
<pdfrwt beam="1">  1        2 0.15235772E+00 0.18872813E+04</pdfrwt>
<pdfrwt beam="2">  1       -2 0.13833183E+00 0.18872813E+04</pdfrwt>
<totfact> 0.88757195E+00</totfact>
</mgrwt>
</event>
<event>
 6    1  0.1719556E-004  0.1625242E+04  0.7818608E-02  0.8805189E-01
         -2   -1    0    0    0  501 -0.00000000000E+00  0.00000000000E+00  0.30549400937E+03  0.30549400937E+03  0.00000000000E+00 0. -1.
          2   -1    0    0  501    0  0.00000000000E+00 -0.00000000000E+00 -0.21615897416E+04  0.21615897416E+04  0.00000000000E+00 0.  1.
         23    2    1    2    0    0  0.75797556025E+03 -0.24370713933E+03 -0.70354092920E+03  0.10662616018E+04  0.89575915569E+02 0.  0.
         13    1    3    3    0    0  0.52001106579E+03 -0.16231398868E+03 -0.42460443041E+03  0.69068535658E+03  0.00000000000E+00 0. -1.
        -13    1    3    3    0    0  0.23796449447E+03 -0.81393150654E+02 -0.27893649879E+03  0.37557624520E+03  0.00000000000E+00 0.  1.
         22    1    1    2    0    0 -0.75797556025E+03  0.24370713933E+03 -0.11525548030E+04  0.14008221492E+04  0.00000000000E+00 0.  1.
<mgrwt>
<rscale>  0 0.16252418E+04</rscale>
<asrwt>0</asrwt>
<pdfrwt beam="1">  1        2 0.33255226E+00 0.16252418E+04</pdfrwt>
<pdfrwt beam="2">  1       -2 0.46999080E-01 0.16252418E+04</pdfrwt>
<totfact> 0.22302060E+01</totfact>
</mgrwt>
</event>
<event>
 6    1  0.1719556E-004  0.2191457E+04  0.7818608E-02  0.8521992E-01
          2   -1    0    0  501    0  0.00000000000E+00  0.00000000000E+00  0.92886690289E+03  0.92886690289E+03  0.00000000000E+00 0.  1.
         -2   -1    0    0    0  501 -0.00000000000E+00 -0.00000000000E+00 -0.12925647598E+04  0.12925647598E+04  0.00000000000E+00 0. -1.
         23    2    1    2    0    0 -0.95631285017E+02 -0.68976159652E+03 -0.10372189489E+04  0.12526452755E+04  0.91545810619E+02 0.  0.
         11    1    3    3    0    0 -0.56787194320E+02 -0.25567876385E+03 -0.32152187762E+03  0.41469595309E+03  0.00000000000E+00 0. -1.
        -11    1    3    3    0    0 -0.38844090697E+02 -0.43408283267E+03 -0.71569707129E+03  0.83794932236E+03  0.00000000000E+00 0.  1.
         22    1    1    2    0    0  0.95631285017E+02  0.68976159652E+03  0.67352109200E+03  0.96878638723E+03  0.00000000000E+00 0.  1.
<mgrwt>
<rscale>  0 0.21914567E+04</rscale>
<asrwt>0</asrwt>
<pdfrwt beam="1">  1        2 0.14290260E+00 0.21914567E+04</pdfrwt>
<pdfrwt beam="2">  1       -2 0.19885612E+00 0.21914567E+04</pdfrwt>
<totfact> 0.34697162E+00</totfact>
</mgrwt>
</event>
<event>
 6    1  0.1719556E-004  0.1038532E+04  0.7818608E-02  0.9267265E-01
          1   -1    0    0  501    0  0.00000000000E+00  0.00000000000E+00  0.20954620798E+04  0.20954620798E+04  0.00000000000E+00 0.  1.
         -1   -1    0    0    0  501 -0.00000000000E+00 -0.00000000000E+00 -0.12867667718E+03  0.12867667718E+03  0.00000000000E+00 0. -1.
         23    2    1    2    0    0 -0.26053253649E+03 -0.29644925769E+03  0.17001612871E+04  0.17478533552E+04  0.93185751730E+02 0.  0.
         13    1    3    3    0    0 -0.21047261413E+03 -0.25281396891E+03  0.12386128162E+04  0.12815519235E+04  0.00000000000E+00 0. -1.
        -13    1    3    3    0    0 -0.50059922359E+02 -0.43635288780E+02  0.46154847092E+03  0.46630143176E+03  0.00000000000E+00 0.  1.
         22    1    1    2    0    0  0.26053253649E+03  0.29644925769E+03  0.26662411560E+03  0.47628540181E+03  0.00000000000E+00 0. -1.
<mgrwt>
<rscale>  0 0.10385318E+04</rscale>
<asrwt>0</asrwt>
<pdfrwt beam="1">  1        1 0.32237876E+00 0.10385318E+04</pdfrwt>
<pdfrwt beam="2">  1       -1 0.19796413E-01 0.10385318E+04</pdfrwt>
<totfact> 0.53696373E+01</totfact>
</mgrwt>
</event>
<event>
 6    1  0.1719556E-004  0.1266773E+04  0.7818608E-02  0.9056337E-01
         -2   -1    0    0    0  501 -0.00000000000E+00  0.00000000000E+00  0.60750207733E+03  0.60750207733E+03  0.00000000000E+00 0. -1.
          2   -1    0    0  501    0  0.00000000000E+00 -0.00000000000E+00 -0.66037393380E+03  0.66037393380E+03  0.00000000000E+00 0.  1.
         23    2    1    2    0    0 -0.63184000142E+02  0.55887813574E+03 -0.31092493983E+03  0.64906393763E+03  0.90954320662E+02 0.  0.
         13    1    3    3    0    0 -0.62670970335E+02  0.47865799936E+03 -0.29931654133E+03  0.56800662213E+03  0.00000000000E+00 0.  1.
        -13    1    3    3    0    0 -0.51302980698E+00  0.80220136380E+02 -0.11608398500E+02  0.81057315501E+02  0.00000000000E+00 0. -1.
         22    1    1    2    0    0  0.63184000142E+02 -0.55887813574E+03  0.25805308336E+03  0.61881207350E+03  0.00000000000E+00 0. -1.
<mgrwt>
<rscale>  0 0.12667731E+04</rscale>
<asrwt>0</asrwt>
<pdfrwt beam="1">  1        2 0.10159599E+00 0.12667731E+04</pdfrwt>
<pdfrwt beam="2">  1       -2 0.93461858E-01 0.12667731E+04</pdfrwt>
<totfact> 0.41948589E+01</totfact>
</mgrwt>
</event>
<event>
 6    1  0.1719556E-004  0.3127360E+04  0.7818608E-02  0.8208269E-01
         -2   -1    0    0    0  501 -0.00000000000E+00  0.00000000000E+00  0.21706646754E+04  0.21706646754E+04  0.00000000000E+00 0.  1.
          2   -1    0    0  501    0  0.00000000000E+00 -0.00000000000E+00 -0.11264266661E+04  0.11264266661E+04  0.00000000000E+00 0. -1.
         23    2    1    2    0    0  0.13482728722E+04  0.70861804205E+03  0.88921227526E+03  0.17660746056E+04  0.91333316173E+02 0.  0.
         13    1    3    3    0    0  0.15060967410E+03  0.94312083946E+02  0.13489379195E+03  0.22310172168E+03  0.00000000000E+00 0.  1.
        -13    1    3    3    0    0  0.11976631981E+04  0.61430595810E+03  0.75431848331E+03  0.15429728839E+04  0.00000000000E+00 0. -1.
         22    1    1    2    0    0 -0.13482728722E+04 -0.70861804205E+03  0.15502573401E+03  0.15310167359E+04  0.00000000000E+00 0.  1.
<mgrwt>
<rscale>  0 0.31273596E+04</rscale>
<asrwt>0</asrwt>
<pdfrwt beam="1">  1        2 0.17329641E+00 0.31273596E+04</pdfrwt>
<pdfrwt beam="2">  1       -2 0.33394841E+00 0.31273596E+04</pdfrwt>
<totfact> 0.34863465E-01</totfact>
</mgrwt>
</event>
<event>
 6    1  0.1719556E-004  0.1425185E+04  0.7818608E-02  0.8935787E-01
          2   -1    0    0  501    0  0.00000000000E+00  0.00000000000E+00  0.75777854909E+03  0.75777854909E+03  0.00000000000E+00 0.  1.
         -2   -1    0    0    0  501 -0.00000000000E+00 -0.00000000000E+00 -0.67010088498E+03  0.67010088498E+03  0.00000000000E+00 0. -1.
         23    2    1    2    0    0 -0.18012412042E+03 -0.62601604994E+02  0.72883081732E+03  0.75896910708E+03  0.92065658733E+02 0.  0.
         11    1    3    3    0    0 -0.72978586172E+02 -0.49560146036E+01  0.14282805072E+03  0.16046896334E+03  0.00000000000E+00 0. -1.
        -11    1    3    3    0    0 -0.10714553424E+03 -0.57645590390E+02  0.58600276659E+03  0.59850014374E+03  0.00000000000E+00 0.  1.
         22    1    1    2    0    0  0.18012412042E+03  0.62601604994E+02 -0.64115315320E+03  0.66891032700E+03  0.00000000000E+00 0. -1.
<mgrwt>
<rscale>  0 0.14251850E+04</rscale>
<asrwt>0</asrwt>
<pdfrwt beam="1">  1        2 0.11658132E+00 0.14251850E+04</pdfrwt>
<pdfrwt beam="2">  1       -2 0.10309244E+00 0.14251850E+04</pdfrwt>
<totfact> 0.27616431E+01</totfact>
</mgrwt>
</event>
<event>
 6    1  0.3816038E-004  0.3300233E+04  0.7818608E-02  0.8162836E-01
          2   -1    0    0  501    0  0.00000000000E+00  0.00000000000E+00  0.21398241697E+04  0.21398241697E+04  0.00000000000E+00 0.  1.
         -2   -1    0    0    0  501 -0.00000000000E+00 -0.00000000000E+00 -0.12724802990E+04  0.12724802990E+04  0.00000000000E+00 0. -1.
         23    2    1    2    0    0 -0.10632511032E+03  0.27327207989E+03  0.21116867119E+04  0.21338789662E+04  0.90752491183E+02 0.  0.
         13    1    3    3    0    0 -0.91897547780E+01  0.63456079644E+02  0.74680019018E+03  0.74954763004E+03  0.00000000000E+00 0.  1.
        -13    1    3    3    0    0 -0.97135355545E+02  0.20981600025E+03  0.13648865217E+04  0.13843313362E+04  0.00000000000E+00 0. -1.
         22    1    1    2    0    0  0.10632511032E+03 -0.27327207989E+03 -0.12443428412E+04  0.12784255024E+04  0.00000000000E+00 0. -1.
<mgrwt>
<rscale>  0 0.33002328E+04</rscale>
<asrwt>0</asrwt>
<pdfrwt beam="1">  1        2 0.32920372E+00 0.33002328E+04</pdfrwt>
<pdfrwt beam="2">  1       -2 0.19576620E+00 0.33002328E+04</pdfrwt>
<totfact> 0.66129155E-01</totfact>
</mgrwt>
</event>
<event>
 6    1  0.1719556E-004  0.3668242E+04  0.7818608E-02  0.8075036E-01
         -2   -1    0    0    0  501 -0.00000000000E+00  0.00000000000E+00  0.17916043594E+04  0.17916043594E+04  0.00000000000E+00 0. -1.
          2   -1    0    0  501    0  0.00000000000E+00 -0.00000000000E+00 -0.18776466579E+04  0.18776466579E+04  0.00000000000E+00 0.  1.
         23    2    1    2    0    0 -0.11547285562E+04 -0.96353368236E+03 -0.10911816096E+04  0.18603562635E+04  0.91939797141E+02 0.  0.
         11    1    3    3    0    0 -0.11500082922E+03 -0.10560904037E+03 -0.81277481196E+02  0.17602411505E+03  0.00000000000E+00 0.  1.
        -11    1    3    3    0    0 -0.10397277270E+04 -0.85792464199E+03 -0.10099041284E+04  0.16843321484E+04  0.00000000000E+00 0. -1.
         22    1    1    2    0    0  0.11547285562E+04  0.96353368236E+03  0.10051393111E+04  0.18088947538E+04  0.00000000000E+00 0. -1.
<mgrwt>
<rscale>  0 0.36682421E+04</rscale>
<asrwt>0</asrwt>
<pdfrwt beam="1">  1        2 0.28886872E+00 0.36682421E+04</pdfrwt>
<pdfrwt beam="2">  1       -2 0.27563144E+00 0.36682421E+04</pdfrwt>
<totfact> 0.28358355E-01</totfact>
</mgrwt>
</event>
<event>
 6    1  0.1719556E-004  0.3262753E+04  0.7818608E-02  0.8172438E-01
          2   -1    0    0  501    0  0.00000000000E+00  0.00000000000E+00  0.29834222298E+04  0.29834222298E+04  0.00000000000E+00 0.  1.
         -2   -1    0    0    0  501 -0.00000000000E+00 -0.00000000000E+00 -0.89205920499E+03  0.89205920499E+03  0.00000000000E+00 0. -1.
         23    2    1    2    0    0  0.32188227220E+03 -0.96661337642E+03 -0.46499910865E+03  0.11235844574E+04  0.90929892292E+02 0.  0.
         13    1    3    3    0    0  0.24788279872E+03 -0.63904054531E+03 -0.28244011452E+03  0.74134412977E+03  0.00000000000E+00 0.  1.
        -13    1    3    3    0    0  0.73999473479E+02 -0.32757283111E+03 -0.18255899413E+03  0.38224032767E+03  0.00000000000E+00 0. -1.
         22    1    1    2    0    0 -0.32188227220E+03  0.96661337642E+03  0.25563621335E+04  0.27518969774E+04  0.00000000000E+00 0.  1.
<mgrwt>
<rscale>  0 0.32627530E+04</rscale>
<asrwt>0</asrwt>
<pdfrwt beam="1">  1        2 0.45898803E+00 0.32627530E+04</pdfrwt>
<pdfrwt beam="2">  1       -2 0.13723988E+00 0.32627530E+04</pdfrwt>
<totfact> 0.56460182E-01</totfact>
</mgrwt>
</event>
<event>
 6    1  0.1719556E-004  0.3492676E+04  0.7818608E-02  0.8115528E-01
         -2   -1    0    0    0  501 -0.00000000000E+00  0.00000000000E+00  0.13509334996E+04  0.13509334996E+04  0.00000000000E+00 0. -1.
          2   -1    0    0  501    0  0.00000000000E+00 -0.00000000000E+00 -0.22574729798E+04  0.22574729798E+04  0.00000000000E+00 0.  1.
         23    2    1    2    0    0 -0.14082361860E+03 -0.17294980966E+04 -0.26138282937E+03  0.17571306863E+04  0.90511366234E+02 0.  0.
         13    1    3    3    0    0 -0.28354048411E+02 -0.76645539096E+03 -0.14525682588E+03  0.78061345354E+03  0.00000000000E+00 0. -1.
        -13    1    3    3    0    0 -0.11246957019E+03 -0.96304270568E+03 -0.11612600349E+03  0.97651723275E+03  0.00000000000E+00 0.  1.
         22    1    1    2    0    0  0.14082361860E+03  0.17294980966E+04 -0.64515665083E+03  0.18512757930E+04  0.00000000000E+00 0.  1.
<mgrwt>
<rscale>  0 0.34926757E+04</rscale>
<asrwt>0</asrwt>
<pdfrwt beam="1">  1        2 0.34730354E+00 0.34926757E+04</pdfrwt>
<pdfrwt beam="2">  1       -2 0.20783592E+00 0.34926757E+04</pdfrwt>
<totfact> 0.46593188E-01</totfact>
</mgrwt>
</event>
<event>
 6    1  0.1719556E-004  0.1510996E+04  0.7818608E-02  0.8877173E-01
         -2   -1    0    0    0  501 -0.00000000000E+00  0.00000000000E+00  0.43623780506E+03  0.43623780506E+03  0.00000000000E+00 0. -1.
          2   -1    0    0  501    0  0.00000000000E+00 -0.00000000000E+00 -0.13084089145E+04  0.13084089145E+04  0.00000000000E+00 0.  1.
         23    2    1    2    0    0  0.37371920040E+03 -0.53659205629E+02 -0.11903697986E+04  0.12508899405E+04  0.72111265450E+02 0.  0.
         13    1    3    3    0    0  0.23118408334E+03 -0.52321175215E+02 -0.64411298947E+03  0.68634184556E+03  0.00000000000E+00 0. -1.
        -13    1    3    3    0    0  0.14253511706E+03 -0.13380304134E+01 -0.54625680914E+03  0.56454809489E+03  0.00000000000E+00 0.  1.
         22    1    1    2    0    0 -0.37371920040E+03  0.53659205629E+02  0.31819868919E+03  0.49375677909E+03  0.00000000000E+00 0. -1.
<mgrwt>
<rscale>  0 0.15109963E+04</rscale>
<asrwt>0</asrwt>
<pdfrwt beam="1">  1        2 0.20129367E+00 0.15109963E+04</pdfrwt>
<pdfrwt beam="2">  1       -2 0.67113510E-01 0.15109963E+04</pdfrwt>
<totfact> 0.32149912E+01</totfact>
</mgrwt>
</event>
<event>
 6    1  0.1719556E-004  0.1046388E+04  0.7818608E-02  0.9259082E-01
         -2   -1    0    0    0  501 -0.00000000000E+00  0.00000000000E+00  0.17014494142E+03  0.17014494142E+03  0.00000000000E+00 0. -1.
          2   -1    0    0  501    0  0.00000000000E+00 -0.00000000000E+00 -0.16088151939E+04  0.16088151939E+04  0.00000000000E+00 0.  1.
         23    2    1    2    0    0 -0.32045226298E+03 -0.20884941290E+03 -0.13215500428E+04  0.13789290445E+04  0.92968080606E+02 0.  0.
         11    1    3    3    0    0 -0.24783889431E+03 -0.18286136297E+03 -0.92441007326E+03  0.97436973431E+03  0.00000000000E+00 0. -1.
        -11    1    3    3    0    0 -0.72613368668E+02 -0.25988049929E+02 -0.39713996957E+03  0.40455931021E+03  0.00000000000E+00 0.  1.
         22    1    1    2    0    0  0.32045226298E+03  0.20884941290E+03 -0.11712020968E+03  0.40003109083E+03  0.00000000000E+00 0. -1.
<mgrwt>
<rscale>  0 0.10463876E+04</rscale>
<asrwt>0</asrwt>
<pdfrwt beam="1">  1        2 0.24751003E+00 0.10463876E+04</pdfrwt>
<pdfrwt beam="2">  1       -2 0.26176145E-01 0.10463876E+04</pdfrwt>
<totfact> 0.14481760E+02</totfact>
</mgrwt>
</event>
<event>
 6    1  0.1719556E-004  0.9996521E+03  0.7818608E-02  0.9308926E-01
          2   -1    0    0  501    0  0.00000000000E+00  0.00000000000E+00  0.29863987630E+04  0.29863987630E+04  0.00000000000E+00 0.  1.
         -2   -1    0    0    0  501 -0.00000000000E+00 -0.00000000000E+00 -0.83654624162E+02  0.83654624162E+02  0.00000000000E+00 0. -1.
         23    2    1    2    0    0  0.48883653214E+03  0.66910733714E+02  0.16110934251E+04  0.16873749112E+04  0.90409431376E+02 0.  0.
         11    1    3    3    0    0  0.13673899105E+03 -0.66148299771E+01  0.34468241721E+03  0.37087366634E+03  0.00000000000E+00 0. -1.
        -11    1    3    3    0    0  0.35209754109E+03  0.73525563691E+02  0.12664110079E+04  0.13165012449E+04  0.00000000000E+00 0.  1.
         22    1    1    2    0    0 -0.48883653214E+03 -0.66910733714E+02  0.12916507137E+04  0.13826784759E+04  0.00000000000E+00 0. -1.
<mgrwt>
<rscale>  0 0.99965207E+03</rscale>
<asrwt>0</asrwt>
<pdfrwt beam="1">  1        2 0.45944588E+00 0.99965207E+03</pdfrwt>
<pdfrwt beam="2">  1       -2 0.12869944E-01 0.99965207E+03</pdfrwt>
<totfact> 0.82477045E+01</totfact>
</mgrwt>
</event>
<event>
 6    1  0.1719556E-004  0.2276232E+04  0.7818608E-02  0.8487352E-01
          2   -1    0    0  501    0  0.00000000000E+00  0.00000000000E+00  0.14221846944E+04  0.14221846944E+04  0.00000000000E+00 0.  1.
         -2   -1    0    0    0  501 -0.00000000000E+00 -0.00000000000E+00 -0.91078773237E+03  0.91078773237E+03  0.00000000000E+00 0. -1.
         23    2    1    2    0    0 -0.26084732454E+02  0.97436487057E+03 -0.34205890305E+03  0.10374207189E+04  0.95760850471E+02 0.  0.
         13    1    3    3    0    0 -0.21567454765E+02  0.32841633654E+03 -0.69903797598E+02  0.33646543081E+03  0.00000000000E+00 0. -1.
        -13    1    3    3    0    0 -0.45172776887E+01  0.64594853403E+03 -0.27215510545E+03  0.70095528805E+03  0.00000000000E+00 0.  1.
         22    1    1    2    0    0  0.26084732454E+02 -0.97436487057E+03  0.85345586510E+03  0.12955517079E+04  0.00000000000E+00 0.  1.
<mgrwt>
<rscale>  0 0.22762323E+04</rscale>
<asrwt>0</asrwt>
<pdfrwt beam="1">  1        2 0.21879765E+00 0.22762323E+04</pdfrwt>
<pdfrwt beam="2">  1       -2 0.14012119E+00 0.22762323E+04</pdfrwt>
<totfact> 0.45755956E+00</totfact>
</mgrwt>
</event>
<event>
 6    1  0.1719556E-004  0.5904400E+03  0.7818608E-02  0.9925441E-01
          2   -1    0    0  501    0  0.00000000000E+00  0.00000000000E+00  0.42763865683E+03  0.42763865683E+03  0.00000000000E+00 0.  1.
         -2   -1    0    0    0  501 -0.00000000000E+00 -0.00000000000E+00 -0.20380490931E+03  0.20380490931E+03  0.00000000000E+00 0. -1.
         23    2    1    2    0    0  0.19858286209E+03 -0.63316920332E+02 -0.97669941879E+02  0.24828719099E+03  0.93074841628E+02 0.  0.
         11    1    3    3    0    0  0.14047743312E+03 -0.36495018098E+02 -0.11124068845E+03  0.18286685410E+03  0.00000000000E+00 0.  1.
        -11    1    3    3    0    0  0.58105428972E+02 -0.26821902234E+02  0.13570746573E+02  0.65420336884E+02  0.00000000000E+00 0. -1.
         22    1    1    2    0    0 -0.19858286209E+03  0.63316920332E+02  0.32150368940E+03  0.38315637515E+03  0.00000000000E+00 0.  1.
<mgrwt>
<rscale>  0 0.59044003E+03</rscale>
<asrwt>0</asrwt>
<pdfrwt beam="1">  1        2 0.65790563E-01 0.59044003E+03</pdfrwt>
<pdfrwt beam="2">  1       -2 0.31354601E-01 0.59044003E+03</pdfrwt>
<totfact> 0.69963886E+02</totfact>
</mgrwt>
</event>
<event>
 6    1  0.1719556E-004  0.2770140E+04  0.7818608E-02  0.8312599E-01
         -2   -1    0    0    0  501 -0.00000000000E+00  0.00000000000E+00  0.75179640715E+03  0.75179640715E+03  0.00000000000E+00 0. -1.
          2   -1    0    0  501    0  0.00000000000E+00 -0.00000000000E+00 -0.25517800189E+04  0.25517800189E+04  0.00000000000E+00 0.  1.
         23    2    1    2    0    0  0.17078376825E+03 -0.11806902523E+04 -0.17367467965E+04  0.21089235634E+04  0.89847614131E+02 0.  0.
         11    1    3    3    0    0  0.15273638900E+03 -0.76631267215E+03 -0.11160566560E+04  0.13624044831E+04  0.00000000000E+00 0. -1.
        -11    1    3    3    0    0  0.18047379254E+02 -0.41437758015E+03 -0.62069014051E+03  0.74651908037E+03  0.00000000000E+00 0.  1.
         22    1    1    2    0    0 -0.17078376825E+03  0.11806902523E+04 -0.63236815225E+02  0.11946528626E+04  0.00000000000E+00 0. -1.
<mgrwt>
<rscale>  0 0.27701401E+04</rscale>
<asrwt>0</asrwt>
<pdfrwt beam="1">  1        2 0.39258154E+00 0.27701401E+04</pdfrwt>
<pdfrwt beam="2">  1       -2 0.11566099E+00 0.27701401E+04</pdfrwt>
<totfact> 0.16467746E+00</totfact>
</mgrwt>
</event>
<event>
 6    1  0.1719556E-004  0.2931080E+04  0.7818608E-02  0.8263690E-01
         -2   -1    0    0    0  501 -0.00000000000E+00  0.00000000000E+00  0.11069699633E+04  0.11069699633E+04  0.00000000000E+00 0. -1.
          2   -1    0    0  501    0  0.00000000000E+00 -0.00000000000E+00 -0.19402585688E+04  0.19402585688E+04  0.00000000000E+00 0.  1.
         23    2    1    2    0    0  0.12894742459E+04 -0.43366635041E+03  0.14590972844E+03  0.13710305391E+04  0.87319848810E+02 0.  0.
         13    1    3    3    0    0  0.25318883263E+03 -0.11155218421E+03  0.49302479879E+01  0.27671787458E+03  0.00000000000E+00 0.  1.
        -13    1    3    3    0    0  0.10362854133E+04 -0.32211416620E+03  0.14097948045E+03  0.10943126645E+04  0.00000000000E+00 0. -1.
         22    1    1    2    0    0 -0.12894742459E+04  0.43366635041E+03 -0.97919833400E+03  0.16761979930E+04  0.00000000000E+00 0. -1.
<mgrwt>
<rscale>  0 0.29310803E+04</rscale>
<asrwt>0</asrwt>
<pdfrwt beam="1">  1        2 0.29850131E+00 0.29310803E+04</pdfrwt>
<pdfrwt beam="2">  1       -2 0.17030307E+00 0.29310803E+04</pdfrwt>
<totfact> 0.13169040E+00</totfact>
</mgrwt>
</event>
<event>
 6    1  0.1719556E-004  0.1691677E+04  0.7818608E-02  0.8766126E-01
         -1   -1    0    0    0  501 -0.00000000000E+00  0.00000000000E+00  0.32981795334E+03  0.32981795334E+03  0.00000000000E+00 0.  1.
          1   -1    0    0  501    0  0.00000000000E+00 -0.00000000000E+00 -0.21692052266E+04  0.21692052266E+04  0.00000000000E+00 0. -1.
         23    2    1    2    0    0  0.80596897673E+02  0.70402557175E+03 -0.15979645014E+04  0.17504025682E+04  0.90943594553E+02 0.  0.
         13    1    3    3    0    0  0.29686947713E+02  0.52209485855E+03 -0.11055148074E+04  0.12229584398E+04  0.00000000000E+00 0. -1.
        -13    1    3    3    0    0  0.50909949960E+02  0.18193071320E+03 -0.49244969399E+03  0.52744412834E+03  0.00000000000E+00 0.  1.
         22    1    1    2    0    0 -0.80596897673E+02 -0.70402557175E+03 -0.24142277189E+03  0.74862061178E+03  0.00000000000E+00 0.  1.
<mgrwt>
<rscale>  0 0.16916771E+04</rscale>
<asrwt>0</asrwt>
<pdfrwt beam="1">  1        1 0.33372387E+00 0.16916771E+04</pdfrwt>
<pdfrwt beam="2">  1       -1 0.50741225E-01 0.16916771E+04</pdfrwt>
<totfact> 0.85025104E+00</totfact>
</mgrwt>
</event>
<event>
 6    1  0.1719556E-004  0.2356892E+04  0.7818608E-02  0.8455821E-01
          2   -1    0    0  501    0  0.00000000000E+00  0.00000000000E+00  0.94322483842E+03  0.94322483842E+03  0.00000000000E+00 0.  1.
         -2   -1    0    0    0  501 -0.00000000000E+00 -0.00000000000E+00 -0.14723270981E+04  0.14723270981E+04  0.00000000000E+00 0. -1.
         23    2    1    2    0    0 -0.49862848923E+01 -0.46462829459E+03  0.84211388458E+03  0.96774738153E+03  0.10712088820E+03 0.  0.
         11    1    3    3    0    0  0.42063072203E+02 -0.34779330832E+03  0.63968394396E+03  0.72933191039E+03  0.00000000000E+00 0.  1.
        -11    1    3    3    0    0 -0.47049357095E+02 -0.11683498627E+03  0.20242994062E+03  0.23841547114E+03  0.00000000000E+00 0. -1.
         22    1    1    2    0    0  0.49862848923E+01  0.46462829459E+03 -0.13712161443E+04  0.14478045550E+04  0.00000000000E+00 0. -1.
<mgrwt>
<rscale>  0 0.23568924E+04</rscale>
<asrwt>0</asrwt>
<pdfrwt beam="1">  1        2 0.14511152E+00 0.23568924E+04</pdfrwt>
<pdfrwt beam="2">  1       -2 0.22651186E+00 0.23568924E+04</pdfrwt>
<totfact> 0.22252419E+00</totfact>
</mgrwt>
</event>
<event>
 6    1  0.1719556E-004  0.4346430E+04  0.7818608E-02  0.7938088E-01
         -1   -1    0    0    0  501 -0.00000000000E+00  0.00000000000E+00  0.20384009150E+04  0.20384009150E+04  0.00000000000E+00 0. -1.
          1   -1    0    0  501    0  0.00000000000E+00 -0.00000000000E+00 -0.23169456502E+04  0.23169456502E+04  0.00000000000E+00 0.  1.
         23    2    1    2    0    0  0.54741560285E+03  0.49322617526E+02  0.19666354387E+04  0.20438685584E+04  0.87448111527E+02 0.  0.
         13    1    3    3    0    0  0.35900297391E+03 -0.80306206587E+00  0.11779541493E+04  0.12314462059E+04  0.00000000000E+00 0.  1.
        -13    1    3    3    0    0  0.18841262894E+03  0.50125679592E+02  0.78868128942E+03  0.81242235246E+03  0.00000000000E+00 0. -1.
         22    1    1    2    0    0 -0.54741560285E+03 -0.49322617526E+02 -0.22451801739E+04  0.23114780068E+04  0.00000000000E+00 0.  1.
<mgrwt>
<rscale>  0 0.43464303E+04</rscale>
<asrwt>0</asrwt>
<pdfrwt beam="1">  1        1 0.35645318E+00 0.43464303E+04</pdfrwt>
<pdfrwt beam="2">  1       -1 0.31360014E+00 0.43464303E+04</pdfrwt>
<totfact> 0.37147240E-02</totfact>
</mgrwt>
</event>
<event>
 6    1  0.1719556E-004  0.2199408E+04  0.7818608E-02  0.8518675E-01
          1   -1    0    0  501    0  0.00000000000E+00  0.00000000000E+00  0.20474361186E+04  0.20474361186E+04  0.00000000000E+00 0. -1.
         -1   -1    0    0    0  501 -0.00000000000E+00 -0.00000000000E+00 -0.59066501933E+03  0.59066501933E+03  0.00000000000E+00 0.  1.
         23    2    1    2    0    0 -0.10906910773E+04 -0.91541817155E+02  0.62998386742E+03  0.12663999835E+04  0.94352078014E+02 0.  0.
         13    1    3    3    0    0 -0.88080107764E+03 -0.83894349395E+02  0.46644586500E+03  0.10002102505E+04  0.00000000000E+00 0.  1.
        -13    1    3    3    0    0 -0.20988999963E+03 -0.76474677602E+01  0.16353800242E+03  0.26618973298E+03  0.00000000000E+00 0. -1.
         22    1    1    2    0    0  0.10906910773E+04  0.91541817155E+02  0.82678723180E+03  0.13717011544E+04  0.00000000000E+00 0. -1.
<mgrwt>
<rscale>  0 0.21994080E+04</rscale>
<asrwt>0</asrwt>
<pdfrwt beam="1">  1        1 0.31499017E+00 0.21994080E+04</pdfrwt>
<pdfrwt beam="2">  1       -1 0.90871542E-01 0.21994080E+04</pdfrwt>
<totfact> 0.29825899E+00</totfact>
</mgrwt>
</event>
<event>
 6    1  0.1719556E-004  0.4555856E+03  0.7818608E-02  0.1026069E+00
          2   -1    0    0  501    0  0.00000000000E+00  0.00000000000E+00  0.20326063848E+03  0.20326063848E+03  0.00000000000E+00 0.  1.
         -2   -1    0    0    0  501 -0.00000000000E+00 -0.00000000000E+00 -0.25528581346E+03  0.25528581346E+03  0.00000000000E+00 0. -1.
         23    2    1    2    0    0  0.15609292989E+03  0.20933906882E+02 -0.17947921363E+03  0.25594397617E+03  0.92148247903E+02 0.  0.
         13    1    3    3    0    0  0.14772918030E+02  0.37156073155E+02 -0.44884112705E+02  0.60111533442E+02  0.00000000000E+00 0. -1.
        -13    1    3    3    0    0  0.14132001186E+03 -0.16222166273E+02 -0.13459510093E+03  0.19583244272E+03  0.00000000000E+00 0.  1.
         22    1    1    2    0    0 -0.15609292989E+03 -0.20933906882E+02  0.12745403865E+03  0.20260247577E+03  0.00000000000E+00 0.  1.
<mgrwt>
<rscale>  0 0.45558559E+03</rscale>
<asrwt>0</asrwt>
<pdfrwt beam="1">  1        2 0.31270868E-01 0.45558559E+03</pdfrwt>
<pdfrwt beam="2">  1       -2 0.39274740E-01 0.45558559E+03</pdfrwt>
<totfact> 0.10410574E+03</totfact>
</mgrwt>
</event>
<event>
 6    1  0.1719556E-004  0.2814360E+04  0.7818608E-02  0.8298824E-01
          2   -1    0    0  501    0  0.00000000000E+00  0.00000000000E+00  0.39700451486E+04  0.39700451486E+04  0.00000000000E+00 0.  1.
         -2   -1    0    0    0  501 -0.00000000000E+00 -0.00000000000E+00 -0.49877395101E+03  0.49877395101E+03  0.00000000000E+00 0. -1.
         23    2    1    2    0    0  0.10761260381E+04 -0.72658612571E+03  0.25932015934E+04  0.29013431420E+04  0.84397130993E+02 0.  0.
         13    1    3    3    0    0  0.81247623505E+03 -0.55280035873E+03  0.20402060845E+04  0.22645411757E+04  0.00000000000E+00 0. -1.
        -13    1    3    3    0    0  0.26364980303E+03 -0.17378576697E+03  0.55299550886E+03  0.63680196628E+03  0.00000000000E+00 0.  1.
         22    1    1    2    0    0 -0.10761260381E+04  0.72658612571E+03  0.87806960419E+03  0.15674759576E+04  0.00000000000E+00 0. -1.
<mgrwt>
<rscale>  0 0.28143597E+04</rscale>
<asrwt>0</asrwt>
<pdfrwt beam="1">  1        2 0.61077615E+00 0.28143597E+04</pdfrwt>
<pdfrwt beam="2">  1       -2 0.76734457E-01 0.28143597E+04</pdfrwt>
<totfact> 0.47733249E-01</totfact>
</mgrwt>
</event>
<event>
 6    1  0.1719556E-004  0.2105261E+04  0.7818608E-02  0.8558929E-01
          2   -1    0    0  501    0  0.00000000000E+00  0.00000000000E+00  0.15401651239E+04  0.15401651239E+04  0.00000000000E+00 0.  1.
         -2   -1    0    0    0  501 -0.00000000000E+00 -0.00000000000E+00 -0.71942378302E+03  0.71942378302E+03  0.00000000000E+00 0. -1.
         23    2    1    2    0    0 -0.37888672100E+03  0.97461019392E+03  0.52043661279E+03  0.11716536574E+04  0.92183770033E+02 0.  0.
         11    1    3    3    0    0 -0.13224256931E+03  0.46682495228E+03  0.24330476889E+03  0.54278065899E+03  0.00000000000E+00 0.  1.
        -11    1    3    3    0    0 -0.24664415169E+03  0.50778524164E+03  0.27713184389E+03  0.62887299837E+03  0.00000000000E+00 0. -1.
         22    1    1    2    0    0  0.37888672100E+03 -0.97461019392E+03  0.30030472804E+03  0.10879352495E+04  0.00000000000E+00 0. -1.
<mgrwt>
<rscale>  0 0.21052614E+04</rscale>
<asrwt>0</asrwt>
<pdfrwt beam="1">  1        2 0.23694848E+00 0.21052614E+04</pdfrwt>
<pdfrwt beam="2">  1       -2 0.11068058E+00 0.21052614E+04</pdfrwt>
<totfact> 0.71847165E+00</totfact>
</mgrwt>
</event>
<event>
 6    1  0.1719556E-004  0.2465673E+04  0.7818608E-02  0.8415318E-01
          2   -1    0    0  501    0  0.00000000000E+00  0.00000000000E+00  0.25172021561E+04  0.25172021561E+04  0.00000000000E+00 0.  1.
         -2   -1    0    0    0  501 -0.00000000000E+00 -0.00000000000E+00 -0.60379989320E+03  0.60379989320E+03  0.00000000000E+00 0. -1.
         23    2    1    2    0    0 -0.66221823644E+03  0.72789682045E+03  0.22702021809E+02  0.98954382179E+03  0.10156190011E+03 0.  0.
         11    1    3    3    0    0 -0.18100879097E+03  0.23907415531E+03  0.45103238983E+02  0.30324072337E+03  0.00000000000E+00 0.  1.
        -11    1    3    3    0    0 -0.48120944547E+03  0.48882266514E+03 -0.22401217173E+02  0.68630309842E+03  0.00000000000E+00 0. -1.
         22    1    1    2    0    0  0.66221823644E+03 -0.72789682045E+03  0.18907002411E+04  0.21314582275E+04  0.00000000000E+00 0.  1.
<mgrwt>
<rscale>  0 0.24656735E+04</rscale>
<asrwt>0</asrwt>
<pdfrwt beam="1">  1        2 0.38726187E+00 0.24656735E+04</pdfrwt>
<pdfrwt beam="2">  1       -2 0.92892292E-01 0.24656735E+04</pdfrwt>
<totfact> 0.29877661E+00</totfact>
</mgrwt>
</event>
<event>
 6    1  0.1719556E-004  0.3840108E+04  0.7818608E-02  0.8037602E-01
         -2   -1    0    0    0  501 -0.00000000000E+00  0.00000000000E+00  0.72212309833E+03  0.72212309833E+03  0.00000000000E+00 0. -1.
          2   -1    0    0  501    0  0.00000000000E+00 -0.00000000000E+00 -0.51052351505E+04  0.51052351505E+04  0.00000000000E+00 0.  1.
         23    2    1    2    0    0  0.40069210915E+03 -0.15149416510E+04 -0.51071288642E+03  0.16499095452E+04  0.75970276473E+02 0.  0.
         13    1    3    3    0    0  0.10319750770E+03 -0.28617966868E+03 -0.84467855038E+02  0.31572669652E+03  0.00000000000E+00 0. -1.
        -13    1    3    3    0    0  0.29749460146E+03 -0.12287619823E+04 -0.42624503138E+03  0.13341828487E+04  0.00000000000E+00 0.  1.
         22    1    1    2    0    0 -0.40069210915E+03  0.15149416510E+04 -0.38723991658E+04  0.41774487036E+04  0.00000000000E+00 0.  1.
<mgrwt>
<rscale>  0 0.38401084E+04</rscale>
<asrwt>0</asrwt>
<pdfrwt beam="1">  1        2 0.78542074E+00 0.38401084E+04</pdfrwt>
<pdfrwt beam="2">  1       -2 0.11109587E+00 0.38401084E+04</pdfrwt>
<totfact> 0.12670021E-02</totfact>
</mgrwt>
</event>
<event>
 6    1  0.1719556E-004  0.2879156E+04  0.7818608E-02  0.8279106E-01
          2   -1    0    0  501    0  0.00000000000E+00  0.00000000000E+00  0.12184707358E+04  0.12184707358E+04  0.00000000000E+00 0.  1.
         -2   -1    0    0    0  501 -0.00000000000E+00 -0.00000000000E+00 -0.17008082983E+04  0.17008082983E+04  0.00000000000E+00 0. -1.
         23    2    1    2    0    0 -0.13408993511E+04  0.93157304911E+02  0.27794206296E+03  0.13750269621E+04  0.82207074018E+02 0.  0.
         13    1    3    3    0    0 -0.86391900244E+03  0.99378581770E+02  0.18144668367E+03  0.88834398985E+03  0.00000000000E+00 0. -1.
        -13    1    3    3    0    0 -0.47698034861E+03 -0.62212768595E+01  0.96495379292E+02  0.48668297225E+03  0.00000000000E+00 0.  1.
         22    1    1    2    0    0  0.13408993511E+04 -0.93157304911E+02 -0.76027962542E+03  0.15442520720E+04  0.00000000000E+00 0. -1.
<mgrwt>
<rscale>  0 0.28791562E+04</rscale>
<asrwt>0</asrwt>
<pdfrwt beam="1">  1        2 0.18745704E+00 0.28791562E+04</pdfrwt>
<pdfrwt beam="2">  1       -2 0.26166281E+00 0.28791562E+04</pdfrwt>
<totfact> 0.87006601E-01</totfact>
</mgrwt>
</event>
<event>
 6    1  0.1719556E-004  0.1546319E+03  0.7818608E-02  0.1194894E+00
         -2   -1    0    0    0  501 -0.00000000000E+00  0.00000000000E+00  0.48381283661E+01  0.48381283661E+01  0.00000000000E+00 0. -1.
          2   -1    0    0  501    0  0.00000000000E+00 -0.00000000000E+00 -0.12355509927E+04  0.12355509927E+04  0.00000000000E+00 0.  1.
         23    2    1    2    0    0  0.98965322688E+01  0.28526622632E+02 -0.11481636847E+04  0.11524910175E+04  0.95099889766E+02 0.  0.
         13    1    3    3    0    0  0.21282844754E+02  0.58968552026E+02 -0.57522300461E+03  0.57862920307E+03  0.00000000000E+00 0.  1.
        -13    1    3    3    0    0 -0.11386312485E+02 -0.30441929395E+02 -0.57294068008E+03  0.57386181444E+03  0.00000000000E+00 0. -1.
         22    1    1    2    0    0 -0.98965322688E+01 -0.28526622632E+02 -0.82549179599E+02  0.87898103518E+02  0.00000000000E+00 0. -1.
<mgrwt>
<rscale>  0 0.15463188E+03</rscale>
<asrwt>0</asrwt>
<pdfrwt beam="1">  1        2 0.19008511E+00 0.15463188E+03</pdfrwt>
<pdfrwt beam="2">  1       -2 0.74432612E-03 0.15463188E+03</pdfrwt>
<totfact> 0.59517190E+04</totfact>
</mgrwt>
</event>
<event>
 6    1  0.1719556E-004  0.2596205E+04  0.7818608E-02  0.8369492E-01
          1   -1    0    0  501    0  0.00000000000E+00  0.00000000000E+00  0.24769425154E+04  0.24769425154E+04  0.00000000000E+00 0.  1.
         -1   -1    0    0    0  501 -0.00000000000E+00 -0.00000000000E+00 -0.68030232066E+03  0.68030232066E+03  0.00000000000E+00 0. -1.
         23    2    1    2    0    0 -0.32175215312E+03  0.11830002538E+04  0.14122573143E+04  0.18724241298E+04  0.92126822387E+02 0.  0.
         11    1    3    3    0    0 -0.10008517882E+03  0.53583136197E+03  0.64523248320E+03  0.84466398577E+03  0.00000000000E+00 0.  1.
        -11    1    3    3    0    0 -0.22166697430E+03  0.64716889186E+03  0.76702483110E+03  0.10277601440E+04  0.00000000000E+00 0. -1.
         22    1    1    2    0    0  0.32175215312E+03 -0.11830002538E+04  0.38438288048E+03  0.12848207063E+04  0.00000000000E+00 0. -1.
<mgrwt>
<rscale>  0 0.25962047E+04</rscale>
<asrwt>0</asrwt>
<pdfrwt beam="1">  1        1 0.38106808E+00 0.25962047E+04</pdfrwt>
<pdfrwt beam="2">  1       -1 0.10466190E+00 0.25962047E+04</pdfrwt>
<totfact> 0.10618288E+00</totfact>
</mgrwt>
</event>
<event>
 6    1  0.1719556E-004  0.2700233E+04  0.7818608E-02  0.8334929E-01
         -1   -1    0    0    0  501 -0.00000000000E+00  0.00000000000E+00  0.23536324575E+04  0.23536324575E+04  0.00000000000E+00 0.  1.
          1   -1    0    0  501    0  0.00000000000E+00 -0.00000000000E+00 -0.77446858359E+03  0.77446858359E+03  0.00000000000E+00 0. -1.
         23    2    1    2    0    0 -0.11447014443E+03  0.13203229221E+04  0.10796152769E+04  0.17118013436E+04  0.91316270298E+02 0.  0.
         13    1    3    3    0    0 -0.10869767225E+03  0.84525517792E+03  0.65953588137E+03  0.10776173155E+04  0.00000000000E+00 0. -1.
        -13    1    3    3    0    0 -0.57724721810E+01  0.47506774414E+03  0.42007939554E+03  0.63418402811E+03  0.00000000000E+00 0.  1.
         22    1    1    2    0    0  0.11447014443E+03 -0.13203229221E+04  0.49954859703E+03  0.14162996975E+04  0.00000000000E+00 0. -1.
<mgrwt>
<rscale>  0 0.27002329E+04</rscale>
<asrwt>0</asrwt>
<pdfrwt beam="1">  1        1 0.11914901E+00 0.27002329E+04</pdfrwt>
<pdfrwt beam="2">  1       -1 0.36209730E+00 0.27002329E+04</pdfrwt>
<totfact> 0.26241290E-01</totfact>
</mgrwt>
</event>
<event>
 6    1  0.1719556E-004  0.1477342E+04  0.7818608E-02  0.8899662E-01
          1   -1    0    0  501    0  0.00000000000E+00  0.00000000000E+00  0.35474836069E+03  0.35474836069E+03  0.00000000000E+00 0.  1.
         -1   -1    0    0    0  501 -0.00000000000E+00 -0.00000000000E+00 -0.15380898476E+04  0.15380898476E+04  0.00000000000E+00 0. -1.
         23    2    1    2    0    0 -0.17029608130E+03  0.62379786170E+03 -0.10437583992E+04  0.12313187710E+04  0.92681132610E+02 0.  0.
         11    1    3    3    0    0 -0.62866475750E+01  0.98834151499E+02 -0.21443223650E+03  0.23619673048E+03  0.00000000000E+00 0. -1.
        -11    1    3    3    0    0 -0.16400943373E+03  0.52496371020E+03 -0.82932616269E+03  0.99512204051E+03  0.00000000000E+00 0.  1.
         22    1    1    2    0    0  0.17029608130E+03 -0.62379786170E+03 -0.13958308774E+03  0.66151943732E+03  0.00000000000E+00 0.  1.
<mgrwt>
<rscale>  0 0.14773420E+04</rscale>
<asrwt>0</asrwt>
<pdfrwt beam="1">  1        1 0.54576672E-01 0.14773420E+04</pdfrwt>
<pdfrwt beam="2">  1       -1 0.23662920E+00 0.14773420E+04</pdfrwt>
<totfact> 0.58199461E+00</totfact>
</mgrwt>
</event>
<event>
 6    1  0.1719556E-004  0.3458463E+04  0.7818608E-02  0.8123705E-01
          2   -1    0    0  501    0  0.00000000000E+00  0.00000000000E+00  0.28120771483E+04  0.28120771483E+04  0.00000000000E+00 0.  1.
         -2   -1    0    0    0  501 -0.00000000000E+00 -0.00000000000E+00 -0.10633568685E+04  0.10633568685E+04  0.00000000000E+00 0. -1.
         23    2    1    2    0    0 -0.75669993786E+03  0.15461159542E+04  0.10447271378E+04  0.20156825055E+04  0.91933838900E+02 0.  0.
         13    1    3    3    0    0 -0.20059343506E+03  0.47234060101E+03  0.27438012835E+03  0.58191736903E+03  0.00000000000E+00 0.  1.
        -13    1    3    3    0    0 -0.55610650280E+03  0.10737753532E+04  0.77034700942E+03  0.14337651364E+04  0.00000000000E+00 0. -1.
         22    1    1    2    0    0  0.75669993786E+03 -0.15461159542E+04  0.70399314212E+03  0.18597515113E+04  0.00000000000E+00 0. -1.
<mgrwt>
<rscale>  0 0.34584630E+04</rscale>
<asrwt>0</asrwt>
<pdfrwt beam="1">  1        2 0.43262725E+00 0.34584630E+04</pdfrwt>
<pdfrwt beam="2">  1       -2 0.16359337E+00 0.34584630E+04</pdfrwt>
<totfact> 0.44417531E-01</totfact>
</mgrwt>
</event>
<event>
 6    1  0.1719556E-004  0.1778882E+04  0.7818608E-02  0.8717611E-01
         -2   -1    0    0    0  501 -0.00000000000E+00  0.00000000000E+00  0.57088079042E+03  0.57088079042E+03  0.00000000000E+00 0. -1.
          2   -1    0    0  501    0  0.00000000000E+00 -0.00000000000E+00 -0.13857619032E+04  0.13857619032E+04  0.00000000000E+00 0.  1.
         23    2    1    2    0    0 -0.13046462635E+03 -0.70226150786E+03  0.16968361572E+03  0.74027106095E+03  0.94955095085E+02 0.  0.
         13    1    3    3    0    0  0.73002396049E+01 -0.16736002117E+03  0.53211639722E+02  0.17576731433E+03  0.00000000000E+00 0.  1.
        -13    1    3    3    0    0 -0.13776486595E+03 -0.53490148669E+03  0.11647197599E+03  0.56450374662E+03  0.00000000000E+00 0. -1.
         22    1    1    2    0    0  0.13046462635E+03  0.70226150786E+03 -0.98456472851E+03  0.12163716327E+04  0.00000000000E+00 0.  1.
<mgrwt>
<rscale>  0 0.17788815E+04</rscale>
<asrwt>0</asrwt>
<pdfrwt beam="1">  1        2 0.21319414E+00 0.17788815E+04</pdfrwt>
<pdfrwt beam="2">  1       -2 0.87827814E-01 0.17788815E+04</pdfrwt>
<totfact> 0.15590416E+01</totfact>
</mgrwt>
</event>
<event>
 6    1  0.1719556E-004  0.2171877E+04  0.7818608E-02  0.8530226E-01
         -2   -1    0    0    0  501 -0.00000000000E+00  0.00000000000E+00  0.81080007647E+03  0.81080007647E+03  0.00000000000E+00 0. -1.
          2   -1    0    0  501    0  0.00000000000E+00 -0.00000000000E+00 -0.14544422639E+04  0.14544422639E+04  0.00000000000E+00 0.  1.
         23    2    1    2    0    0  0.24754562395E+03  0.19417229942E+03 -0.14044178502E+04  0.14419797292E+04  0.89074821445E+02 0.  0.
         11    1    3    3    0    0  0.22364350337E+03  0.16369197613E+03 -0.13242956027E+04  0.13529857068E+04  0.00000000000E+00 0.  1.
        -11    1    3    3    0    0  0.23902120587E+02  0.30480323292E+02 -0.80122247493E+02  0.88994022383E+02  0.00000000000E+00 0. -1.
         22    1    1    2    0    0 -0.24754562395E+03 -0.19417229942E+03  0.76077566277E+03  0.82326261111E+03  0.00000000000E+00 0. -1.
<mgrwt>
<rscale>  0 0.21718765E+04</rscale>
<asrwt>0</asrwt>
<pdfrwt beam="1">  1        2 0.22376035E+00 0.21718765E+04</pdfrwt>
<pdfrwt beam="2">  1       -2 0.12473847E+00 0.21718765E+04</pdfrwt>
<totfact> 0.59500045E+00</totfact>
</mgrwt>
</event>
<event>
 6    1  0.1719556E-004  0.2603647E+04  0.7818608E-02  0.8366963E-01
          2   -1    0    0  501    0  0.00000000000E+00  0.00000000000E+00  0.12355293938E+04  0.12355293938E+04  0.00000000000E+00 0.  1.
         -2   -1    0    0    0  501 -0.00000000000E+00 -0.00000000000E+00 -0.13716750201E+04  0.13716750201E+04  0.00000000000E+00 0. -1.
         23    2    1    2    0    0  0.35421217910E+03  0.12504712125E+04 -0.28626734721E+02  0.13030936697E+04  0.89939428292E+02 0.  0.
         13    1    3    3    0    0  0.13272711404E+03  0.40931094651E+03  0.29644987877E+02  0.43131283662E+03  0.00000000000E+00 0.  1.
        -13    1    3    3    0    0  0.22148506506E+03  0.84116026604E+03 -0.58271722598E+02  0.87178083305E+03  0.00000000000E+00 0. -1.
         22    1    1    2    0    0 -0.35421217910E+03 -0.12504712125E+04 -0.10751889162E+03  0.13041107443E+04  0.00000000000E+00 0.  1.
<mgrwt>
<rscale>  0 0.26036473E+04</rscale>
<asrwt>0</asrwt>
<pdfrwt beam="1">  1        2 0.19008145E+00 0.26036473E+04</pdfrwt>
<pdfrwt beam="2">  1       -2 0.21102693E+00 0.26036473E+04</pdfrwt>
<totfact> 0.17991034E+00</totfact>
</mgrwt>
</event>
<event>
 6    1  0.1719556E-004  0.1783927E+04  0.7818608E-02  0.8714894E-01
          2   -1    0    0  501    0  0.00000000000E+00  0.00000000000E+00  0.86027208941E+03  0.86027208941E+03  0.00000000000E+00 0.  1.
         -2   -1    0    0    0  501 -0.00000000000E+00 -0.00000000000E+00 -0.92482206183E+03  0.92482206183E+03  0.00000000000E+00 0. -1.
         23    2    1    2    0    0 -0.75419574883E+03  0.39216915674E+03 -0.29497670560E+03  0.90435335259E+03  0.90751608514E+02 0.  0.
         11    1    3    3    0    0 -0.49910871552E+03  0.29391628181E+03 -0.16903767801E+03  0.60338215685E+03  0.00000000000E+00 0.  1.
        -11    1    3    3    0    0 -0.25508703331E+03  0.98252874930E+02 -0.12593902759E+03  0.30097119574E+03  0.00000000000E+00 0. -1.
         22    1    1    2    0    0  0.75419574883E+03 -0.39216915674E+03  0.23042673318E+03  0.88074079865E+03  0.00000000000E+00 0.  1.
<mgrwt>
<rscale>  0 0.17839267E+04</rscale>
<asrwt>0</asrwt>
<pdfrwt beam="1">  1        2 0.13234955E+00 0.17839267E+04</pdfrwt>
<pdfrwt beam="2">  1       -2 0.14228032E+00 0.17839267E+04</pdfrwt>
<totfact> 0.10159776E+01</totfact>
</mgrwt>
</event>
<event>
 6    1  0.1719556E-004  0.2956108E+04  0.7818608E-02  0.8256377E-01
          2   -1    0    0  501    0  0.00000000000E+00  0.00000000000E+00  0.16135496029E+04  0.16135496029E+04  0.00000000000E+00 0.  1.
         -2   -1    0    0    0  501 -0.00000000000E+00 -0.00000000000E+00 -0.13539361431E+04  0.13539361431E+04  0.00000000000E+00 0. -1.
         23    2    1    2    0    0  0.75567756110E+03  0.12578285061E+04  0.29582429829E+03  0.14996668362E+04  0.91145363473E+02 0.  0.
         11    1    3    3    0    0  0.31105975806E+03  0.60101600249E+03  0.15152018307E+03  0.69349605205E+03  0.00000000000E+00 0. -1.
        -11    1    3    3    0    0  0.44461780304E+03  0.65681250356E+03  0.14430411522E+03  0.80617078419E+03  0.00000000000E+00 0.  1.
         22    1    1    2    0    0 -0.75567756110E+03 -0.12578285061E+04 -0.36210838560E+02  0.14678189097E+04  0.00000000000E+00 0. -1.
<mgrwt>
<rscale>  0 0.29561077E+04</rscale>
<asrwt>0</asrwt>
<pdfrwt beam="1">  1        2 0.24823840E+00 0.29561077E+04</pdfrwt>
<pdfrwt beam="2">  1       -2 0.20829787E+00 0.29561077E+04</pdfrwt>
<totfact> 0.11057776E+00</totfact>
</mgrwt>
</event>
<event>
 6    1  0.1719556E-004  0.4929682E+04  0.7818608E-02  0.7839447E-01
          1   -1    0    0  501    0  0.00000000000E+00  0.00000000000E+00  0.50412862041E+04  0.50412862041E+04  0.00000000000E+00 0.  1.
         -1   -1    0    0    0  501 -0.00000000000E+00 -0.00000000000E+00 -0.12051372734E+04  0.12051372734E+04  0.00000000000E+00 0. -1.
         23    2    1    2    0    0 -0.13359740456E+04  0.17686060770E+04  0.55484254410E+03  0.22866550866E+04  0.90261455118E+02 0.  0.
         13    1    3    3    0    0 -0.44251232250E+03  0.52991757321E+03  0.14729744816E+03  0.70592232448E+03  0.00000000000E+00 0. -1.
        -13    1    3    3    0    0 -0.89346172307E+03  0.12386885038E+04  0.40754509594E+03  0.15807327622E+04  0.00000000000E+00 0.  1.
         22    1    1    2    0    0  0.13359740456E+04 -0.17686060770E+04  0.32813063866E+04  0.39597683908E+04  0.00000000000E+00 0. -1.
<mgrwt>
<rscale>  0 0.49296823E+04</rscale>
<asrwt>0</asrwt>
<pdfrwt beam="1">  1        1 0.77558248E+00 0.49296823E+04</pdfrwt>
<pdfrwt beam="2">  1       -1 0.18540574E+00 0.49296823E+04</pdfrwt>
<totfact> 0.10408813E-03</totfact>
</mgrwt>
</event>
<event>
 6    1  0.1719556E-004  0.8313818E+03  0.7818608E-02  0.9515672E-01
          2   -1    0    0  501    0  0.00000000000E+00  0.00000000000E+00  0.49397413981E+03  0.49397413981E+03  0.00000000000E+00 0.  1.
         -2   -1    0    0    0  501 -0.00000000000E+00 -0.00000000000E+00 -0.34981371586E+03  0.34981371586E+03  0.00000000000E+00 0. -1.
         23    2    1    2    0    0  0.93558831679E+02  0.85589698973E+02 -0.32395440709E+03  0.35880296251E+03  0.87830840108E+02 0.  0.
         13    1    3    3    0    0  0.30452892605E+02  0.81180545822E+02 -0.14440371529E+03  0.16843423844E+03  0.00000000000E+00 0. -1.
        -13    1    3    3    0    0  0.63105939074E+02  0.44091531514E+01 -0.17955069180E+03  0.19036872407E+03  0.00000000000E+00 0.  1.
         22    1    1    2    0    0 -0.93558831679E+02 -0.85589698973E+02  0.46811483104E+03  0.48498489316E+03  0.00000000000E+00 0.  1.
<mgrwt>
<rscale>  0 0.83138181E+03</rscale>
<asrwt>0</asrwt>
<pdfrwt beam="1">  1        2 0.75996022E-01 0.83138181E+03</pdfrwt>
<pdfrwt beam="2">  1       -2 0.53817495E-01 0.83138181E+03</pdfrwt>
<totfact> 0.20442247E+02</totfact>
</mgrwt>
</event>
<event>
 6    1  0.1719556E-004  0.1048876E+04  0.7818608E-02  0.9256505E-01
         -2   -1    0    0    0  501 -0.00000000000E+00  0.00000000000E+00  0.56577447892E+03  0.56577447892E+03  0.00000000000E+00 0. -1.
          2   -1    0    0  501    0  0.00000000000E+00 -0.00000000000E+00 -0.48612207923E+03  0.48612207923E+03  0.00000000000E+00 0.  1.
         23    2    1    2    0    0  0.13780615208E+03  0.41156059436E+03 -0.24795721367E+03  0.50811285376E+03  0.91231759629E+02 0.  0.
         11    1    3    3    0    0  0.66306715318E+02  0.15536502321E+03 -0.48801269968E+02  0.17583069949E+03  0.00000000000E+00 0. -1.
        -11    1    3    3    0    0  0.71499436763E+02  0.25619557116E+03 -0.19915594370E+03  0.33228215427E+03  0.00000000000E+00 0.  1.
         22    1    1    2    0    0 -0.13780615208E+03 -0.41156059436E+03  0.32760961337E+03  0.54378370438E+03  0.00000000000E+00 0. -1.
<mgrwt>
<rscale>  0 0.10488765E+04</rscale>
<asrwt>0</asrwt>
<pdfrwt beam="1">  1        2 0.74788012E-01 0.10488765E+04</pdfrwt>
<pdfrwt beam="2">  1       -2 0.87042227E-01 0.10488765E+04</pdfrwt>
<totfact> 0.72351246E+01</totfact>
</mgrwt>
</event>
<event>
 6    1  0.1719556E-004  0.7510359E+03  0.7818608E-02  0.9633727E-01
         -2   -1    0    0    0  501 -0.00000000000E+00  0.00000000000E+00  0.47070064667E+03  0.47070064667E+03  0.00000000000E+00 0.  1.
          2   -1    0    0  501    0  0.00000000000E+00 -0.00000000000E+00 -0.29958264510E+03  0.29958264510E+03  0.00000000000E+00 0. -1.
         23    2    1    2    0    0  0.11662413936E+03 -0.12267293486E+02  0.44659358135E+03  0.47088644571E+03  0.92393406059E+02 0.  0.
         11    1    3    3    0    0  0.38510033474E+02 -0.31475890060E+02  0.29605274325E+03  0.30020156748E+03  0.00000000000E+00 0.  1.
        -11    1    3    3    0    0  0.78114105891E+02  0.19208596574E+02  0.15054083810E+03  0.17068487823E+03  0.00000000000E+00 0. -1.
         22    1    1    2    0    0 -0.11662413936E+03  0.12267293486E+02 -0.27547557978E+03  0.29939684605E+03  0.00000000000E+00 0. -1.
<mgrwt>
<rscale>  0 0.75103594E+03</rscale>
<asrwt>0</asrwt>
<pdfrwt beam="1">  1        2 0.46089637E-01 0.75103594E+03</pdfrwt>
<pdfrwt beam="2">  1       -2 0.72415485E-01 0.75103594E+03</pdfrwt>
<totfact> 0.19144856E+02</totfact>
</mgrwt>
</event>
<event>
 6    1  0.1719556E-004  0.3202738E+04  0.7818608E-02  0.8188094E-01
         -2   -1    0    0    0  501 -0.00000000000E+00  0.00000000000E+00  0.25052482295E+04  0.25052482295E+04  0.00000000000E+00 0. -1.
          2   -1    0    0  501    0  0.00000000000E+00 -0.00000000000E+00 -0.10236043704E+04  0.10236043704E+04  0.00000000000E+00 0.  1.
         23    2    1    2    0    0  0.15050353059E+04 -0.39453964998E+03  0.32870634658E+03  0.15923460249E+04  0.82007276398E+02 0.  0.
         13    1    3    3    0    0  0.93598261284E+03 -0.27833968505E+03  0.18199167120E+03  0.99330629727E+03  0.00000000000E+00 0. -1.
        -13    1    3    3    0    0  0.56905269304E+03 -0.11619996493E+03  0.14671467539E+03  0.59903972763E+03  0.00000000000E+00 0.  1.
         22    1    1    2    0    0 -0.15050353059E+04  0.39453964998E+03  0.11529375125E+04  0.19365065750E+04  0.00000000000E+00 0.  1.
<mgrwt>
<rscale>  0 0.32027382E+04</rscale>
<asrwt>0</asrwt>
<pdfrwt beam="1">  1        2 0.15747760E+00 0.32027382E+04</pdfrwt>
<pdfrwt beam="2">  1       -2 0.38542280E+00 0.32027382E+04</pdfrwt>
<totfact> 0.18900685E-01</totfact>
</mgrwt>
</event>
<event>
 6    1  0.1719556E-004  0.2830432E+04  0.7818608E-02  0.8293882E-01
          2   -1    0    0  501    0  0.00000000000E+00  0.00000000000E+00  0.18998402146E+04  0.18998402146E+04  0.00000000000E+00 0.  1.
         -2   -1    0    0    0  501 -0.00000000000E+00 -0.00000000000E+00 -0.10542131134E+04  0.10542131134E+04  0.00000000000E+00 0. -1.
         23    2    1    2    0    0 -0.51653723200E+03  0.35634412403E+03 -0.89874904891E+03  0.11002356456E+04  0.94745850586E+02 0.  0.
         13    1    3    3    0    0 -0.24842511963E+03  0.12119366887E+03 -0.35391342259E+03  0.44906308703E+03  0.00000000000E+00 0.  1.
        -13    1    3    3    0    0 -0.26811211237E+03  0.23515045516E+03 -0.54483562631E+03  0.65117255859E+03  0.00000000000E+00 0. -1.
         22    1    1    2    0    0  0.51653723200E+03 -0.35634412403E+03  0.17443761501E+04  0.18538176824E+04  0.00000000000E+00 0.  1.
<mgrwt>
<rscale>  0 0.28304321E+04</rscale>
<asrwt>0</asrwt>
<pdfrwt beam="1">  1        2 0.29228311E+00 0.28304321E+04</pdfrwt>
<pdfrwt beam="2">  1       -2 0.16218663E+00 0.28304321E+04</pdfrwt>
<totfact> 0.16002978E+00</totfact>
</mgrwt>
</event>
