<event>
 6    1  0.2003386E-005  0.2588143E+04  0.7818608E-02  0.8372240E-01
         -2   -1    0    0    0  501 -0.00000000000E+00  0.00000000000E+00  0.10650629166E+04  0.10650629166E+04  0.00000000000E+00 0.  1.
          2   -1    0    0  501    0  0.00000000000E+00 -0.00000000000E+00 -0.15723215792E+04  0.15723215792E+04  0.00000000000E+00 0. -1.
         23    2    1    2    0    0 -0.11321762113E+04  0.17859179868E+03  0.35472336248E+03  0.12032537432E+04  0.90955499017E+02 0.  0.
         13    1    3    3    0    0 -0.49827061407E+03  0.57299965499E+02  0.19699742418E+03  0.53885515311E+03  0.00000000000E+00 0. -1.
        -13    1    3    3    0    0 -0.63390559720E+03  0.12129183319E+03  0.15772593830E+03  0.66439859014E+03  0.00000000000E+00 0.  1.
         22    1    1    2    0    0  0.11321762113E+04 -0.17859179868E+03 -0.86198202507E+03  0.14341307526E+04  0.00000000000E+00 0. -1.
<mgrwt>
<rscale>  0 0.25881433E+04</rscale>
<asrwt>0</asrwt>
<pdfrwt beam="1">  1        2 0.24189563E+00 0.25881433E+04</pdfrwt>
<pdfrwt beam="2">  1       -2 0.16385583E+00 0.25881433E+04</pdfrwt>
<totfact> 0.24154226E+00</totfact>
</mgrwt>
</event>
<event>
 6    1  0.2003386E-005  0.2138227E+04  0.7818608E-02  0.8544588E-01
         -2   -1    0    0    0  501 -0.00000000000E+00  0.00000000000E+00  0.11353760971E+04  0.11353760971E+04  0.00000000000E+00 0.  1.
          2   -1    0    0  501    0  0.00000000000E+00 -0.00000000000E+00 -0.10067183857E+04  0.10067183857E+04  0.00000000000E+00 0. -1.
         23    2    1    2    0    0 -0.11781363248E+03  0.49332938408E+03  0.10048649433E+04  0.11296750804E+04  0.95699006265E+02 0.  0.
         13    1    3    3    0    0 -0.83032369799E+02  0.23301414223E+03  0.57469629400E+03  0.62567227464E+03  0.00000000000E+00 0.  1.
        -13    1    3    3    0    0 -0.34781262683E+02  0.26031524185E+03  0.43016864933E+03  0.50400280578E+03  0.00000000000E+00 0. -1.
         22    1    1    2    0    0  0.11781363248E+03 -0.49332938408E+03 -0.87620723191E+03  0.10124194024E+04  0.00000000000E+00 0. -1.
<mgrwt>
<rscale>  0 0.21382273E+04</rscale>
<asrwt>0</asrwt>
<pdfrwt beam="1">  1        2 0.15487975E+00 0.21382273E+04</pdfrwt>
<pdfrwt beam="2">  1       -2 0.17467325E+00 0.21382273E+04</pdfrwt>
<totfact> 0.45245763E+00</totfact>
</mgrwt>
</event>
<event>
 6    1  0.2003386E-005  0.1285775E+04  0.7818608E-02  0.9040923E-01
          1   -1    0    0  501    0  0.00000000000E+00  0.00000000000E+00  0.67970375078E+03  0.67970375078E+03  0.00000000000E+00 0. -1.
         -1   -1    0    0    0  501 -0.00000000000E+00 -0.00000000000E+00 -0.60806499514E+03  0.60806499514E+03  0.00000000000E+00 0.  1.
         23    2    1    2    0    0 -0.39120830230E+03 -0.10404455493E+03  0.53203412917E+03  0.67471646009E+03  0.91174457557E+02 0.  0.
         13    1    3    3    0    0 -0.19725387361E+03 -0.25898686637E+02  0.32084250450E+03  0.37751787417E+03  0.00000000000E+00 0. -1.
        -13    1    3    3    0    0 -0.19395442870E+03 -0.78145868293E+02  0.21119162467E+03  0.29719858592E+03  0.00000000000E+00 0.  1.
         22    1    1    2    0    0  0.39120830230E+03  0.10404455493E+03 -0.46039537353E+03  0.61305228583E+03  0.00000000000E+00 0.  1.
<mgrwt>
<rscale>  0 0.12857746E+04</rscale>
<asrwt>0</asrwt>
<pdfrwt beam="1">  1        1 0.10456981E+00 0.12857746E+04</pdfrwt>
<pdfrwt beam="2">  1       -1 0.93548461E-01 0.12857746E+04</pdfrwt>
<totfact> 0.31071481E+01</totfact>
</mgrwt>
</event>
<event>
 6    1  0.2003386E-005  0.3773292E+04  0.7818608E-02  0.8051911E-01
         -2   -1    0    0    0  501 -0.00000000000E+00  0.00000000000E+00  0.16863327667E+04  0.16863327667E+04  0.00000000000E+00 0.  1.
          2   -1    0    0  501    0  0.00000000000E+00 -0.00000000000E+00 -0.21107531444E+04  0.21107531444E+04  0.00000000000E+00 0. -1.
         23    2    1    2    0    0 -0.16918699281E+04  0.67200764200E+03 -0.70686454391E+03  0.19548609434E+04  0.88349872446E+02 0.  0.
         11    1    3    3    0    0 -0.49508946504E+03  0.23556367948E+03 -0.23234617955E+03  0.59547340212E+03  0.00000000000E+00 0. -1.
        -11    1    3    3    0    0 -0.11967804631E+04  0.43644396251E+03 -0.47451836436E+03  0.13593875413E+04  0.00000000000E+00 0.  1.
         22    1    1    2    0    0  0.16918699281E+04 -0.67200764200E+03  0.28244416624E+03  0.18422249677E+04  0.00000000000E+00 0.  1.
<mgrwt>
<rscale>  0 0.37732915E+04</rscale>
<asrwt>0</asrwt>
<pdfrwt beam="1">  1        2 0.32473125E+00 0.37732915E+04</pdfrwt>
<pdfrwt beam="2">  1       -2 0.25943581E+00 0.37732915E+04</pdfrwt>
<totfact> 0.26190435E-01</totfact>
</mgrwt>
</event>
<event>
 6    1  0.2003386E-005  0.6004234E+04  0.7818608E-02  0.7689877E-01
          2   -1    0    0  501    0  0.00000000000E+00  0.00000000000E+00  0.35523784695E+04  0.35523784695E+04  0.00000000000E+00 0. -1.
         -2   -1    0    0    0  501 -0.00000000000E+00 -0.00000000000E+00 -0.25370903459E+04  0.25370903459E+04  0.00000000000E+00 0.  1.
         23    2    1    2    0    0  0.13945645402E+04  0.11742404874E+04 -0.19104718596E+04  0.26421912725E+04  0.87298426913E+02 0.  0.
         11    1    3    3    0    0  0.70263524329E+03  0.61582385776E+03 -0.10360514173E+04  0.13951121275E+04  0.00000000000E+00 0. -1.
        -11    1    3    3    0    0  0.69192929688E+03  0.55841662966E+03 -0.87442044224E+03  0.12470791450E+04  0.00000000000E+00 0.  1.
         22    1    1    2    0    0 -0.13945645402E+04 -0.11742404874E+04  0.29257599832E+04  0.34472775430E+04  0.00000000000E+00 0. -1.
<mgrwt>
<rscale>  0 0.60042335E+04</rscale>
<asrwt>0</asrwt>
<pdfrwt beam="1">  1        2 0.54651977E+00 0.60042335E+04</pdfrwt>
<pdfrwt beam="2">  1       -2 0.39032159E+00 0.60042335E+04</pdfrwt>
<totfact> 0.43063449E-03</totfact>
</mgrwt>
</event>
<event>
 6    1  0.2003386E-005  0.3729928E+04  0.7818608E-02  0.8061362E-01
          2   -1    0    0  501    0  0.00000000000E+00  0.00000000000E+00  0.14041034031E+04  0.14041034031E+04  0.00000000000E+00 0.  1.
         -2   -1    0    0    0  501 -0.00000000000E+00 -0.00000000000E+00 -0.24770904687E+04  0.24770904687E+04  0.00000000000E+00 0. -1.
         23    2    1    2    0    0  0.83435742189E+03  0.12278510449E+04 -0.17096260948E+04  0.22659292653E+04  0.88563849046E+02 0.  0.
         11    1    3    3    0    0  0.69808369315E+03  0.10325896203E+04 -0.14827550213E+04  0.19370401698E+04  0.00000000000E+00 0. -1.
        -11    1    3    3    0    0  0.13627372874E+03  0.19526142460E+03 -0.22687107354E+03  0.32888909543E+03  0.00000000000E+00 0.  1.
         22    1    1    2    0    0 -0.83435742189E+03 -0.12278510449E+04  0.63663902914E+03  0.16152646066E+04  0.00000000000E+00 0.  1.
<mgrwt>
<rscale>  0 0.37299282E+04</rscale>
<asrwt>0</asrwt>
<pdfrwt beam="1">  1        2 0.21601591E+00 0.37299282E+04</pdfrwt>
<pdfrwt beam="2">  1       -2 0.38109084E+00 0.37299282E+04</pdfrwt>
<totfact> 0.11426658E-01</totfact>
</mgrwt>
</event>
<event>
 6    1  0.2003386E-005  0.3589693E+04  0.7818608E-02  0.8092857E-01
         -1   -1    0    0    0  501 -0.00000000000E+00  0.00000000000E+00  0.10705936424E+04  0.10705936424E+04  0.00000000000E+00 0.  1.
          1   -1    0    0  501    0  0.00000000000E+00 -0.00000000000E+00 -0.30090537514E+04  0.30090537514E+04  0.00000000000E+00 0. -1.
         23    2    1    2    0    0 -0.10006321128E+04  0.49786826008E+03  0.62417081025E+03  0.12838980027E+04  0.98323199025E+02 0.  0.
         11    1    3    3    0    0 -0.72361804744E+03  0.32381175896E+03  0.40614886612E+03  0.89074914273E+03  0.00000000000E+00 0.  1.
        -11    1    3    3    0    0 -0.27701406531E+03  0.17405650112E+03  0.21802194413E+03  0.39314885996E+03  0.00000000000E+00 0. -1.
         22    1    1    2    0    0  0.10006321128E+04 -0.49786826008E+03 -0.25626309192E+04  0.27957493911E+04  0.00000000000E+00 0. -1.
<mgrwt>
<rscale>  0 0.35896929E+04</rscale>
<asrwt>0</asrwt>
<pdfrwt beam="1">  1        1 0.46293134E+00 0.35896929E+04</pdfrwt>
<pdfrwt beam="2">  1       -1 0.16470672E+00 0.35896929E+04</pdfrwt>
<totfact> 0.12830157E-01</totfact>
</mgrwt>
</event>
<event>
 6    1  0.2003386E-005  0.9478326E+03  0.7818608E-02  0.9367688E-01
          2   -1    0    0  501    0  0.00000000000E+00  0.00000000000E+00  0.47357898147E+03  0.47357898147E+03  0.00000000000E+00 0. -1.
         -2   -1    0    0    0  501 -0.00000000000E+00 -0.00000000000E+00 -0.47425385793E+03  0.47425385793E+03  0.00000000000E+00 0.  1.
         23    2    1    2    0    0 -0.10643614510E+03  0.36184083997E+03 -0.28028907429E+03  0.47832080965E+03  0.89282614881E+02 0.  0.
         11    1    3    3    0    0 -0.51640284565E+02  0.28106717398E+03 -0.23819486497E+03  0.37202455427E+03  0.00000000000E+00 0.  1.
        -11    1    3    3    0    0 -0.54795860534E+02  0.80773665997E+02 -0.42094209315E+02  0.10629625538E+03  0.00000000000E+00 0. -1.
         22    1    1    2    0    0  0.10643614510E+03 -0.36184083997E+03  0.27961419783E+03  0.46951202976E+03  0.00000000000E+00 0. -1.
<mgrwt>
<rscale>  0 0.94783260E+03</rscale>
<asrwt>0</asrwt>
<pdfrwt beam="1">  1        2 0.72858305E-01 0.94783260E+03</pdfrwt>
<pdfrwt beam="2">  1       -2 0.72962132E-01 0.94783260E+03</pdfrwt>
<totfact> 0.11150659E+02</totfact>
</mgrwt>
</event>
<event>
 6    1  0.2003386E-005  0.2554336E+04  0.7818608E-02  0.8383880E-01
         -2   -1    0    0    0  501 -0.00000000000E+00  0.00000000000E+00  0.50037111743E+03  0.50037111743E+03  0.00000000000E+00 0.  1.
          2   -1    0    0  501    0  0.00000000000E+00 -0.00000000000E+00 -0.32598955983E+04  0.32598955983E+04  0.00000000000E+00 0. -1.
         23    2    1    2    0    0  0.60765360044E+03  0.20113580664E+03  0.24286710187E+03  0.69040454831E+03  0.89305656695E+02 0.  0.
         13    1    3    3    0    0  0.51717644364E+03  0.17824870911E+03  0.17271033959E+03  0.57364879287E+03  0.00000000000E+00 0. -1.
        -13    1    3    3    0    0  0.90477156801E+02  0.22887097525E+02  0.70156762278E+02  0.11675575544E+03  0.00000000000E+00 0.  1.
         22    1    1    2    0    0 -0.60765360044E+03 -0.20113580664E+03 -0.30023915828E+04  0.30698621674E+04  0.00000000000E+00 0. -1.
<mgrwt>
<rscale>  0 0.25543356E+04</rscale>
<asrwt>0</asrwt>
<pdfrwt beam="1">  1        2 0.50152240E+00 0.25543356E+04</pdfrwt>
<pdfrwt beam="2">  1       -2 0.76980173E-01 0.25543356E+04</pdfrwt>
<totfact> 0.15852248E+00</totfact>
</mgrwt>
</event>
<event>
 6    1  0.2003386E-005  0.3438108E+03  0.7818608E-02  0.1065184E+00
         -2   -1    0    0    0  501 -0.00000000000E+00  0.00000000000E+00  0.30229032792E+02  0.30229032792E+02  0.00000000000E+00 0.  1.
          2   -1    0    0  501    0  0.00000000000E+00 -0.00000000000E+00 -0.97758585863E+03  0.97758585863E+03  0.00000000000E+00 0. -1.
         23    2    1    2    0    0  0.10152324812E+03  0.71483181694E+02 -0.20790180751E+03  0.25800789005E+03  0.89039848314E+02 0.  0.
         13    1    3    3    0    0 -0.47459647480E+00  0.30339277689E+02 -0.10635149125E+02  0.32152813398E+02  0.00000000000E+00 0.  1.
        -13    1    3    3    0    0  0.10199784460E+03  0.41143904005E+02 -0.19726665838E+03  0.22585507665E+03  0.00000000000E+00 0. -1.
         22    1    1    2    0    0 -0.10152324812E+03 -0.71483181694E+02 -0.73945501833E+03  0.74980700138E+03  0.00000000000E+00 0. -1.
<mgrwt>
<rscale>  0 0.34381085E+03</rscale>
<asrwt>0</asrwt>
<pdfrwt beam="1">  1        2 0.15039780E+00 0.34381085E+03</pdfrwt>
<pdfrwt beam="2">  1       -2 0.46506211E-02 0.34381085E+03</pdfrwt>
<totfact> 0.59515918E+03</totfact>
</mgrwt>
</event>
<event>
 6    1  0.2003386E-005  0.1592053E+04  0.7818608E-02  0.8825445E-01
          2   -1    0    0  501    0  0.00000000000E+00  0.00000000000E+00  0.14292568718E+04  0.14292568718E+04  0.00000000000E+00 0. -1.
         -2   -1    0    0    0  501 -0.00000000000E+00 -0.00000000000E+00 -0.44334814970E+03  0.44334814970E+03  0.00000000000E+00 0.  1.
         23    2    1    2    0    0 -0.52340567388E+03 -0.27725203473E+03 -0.12657457623E+03  0.61227122473E+03  0.89625549280E+02 0.  0.
         11    1    3    3    0    0 -0.15755257842E+03 -0.88180616342E+02 -0.81160876576E+02  0.19795384299E+03  0.00000000000E+00 0. -1.
        -11    1    3    3    0    0 -0.36585309545E+03 -0.18907141839E+03 -0.45413699652E+02  0.41431738175E+03  0.00000000000E+00 0.  1.
         22    1    1    2    0    0  0.52340567388E+03  0.27725203473E+03  0.11124832983E+04  0.12603337967E+04  0.00000000000E+00 0. -1.
<mgrwt>
<rscale>  0 0.15920533E+04</rscale>
<asrwt>0</asrwt>
<pdfrwt beam="1">  1        2 0.21988567E+00 0.15920533E+04</pdfrwt>
<pdfrwt beam="2">  1       -2 0.68207408E-01 0.15920533E+04</pdfrwt>
<totfact> 0.26279398E+01</totfact>
</mgrwt>
</event>
<event>
 6    1  0.2003386E-005  0.2265643E+04  0.7818608E-02  0.8491592E-01
         -2   -1    0    0    0  501 -0.00000000000E+00  0.00000000000E+00  0.41424567526E+03  0.41424567526E+03  0.00000000000E+00 0.  1.
          2   -1    0    0  501    0  0.00000000000E+00 -0.00000000000E+00 -0.30978834910E+04  0.30978834910E+04  0.00000000000E+00 0. -1.
         23    2    1    2    0    0 -0.49676795122E+03 -0.28480969522E+03  0.16731430896E+03  0.60423938547E+03  0.96001026621E+02 0.  0.
         11    1    3    3    0    0 -0.18208325487E+03 -0.10195576760E+03  0.10967667299E+03  0.23575042492E+03  0.00000000000E+00 0.  1.
        -11    1    3    3    0    0 -0.31468469635E+03 -0.18285392763E+03  0.57637635969E+02  0.36848896055E+03  0.00000000000E+00 0. -1.
         22    1    1    2    0    0  0.49676795122E+03  0.28480969522E+03 -0.28509521247E+04  0.29078897808E+04  0.00000000000E+00 0. -1.
<mgrwt>
<rscale>  0 0.22656433E+04</rscale>
<asrwt>0</asrwt>
<pdfrwt beam="1">  1        2 0.47659745E+00 0.22656433E+04</pdfrwt>
<pdfrwt beam="2">  1       -2 0.63730106E-01 0.22656433E+04</pdfrwt>
<totfact> 0.31297987E+00</totfact>
</mgrwt>
</event>
<event>
 6    1  0.2003386E-005  0.2925335E+04  0.7818608E-02  0.8265379E-01
          1   -1    0    0  501    0  0.00000000000E+00  0.00000000000E+00  0.92226753858E+03  0.92226753858E+03  0.00000000000E+00 0. -1.
         -1   -1    0    0    0  501 -0.00000000000E+00 -0.00000000000E+00 -0.23197136407E+04  0.23197136407E+04  0.00000000000E+00 0.  1.
         23    2    1    2    0    0 -0.36563858651E+03 -0.92949701178E+03 -0.18815062285E+04  0.21320395246E+04  0.88716265572E+02 0.  0.
         11    1    3    3    0    0 -0.29859742011E+03 -0.70892032635E+03 -0.13753612676E+04  0.15758639107E+04  0.00000000000E+00 0. -1.
        -11    1    3    3    0    0 -0.67041166403E+02 -0.22057668543E+03 -0.50614496088E+03  0.55617561397E+03  0.00000000000E+00 0.  1.
         22    1    1    2    0    0  0.36563858651E+03  0.92949701178E+03  0.48406012637E+03  0.11099416547E+04  0.00000000000E+00 0. -1.
<mgrwt>
<rscale>  0 0.29253353E+04</rscale>
<asrwt>0</asrwt>
<pdfrwt beam="1">  1        1 0.14188732E+00 0.29253353E+04</pdfrwt>
<pdfrwt beam="2">  1       -1 0.35687902E+00 0.29253353E+04</pdfrwt>
<totfact> 0.20897544E-01</totfact>
</mgrwt>
</event>
<event>
 6    1  0.2003386E-005  0.1022479E+04  0.7818608E-02  0.9284228E-01
         -2   -1    0    0    0  501 -0.00000000000E+00  0.00000000000E+00  0.28528281014E+03  0.28528281014E+03  0.00000000000E+00 0.  1.
          2   -1    0    0  501    0  0.00000000000E+00 -0.00000000000E+00 -0.91616358607E+03  0.91616358607E+03  0.00000000000E+00 0. -1.
         23    2    1    2    0    0  0.28491163117E+03  0.41650769575E+03 -0.37897279712E+03  0.63743316234E+03  0.89707063799E+02 0.  0.
         11    1    3    3    0    0  0.48490438941E+02  0.13859656765E+03 -0.92507328671E+02  0.17354520186E+03  0.00000000000E+00 0. -1.
        -11    1    3    3    0    0  0.23642119223E+03  0.27791112811E+03 -0.28646546845E+03  0.46388796048E+03  0.00000000000E+00 0.  1.
         22    1    1    2    0    0 -0.28491163117E+03 -0.41650769575E+03 -0.25190797881E+03  0.56401323388E+03  0.00000000000E+00 0.  1.
<mgrwt>
<rscale>  0 0.10224788E+04</rscale>
<asrwt>0</asrwt>
<pdfrwt beam="1">  1        2 0.14094825E+00 0.10224788E+04</pdfrwt>
<pdfrwt beam="2">  1       -2 0.43889662E-01 0.10224788E+04</pdfrwt>
<totfact> 0.14030340E+02</totfact>
</mgrwt>
</event>
<event>
 6    1  0.2003386E-005  0.3691547E+04  0.7818608E-02  0.8069838E-01
          1   -1    0    0  501    0  0.00000000000E+00  0.00000000000E+00  0.20695703586E+04  0.20695703586E+04  0.00000000000E+00 0. -1.
         -1   -1    0    0    0  501 -0.00000000000E+00 -0.00000000000E+00 -0.16461769710E+04  0.16461769710E+04  0.00000000000E+00 0.  1.
         23    2    1    2    0    0 -0.16918825905E+04 -0.35501799533E+03 -0.43543162330E+03  0.17854403912E+04  0.98449048724E+02 0.  0.
         11    1    3    3    0    0 -0.15227862742E+04 -0.28934635511E+03 -0.38400132779E+03  0.15968895922E+04  0.00000000000E+00 0. -1.
        -11    1    3    3    0    0 -0.16909631626E+03 -0.65671640220E+02 -0.51430295513E+02  0.18855079898E+03  0.00000000000E+00 0.  1.
         22    1    1    2    0    0  0.16918825905E+04  0.35501799533E+03  0.85882501085E+03  0.19303069383E+04  0.00000000000E+00 0. -1.
<mgrwt>
<rscale>  0 0.36915466E+04</rscale>
<asrwt>0</asrwt>
<pdfrwt beam="1">  1        1 0.31839544E+00 0.36915466E+04</pdfrwt>
<pdfrwt beam="2">  1       -1 0.25325800E+00 0.36915466E+04</pdfrwt>
<totfact> 0.14247167E-01</totfact>
</mgrwt>
</event>
<event>
 6    1  0.2003386E-005  0.3908484E+04  0.7818608E-02  0.8023267E-01
          2   -1    0    0  501    0  0.00000000000E+00  0.00000000000E+00  0.14319472580E+04  0.14319472580E+04  0.00000000000E+00 0. -1.
         -2   -1    0    0    0  501 -0.00000000000E+00 -0.00000000000E+00 -0.26670407836E+04  0.26670407836E+04  0.00000000000E+00 0.  1.
         23    2    1    2    0    0 -0.15271431467E+03 -0.12056752194E+04  0.98572480289E+03  0.15673860893E+04  0.89840799940E+02 0.  0.
         13    1    3    3    0    0 -0.16200097376E+03 -0.11414590739E+04  0.91947140166E+03  0.14746527698E+04  0.00000000000E+00 0.  1.
        -13    1    3    3    0    0  0.92866590872E+01 -0.64216145530E+02  0.66253401234E+02  0.92733319572E+02  0.00000000000E+00 0. -1.
         22    1    1    2    0    0  0.15271431467E+03  0.12056752194E+04 -0.22208183285E+04  0.25316019522E+04  0.00000000000E+00 0.  1.
<mgrwt>
<rscale>  0 0.39084840E+04</rscale>
<asrwt>0</asrwt>
<pdfrwt beam="1">  1        2 0.22029958E+00 0.39084840E+04</pdfrwt>
<pdfrwt beam="2">  1       -2 0.41031396E+00 0.39084840E+04</pdfrwt>
<totfact> 0.69995461E-02</totfact>
</mgrwt>
</event>
<event>
 6    1  0.2003386E-005  0.1195145E+04  0.7818608E-02  0.9117117E-01
          2   -1    0    0  501    0  0.00000000000E+00  0.00000000000E+00  0.21693748654E+04  0.21693748654E+04  0.00000000000E+00 0. -1.
         -2   -1    0    0    0  501 -0.00000000000E+00 -0.00000000000E+00 -0.16460628439E+03  0.16460628439E+03  0.00000000000E+00 0.  1.
         23    2    1    2    0    0 -0.48129298885E+03 -0.18946139133E+03  0.43741325924E+03  0.68348387183E+03  0.91001559168E+02 0.  0.
         11    1    3    3    0    0 -0.49761856111E+02 -0.22942909501E+02  0.88529522628E+02  0.10411578073E+03  0.00000000000E+00 0.  1.
        -11    1    3    3    0    0 -0.43153113274E+03 -0.16651848183E+03  0.34888373662E+03  0.57936809110E+03  0.00000000000E+00 0. -1.
         22    1    1    2    0    0  0.48129298885E+03  0.18946139133E+03  0.15673553218E+04  0.16504972780E+04  0.00000000000E+00 0. -1.
<mgrwt>
<rscale>  0 0.11951447E+04</rscale>
<asrwt>0</asrwt>
<pdfrwt beam="1">  1        2 0.33374996E+00 0.11951447E+04</pdfrwt>
<pdfrwt beam="2">  1       -2 0.25324045E-01 0.11951447E+04</pdfrwt>
<totfact> 0.74524625E+01</totfact>
</mgrwt>
</event>
<event>
 6    1  0.2003386E-005  0.2557139E+04  0.7818608E-02  0.8382908E-01
         -2   -1    0    0    0  501 -0.00000000000E+00  0.00000000000E+00  0.54240003808E+03  0.54240003808E+03  0.00000000000E+00 0. -1.
          2   -1    0    0  501    0  0.00000000000E+00 -0.00000000000E+00 -0.30139012318E+04  0.30139012318E+04  0.00000000000E+00 0.  1.
         23    2    1    2    0    0  0.97100383547E+03  0.81046435860E+03 -0.98952124794E+03  0.16079775071E+04  0.82087989823E+02 0.  0.
         11    1    3    3    0    0  0.66572794441E+03  0.57808796577E+03 -0.64624363776E+03  0.10931652352E+04  0.00000000000E+00 0.  1.
        -11    1    3    3    0    0  0.30527589107E+03  0.23237639284E+03 -0.34327761018E+03  0.51481227187E+03  0.00000000000E+00 0. -1.
         22    1    1    2    0    0 -0.97100383547E+03 -0.81046435860E+03 -0.14819799458E+04  0.19483237628E+04  0.00000000000E+00 0.  1.
<mgrwt>
<rscale>  0 0.25571391E+04</rscale>
<asrwt>0</asrwt>
<pdfrwt beam="1">  1        2 0.46367712E+00 0.25571391E+04</pdfrwt>
<pdfrwt beam="2">  1       -2 0.83446157E-01 0.25571391E+04</pdfrwt>
<totfact> 0.19035485E+00</totfact>
</mgrwt>
</event>
<event>
 6    1  0.2003386E-005  0.1680810E+04  0.7818608E-02  0.8772385E-01
          2   -1    0    0  501    0  0.00000000000E+00  0.00000000000E+00  0.11956871449E+04  0.11956871449E+04  0.00000000000E+00 0.  1.
         -2   -1    0    0    0  501 -0.00000000000E+00 -0.00000000000E+00 -0.59069042898E+03  0.59069042898E+03  0.00000000000E+00 0. -1.
         23    2    1    2    0    0 -0.43337326024E+03  0.58206007987E+03 -0.14186065923E+03  0.74503120590E+03  0.91327607273E+02 0.  0.
         13    1    3    3    0    0 -0.49353565059E+02  0.11095544892E+03 -0.24768840713E+01  0.12146201458E+03  0.00000000000E+00 0. -1.
        -13    1    3    3    0    0 -0.38401969518E+03  0.47110463095E+03 -0.13938377516E+03  0.62356919132E+03  0.00000000000E+00 0.  1.
         22    1    1    2    0    0  0.43337326024E+03 -0.58206007987E+03  0.74685737512E+03  0.10413463679E+04  0.00000000000E+00 0.  1.
<mgrwt>
<rscale>  0 0.16808105E+04</rscale>
<asrwt>0</asrwt>
<pdfrwt beam="1">  1        2 0.18395187E+00 0.16808105E+04</pdfrwt>
<pdfrwt beam="2">  1       -2 0.90875451E-01 0.16808105E+04</pdfrwt>
<totfact> 0.18767682E+01</totfact>
</mgrwt>
</event>
<event>
 6    1  0.2003386E-005  0.1573379E+04  0.7818608E-02  0.8837071E-01
         -2   -1    0    0    0  501 -0.00000000000E+00  0.00000000000E+00  0.71997872878E+03  0.71997872878E+03  0.00000000000E+00 0.  1.
          2   -1    0    0  501    0  0.00000000000E+00 -0.00000000000E+00 -0.85958197785E+03  0.85958197785E+03  0.00000000000E+00 0. -1.
         23    2    1    2    0    0  0.37501176014E+03  0.63425064099E+03 -0.33915872468E+03  0.81619311255E+03  0.90746132720E+02 0.  0.
         11    1    3    3    0    0  0.23577653764E+03  0.45465371157E+03 -0.20061278043E+03  0.55004187187E+03  0.00000000000E+00 0. -1.
        -11    1    3    3    0    0  0.13923522251E+03  0.17959692942E+03 -0.13854594425E+03  0.26615124067E+03  0.00000000000E+00 0.  1.
         22    1    1    2    0    0 -0.37501176014E+03 -0.63425064099E+03  0.19955547562E+03  0.76336759408E+03  0.00000000000E+00 0.  1.
<mgrwt>
<rscale>  0 0.15733795E+04</rscale>
<asrwt>0</asrwt>
<pdfrwt beam="1">  1        2 0.13224338E+00 0.15733795E+04</pdfrwt>
<pdfrwt beam="2">  1       -2 0.11076596E+00 0.15733795E+04</pdfrwt>
<totfact> 0.19403958E+01</totfact>
</mgrwt>
</event>
<event>
 6    1  0.2003386E-005  0.8264473E+04  0.7818608E-02  0.7459452E-01
          2   -1    0    0  501    0  0.00000000000E+00  0.00000000000E+00  0.36311910545E+04  0.36311910545E+04  0.00000000000E+00 0. -1.
         -2   -1    0    0    0  501 -0.00000000000E+00 -0.00000000000E+00 -0.47024175923E+04  0.47024175923E+04  0.00000000000E+00 0.  1.
         23    2    1    2    0    0 -0.31779843470E+04  0.24346302805E+04 -0.15659423148E+04  0.42997825706E+04  0.94581755723E+02 0.  0.
         11    1    3    3    0    0 -0.12424751145E+04  0.91957605633E+03 -0.64573073380E+03  0.16752112446E+04  0.00000000000E+00 0.  1.
        -11    1    3    3    0    0 -0.19355092325E+04  0.15150542242E+04 -0.92021158100E+03  0.26245713260E+04  0.00000000000E+00 0. -1.
         22    1    1    2    0    0  0.31779843470E+04 -0.24346302805E+04  0.49471577709E+03  0.40338260762E+04  0.00000000000E+00 0. -1.
<mgrwt>
<rscale>  0 0.82644726E+04</rscale>
<asrwt>0</asrwt>
<pdfrwt beam="1">  1        2 0.55864478E+00 0.82644726E+04</pdfrwt>
<pdfrwt beam="2">  1       -2 0.72344886E+00 0.82644726E+04</pdfrwt>
<totfact> 0.70983206E-05</totfact>
</mgrwt>
</event>
<event>
 6    1  0.2003386E-005  0.1333106E+04  0.7818608E-02  0.9003716E-01
          2   -1    0    0  501    0  0.00000000000E+00  0.00000000000E+00  0.34447183048E+03  0.34447183048E+03  0.00000000000E+00 0. -1.
         -2   -1    0    0    0  501 -0.00000000000E+00 -0.00000000000E+00 -0.12897800007E+04  0.12897800007E+04  0.00000000000E+00 0.  1.
         23    2    1    2    0    0  0.46630133788E+03 -0.19890935723E+03 -0.99923710035E+03  0.11244379440E+04  0.94255169956E+02 0.  0.
         13    1    3    3    0    0  0.17340569215E+03 -0.11304200169E+03 -0.34160912960E+03  0.39943062682E+03  0.00000000000E+00 0. -1.
        -13    1    3    3    0    0  0.29289564573E+03 -0.85867355541E+02 -0.65762797075E+03  0.72500731717E+03  0.00000000000E+00 0.  1.
         22    1    1    2    0    0 -0.46630133788E+03  0.19890935723E+03  0.53928930099E+02  0.50981388722E+03  0.00000000000E+00 0. -1.
<mgrwt>
<rscale>  0 0.13331060E+04</rscale>
<asrwt>0</asrwt>
<pdfrwt beam="1">  1        2 0.52995666E-01 0.13331060E+04</pdfrwt>
<pdfrwt beam="2">  1       -2 0.19842769E+00 0.13331060E+04</pdfrwt>
<totfact> 0.12519186E+01</totfact>
</mgrwt>
</event>
<event>
 6    1  0.2003386E-005  0.6785283E+03  0.7818608E-02  0.9754673E-01
          1   -1    0    0  501    0  0.00000000000E+00  0.00000000000E+00  0.77093054973E+03  0.77093054973E+03  0.00000000000E+00 0. -1.
         -1   -1    0    0    0  501 -0.00000000000E+00 -0.00000000000E+00 -0.14930030886E+03  0.14930030886E+03  0.00000000000E+00 0.  1.
         23    2    1    2    0    0 -0.56073124685E+02 -0.17878460012E+03 -0.57195057391E+02  0.21602072368E+03  0.91024996112E+02 0.  0.
         11    1    3    3    0    0 -0.68972404916E+02 -0.97233790677E+02 -0.70487563069E+01  0.11942063329E+03  0.00000000000E+00 0.  1.
        -11    1    3    3    0    0  0.12899280232E+02 -0.81550809443E+02 -0.50146301085E+02  0.96600090392E+02  0.00000000000E+00 0. -1.
         22    1    1    2    0    0  0.56073124685E+02  0.17878460012E+03  0.67882529826E+03  0.70421013491E+03  0.00000000000E+00 0. -1.
<mgrwt>
<rscale>  0 0.67852832E+03</rscale>
<asrwt>0</asrwt>
<pdfrwt beam="1">  1        1 0.11860470E+00 0.67852832E+03</pdfrwt>
<pdfrwt beam="2">  1       -1 0.22969279E-01 0.67852832E+03</pdfrwt>
<totfact> 0.38395667E+02</totfact>
</mgrwt>
</event>
<event>
 6    1  0.2003386E-005  0.1181936E+04  0.7818608E-02  0.9128817E-01
         -1   -1    0    0    0  501 -0.00000000000E+00  0.00000000000E+00  0.83418389981E+03  0.83418389981E+03  0.00000000000E+00 0.  1.
          1   -1    0    0  501    0  0.00000000000E+00 -0.00000000000E+00 -0.41866439922E+03  0.41866439922E+03  0.00000000000E+00 0. -1.
         23    2    1    2    0    0  0.14691888880E+03 -0.30861425375E+03  0.71543704735E+03  0.79811931122E+03  0.91194016858E+02 0.  0.
         13    1    3    3    0    0  0.11693499338E+03 -0.18328132457E+03  0.36631988071E+03  0.42597663271E+03  0.00000000000E+00 0. -1.
        -13    1    3    3    0    0  0.29983895423E+02 -0.12533292918E+03  0.34911716664E+03  0.37214267851E+03  0.00000000000E+00 0.  1.
         22    1    1    2    0    0 -0.14691888880E+03  0.30861425375E+03 -0.29991754676E+03  0.45472898781E+03  0.00000000000E+00 0. -1.
<mgrwt>
<rscale>  0 0.11819359E+04</rscale>
<asrwt>0</asrwt>
<pdfrwt beam="1">  1        1 0.64409908E-01 0.11819359E+04</pdfrwt>
<pdfrwt beam="2">  1       -1 0.12833598E+00 0.11819359E+04</pdfrwt>
<totfact> 0.29312657E+01</totfact>
</mgrwt>
</event>
<event>
 6    1  0.2003386E-005  0.2232235E+04  0.7818608E-02  0.8505130E-01
         -2   -1    0    0    0  501 -0.00000000000E+00  0.00000000000E+00  0.21083374022E+04  0.21083374022E+04  0.00000000000E+00 0.  1.
          2   -1    0    0  501    0  0.00000000000E+00 -0.00000000000E+00 -0.59085349605E+03  0.59085349605E+03  0.00000000000E+00 0. -1.
         23    2    1    2    0    0 -0.10347938241E+03 -0.10526963240E+04  0.11778675290E+04  0.15882377864E+04  0.12747477133E+03 0.  0.
         13    1    3    3    0    0 -0.27298034205E+02 -0.82450969308E+02  0.57367955101E+02  0.10408855501E+03  0.00000000000E+00 0. -1.
        -13    1    3    3    0    0 -0.76181348207E+02 -0.97024535464E+03  0.11204995739E+04  0.14841492314E+04  0.00000000000E+00 0.  1.
         22    1    1    2    0    0  0.10347938241E+03  0.10526963240E+04  0.33961637715E+03  0.11109531118E+04  0.00000000000E+00 0. -1.
<mgrwt>
<rscale>  0 0.22322352E+04</rscale>
<asrwt>0</asrwt>
<pdfrwt beam="1">  1        2 0.90900539E-01 0.22322352E+04</pdfrwt>
<pdfrwt beam="2">  1       -2 0.32435960E+00 0.22322352E+04</pdfrwt>
<totfact> 0.10374083E+00</totfact>
</mgrwt>
</event>
<event>
 6    1  0.2003386E-005  0.2990964E+04  0.7818608E-02  0.8246316E-01
          2   -1    0    0  501    0  0.00000000000E+00  0.00000000000E+00  0.26086691112E+04  0.26086691112E+04  0.00000000000E+00 0.  1.
         -2   -1    0    0    0  501 -0.00000000000E+00 -0.00000000000E+00 -0.85732091626E+03  0.85732091626E+03  0.00000000000E+00 0. -1.
         23    2    1    2    0    0  0.51413642290E+03  0.46854142652E+03  0.24089029738E+04  0.25087828311E+04  0.85501033147E+02 0.  0.
         13    1    3    3    0    0  0.32108295394E+03  0.34068942154E+03  0.16777478625E+04  0.17418385216E+04  0.00000000000E+00 0. -1.
        -13    1    3    3    0    0  0.19305346896E+03  0.12785200498E+03  0.73115511131E+03  0.76694430948E+03  0.00000000000E+00 0.  1.
         22    1    1    2    0    0 -0.51413642290E+03 -0.46854142652E+03 -0.65755477881E+03  0.95720719641E+03  0.00000000000E+00 0. -1.
<mgrwt>
<rscale>  0 0.29909641E+04</rscale>
<asrwt>0</asrwt>
<pdfrwt beam="1">  1        2 0.40133371E+00 0.29909641E+04</pdfrwt>
<pdfrwt beam="2">  1       -2 0.13189553E+00 0.29909641E+04</pdfrwt>
<totfact> 0.10783081E+00</totfact>
</mgrwt>
</event>
<event>
 6    1  0.2003386E-005  0.1835020E+04  0.7818608E-02  0.8687895E-01
         -2   -1    0    0    0  501 -0.00000000000E+00  0.00000000000E+00  0.43759825086E+03  0.43759825086E+03  0.00000000000E+00 0.  1.
          2   -1    0    0  501    0  0.00000000000E+00 -0.00000000000E+00 -0.19237379323E+04  0.19237379323E+04  0.00000000000E+00 0. -1.
         23    2    1    2    0    0  0.33014388053E+03 -0.75863962568E+03 -0.12462412715E+04  0.14998953491E+04  0.10972551203E+03 0.  0.
         13    1    3    3    0    0  0.15460847365E+03 -0.42862065635E+03 -0.60102665528E+03  0.75422310196E+03  0.00000000000E+00 0.  1.
        -13    1    3    3    0    0  0.17553540688E+03 -0.33001896933E+03 -0.64521461621E+03  0.74567224714E+03  0.00000000000E+00 0. -1.
         22    1    1    2    0    0 -0.33014388053E+03  0.75863962568E+03 -0.23989840996E+03  0.86144083407E+03  0.00000000000E+00 0.  1.
<mgrwt>
<rscale>  0 0.18350197E+04</rscale>
<asrwt>0</asrwt>
<pdfrwt beam="1">  1        2 0.29595968E+00 0.18350197E+04</pdfrwt>
<pdfrwt beam="2">  1       -2 0.67322808E-01 0.18350197E+04</pdfrwt>
<totfact> 0.14032909E+01</totfact>
</mgrwt>
</event>
<event>
 6    1  0.2003386E-005  0.3671078E+04  0.7818608E-02  0.8074402E-01
         -2   -1    0    0    0  501 -0.00000000000E+00  0.00000000000E+00  0.15214179605E+04  0.15214179605E+04  0.00000000000E+00 0.  1.
          2   -1    0    0  501    0  0.00000000000E+00 -0.00000000000E+00 -0.22145148548E+04  0.22145148548E+04  0.00000000000E+00 0. -1.
         23    2    1    2    0    0 -0.14943678943E+04  0.38953026081E+03 -0.13542756614E+04  0.20560439530E+04  0.91569328691E+02 0.  0.
         11    1    3    3    0    0 -0.11949676362E+04  0.32688202601E+03 -0.10406072994E+04  0.16179193620E+04  0.00000000000E+00 0. -1.
        -11    1    3    3    0    0 -0.29940025807E+03  0.62648234805E+02 -0.31366836200E+03  0.43812459093E+03  0.00000000000E+00 0.  1.
         22    1    1    2    0    0  0.14943678943E+04 -0.38953026081E+03  0.66117876710E+03  0.16798888623E+04  0.00000000000E+00 0.  1.
<mgrwt>
<rscale>  0 0.36710776E+04</rscale>
<asrwt>0</asrwt>
<pdfrwt beam="1">  1        2 0.34069459E+00 0.36710776E+04</pdfrwt>
<pdfrwt beam="2">  1       -2 0.23406430E+00 0.36710776E+04</pdfrwt>
<totfact> 0.33115597E-01</totfact>
</mgrwt>
</event>
<event>
 6    1  0.2003386E-005  0.5688327E+04  0.7818608E-02  0.7730294E-01
          1   -1    0    0  501    0  0.00000000000E+00  0.00000000000E+00  0.34814570287E+04  0.34814570287E+04  0.00000000000E+00 0. -1.
         -1   -1    0    0    0  501 -0.00000000000E+00 -0.00000000000E+00 -0.23235289899E+04  0.23235289899E+04  0.00000000000E+00 0.  1.
         23    2    1    2    0    0  0.52702095972E+03 -0.21307696280E+04 -0.12661300691E+04  0.25348196605E+04  0.65536704877E+02 0.  0.
         13    1    3    3    0    0  0.43564772957E+03 -0.18170879907E+04 -0.10994870338E+04  0.21680566062E+04  0.00000000000E+00 0.  1.
        -13    1    3    3    0    0  0.91373230158E+02 -0.31368163724E+03 -0.16664303534E+03  0.36676305425E+03  0.00000000000E+00 0. -1.
         22    1    1    2    0    0 -0.52702095972E+03  0.21307696280E+04  0.24240581079E+04  0.32701663581E+04  0.00000000000E+00 0. -1.
<mgrwt>
<rscale>  0 0.56883271E+04</rscale>
<asrwt>0</asrwt>
<pdfrwt beam="1">  1        1 0.53560877E+00 0.56883271E+04</pdfrwt>
<pdfrwt beam="2">  1       -1 0.35746600E+00 0.56883271E+04</pdfrwt>
<totfact> 0.24480307E-03</totfact>
</mgrwt>
</event>
<event>
 6    1  0.2003386E-005  0.1184100E+04  0.7818608E-02  0.9126889E-01
         -2   -1    0    0    0  501 -0.00000000000E+00  0.00000000000E+00  0.25555684729E+03  0.25555684729E+03  0.00000000000E+00 0. -1.
          2   -1    0    0  501    0  0.00000000000E+00 -0.00000000000E+00 -0.13716053264E+04  0.13716053264E+04  0.00000000000E+00 0.  1.
         23    2    1    2    0    0  0.12401533003E+03 -0.98497004294E+02 -0.13401142163E+04  0.13527775595E+04  0.94971315197E+02 0.  0.
         13    1    3    3    0    0  0.18458778086E+02 -0.48798090562E+01 -0.53872377302E+03  0.53906200260E+03  0.00000000000E+00 0. -1.
        -13    1    3    3    0    0  0.10555655195E+03 -0.93617195237E+02 -0.80139044328E+03  0.81371555687E+03  0.00000000000E+00 0.  1.
         22    1    1    2    0    0 -0.12401533003E+03  0.98497004294E+02  0.22406573720E+03  0.27438461422E+03  0.00000000000E+00 0. -1.
<mgrwt>
<rscale>  0 0.11840999E+04</rscale>
<asrwt>0</asrwt>
<pdfrwt beam="1">  1        2 0.21101621E+00 0.11840999E+04</pdfrwt>
<pdfrwt beam="2">  1       -2 0.39316436E-01 0.11840999E+04</pdfrwt>
<totfact> 0.90722664E+01</totfact>
</mgrwt>
</event>
<event>
 6    1  0.2003386E-005  0.3420564E+04  0.7818608E-02  0.8132878E-01
         -1   -1    0    0    0  501 -0.00000000000E+00  0.00000000000E+00  0.14063889305E+04  0.14063889305E+04  0.00000000000E+00 0.  1.
          1   -1    0    0  501    0  0.00000000000E+00 -0.00000000000E+00 -0.20798408592E+04  0.20798408592E+04  0.00000000000E+00 0. -1.
         23    2    1    2    0    0  0.15401160911E+04 -0.76469152134E+02  0.41400284701E+03  0.15993373725E+04  0.93148099825E+02 0.  0.
         11    1    3    3    0    0  0.24373500978E+03 -0.17638953797E+02  0.10090822980E+03  0.26438675936E+03  0.00000000000E+00 0.  1.
        -11    1    3    3    0    0  0.12963810813E+04 -0.58830198337E+02  0.31309461721E+03  0.13349506131E+04  0.00000000000E+00 0. -1.
         22    1    1    2    0    0 -0.15401160911E+04  0.76469152134E+02 -0.10874547757E+04  0.18868924173E+04  0.00000000000E+00 0. -1.
<mgrwt>
<rscale>  0 0.34205644E+04</rscale>
<asrwt>0</asrwt>
<pdfrwt beam="1">  1        1 0.31997552E+00 0.34205644E+04</pdfrwt>
<pdfrwt beam="2">  1       -1 0.21636753E+00 0.34205644E+04</pdfrwt>
<totfact> 0.25148343E-01</totfact>
</mgrwt>
</event>
<event>
 6    1  0.2003386E-005  0.2002858E+04  0.7818608E-02  0.8605285E-01
         -2   -1    0    0    0  501 -0.00000000000E+00  0.00000000000E+00  0.80136851416E+03  0.80136851416E+03  0.00000000000E+00 0.  1.
          2   -1    0    0  501    0  0.00000000000E+00 -0.00000000000E+00 -0.12514346706E+04  0.12514346706E+04  0.00000000000E+00 0. -1.
         23    2    1    2    0    0  0.32993057782E+03  0.46911094815E+03 -0.10643336059E+04  0.12124200773E+04  0.90758753069E+02 0.  0.
         13    1    3    3    0    0  0.14072993580E+03  0.26693754950E+03 -0.50472863254E+03  0.58805744844E+03  0.00000000000E+00 0.  1.
        -13    1    3    3    0    0  0.18920064202E+03  0.20217339865E+03 -0.55960497341E+03  0.62436262887E+03  0.00000000000E+00 0. -1.
         22    1    1    2    0    0 -0.32993057782E+03 -0.46911094815E+03  0.61426744947E+03  0.84038310748E+03  0.00000000000E+00 0.  1.
<mgrwt>
<rscale>  0 0.20028583E+04</rscale>
<asrwt>0</asrwt>
<pdfrwt beam="1">  1        2 0.19252841E+00 0.20028583E+04</pdfrwt>
<pdfrwt beam="2">  1       -2 0.12328746E+00 0.20028583E+04</pdfrwt>
<totfact> 0.81402637E+00</totfact>
</mgrwt>
</event>
<event>
 6    1  0.2003386E-005  0.1335823E+04  0.7818608E-02  0.9001630E-01
         -2   -1    0    0    0  501 -0.00000000000E+00  0.00000000000E+00  0.31646986371E+04  0.31646986371E+04  0.00000000000E+00 0.  1.
          2   -1    0    0  501    0  0.00000000000E+00 -0.00000000000E+00 -0.14096311123E+03  0.14096311123E+03  0.00000000000E+00 0. -1.
         23    2    1    2    0    0 -0.17012997818E+03 -0.19964295030E+03  0.30304483761E+04  0.30432754312E+04  0.95427840858E+02 0.  0.
         11    1    3    3    0    0 -0.12275100741E+03 -0.16769207888E+03  0.26944199325E+04  0.27024224717E+04  0.00000000000E+00 0. -1.
        -11    1    3    3    0    0 -0.47378970768E+02 -0.31950871420E+02  0.33602844359E+03  0.34085295944E+03  0.00000000000E+00 0.  1.
         22    1    1    2    0    0  0.17012997818E+03  0.19964295030E+03 -0.67128501960E+01  0.26238631717E+03  0.00000000000E+00 0. -1.
<mgrwt>
<rscale>  0 0.13358230E+04</rscale>
<asrwt>0</asrwt>
<pdfrwt beam="1">  1        2 0.21686635E-01 0.13358230E+04</pdfrwt>
<pdfrwt beam="2">  1       -2 0.48687666E+00 0.13358230E+04</pdfrwt>
<totfact> 0.50985334E-01</totfact>
</mgrwt>
</event>
<event>
 6    1  0.2003386E-005  0.4403705E+04  0.7818608E-02  0.7927715E-01
         -2   -1    0    0    0  501 -0.00000000000E+00  0.00000000000E+00  0.16889210696E+04  0.16889210696E+04  0.00000000000E+00 0.  1.
          2   -1    0    0  501    0  0.00000000000E+00 -0.00000000000E+00 -0.28705634679E+04  0.28705634679E+04  0.00000000000E+00 0. -1.
         23    2    1    2    0    0 -0.13716417709E+04  0.72584464433E+03  0.10249135316E+04  0.18618669465E+04  0.88595620196E+02 0.  0.
         13    1    3    3    0    0 -0.73222378940E+03  0.41123076038E+03  0.60085148101E+03  0.10326107293E+04  0.00000000000E+00 0.  1.
        -13    1    3    3    0    0 -0.63941798150E+03  0.31461388395E+03  0.42406205055E+03  0.82925621720E+03  0.00000000000E+00 0. -1.
         22    1    1    2    0    0  0.13716417709E+04 -0.72584464433E+03 -0.22065559299E+04  0.26976175910E+04  0.00000000000E+00 0. -1.
<mgrwt>
<rscale>  0 0.44037053E+04</rscale>
<asrwt>0</asrwt>
<pdfrwt beam="1">  1        2 0.44162514E+00 0.44037053E+04</pdfrwt>
<pdfrwt beam="2">  1       -2 0.25983402E+00 0.44037053E+04</pdfrwt>
<totfact> 0.89414712E-02</totfact>
</mgrwt>
</event>
<event>
 6    1  0.2003386E-005  0.3672313E+04  0.7818608E-02  0.8074125E-01
         -1   -1    0    0    0  501 -0.00000000000E+00  0.00000000000E+00  0.20095680015E+04  0.20095680015E+04  0.00000000000E+00 0.  1.
          1   -1    0    0  501    0  0.00000000000E+00 -0.00000000000E+00 -0.16777091958E+04  0.16777091958E+04  0.00000000000E+00 0. -1.
         23    2    1    2    0    0  0.14000094185E+04 -0.92969055314E+03  0.90578230914E+03  0.19114002071E+04  0.93049791732E+02 0.  0.
         13    1    3    3    0    0  0.49226616130E+03 -0.37826808416E+03  0.34956436662E+03  0.71246611391E+03  0.00000000000E+00 0.  1.
        -13    1    3    3    0    0  0.90774325718E+03 -0.55142246898E+03  0.55621794252E+03  0.11989340932E+04  0.00000000000E+00 0. -1.
         22    1    1    2    0    0 -0.14000094185E+04  0.92969055314E+03 -0.57392350344E+03  0.17758769902E+04  0.00000000000E+00 0. -1.
<mgrwt>
<rscale>  0 0.36723130E+04</rscale>
<asrwt>0</asrwt>
<pdfrwt beam="1">  1        1 0.25810911E+00 0.36723130E+04</pdfrwt>
<pdfrwt beam="2">  1       -1 0.30916431E+00 0.36723130E+04</pdfrwt>
<totfact> 0.11428462E-01</totfact>
</mgrwt>
</event>
<event>
 6    1  0.2003386E-005  0.2646063E+04  0.7818608E-02  0.8352721E-01
         -2   -1    0    0    0  501 -0.00000000000E+00  0.00000000000E+00  0.74785282168E+03  0.74785282168E+03  0.00000000000E+00 0.  1.
          2   -1    0    0  501    0  0.00000000000E+00 -0.00000000000E+00 -0.23405848044E+04  0.23405848044E+04  0.00000000000E+00 0. -1.
         23    2    1    2    0    0  0.24812842396E+03  0.55311942559E+03 -0.21678228987E+04  0.22528310347E+04  0.91009543718E+02 0.  0.
         13    1    3    3    0    0  0.16704045111E+03  0.26155324822E+03 -0.10840941661E+04  0.11276403571E+04  0.00000000000E+00 0. -1.
        -13    1    3    3    0    0  0.81087972849E+02  0.29156617738E+03 -0.10837287326E+04  0.11251906777E+04  0.00000000000E+00 0.  1.
         22    1    1    2    0    0 -0.24812842396E+03 -0.55311942559E+03  0.57509091604E+03  0.83560659132E+03  0.00000000000E+00 0.  1.
<mgrwt>
<rscale>  0 0.26460635E+04</rscale>
<asrwt>0</asrwt>
<pdfrwt beam="1">  1        2 0.36008997E+00 0.26460635E+04</pdfrwt>
<pdfrwt beam="2">  1       -2 0.11505428E+00 0.26460635E+04</pdfrwt>
<totfact> 0.22307650E+00</totfact>
</mgrwt>
</event>
<event>
 6    1  0.2003386E-005  0.1784533E+04  0.7818608E-02  0.8714568E-01
         -2   -1    0    0    0  501 -0.00000000000E+00  0.00000000000E+00  0.15693997684E+04  0.15693997684E+04  0.00000000000E+00 0.  1.
          2   -1    0    0  501    0  0.00000000000E+00 -0.00000000000E+00 -0.50728924521E+03  0.50728924521E+03  0.00000000000E+00 0. -1.
         23    2    1    2    0    0 -0.21343399237E+03  0.86067480901E+03  0.62034611890E+03  0.10859968390E+04  0.90799950757E+02 0.  0.
         13    1    3    3    0    0 -0.87335957844E+02  0.26847164248E+03  0.15285688575E+03  0.32104488762E+03  0.00000000000E+00 0. -1.
        -13    1    3    3    0    0 -0.12609803453E+03  0.59220316653E+03  0.46748923315E+03  0.76495195135E+03  0.00000000000E+00 0.  1.
         22    1    1    2    0    0  0.21343399237E+03 -0.86067480901E+03  0.44176440426E+03  0.99069217461E+03  0.00000000000E+00 0.  1.
<mgrwt>
<rscale>  0 0.17845331E+04</rscale>
<asrwt>0</asrwt>
<pdfrwt beam="1">  1        2 0.78044500E-01 0.17845331E+04</pdfrwt>
<pdfrwt beam="2">  1       -2 0.24144612E+00 0.17845331E+04</pdfrwt>
<totfact> 0.41518640E+00</totfact>
</mgrwt>
</event>
<event>
 6    1  0.2003386E-005  0.2500327E+04  0.7818608E-02  0.8402869E-01
          2   -1    0    0  501    0  0.00000000000E+00  0.00000000000E+00  0.13085591407E+04  0.13085591407E+04  0.00000000000E+00 0. -1.
         -2   -1    0    0    0  501 -0.00000000000E+00 -0.00000000000E+00 -0.11943738746E+04  0.11943738746E+04  0.00000000000E+00 0.  1.
         23    2    1    2    0    0 -0.38552060512E+03  0.60836346288E+03  0.10780660139E+04  0.12996880959E+04  0.90722523680E+02 0.  0.
         11    1    3    3    0    0 -0.30100620759E+03  0.39796739312E+03  0.72683905933E+03  0.88163359802E+03  0.00000000000E+00 0.  1.
        -11    1    3    3    0    0 -0.84514397525E+02  0.21039606976E+03  0.35122695460E+03  0.41805449788E+03  0.00000000000E+00 0. -1.
         22    1    1    2    0    0  0.38552060512E+03 -0.60836346288E+03 -0.96388074790E+03  0.12032449194E+04  0.00000000000E+00 0. -1.
<mgrwt>
<rscale>  0 0.25003271E+04</rscale>
<asrwt>0</asrwt>
<pdfrwt beam="1">  1        2 0.20131679E+00 0.25003271E+04</pdfrwt>
<pdfrwt beam="2">  1       -2 0.18374983E+00 0.25003271E+04</pdfrwt>
<totfact> 0.24906923E+00</totfact>
</mgrwt>
</event>
<event>
 6    1  0.2003386E-005  0.2377349E+04  0.7818608E-02  0.8448033E-01
          2   -1    0    0  501    0  0.00000000000E+00  0.00000000000E+00  0.15228542470E+04  0.15228542470E+04  0.00000000000E+00 0. -1.
         -2   -1    0    0    0  501 -0.00000000000E+00 -0.00000000000E+00 -0.92782844424E+03  0.92782844424E+03  0.00000000000E+00 0.  1.
         23    2    1    2    0    0  0.32088119377E+03  0.72841302403E+03  0.12056500876E+04  0.14474816688E+04  0.89781810519E+02 0.  0.
         11    1    3    3    0    0  0.17953505349E+03  0.41691476155E+03  0.76651958173E+03  0.89084399476E+03  0.00000000000E+00 0.  1.
        -11    1    3    3    0    0  0.14134614028E+03  0.31149826248E+03  0.43913050590E+03  0.55663767400E+03  0.00000000000E+00 0. -1.
         22    1    1    2    0    0 -0.32088119377E+03 -0.72841302403E+03 -0.61062428492E+03  0.10032010224E+04  0.00000000000E+00 0.  1.
<mgrwt>
<rscale>  0 0.23773494E+04</rscale>
<asrwt>0</asrwt>
<pdfrwt beam="1">  1        2 0.23428527E+00 0.23773494E+04</pdfrwt>
<pdfrwt beam="2">  1       -2 0.14274284E+00 0.23773494E+04</pdfrwt>
<totfact> 0.37909819E+00</totfact>
</mgrwt>
</event>
<event>
 6    1  0.2003386E-005  0.9392513E+03  0.7818608E-02  0.9377803E-01
          2   -1    0    0  501    0  0.00000000000E+00  0.00000000000E+00  0.16271539765E+04  0.16271539765E+04  0.00000000000E+00 0. -1.
         -2   -1    0    0    0  501 -0.00000000000E+00 -0.00000000000E+00 -0.13554234123E+03  0.13554234123E+03  0.00000000000E+00 0.  1.
         23    2    1    2    0    0  0.37061891422E+03 -0.26952512579E+03  0.60434606793E+03  0.76407608960E+03  0.92606305761E+02 0.  0.
         13    1    3    3    0    0  0.19425358808E+03 -0.15956016627E+03  0.25845965699E+03  0.36054860620E+03  0.00000000000E+00 0. -1.
        -13    1    3    3    0    0  0.17636532615E+03 -0.10996495952E+03  0.34588641093E+03  0.40352748340E+03  0.00000000000E+00 0.  1.
         22    1    1    2    0    0 -0.37061891422E+03  0.26952512579E+03  0.88726556733E+03  0.99862022811E+03  0.00000000000E+00 0.  1.
<mgrwt>
<rscale>  0 0.93925132E+03</rscale>
<asrwt>0</asrwt>
<pdfrwt beam="1">  1        2 0.25033137E+00 0.93925132E+03</pdfrwt>
<pdfrwt beam="2">  1       -2 0.20852669E-01 0.93925132E+03</pdfrwt>
<totfact> 0.21419656E+02</totfact>
</mgrwt>
</event>
<event>
 6    1  0.2003386E-005  0.1833063E+04  0.7818608E-02  0.8688912E-01
         -2   -1    0    0    0  501 -0.00000000000E+00  0.00000000000E+00  0.87638676072E+03  0.87638676072E+03  0.00000000000E+00 0. -1.
          2   -1    0    0  501    0  0.00000000000E+00 -0.00000000000E+00 -0.95851533787E+03  0.95851533787E+03  0.00000000000E+00 0.  1.
         23    2    1    2    0    0  0.15951273800E+03  0.62018818401E+02 -0.94014767710E+03  0.95998071739E+03  0.91622462243E+02 0.  0.
         13    1    3    3    0    0  0.83018542058E+02  0.80081436577E+02 -0.53860715558E+03  0.55082010026E+03  0.00000000000E+00 0.  1.
        -13    1    3    3    0    0  0.76494195944E+02 -0.18062618176E+02 -0.40154052152E+03  0.40916061713E+03  0.00000000000E+00 0. -1.
         22    1    1    2    0    0 -0.15951273800E+03 -0.62018818401E+02  0.85801909995E+03  0.87492138121E+03  0.00000000000E+00 0. -1.
<mgrwt>
<rscale>  0 0.18330632E+04</rscale>
<asrwt>0</asrwt>
<pdfrwt beam="1">  1        2 0.14746390E+00 0.18330632E+04</pdfrwt>
<pdfrwt beam="2">  1       -2 0.13482873E+00 0.18330632E+04</pdfrwt>
<totfact> 0.99877257E+00</totfact>
</mgrwt>
</event>
<event>
 6    1  0.2003386E-005  0.1940518E+04  0.7818608E-02  0.8634947E-01
          2   -1    0    0  501    0  0.00000000000E+00  0.00000000000E+00  0.10253968915E+04  0.10253968915E+04  0.00000000000E+00 0. -1.
         -2   -1    0    0    0  501 -0.00000000000E+00 -0.00000000000E+00 -0.91808580737E+03  0.91808580737E+03  0.00000000000E+00 0.  1.
         23    2    1    2    0    0  0.54961765964E+03 -0.55054587806E+03 -0.52329149150E+03  0.94206373358E+03  0.92031284929E+02 0.  0.
         13    1    3    3    0    0  0.50598289424E+03 -0.47855054072E+03 -0.44091214703E+03  0.82427715648E+03  0.00000000000E+00 0. -1.
        -13    1    3    3    0    0  0.43634765403E+02 -0.71995337341E+02 -0.82379344468E+02  0.11778657710E+03  0.00000000000E+00 0.  1.
         22    1    1    2    0    0 -0.54961765964E+03  0.55054587806E+03  0.63060257559E+03  0.10014189653E+04  0.00000000000E+00 0. -1.
<mgrwt>
<rscale>  0 0.19405178E+04</rscale>
<asrwt>0</asrwt>
<pdfrwt beam="1">  1        2 0.15775337E+00 0.19405178E+04</pdfrwt>
<pdfrwt beam="2">  1       -2 0.14124397E+00 0.19405178E+04</pdfrwt>
<totfact> 0.79495409E+00</totfact>
</mgrwt>
</event>
<event>
 6    1  0.2003386E-005  0.1929370E+04  0.7818608E-02  0.8640374E-01
         -1   -1    0    0    0  501 -0.00000000000E+00  0.00000000000E+00  0.17247729981E+04  0.17247729981E+04  0.00000000000E+00 0.  1.
          1   -1    0    0  501    0  0.00000000000E+00 -0.00000000000E+00 -0.53955898013E+03  0.53955898013E+03  0.00000000000E+00 0. -1.
         23    2    1    2    0    0 -0.11048552838E+03 -0.68796688560E+03  0.13731184283E+04  0.15426578446E+04  0.93986805577E+02 0.  0.
         11    1    3    3    0    0 -0.70285703057E+02 -0.45527613565E+03  0.80633483934E+03  0.92865080244E+03  0.00000000000E+00 0. -1.
        -11    1    3    3    0    0 -0.40199825319E+02 -0.23269074995E+03  0.56678358900E+03  0.61400704217E+03  0.00000000000E+00 0.  1.
         22    1    1    2    0    0  0.11048552838E+03  0.68796688560E+03 -0.18790441039E+03  0.72167413360E+03  0.00000000000E+00 0. -1.
<mgrwt>
<rscale>  0 0.19293696E+04</rscale>
<asrwt>0</asrwt>
<pdfrwt beam="1">  1        1 0.83009075E-01 0.19293696E+04</pdfrwt>
<pdfrwt beam="2">  1       -1 0.26534969E+00 0.19293696E+04</pdfrwt>
<totfact> 0.20606463E+00</totfact>
</mgrwt>
</event>
<event>
 6    1  0.2003386E-005  0.1538661E+04  0.7818608E-02  0.8859143E-01
         -2   -1    0    0    0  501 -0.00000000000E+00  0.00000000000E+00  0.51504090096E+03  0.51504090096E+03  0.00000000000E+00 0.  1.
          2   -1    0    0  501    0  0.00000000000E+00 -0.00000000000E+00 -0.11491695639E+04  0.11491695639E+04  0.00000000000E+00 0. -1.
         23    2    1    2    0    0  0.30478985977E+03  0.27233542773E+03 -0.10197137819E+04  0.11023035973E+04  0.90518395055E+02 0.  0.
         11    1    3    3    0    0  0.30149464756E+03  0.27899559151E+03 -0.10072714620E+04  0.10878112707E+04  0.00000000000E+00 0. -1.
        -11    1    3    3    0    0  0.32952122088E+01 -0.66601637806E+01 -0.12442319905E+02  0.14492326580E+02  0.00000000000E+00 0.  1.
         22    1    1    2    0    0 -0.30478985977E+03 -0.27233542773E+03  0.38558511897E+03  0.56190686753E+03  0.00000000000E+00 0.  1.
<mgrwt>
<rscale>  0 0.15386609E+04</rscale>
<asrwt>0</asrwt>
<pdfrwt beam="1">  1        2 0.17679532E+00 0.15386609E+04</pdfrwt>
<pdfrwt beam="2">  1       -2 0.79237062E-01 0.15386609E+04</pdfrwt>
<totfact> 0.27662147E+01</totfact>
</mgrwt>
</event>
<event>
 6    1  0.2003386E-005  0.7430045E+04  0.7818608E-02  0.7534641E-01
         -2   -1    0    0    0  501 -0.00000000000E+00  0.00000000000E+00  0.44266983975E+04  0.44266983975E+04  0.00000000000E+00 0.  1.
          2   -1    0    0  501    0  0.00000000000E+00 -0.00000000000E+00 -0.31177623943E+04  0.31177623943E+04  0.00000000000E+00 0. -1.
         23    2    1    2    0    0  0.28413167835E+04 -0.20558254833E+04 -0.58804103693E+03  0.35572284970E+04  0.92643598491E+02 0.  0.
         13    1    3    3    0    0  0.16869550907E+04 -0.12689053387E+04 -0.33061557944E+03  0.21366433717E+04  0.00000000000E+00 0.  1.
        -13    1    3    3    0    0  0.11543616928E+04 -0.78692014462E+03 -0.25742545749E+03  0.14205851253E+04  0.00000000000E+00 0. -1.
         22    1    1    2    0    0 -0.28413167835E+04  0.20558254833E+04  0.18969770400E+04  0.39872322948E+04  0.00000000000E+00 0.  1.
<mgrwt>
<rscale>  0 0.74300454E+04</rscale>
<asrwt>0</asrwt>
<pdfrwt beam="1">  1        2 0.47965575E+00 0.74300454E+04</pdfrwt>
<pdfrwt beam="2">  1       -2 0.68103052E+00 0.74300454E+04</pdfrwt>
<totfact> 0.24143964E-04</totfact>
</mgrwt>
</event>
<event>
 6    1  0.2003386E-005  0.1644661E+04  0.7818608E-02  0.8793571E-01
          1   -1    0    0  501    0  0.00000000000E+00  0.00000000000E+00  0.22145581784E+04  0.22145581784E+04  0.00000000000E+00 0. -1.
         -1   -1    0    0    0  501 -0.00000000000E+00 -0.00000000000E+00 -0.30535532796E+03  0.30535532796E+03  0.00000000000E+00 0.  1.
         23    2    1    2    0    0 -0.43037277952E+03  0.38696504389E+03  0.68671722563E+02  0.59053083120E+03  0.95121935318E+02 0.  0.
         13    1    3    3    0    0 -0.29956658440E+03  0.27183979759E+03  0.36363633571E+01  0.40453706528E+03  0.00000000000E+00 0.  1.
        -13    1    3    3    0    0 -0.13080619511E+03  0.11512524630E+03  0.65035359206E+02  0.18599376592E+03  0.00000000000E+00 0. -1.
         22    1    1    2    0    0  0.43037277952E+03 -0.38696504389E+03  0.18405311279E+04  0.19293826751E+04  0.00000000000E+00 0. -1.
<mgrwt>
<rscale>  0 0.16446606E+04</rscale>
<asrwt>0</asrwt>
<pdfrwt beam="1">  1        1 0.34070125E+00 0.16446606E+04</pdfrwt>
<pdfrwt beam="2">  1       -1 0.46977744E-01 0.16446606E+04</pdfrwt>
<totfact> 0.92034227E+00</totfact>
</mgrwt>
</event>
<event>
 6    1  0.2003386E-005  0.2616997E+04  0.7818608E-02  0.8362451E-01
         -2   -1    0    0    0  501 -0.00000000000E+00  0.00000000000E+00  0.60577230630E+03  0.60577230630E+03  0.00000000000E+00 0.  1.
          2   -1    0    0  501    0  0.00000000000E+00 -0.00000000000E+00 -0.28264224614E+04  0.28264224614E+04  0.00000000000E+00 0. -1.
         23    2    1    2    0    0 -0.73530459479E+03  0.64317913417E+02  0.30302288380E+03  0.80279650034E+03  0.88598599046E+02 0.  0.
         13    1    3    3    0    0 -0.72485653688E+03  0.56135196485E+02  0.30663037675E+03  0.78904394509E+03  0.00000000000E+00 0.  1.
        -13    1    3    3    0    0 -0.10448057912E+02  0.81827169318E+01 -0.36074929548E+01  0.13752555251E+02  0.00000000000E+00 0. -1.
         22    1    1    2    0    0  0.73530459479E+03 -0.64317913417E+02 -0.25236730389E+04  0.26293982674E+04  0.00000000000E+00 0. -1.
<mgrwt>
<rscale>  0 0.26169971E+04</rscale>
<asrwt>0</asrwt>
<pdfrwt beam="1">  1        2 0.43483422E+00 0.26169971E+04</pdfrwt>
<pdfrwt beam="2">  1       -2 0.93195741E-01 0.26169971E+04</pdfrwt>
<totfact> 0.19182673E+00</totfact>
</mgrwt>
</event>
<event>
 6    1  0.2003386E-005  0.1581486E+04  0.7818608E-02  0.8832003E-01
         -2   -1    0    0    0  501 -0.00000000000E+00  0.00000000000E+00  0.19483437944E+03  0.19483437944E+03  0.00000000000E+00 0.  1.
          2   -1    0    0  501    0  0.00000000000E+00 -0.00000000000E+00 -0.32092628782E+04  0.32092628782E+04  0.00000000000E+00 0. -1.
         23    2    1    2    0    0 -0.61234106332E+03  0.31263294096E+03 -0.68372978288E+03  0.97410601531E+03  0.93247946113E+02 0.  0.
         13    1    3    3    0    0 -0.44092036777E+03  0.21812541782E+03 -0.54504709223E+03  0.73421100602E+03  0.00000000000E+00 0. -1.
        -13    1    3    3    0    0 -0.17142069555E+03  0.94507523139E+02 -0.13868269064E+03  0.23989500928E+03  0.00000000000E+00 0.  1.
         22    1    1    2    0    0  0.61234106332E+03 -0.31263294096E+03 -0.23306987159E+04  0.24299912423E+04  0.00000000000E+00 0. -1.
<mgrwt>
<rscale>  0 0.15814863E+04</rscale>
<asrwt>0</asrwt>
<pdfrwt beam="1">  1        2 0.49373274E+00 0.15814863E+04</pdfrwt>
<pdfrwt beam="2">  1       -2 0.29974521E-01 0.15814863E+04</pdfrwt>
<totfact> 0.12719964E+01</totfact>
</mgrwt>
</event>
<event>
 6    1  0.2003386E-005  0.2315518E+04  0.7818608E-02  0.8471828E-01
          2   -1    0    0  501    0  0.00000000000E+00  0.00000000000E+00  0.18040474371E+04  0.18040474371E+04  0.00000000000E+00 0. -1.
         -2   -1    0    0    0  501 -0.00000000000E+00 -0.00000000000E+00 -0.74299915327E+03  0.74299915327E+03  0.00000000000E+00 0.  1.
         23    2    1    2    0    0 -0.72357291464E+03 -0.70212060434E+03 -0.90559228214E+02  0.10164483519E+04  0.91843194608E+02 0.  0.
         13    1    3    3    0    0 -0.49152268900E+03 -0.48109642648E+03 -0.10449966468E+03  0.69567844964E+03  0.00000000000E+00 0.  1.
        -13    1    3    3    0    0 -0.23205022564E+03 -0.22102417787E+03  0.13940436466E+02  0.32076990225E+03  0.00000000000E+00 0. -1.
         22    1    1    2    0    0  0.72357291464E+03  0.70212060434E+03  0.11516075120E+04  0.15305982385E+04  0.00000000000E+00 0. -1.
<mgrwt>
<rscale>  0 0.23155178E+04</rscale>
<asrwt>0</asrwt>
<pdfrwt beam="1">  1        2 0.27754576E+00 0.23155178E+04</pdfrwt>
<pdfrwt beam="2">  1       -2 0.11430756E+00 0.23155178E+04</pdfrwt>
<totfact> 0.46515776E+00</totfact>
</mgrwt>
</event>
<event>
 6    1  0.2003386E-005  0.3100582E+04  0.7818608E-02  0.8215578E-01
         -2   -1    0    0    0  501 -0.00000000000E+00  0.00000000000E+00  0.12409484600E+04  0.12409484600E+04  0.00000000000E+00 0. -1.
          2   -1    0    0  501    0  0.00000000000E+00 -0.00000000000E+00 -0.19367467350E+04  0.19367467350E+04  0.00000000000E+00 0.  1.
         23    2    1    2    0    0  0.43991625800E+03 -0.69686254383E+03 -0.16923272494E+04  0.18845541679E+04  0.91810531959E+02 0.  0.
         13    1    3    3    0    0  0.10144803121E+03 -0.20276200536E+03 -0.39002031616E+03  0.45113188856E+03  0.00000000000E+00 0. -1.
        -13    1    3    3    0    0  0.33846822678E+03 -0.49410053847E+03 -0.13023069332E+04  0.14334222794E+04  0.00000000000E+00 0.  1.
         22    1    1    2    0    0 -0.43991625800E+03  0.69686254383E+03  0.99652897440E+03  0.12931410271E+04  0.00000000000E+00 0. -1.
<mgrwt>
<rscale>  0 0.31005824E+04</rscale>
<asrwt>0</asrwt>
<pdfrwt beam="1">  1        2 0.29796104E+00 0.31005824E+04</pdfrwt>
<pdfrwt beam="2">  1       -2 0.19091515E+00 0.31005824E+04</pdfrwt>
<totfact> 0.94007240E-01</totfact>
</mgrwt>
</event>
<event>
 6    1  0.2003386E-005  0.1211884E+04  0.7818608E-02  0.9102517E-01
         -2   -1    0    0    0  501 -0.00000000000E+00  0.00000000000E+00  0.31308702419E+03  0.31308702419E+03  0.00000000000E+00 0.  1.
          2   -1    0    0  501    0  0.00000000000E+00 -0.00000000000E+00 -0.11727276410E+04  0.11727276410E+04  0.00000000000E+00 0. -1.
         23    2    1    2    0    0 -0.17049799219E+01  0.52656555771E+03 -0.73901790290E+02  0.53995014157E+03  0.93864195829E+02 0.  0.
         11    1    3    3    0    0 -0.27803410948E+02  0.37659812647E+03 -0.85855660680E+02  0.38726008443E+03  0.00000000000E+00 0.  1.
        -11    1    3    3    0    0  0.26098431026E+02  0.14996743124E+03  0.11953870390E+02  0.15269005715E+03  0.00000000000E+00 0. -1.
         22    1    1    2    0    0  0.17049799219E+01 -0.52656555771E+03 -0.78573882648E+03  0.94586452358E+03  0.00000000000E+00 0. -1.
<mgrwt>
<rscale>  0 0.12118842E+04</rscale>
<asrwt>0</asrwt>
<pdfrwt beam="1">  1        2 0.18041964E+00 0.12118842E+04</pdfrwt>
<pdfrwt beam="2">  1       -2 0.48167235E-01 0.12118842E+04</pdfrwt>
<totfact> 0.79161083E+01</totfact>
</mgrwt>
</event>
<event>
 6    1  0.2003386E-005  0.3404500E+04  0.7818608E-02  0.8136803E-01
          2   -1    0    0  501    0  0.00000000000E+00  0.00000000000E+00  0.17065690263E+04  0.17065690263E+04  0.00000000000E+00 0. -1.
         -2   -1    0    0    0  501 -0.00000000000E+00 -0.00000000000E+00 -0.16979415266E+04  0.16979415266E+04  0.00000000000E+00 0.  1.
         23    2    1    2    0    0  0.15486413839E+04  0.68394409758E+03 -0.16143303223E+03  0.17030434656E+04  0.90701473669E+02 0.  0.
         13    1    3    3    0    0  0.13308140272E+04  0.55402912375E+03 -0.14696520062E+03  0.14490041460E+04  0.00000000000E+00 0. -1.
        -13    1    3    3    0    0  0.21782735667E+03  0.12991497383E+03 -0.14467831611E+02  0.25403931958E+03  0.00000000000E+00 0.  1.
         22    1    1    2    0    0 -0.15486413839E+04 -0.68394409758E+03  0.17006053188E+03  0.17014670873E+04  0.00000000000E+00 0. -1.
<mgrwt>
<rscale>  0 0.34044996E+04</rscale>
<asrwt>0</asrwt>
<pdfrwt beam="1">  1        2 0.26254908E+00 0.34044996E+04</pdfrwt>
<pdfrwt beam="2">  1       -2 0.26122177E+00 0.34044996E+04</pdfrwt>
<totfact> 0.44166097E-01</totfact>
</mgrwt>
</event>
<event>
 6    1  0.2003386E-005  0.2525357E+04  0.7818608E-02  0.8394007E-01
          2   -1    0    0  501    0  0.00000000000E+00  0.00000000000E+00  0.14378665929E+04  0.14378665929E+04  0.00000000000E+00 0. -1.
         -2   -1    0    0    0  501 -0.00000000000E+00 -0.00000000000E+00 -0.11088347714E+04  0.11088347714E+04  0.00000000000E+00 0.  1.
         23    2    1    2    0    0 -0.12609396871E+04  0.99757418603E+01  0.15572298450E+03  0.12738681613E+04  0.91771643647E+02 0.  0.
         11    1    3    3    0    0 -0.12916279295E+03  0.16663193841E+01 -0.11878662671E+02  0.12971856587E+03  0.00000000000E+00 0.  1.
        -11    1    3    3    0    0 -0.11317768941E+04  0.83094224763E+01  0.16760164717E+03  0.11441495954E+04  0.00000000000E+00 0. -1.
         22    1    1    2    0    0  0.12609396871E+04 -0.99757418603E+01  0.17330883698E+03  0.12728332031E+04  0.00000000000E+00 0.  1.
<mgrwt>
<rscale>  0 0.25253566E+04</rscale>
<asrwt>0</asrwt>
<pdfrwt beam="1">  1        2 0.22121025E+00 0.25253566E+04</pdfrwt>
<pdfrwt beam="2">  1       -2 0.17058996E+00 0.25253566E+04</pdfrwt>
<totfact> 0.25868105E+00</totfact>
</mgrwt>
</event>
<event>
 6    1  0.2003386E-005  0.5569729E+03  0.7818608E-02  0.9998927E-01
          2   -1    0    0  501    0  0.00000000000E+00  0.00000000000E+00  0.22240959316E+04  0.22240959316E+04  0.00000000000E+00 0. -1.
         -2   -1    0    0    0  501 -0.00000000000E+00 -0.00000000000E+00 -0.34870217856E+02  0.34870217856E+02  0.00000000000E+00 0.  1.
         23    2    1    2    0    0  0.73577939444E+01 -0.21313279642E+02  0.22193250009E+04  0.22213581701E+04  0.92305293571E+02 0.  0.
         11    1    3    3    0    0 -0.57220043220E+01 -0.24564572873E+02  0.21721291736E+04  0.21722756055E+04  0.00000000000E+00 0. -1.
        -11    1    3    3    0    0  0.13079798266E+02  0.32512932309E+01  0.47195827368E+02  0.49082564636E+02  0.00000000000E+00 0.  1.
         22    1    1    2    0    0 -0.73577939444E+01  0.21313279642E+02 -0.30099287180E+02  0.37607979334E+02  0.00000000000E+00 0.  1.
<mgrwt>
<rscale>  0 0.55697292E+03</rscale>
<asrwt>0</asrwt>
<pdfrwt beam="1">  1        2 0.34216849E+00 0.55697292E+03</pdfrwt>
<pdfrwt beam="2">  1       -2 0.53646506E-02 0.55697292E+03</pdfrwt>
<totfact> 0.96605682E+02</totfact>
</mgrwt>
</event>
<event>
 6    1  0.2003386E-005  0.2616486E+04  0.7818608E-02  0.8362623E-01
         -2   -1    0    0    0  501 -0.00000000000E+00  0.00000000000E+00  0.14340060527E+04  0.14340060527E+04  0.00000000000E+00 0.  1.
          2   -1    0    0  501    0  0.00000000000E+00 -0.00000000000E+00 -0.11935089816E+04  0.11935089816E+04  0.00000000000E+00 0. -1.
         23    2    1    2    0    0  0.22570702892E+03 -0.50482080624E+03 -0.10685856320E+04  0.12064291000E+04  0.88364082081E+02 0.  0.
         13    1    3    3    0    0  0.21537022131E+03 -0.39987246173E+03 -0.84994972938E+03  0.96368919282E+03  0.00000000000E+00 0. -1.
        -13    1    3    3    0    0  0.10336807614E+02 -0.10494834451E+03 -0.21863590265E+03  0.24273990718E+03  0.00000000000E+00 0.  1.
         22    1    1    2    0    0 -0.22570702892E+03  0.50482080624E+03  0.13090827031E+04  0.14210859344E+04  0.00000000000E+00 0.  1.
<mgrwt>
<rscale>  0 0.26164855E+04</rscale>
<asrwt>0</asrwt>
<pdfrwt beam="1">  1        2 0.18361677E+00 0.26164855E+04</pdfrwt>
<pdfrwt beam="2">  1       -2 0.22061632E+00 0.26164855E+04</pdfrwt>
<totfact> 0.16535442E+00</totfact>
</mgrwt>
</event>
<event>
 6    1  0.2003386E-005  0.1435344E+04  0.7818608E-02  0.8928625E-01
         -2   -1    0    0    0  501 -0.00000000000E+00  0.00000000000E+00  0.16995819988E+04  0.16995819988E+04  0.00000000000E+00 0.  1.
          2   -1    0    0  501    0  0.00000000000E+00 -0.00000000000E+00 -0.30304689605E+03  0.30304689605E+03  0.00000000000E+00 0. -1.
         23    2    1    2    0    0  0.23580884029E+03 -0.56122093628E+03  0.12237237523E+04  0.13698267841E+04  0.91382974866E+02 0.  0.
         11    1    3    3    0    0  0.21368957568E+03 -0.51607466711E+03  0.10546008256E+04  0.11933897930E+04  0.00000000000E+00 0.  1.
        -11    1    3    3    0    0  0.22119264603E+02 -0.45146269172E+02  0.16912292671E+03  0.17643699109E+03  0.00000000000E+00 0. -1.
         22    1    1    2    0    0 -0.23580884029E+03  0.56122093628E+03  0.17281135044E+03  0.63280211071E+03  0.00000000000E+00 0. -1.
<mgrwt>
<rscale>  0 0.14353439E+04</rscale>
<asrwt>0</asrwt>
<pdfrwt beam="1">  1        2 0.46622600E-01 0.14353439E+04</pdfrwt>
<pdfrwt beam="2">  1       -2 0.26147415E+00 0.14353439E+04</pdfrwt>
<totfact> 0.57685840E+00</totfact>
</mgrwt>
</event>
<event>
 6    1  0.2003386E-005  0.2158469E+04  0.7818608E-02  0.8535916E-01
         -2   -1    0    0    0  501 -0.00000000000E+00  0.00000000000E+00  0.65393401704E+03  0.65393401704E+03  0.00000000000E+00 0.  1.
          2   -1    0    0  501    0  0.00000000000E+00 -0.00000000000E+00 -0.17811384672E+04  0.17811384672E+04  0.00000000000E+00 0. -1.
         23    2    1    2    0    0  0.10755918683E+04 -0.59768902359E+02 -0.56349707459E+03  0.12192451140E+04  0.92517598848E+02 0.  0.
         13    1    3    3    0    0  0.74722340987E+03  0.60672785386E+00 -0.39785194444E+03  0.84653963999E+03  0.00000000000E+00 0. -1.
        -13    1    3    3    0    0  0.32836845846E+03 -0.60375630213E+02 -0.16564513015E+03  0.37270547404E+03  0.00000000000E+00 0.  1.
         22    1    1    2    0    0 -0.10755918683E+04  0.59768902359E+02 -0.56370737558E+03  0.12158273702E+04  0.00000000000E+00 0.  1.
<mgrwt>
<rscale>  0 0.21584689E+04</rscale>
<asrwt>0</asrwt>
<pdfrwt beam="1">  1        2 0.27402130E+00 0.21584689E+04</pdfrwt>
<pdfrwt beam="2">  1       -2 0.10060523E+00 0.21584689E+04</pdfrwt>
<totfact> 0.66013015E+00</totfact>
</mgrwt>
</event>
<event>
 6    1  0.2003386E-005  0.3336296E+04  0.7818608E-02  0.8153721E-01
         -2   -1    0    0    0  501 -0.00000000000E+00  0.00000000000E+00  0.80984849104E+03  0.80984849104E+03  0.00000000000E+00 0.  1.
          2   -1    0    0  501    0  0.00000000000E+00 -0.00000000000E+00 -0.34360964958E+04  0.34360964958E+04  0.00000000000E+00 0. -1.
         23    2    1    2    0    0 -0.10088565351E+04 -0.79497532812E+02 -0.29997070461E+04  0.31672499318E+04  0.95490326204E+02 0.  0.
         13    1    3    3    0    0 -0.41091593276E+03 -0.55311838099E+02 -0.11017522529E+04  0.11771870412E+04  0.00000000000E+00 0. -1.
        -13    1    3    3    0    0 -0.59794060234E+03 -0.24185694713E+02 -0.18979547932E+04  0.19900628906E+04  0.00000000000E+00 0.  1.
         22    1    1    2    0    0  0.10088565351E+04  0.79497532812E+02  0.37345904131E+03  0.10786950550E+04  0.00000000000E+00 0.  1.
<mgrwt>
<rscale>  0 0.33362959E+04</rscale>
<asrwt>0</asrwt>
<pdfrwt beam="1">  1        2 0.52863024E+00 0.33362959E+04</pdfrwt>
<pdfrwt beam="2">  1       -2 0.12459207E+00 0.33362959E+04</pdfrwt>
<totfact> 0.36203469E-01</totfact>
</mgrwt>
</event>
<event>
 6    1  0.2012017E-005  0.2230072E+04  0.7818608E-02  0.8506015E-01
         -2   -1    0    0    0  501 -0.00000000000E+00  0.00000000000E+00  0.76930216651E+03  0.76930216651E+03  0.00000000000E+00 0.  1.
          2   -1    0    0  501    0  0.00000000000E+00 -0.00000000000E+00 -0.16161462674E+04  0.16161462674E+04  0.00000000000E+00 0. -1.
         23    2    1    2    0    0  0.15935629287E+03 -0.93127396650E+03 -0.10537962357E+04  0.14182386248E+04  0.90822143646E+02 0.  0.
         11    1    3    3    0    0  0.51086104293E+02 -0.54958839051E+03 -0.63486117774E+03  0.84125258040E+03  0.00000000000E+00 0. -1.
        -11    1    3    3    0    0  0.10827018858E+03 -0.38168557599E+03 -0.41893505793E+03  0.57698604439E+03  0.00000000000E+00 0.  1.
         22    1    1    2    0    0 -0.15935629287E+03  0.93127396650E+03  0.20695213478E+03  0.96720980911E+03  0.00000000000E+00 0.  1.
<mgrwt>
<rscale>  0 0.22300716E+04</rscale>
<asrwt>0</asrwt>
<pdfrwt beam="1">  1        2 0.24863788E+00 0.22300716E+04</pdfrwt>
<pdfrwt beam="2">  1       -2 0.11835418E+00 0.22300716E+04</pdfrwt>
<totfact> 0.54734292E+00</totfact>
</mgrwt>
</event>
<event>
 6    1  0.2003386E-005  0.2774441E+04  0.7818608E-02  0.8311248E-01
          2   -1    0    0  501    0  0.00000000000E+00  0.00000000000E+00  0.13938956659E+04  0.13938956659E+04  0.00000000000E+00 0. -1.
         -2   -1    0    0    0  501 -0.00000000000E+00 -0.00000000000E+00 -0.13805775534E+04  0.13805775534E+04  0.00000000000E+00 0.  1.
         23    2    1    2    0    0 -0.38499531818E+03 -0.28023929294E+03  0.13084510353E+04  0.13945729533E+04  0.77679816116E+02 0.  0.
         13    1    3    3    0    0 -0.23730477399E+03 -0.12684967709E+03  0.76078483251E+03  0.80696837467E+03  0.00000000000E+00 0.  1.
        -13    1    3    3    0    0 -0.14769054419E+03 -0.15338961585E+03  0.54766620281E+03  0.58760457860E+03  0.00000000000E+00 0. -1.
         22    1    1    2    0    0  0.38499531818E+03  0.28023929294E+03 -0.12951329228E+04  0.13799002660E+04  0.00000000000E+00 0.  1.
<mgrwt>
<rscale>  0 0.27744413E+04</rscale>
<asrwt>0</asrwt>
<pdfrwt beam="1">  1        2 0.21444549E+00 0.27744413E+04</pdfrwt>
<pdfrwt beam="2">  1       -2 0.21239655E+00 0.27744413E+04</pdfrwt>
<totfact> 0.14058572E+00</totfact>
</mgrwt>
</event>
<event>
 6    1  0.2003386E-005  0.4853877E+04  0.7818608E-02  0.7851452E-01
         -2   -1    0    0    0  501 -0.00000000000E+00  0.00000000000E+00  0.14605805973E+04  0.14605805973E+04  0.00000000000E+00 0. -1.
          2   -1    0    0  501    0  0.00000000000E+00 -0.00000000000E+00 -0.40326645867E+04  0.40326645867E+04  0.00000000000E+00 0.  1.
         23    2    1    2    0    0  0.63134799057E+03  0.20290533018E+04 -0.26112667722E+04  0.33678763038E+04  0.90659007096E+02 0.  0.
         13    1    3    3    0    0  0.54032788482E+03  0.16146622909E+04 -0.20910015396E+04  0.26965489010E+04  0.00000000000E+00 0. -1.
        -13    1    3    3    0    0  0.91020105751E+02  0.41439101090E+03 -0.52026523255E+03  0.67132740281E+03  0.00000000000E+00 0.  1.
         22    1    1    2    0    0 -0.63134799057E+03 -0.20290533018E+04  0.39182782816E+02  0.21253688802E+04  0.00000000000E+00 0. -1.
<mgrwt>
<rscale>  0 0.48538775E+04</rscale>
<asrwt>0</asrwt>
<pdfrwt beam="1">  1        2 0.62040993E+00 0.48538775E+04</pdfrwt>
<pdfrwt beam="2">  1       -2 0.22470471E+00 0.48538775E+04</pdfrwt>
<totfact> 0.21770386E-02</totfact>
</mgrwt>
</event>
<event>
 6    1  0.2003386E-005  0.4364545E+04  0.7818608E-02  0.7934790E-01
          2   -1    0    0  501    0  0.00000000000E+00  0.00000000000E+00  0.21090225580E+04  0.21090225580E+04  0.00000000000E+00 0. -1.
         -2   -1    0    0    0  501 -0.00000000000E+00 -0.00000000000E+00 -0.22580664392E+04  0.22580664392E+04  0.00000000000E+00 0.  1.
         23    2    1    2    0    0 -0.22498883979E+03  0.15975023439E+04  0.13942429192E+04  0.21345192077E+04  0.98108173684E+02 0.  0.
         11    1    3    3    0    0 -0.17657251641E+03  0.10665113481E+04  0.98336937205E+03  0.14613827805E+04  0.00000000000E+00 0.  1.
        -11    1    3    3    0    0 -0.48416323380E+02  0.53099099576E+03  0.41087354716E+03  0.67313642726E+03  0.00000000000E+00 0. -1.
         22    1    1    2    0    0  0.22498883979E+03 -0.15975023439E+04 -0.15432868004E+04  0.22325697895E+04  0.00000000000E+00 0.  1.
<mgrwt>
<rscale>  0 0.43645449E+04</rscale>
<asrwt>0</asrwt>
<pdfrwt beam="1">  1        2 0.32446501E+00 0.43645449E+04</pdfrwt>
<pdfrwt beam="2">  1       -2 0.34739484E+00 0.43645449E+04</pdfrwt>
<totfact> 0.71881738E-02</totfact>
</mgrwt>
</event>
<event>
 6    1  0.2003386E-005  0.2432381E+04  0.7818608E-02  0.8427479E-01
          2   -1    0    0  501    0  0.00000000000E+00  0.00000000000E+00  0.22066532303E+04  0.22066532303E+04  0.00000000000E+00 0. -1.
         -2   -1    0    0    0  501 -0.00000000000E+00 -0.00000000000E+00 -0.67029997598E+03  0.67029997598E+03  0.00000000000E+00 0.  1.
         23    2    1    2    0    0 -0.47676188749E+03 -0.90220660013E+03 -0.96447602425E+01  0.10245524646E+04  0.91302161399E+02 0.  0.
         13    1    3    3    0    0 -0.13304951948E+03 -0.31375157957E+03  0.28627837090E+02  0.34199675638E+03  0.00000000000E+00 0. -1.
        -13    1    3    3    0    0 -0.34371236802E+03 -0.58845502055E+03 -0.38272597333E+02  0.68255570824E+03  0.00000000000E+00 0.  1.
         22    1    1    2    0    0  0.47676188749E+03  0.90220660013E+03  0.15459980145E+04  0.18524007417E+04  0.00000000000E+00 0. -1.
<mgrwt>
<rscale>  0 0.24323812E+04</rscale>
<asrwt>0</asrwt>
<pdfrwt beam="1">  1        2 0.33948511E+00 0.24323812E+04</pdfrwt>
<pdfrwt beam="2">  1       -2 0.10312307E+00 0.24323812E+04</pdfrwt>
<totfact> 0.35237946E+00</totfact>
</mgrwt>
</event>
<event>
 6    1  0.2003386E-005  0.2138362E+04  0.7818608E-02  0.8544530E-01
          2   -1    0    0  501    0  0.00000000000E+00  0.00000000000E+00  0.19662685420E+04  0.19662685420E+04  0.00000000000E+00 0. -1.
         -2   -1    0    0    0  501 -0.00000000000E+00 -0.00000000000E+00 -0.58137963677E+03  0.58137963677E+03  0.00000000000E+00 0.  1.
         23    2    1    2    0    0  0.61374890609E+03  0.22703361561E+03 -0.31076178721E+03  0.73010498723E+03  0.90820821595E+02 0.  0.
         13    1    3    3    0    0  0.56061347692E+03  0.18602013519E+03 -0.25723196576E+03  0.64425091805E+03  0.00000000000E+00 0. -1.
        -13    1    3    3    0    0  0.53135429176E+02  0.41013480423E+02 -0.53529821449E+02  0.85854069178E+02  0.00000000000E+00 0.  1.
         22    1    1    2    0    0 -0.61374890609E+03 -0.22703361561E+03  0.16956506924E+04  0.18175431915E+04  0.00000000000E+00 0. -1.
<mgrwt>
<rscale>  0 0.21383624E+04</rscale>
<asrwt>0</asrwt>
<pdfrwt beam="1">  1        2 0.30250285E+00 0.21383624E+04</pdfrwt>
<pdfrwt beam="2">  1       -2 0.89443022E-01 0.21383624E+04</pdfrwt>
<totfact> 0.68701004E+00</totfact>
</mgrwt>
</event>
<event>
 6    1  0.2003386E-005  0.1699125E+04  0.7818608E-02  0.8761864E-01
          2   -1    0    0  501    0  0.00000000000E+00  0.00000000000E+00  0.18082904917E+04  0.18082904917E+04  0.00000000000E+00 0. -1.
         -2   -1    0    0    0  501 -0.00000000000E+00 -0.00000000000E+00 -0.39913745198E+03  0.39913745198E+03  0.00000000000E+00 0.  1.
         23    2    1    2    0    0 -0.24983316608E+03 -0.48698695088E+03 -0.13315109649E+03  0.57088434519E+03  0.92772948014E+02 0.  0.
         13    1    3    3    0    0 -0.14097216906E+03 -0.19748399506E+03 -0.28208422525E+02  0.24427197108E+03  0.00000000000E+00 0. -1.
        -13    1    3    3    0    0 -0.10886099702E+03 -0.28950295583E+03 -0.10494267396E+03  0.32661237411E+03  0.00000000000E+00 0.  1.
         22    1    1    2    0    0  0.24983316608E+03  0.48698695088E+03  0.15423041362E+04  0.16365435985E+04  0.00000000000E+00 0. -1.
<mgrwt>
<rscale>  0 0.16991250E+04</rscale>
<asrwt>0</asrwt>
<pdfrwt beam="1">  1        2 0.27819853E+00 0.16991250E+04</pdfrwt>
<pdfrwt beam="2">  1       -2 0.61405763E-01 0.16991250E+04</pdfrwt>
<totfact> 0.20031722E+01</totfact>
</mgrwt>
</event>
<event>
 6    1  0.2003386E-005  0.2413636E+04  0.7818608E-02  0.8434416E-01
          2   -1    0    0  501    0  0.00000000000E+00  0.00000000000E+00  0.39593766141E+04  0.39593766141E+04  0.00000000000E+00 0. -1.
         -2   -1    0    0    0  501 -0.00000000000E+00 -0.00000000000E+00 -0.36783826624E+03  0.36783826624E+03  0.00000000000E+00 0.  1.
         23    2    1    2    0    0  0.32484849070E+03 -0.11414493586E+04  0.14208144762E+04  0.18532554411E+04  0.86074234975E+02 0.  0.
         11    1    3    3    0    0  0.13377478715E+03 -0.58902311402E+03  0.76583992386E+03  0.97537413924E+03  0.00000000000E+00 0. -1.
        -11    1    3    3    0    0  0.19107370355E+03 -0.55242624458E+03  0.65497455237E+03  0.87788130185E+03  0.00000000000E+00 0.  1.
         22    1    1    2    0    0 -0.32484849070E+03  0.11414493586E+04  0.21707238717E+04  0.24739594393E+04  0.00000000000E+00 0. -1.
<mgrwt>
<rscale>  0 0.24136365E+04</rscale>
<asrwt>0</asrwt>
<pdfrwt beam="1">  1        2 0.60913483E+00 0.24136365E+04</pdfrwt>
<pdfrwt beam="2">  1       -2 0.56590505E-01 0.24136365E+04</pdfrwt>
<totfact> 0.97466863E-01</totfact>
</mgrwt>
</event>
<event>
 6    1  0.2003386E-005  0.6421200E+03  0.7818608E-02  0.9821679E-01
          1   -1    0    0  501    0  0.00000000000E+00  0.00000000000E+00  0.66713588095E+03  0.66713588095E+03  0.00000000000E+00 0. -1.
         -1   -1    0    0    0  501 -0.00000000000E+00 -0.00000000000E+00 -0.15451051363E+03  0.15451051363E+03  0.00000000000E+00 0.  1.
         23    2    1    2    0    0 -0.43310101481E+01 -0.15754906949E+03 -0.86728775927E+02  0.20191592415E+03  0.91693472536E+02 0.  0.
         11    1    3    3    0    0 -0.39925903501E+02 -0.13336876217E+03 -0.68964149460E+02  0.15536202369E+03  0.00000000000E+00 0.  1.
        -11    1    3    3    0    0  0.35594893353E+02 -0.24180307321E+02 -0.17764626467E+02  0.46553900465E+02  0.00000000000E+00 0. -1.
         22    1    1    2    0    0  0.43310101481E+01  0.15754906949E+03  0.59935414324E+03  0.61973047042E+03  0.00000000000E+00 0. -1.
<mgrwt>
<rscale>  0 0.64211995E+03</rscale>
<asrwt>0</asrwt>
<pdfrwt beam="1">  1        1 0.10263629E+00 0.64211995E+03</pdfrwt>
<pdfrwt beam="2">  1       -1 0.23770849E-01 0.64211995E+03</pdfrwt>
<totfact> 0.45215842E+02</totfact>
</mgrwt>
</event>
<event>
 6    1  0.2003386E-005  0.1312184E+04  0.7818608E-02  0.9019958E-01
         -2   -1    0    0    0  501 -0.00000000000E+00  0.00000000000E+00  0.13261328486E+03  0.13261328486E+03  0.00000000000E+00 0.  1.
          2   -1    0    0  501    0  0.00000000000E+00 -0.00000000000E+00 -0.32459569026E+04  0.32459569026E+04  0.00000000000E+00 0. -1.
         23    2    1    2    0    0  0.52519237051E+03 -0.36609243922E+03 -0.18949754535E+04  0.20022447595E+04  0.90561621804E+02 0.  0.
         13    1    3    3    0    0  0.13796204938E+03 -0.13203145025E+03 -0.47605478685E+03  0.51292688661E+03  0.00000000000E+00 0. -1.
        -13    1    3    3    0    0  0.38723032113E+03 -0.23406098897E+03 -0.14189206667E+04  0.14893178729E+04  0.00000000000E+00 0.  1.
         22    1    1    2    0    0 -0.52519237051E+03  0.36609243922E+03 -0.12183681642E+04  0.13763254280E+04  0.00000000000E+00 0.  1.
<mgrwt>
<rscale>  0 0.13121844E+04</rscale>
<asrwt>0</asrwt>
<pdfrwt beam="1">  1        2 0.49937800E+00 0.13121844E+04</pdfrwt>
<pdfrwt beam="2">  1       -2 0.20402043E-01 0.13121844E+04</pdfrwt>
<totfact> 0.24829723E+01</totfact>
</mgrwt>
</event>
<event>
 6    1  0.2003386E-005  0.2005861E+04  0.7818608E-02  0.8603885E-01
         -2   -1    0    0    0  501 -0.00000000000E+00  0.00000000000E+00  0.74124383719E+03  0.74124383719E+03  0.00000000000E+00 0.  1.
          2   -1    0    0  501    0  0.00000000000E+00 -0.00000000000E+00 -0.13570023961E+04  0.13570023961E+04  0.00000000000E+00 0. -1.
         23    2    1    2    0    0 -0.50468814361E+03  0.85959583719E+03 -0.21333329689E+03  0.10232759001E+04  0.89259994616E+02 0.  0.
         13    1    3    3    0    0 -0.15812362195E+03  0.23229468457E+03 -0.24050070223E+02  0.28203245589E+03  0.00000000000E+00 0.  1.
        -13    1    3    3    0    0 -0.34656452167E+03  0.62730115262E+03 -0.18928322666E+03  0.74124344426E+03  0.00000000000E+00 0. -1.
         22    1    1    2    0    0  0.50468814361E+03 -0.85959583719E+03 -0.40242526202E+03  0.10749703331E+04  0.00000000000E+00 0. -1.
<mgrwt>
<rscale>  0 0.20058611E+04</rscale>
<asrwt>0</asrwt>
<pdfrwt beam="1">  1        2 0.20876960E+00 0.20058611E+04</pdfrwt>
<pdfrwt beam="2">  1       -2 0.11403751E+00 0.20058611E+04</pdfrwt>
<totfact> 0.85632615E+00</totfact>
</mgrwt>
</event>
<event>
 6    1  0.2003386E-005  0.1625452E+04  0.7818608E-02  0.8805063E-01
         -2   -1    0    0    0  501 -0.00000000000E+00  0.00000000000E+00  0.49058411868E+03  0.49058411868E+03  0.00000000000E+00 0.  1.
          2   -1    0    0  501    0  0.00000000000E+00 -0.00000000000E+00 -0.13464018893E+04  0.13464018893E+04  0.00000000000E+00 0. -1.
         23    2    1    2    0    0  0.56147586433E+03  0.57376119399E+03 -0.55083981470E+03  0.97822608369E+03  0.95103708656E+02 0.  0.
         11    1    3    3    0    0  0.32088067448E+03  0.37506245110E+03 -0.29769928100E+03  0.57642094982E+03  0.00000000000E+00 0.  1.
        -11    1    3    3    0    0  0.24059518985E+03  0.19869874288E+03 -0.25314053370E+03  0.40180513387E+03  0.00000000000E+00 0. -1.
         22    1    1    2    0    0 -0.56147586433E+03 -0.57376119399E+03 -0.30497795590E+03  0.85875992427E+03  0.00000000000E+00 0. -1.
<mgrwt>
<rscale>  0 0.16254518E+04</rscale>
<asrwt>0</asrwt>
<pdfrwt beam="1">  1        2 0.20713875E+00 0.16254518E+04</pdfrwt>
<pdfrwt beam="2">  1       -2 0.75474480E-01 0.16254518E+04</pdfrwt>
<totfact> 0.23413603E+01</totfact>
</mgrwt>
</event>
<event>
 6    1  0.2003386E-005  0.4666617E+04  0.7818608E-02  0.7882099E-01
          2   -1    0    0  501    0  0.00000000000E+00  0.00000000000E+00  0.23120693836E+04  0.23120693836E+04  0.00000000000E+00 0. -1.
         -2   -1    0    0    0  501 -0.00000000000E+00 -0.00000000000E+00 -0.23547424277E+04  0.23547424277E+04  0.00000000000E+00 0.  1.
         23    2    1    2    0    0  0.96522221262E+03  0.96109527424E+03  0.18721433751E+04  0.23169437374E+04  0.89159514906E+02 0.  0.
         13    1    3    3    0    0  0.43328216495E+03  0.41079544053E+03  0.75000597106E+03  0.95864241772E+03  0.00000000000E+00 0.  1.
        -13    1    3    3    0    0  0.53194004767E+03  0.55029983371E+03  0.11221374041E+04  0.13583013196E+04  0.00000000000E+00 0. -1.
         22    1    1    2    0    0 -0.96522221262E+03 -0.96109527424E+03 -0.19148164191E+04  0.23498680739E+04  0.00000000000E+00 0.  1.
<mgrwt>
<rscale>  0 0.46666167E+04</rscale>
<asrwt>0</asrwt>
<pdfrwt beam="1">  1        2 0.35570299E+00 0.46666167E+04</pdfrwt>
<pdfrwt beam="2">  1       -2 0.36226806E+00 0.46666167E+04</pdfrwt>
<totfact> 0.43399850E-02</totfact>
</mgrwt>
</event>
<event>
 6    1  0.2003386E-005  0.2889745E+04  0.7818608E-02  0.8275935E-01
         -2   -1    0    0    0  501 -0.00000000000E+00  0.00000000000E+00  0.17024280395E+04  0.17024280395E+04  0.00000000000E+00 0.  1.
          2   -1    0    0  501    0  0.00000000000E+00 -0.00000000000E+00 -0.12262819096E+04  0.12262819096E+04  0.00000000000E+00 0. -1.
         23    2    1    2    0    0 -0.67033129060E+03 -0.40743376547E+03  0.14662942973E+04  0.16654840368E+04  0.92042370520E+02 0.  0.
         13    1    3    3    0    0 -0.47416318163E+03 -0.32357363927E+03  0.10088376386E+04  0.11607256368E+04  0.00000000000E+00 0. -1.
        -13    1    3    3    0    0 -0.19616810897E+03 -0.83860126201E+02  0.45745665866E+03  0.50475839993E+03  0.00000000000E+00 0.  1.
         22    1    1    2    0    0  0.67033129060E+03  0.40743376547E+03 -0.99014816734E+03  0.12632259124E+04  0.00000000000E+00 0. -1.
<mgrwt>
<rscale>  0 0.28897451E+04</rscale>
<asrwt>0</asrwt>
<pdfrwt beam="1">  1        2 0.18865876E+00 0.28897451E+04</pdfrwt>
<pdfrwt beam="2">  1       -2 0.26191200E+00 0.28897451E+04</pdfrwt>
<totfact> 0.85704735E-01</totfact>
</mgrwt>
</event>
<event>
 6    1  0.2003386E-005  0.3108710E+04  0.7818608E-02  0.8213352E-01
          2   -1    0    0  501    0  0.00000000000E+00  0.00000000000E+00  0.10435960197E+04  0.10435960197E+04  0.00000000000E+00 0. -1.
         -2   -1    0    0    0  501 -0.00000000000E+00 -0.00000000000E+00 -0.23150907258E+04  0.23150907258E+04  0.00000000000E+00 0.  1.
         23    2    1    2    0    0 -0.14148269275E+04  0.47239999165E+03 -0.11036157988E+04  0.18576603252E+04  0.89649682865E+02 0.  0.
         11    1    3    3    0    0 -0.66169035333E+03  0.26751533534E+03 -0.51809583765E+03  0.88194210429E+03  0.00000000000E+00 0.  1.
        -11    1    3    3    0    0 -0.75313657412E+03  0.20488465632E+03 -0.58551996120E+03  0.97571822092E+03  0.00000000000E+00 0. -1.
         22    1    1    2    0    0  0.14148269275E+04 -0.47239999165E+03 -0.16787890728E+03  0.15010264202E+04  0.00000000000E+00 0. -1.
<mgrwt>
<rscale>  0 0.31087100E+04</rscale>
<asrwt>0</asrwt>
<pdfrwt beam="1">  1        2 0.16055323E+00 0.31087100E+04</pdfrwt>
<pdfrwt beam="2">  1       -2 0.35616781E+00 0.31087100E+04</pdfrwt>
<totfact> 0.28498021E-01</totfact>
</mgrwt>
</event>
<event>
 6    1  0.2003386E-005  0.1961317E+04  0.7818608E-02  0.8624923E-01
          2   -1    0    0  501    0  0.00000000000E+00  0.00000000000E+00  0.24913641921E+04  0.24913641921E+04  0.00000000000E+00 0. -1.
         -2   -1    0    0    0  501 -0.00000000000E+00 -0.00000000000E+00 -0.38600998397E+03  0.38600998397E+03  0.00000000000E+00 0.  1.
         23    2    1    2    0    0 -0.77929577612E+03 -0.15898648445E+03  0.21847864261E+03  0.82972234808E+03  0.90153473062E+02 0.  0.
         11    1    3    3    0    0 -0.23473489891E+03 -0.17161071128E+02  0.35684023370E+02  0.23805109673E+03  0.00000000000E+00 0. -1.
        -11    1    3    3    0    0 -0.54456087721E+03 -0.14182541332E+03  0.18279461924E+03  0.59167125135E+03  0.00000000000E+00 0.  1.
         22    1    1    2    0    0  0.77929577612E+03  0.15898648445E+03  0.18868755656E+04  0.20476518280E+04  0.00000000000E+00 0. -1.
<mgrwt>
<rscale>  0 0.19613174E+04</rscale>
<asrwt>0</asrwt>
<pdfrwt beam="1">  1        2 0.38328679E+00 0.19613174E+04</pdfrwt>
<pdfrwt beam="2">  1       -2 0.59386153E-01 0.19613174E+04</pdfrwt>
<totfact> 0.86923270E+00</totfact>
</mgrwt>
</event>
<event>
 6    1  0.2003386E-005  0.2679243E+04  0.7818608E-02  0.8341772E-01
          1   -1    0    0  501    0  0.00000000000E+00  0.00000000000E+00  0.34279572705E+04  0.34279572705E+04  0.00000000000E+00 0. -1.
         -1   -1    0    0    0  501 -0.00000000000E+00 -0.00000000000E+00 -0.52351452897E+03  0.52351452897E+03  0.00000000000E+00 0.  1.
         23    2    1    2    0    0 -0.20574120359E+03  0.75653654207E+03 -0.14529712837E+03  0.80256877518E+03  0.91260073609E+02 0.  0.
         11    1    3    3    0    0 -0.14908401549E+03  0.66104206143E+03 -0.11364389238E+03  0.68710813190E+03  0.00000000000E+00 0. -1.
        -11    1    3    3    0    0 -0.56657188108E+02  0.95494480644E+02 -0.31653235984E+02  0.11546064328E+03  0.00000000000E+00 0.  1.
         22    1    1    2    0    0  0.20574120359E+03 -0.75653654207E+03  0.30497398699E+04  0.31489030243E+04  0.00000000000E+00 0. -1.
<mgrwt>
<rscale>  0 0.26792428E+04</rscale>
<asrwt>0</asrwt>
<pdfrwt beam="1">  1        1 0.52737803E+00 0.26792428E+04</pdfrwt>
<pdfrwt beam="2">  1       -1 0.80540699E-01 0.26792428E+04</pdfrwt>
<totfact> 0.38276278E-01</totfact>
</mgrwt>
</event>
<event>
 6    1  0.2003386E-005  0.2040397E+04  0.7818608E-02  0.8587963E-01
         -2   -1    0    0    0  501 -0.00000000000E+00  0.00000000000E+00  0.10464352737E+04  0.10464352737E+04  0.00000000000E+00 0.  1.
          2   -1    0    0  501    0  0.00000000000E+00 -0.00000000000E+00 -0.99461941944E+03  0.99461941944E+03  0.00000000000E+00 0. -1.
         23    2    1    2    0    0  0.23262663304E+03 -0.63624513806E+03 -0.73431882390E+03  0.10033019488E+04  0.92019776801E+02 0.  0.
         13    1    3    3    0    0  0.16389165536E+03 -0.37537737597E+03 -0.38683806898E+03  0.56339359305E+03  0.00000000000E+00 0.  1.
        -13    1    3    3    0    0  0.68734977688E+02 -0.26086776210E+03 -0.34748075492E+03  0.43990835580E+03  0.00000000000E+00 0. -1.
         22    1    1    2    0    0 -0.23262663304E+03  0.63624513806E+03  0.78613467818E+03  0.10377527443E+04  0.00000000000E+00 0.  1.
<mgrwt>
<rscale>  0 0.20403969E+04</rscale>
<asrwt>0</asrwt>
<pdfrwt beam="1">  1        2 0.15301837E+00 0.20403969E+04</pdfrwt>
<pdfrwt beam="2">  1       -2 0.16099004E+00 0.20403969E+04</pdfrwt>
<totfact> 0.58227144E+00</totfact>
</mgrwt>
</event>
<event>
 6    1  0.2003386E-005  0.1442155E+04  0.7818608E-02  0.8923858E-01
          2   -1    0    0  501    0  0.00000000000E+00  0.00000000000E+00  0.16421850140E+04  0.16421850140E+04  0.00000000000E+00 0. -1.
         -2   -1    0    0    0  501 -0.00000000000E+00 -0.00000000000E+00 -0.31662244792E+03  0.31662244792E+03  0.00000000000E+00 0.  1.
         23    2    1    2    0    0 -0.16428569169E+03 -0.34407196880E+01  0.16151278382E+04  0.16258665154E+04  0.88330998314E+02 0.  0.
         13    1    3    3    0    0 -0.16615421519E+03  0.34100128035E+01  0.12899732295E+04  0.13006343776E+04  0.00000000000E+00 0.  1.
        -13    1    3    3    0    0  0.18685235016E+01 -0.68507324915E+01  0.32515460867E+03  0.32523213780E+03  0.00000000000E+00 0. -1.
         22    1    1    2    0    0  0.16428569169E+03  0.34407196880E+01 -0.28956527210E+03  0.33294094649E+03  0.00000000000E+00 0.  1.
<mgrwt>
<rscale>  0 0.14421548E+04</rscale>
<asrwt>0</asrwt>
<pdfrwt beam="1">  1        2 0.25264384E+00 0.14421548E+04</pdfrwt>
<pdfrwt beam="2">  1       -2 0.48711147E-01 0.14421548E+04</pdfrwt>
<totfact> 0.40898492E+01</totfact>
</mgrwt>
</event>
<event>
 6    1  0.2003386E-005  0.2462174E+04  0.7818608E-02  0.8416586E-01
          4   -1    0    0  501    0  0.00000000000E+00  0.00000000000E+00  0.16056587922E+04  0.16056587922E+04  0.00000000000E+00 0. -1.
         -4   -1    0    0    0  501 -0.00000000000E+00 -0.00000000000E+00 -0.94389621734E+03  0.94389621734E+03  0.00000000000E+00 0.  1.
         23    2    1    2    0    0  0.84939730983E+02  0.56584382462E+03  0.14580385160E+04  0.15690197648E+04  0.92480897328E+02 0.  0.
         13    1    3    3    0    0 -0.61935995812E+01  0.26403763575E+03  0.68688040914E+03  0.73590687606E+03  0.00000000000E+00 0. -1.
        -13    1    3    3    0    0  0.91133330564E+02  0.30180618887E+03  0.77115810690E+03  0.83311288876E+03  0.00000000000E+00 0.  1.
         22    1    1    2    0    0 -0.84939730983E+02 -0.56584382462E+03 -0.79627594114E+03  0.98053524475E+03  0.00000000000E+00 0.  1.
<mgrwt>
<rscale>  0 0.24621740E+04</rscale>
<asrwt>0</asrwt>
<pdfrwt beam="1">  1        4 0.24702443E+00 0.24621740E+04</pdfrwt>
<pdfrwt beam="2">  1       -4 0.14521480E+00 0.24621740E+04</pdfrwt>
<totfact> 0.38194342E-02</totfact>
</mgrwt>
</event>
<event>
 6    1  0.2003386E-005  0.1383585E+04  0.7818608E-02  0.8965787E-01
          2   -1    0    0  501    0  0.00000000000E+00  0.00000000000E+00  0.11399650673E+04  0.11399650673E+04  0.00000000000E+00 0. -1.
         -2   -1    0    0    0  501 -0.00000000000E+00 -0.00000000000E+00 -0.41981717904E+03  0.41981717904E+03  0.00000000000E+00 0.  1.
         23    2    1    2    0    0 -0.31072140391E+03 -0.58658854331E+03  0.56881697311E+03  0.87894823144E+03  0.91451269292E+02 0.  0.
         13    1    3    3    0    0 -0.27494014068E+03 -0.55231684277E+03  0.54803383889E+03  0.82521940376E+03  0.00000000000E+00 0. -1.
        -13    1    3    3    0    0 -0.35781263226E+02 -0.34271700536E+02  0.20783134225E+02  0.53728827680E+02  0.00000000000E+00 0.  1.
         22    1    1    2    0    0  0.31072140391E+03  0.58658854331E+03  0.15133091517E+03  0.68083401492E+03  0.00000000000E+00 0. -1.
<mgrwt>
<rscale>  0 0.13835851E+04</rscale>
<asrwt>0</asrwt>
<pdfrwt beam="1">  1        2 0.17537924E+00 0.13835851E+04</pdfrwt>
<pdfrwt beam="2">  1       -2 0.64587259E-01 0.13835851E+04</pdfrwt>
<totfact> 0.44410538E+01</totfact>
</mgrwt>
</event>
<event>
 6    1  0.2003386E-005  0.2119312E+04  0.7818608E-02  0.8552784E-01
         -2   -1    0    0    0  501 -0.00000000000E+00  0.00000000000E+00  0.34708591500E+03  0.34708591500E+03  0.00000000000E+00 0.  1.
          2   -1    0    0  501    0  0.00000000000E+00 -0.00000000000E+00 -0.32351373602E+04  0.32351373602E+04  0.00000000000E+00 0. -1.
         23    2    1    2    0    0 -0.27925921878E+03 -0.10163002801E+04 -0.15996759469E+04  0.19176622535E+04  0.87254872076E+02 0.  0.
         13    1    3    3    0    0 -0.93688134403E+02 -0.38145573894E+03 -0.52333411494E+03  0.65434283304E+03  0.00000000000E+00 0. -1.
        -13    1    3    3    0    0 -0.18557108438E+03 -0.63484454111E+03 -0.10763418320E+04  0.12633194204E+04  0.00000000000E+00 0.  1.
         22    1    1    2    0    0  0.27925921878E+03  0.10163002801E+04 -0.12883754983E+04  0.16645610217E+04  0.00000000000E+00 0. -1.
<mgrwt>
<rscale>  0 0.21193118E+04</rscale>
<asrwt>0</asrwt>
<pdfrwt beam="1">  1        2 0.49771342E+00 0.21193118E+04</pdfrwt>
<pdfrwt beam="2">  1       -2 0.53397835E-01 0.21193118E+04</pdfrwt>
<totfact> 0.37507899E+00</totfact>
</mgrwt>
</event>
<event>
 6    1  0.2003386E-005  0.4813299E+03  0.7818608E-02  0.1018770E+00
         -2   -1    0    0    0  501 -0.00000000000E+00  0.00000000000E+00  0.13207454032E+03  0.13207454032E+03  0.00000000000E+00 0.  1.
          2   -1    0    0  501    0  0.00000000000E+00 -0.00000000000E+00 -0.43853738191E+03  0.43853738191E+03  0.00000000000E+00 0. -1.
         23    2    1    2    0    0 -0.52537210735E+01 -0.20305406674E+03 -0.29276426244E+03  0.36702850769E+03  0.87979864119E+02 0.  0.
         13    1    3    3    0    0 -0.41156736643E+02 -0.16023269718E+03 -0.22192699921E+03  0.27680315605E+03  0.00000000000E+00 0. -1.
        -13    1    3    3    0    0  0.35903015570E+02 -0.42821369560E+02 -0.70837263227E+02  0.90225351645E+02  0.00000000000E+00 0.  1.
         22    1    1    2    0    0  0.52537210735E+01  0.20305406674E+03 -0.13698579144E+02  0.20358341454E+03  0.00000000000E+00 0. -1.
<mgrwt>
<rscale>  0 0.48132992E+03</rscale>
<asrwt>0</asrwt>
<pdfrwt beam="1">  1        2 0.67467289E-01 0.48132992E+03</pdfrwt>
<pdfrwt beam="2">  1       -2 0.20319160E-01 0.48132992E+03</pdfrwt>
<totfact> 0.14834951E+03</totfact>
</mgrwt>
</event>
<event>
 6    1  0.2003386E-005  0.1819237E+04  0.7818608E-02  0.8696136E-01
         -2   -1    0    0    0  501 -0.00000000000E+00  0.00000000000E+00  0.22643859112E+04  0.22643859112E+04  0.00000000000E+00 0.  1.
          2   -1    0    0  501    0  0.00000000000E+00 -0.00000000000E+00 -0.36539947170E+03  0.36539947170E+03  0.00000000000E+00 0. -1.
         23    2    1    2    0    0  0.53543300759E+03  0.21305013209E+02 -0.10545416541E+03  0.55495417342E+03  0.98545138826E+02 0.  0.
         13    1    3    3    0    0  0.21489919501E+03 -0.52708773398E-01  0.58356987457E+01  0.21497842258E+03  0.00000000000E+00 0. -1.
        -13    1    3    3    0    0  0.32053381258E+03  0.21357721983E+02 -0.11128986415E+03  0.33997575084E+03  0.00000000000E+00 0.  1.
         22    1    1    2    0    0 -0.53543300759E+03 -0.21305013209E+02  0.20044406049E+04  0.20748312095E+04  0.00000000000E+00 0.  1.
<mgrwt>
<rscale>  0 0.18192366E+04</rscale>
<asrwt>0</asrwt>
<pdfrwt beam="1">  1        2 0.56215305E-01 0.18192366E+04</pdfrwt>
<pdfrwt beam="2">  1       -2 0.34836705E+00 0.18192366E+04</pdfrwt>
<totfact> 0.13268952E+00</totfact>
</mgrwt>
</event>
<event>
 6    1  0.2003386E-005  0.2640999E+04  0.7818608E-02  0.8354407E-01
         -2   -1    0    0    0  501 -0.00000000000E+00  0.00000000000E+00  0.92410882754E+03  0.92410882754E+03  0.00000000000E+00 0.  1.
          2   -1    0    0  501    0  0.00000000000E+00 -0.00000000000E+00 -0.18869193101E+04  0.18869193101E+04  0.00000000000E+00 0. -1.
         23    2    1    2    0    0  0.11657379708E+04 -0.56680983309E+03 -0.74132302366E+03  0.14960090892E+04  0.90911858890E+02 0.  0.
         11    1    3    3    0    0  0.13258017543E+03 -0.82942291556E+02 -0.62058187154E+02  0.16825024588E+03  0.00000000000E+00 0. -1.
        -11    1    3    3    0    0  0.10331577953E+04 -0.48386754154E+03 -0.67926483650E+03  0.13277588433E+04  0.00000000000E+00 0.  1.
         22    1    1    2    0    0 -0.11657379708E+04  0.56680983309E+03 -0.22148745890E+03  0.13150190485E+04  0.00000000000E+00 0. -1.
<mgrwt>
<rscale>  0 0.26409989E+04</rscale>
<asrwt>0</asrwt>
<pdfrwt beam="1">  1        2 0.29029527E+00 0.26409989E+04</pdfrwt>
<pdfrwt beam="2">  1       -2 0.14217059E+00 0.26409989E+04</pdfrwt>
<totfact> 0.23489515E+00</totfact>
</mgrwt>
</event>
<event>
 6    1  0.2003386E-005  0.1016155E+04  0.7818608E-02  0.9291001E-01
         -2   -1    0    0    0  501 -0.00000000000E+00  0.00000000000E+00  0.32205039642E+03  0.32205039642E+03  0.00000000000E+00 0.  1.
          2   -1    0    0  501    0  0.00000000000E+00 -0.00000000000E+00 -0.80156064085E+03  0.80156064085E+03  0.00000000000E+00 0. -1.
         23    2    1    2    0    0  0.19798774609E+03  0.11349757949E+03  0.25535925515E+03  0.35412157694E+03  0.90071604377E+02 0.  0.
         11    1    3    3    0    0  0.70252879460E+02  0.12522379061E+02  0.13122948860E+03  0.14937689154E+03  0.00000000000E+00 0. -1.
        -11    1    3    3    0    0  0.12773486663E+03  0.10097520043E+03  0.12412976655E+03  0.20474468540E+03  0.00000000000E+00 0.  1.
         22    1    1    2    0    0 -0.19798774609E+03 -0.11349757949E+03 -0.73486949957E+03  0.76948946033E+03  0.00000000000E+00 0. -1.
<mgrwt>
<rscale>  0 0.10161553E+04</rscale>
<asrwt>0</asrwt>
<pdfrwt beam="1">  1        2 0.12331702E+00 0.10161553E+04</pdfrwt>
<pdfrwt beam="2">  1       -2 0.49546215E-01 0.10161553E+04</pdfrwt>
<totfact> 0.13212651E+02</totfact>
</mgrwt>
</event>
<event>
 6    1  0.2003386E-005  0.2128308E+04  0.7818608E-02  0.8548875E-01
          2   -1    0    0  501    0  0.00000000000E+00  0.00000000000E+00  0.28637655446E+04  0.28637655446E+04  0.00000000000E+00 0. -1.
         -2   -1    0    0    0  501 -0.00000000000E+00 -0.00000000000E+00 -0.39543182325E+03  0.39543182325E+03  0.00000000000E+00 0.  1.
         23    2    1    2    0    0 -0.75952643113E+03  0.15299377864E+02  0.10167467896E+03  0.77360096186E+03  0.10491061577E+03 0.  0.
         13    1    3    3    0    0 -0.41212134287E+03 -0.23748373021E+01  0.34428141298E+01  0.41214256523E+03  0.00000000000E+00 0.  1.
        -13    1    3    3    0    0 -0.34740508825E+03  0.17674215166E+02  0.98231864826E+02  0.36145839663E+03  0.00000000000E+00 0. -1.
         22    1    1    2    0    0  0.75952643113E+03 -0.15299377864E+02  0.23666590424E+04  0.24855964060E+04  0.00000000000E+00 0. -1.
<mgrwt>
<rscale>  0 0.21283083E+04</rscale>
<asrwt>0</asrwt>
<pdfrwt beam="1">  1        2 0.44057930E+00 0.21283083E+04</pdfrwt>
<pdfrwt beam="2">  1       -2 0.60835667E-01 0.21283083E+04</pdfrwt>
<totfact> 0.48956030E+00</totfact>
</mgrwt>
</event>
<event>
 6    1  0.2003386E-005  0.3119132E+04  0.7818608E-02  0.8210507E-01
          2   -1    0    0  501    0  0.00000000000E+00  0.00000000000E+00  0.25629882469E+04  0.25629882469E+04  0.00000000000E+00 0. -1.
         -2   -1    0    0    0  501 -0.00000000000E+00 -0.00000000000E+00 -0.94898833474E+03  0.94898833474E+03  0.00000000000E+00 0.  1.
         23    2    1    2    0    0  0.15536744301E+04 -0.10417242607E+03  0.74222849032E+03  0.17273921647E+04  0.90688641557E+02 0.  0.
         11    1    3    3    0    0  0.47691373743E+03 -0.35863987465E+02  0.27458523690E+03  0.55147981910E+03  0.00000000000E+00 0.  1.
        -11    1    3    3    0    0  0.10767606927E+04 -0.68308438601E+02  0.46764325342E+03  0.11759123456E+04  0.00000000000E+00 0. -1.
         22    1    1    2    0    0 -0.15536744301E+04  0.10417242607E+03  0.87177142185E+03  0.17845844169E+04  0.00000000000E+00 0.  1.
<mgrwt>
<rscale>  0 0.31191319E+04</rscale>
<asrwt>0</asrwt>
<pdfrwt beam="1">  1        2 0.39430588E+00 0.31191319E+04</pdfrwt>
<pdfrwt beam="2">  1       -2 0.14599821E+00 0.31191319E+04</pdfrwt>
<totfact> 0.87249743E-01</totfact>
</mgrwt>
</event>
<event>
 6    1  0.2003386E-005  0.4425804E+04  0.7818608E-02  0.7923757E-01
          2   -1    0    0  501    0  0.00000000000E+00  0.00000000000E+00  0.17726030090E+04  0.17726030090E+04  0.00000000000E+00 0.  1.
         -2   -1    0    0    0  501 -0.00000000000E+00 -0.00000000000E+00 -0.27625677529E+04  0.27625677529E+04  0.00000000000E+00 0. -1.
         23    2    1    2    0    0 -0.21568009349E+04 -0.10718551422E+03 -0.43228235258E+01  0.21614039236E+04  0.91483479865E+02 0.  0.
         13    1    3    3    0    0 -0.33650502645E+03  0.16171202572E+02  0.38090166743E+01  0.33691489908E+03  0.00000000000E+00 0. -1.
        -13    1    3    3    0    0 -0.18202959084E+04 -0.12335671679E+03 -0.81318402002E+01  0.18244890245E+04  0.00000000000E+00 0.  1.
         22    1    1    2    0    0  0.21568009349E+04  0.10718551422E+03 -0.98564192033E+03  0.23737668382E+04  0.00000000000E+00 0. -1.
<mgrwt>
<rscale>  0 0.44258043E+04</rscale>
<asrwt>0</asrwt>
<pdfrwt beam="1">  1        2 0.27270816E+00 0.44258043E+04</pdfrwt>
<pdfrwt beam="2">  1       -2 0.42501042E+00 0.44258043E+04</pdfrwt>
<totfact> 0.34620660E-02</totfact>
</mgrwt>
</event>
<event>
 6    1  0.2003386E-005  0.1753859E+04  0.7818608E-02  0.8731229E-01
          2   -1    0    0  501    0  0.00000000000E+00  0.00000000000E+00  0.14151333292E+04  0.14151333292E+04  0.00000000000E+00 0.  1.
         -2   -1    0    0    0  501 -0.00000000000E+00 -0.00000000000E+00 -0.54341552304E+03  0.54341552304E+03  0.00000000000E+00 0. -1.
         23    2    1    2    0    0 -0.44182021717E+02  0.86840310321E+03  0.54087702200E+03  0.10282093308E+04  0.92684811248E+02 0.  0.
         13    1    3    3    0    0 -0.14708111850E+02  0.69303982208E+03  0.39243243822E+03  0.79656998569E+03  0.00000000000E+00 0. -1.
        -13    1    3    3    0    0 -0.29473909867E+02  0.17536328114E+03  0.14844458377E+03  0.23163934507E+03  0.00000000000E+00 0.  1.
         22    1    1    2    0    0  0.44182021717E+02 -0.86840310321E+03  0.33084078414E+03  0.93033952144E+03  0.00000000000E+00 0.  1.
<mgrwt>
<rscale>  0 0.17538591E+04</rscale>
<asrwt>0</asrwt>
<pdfrwt beam="1">  1        2 0.21771282E+00 0.17538591E+04</pdfrwt>
<pdfrwt beam="2">  1       -2 0.83602388E-01 0.17538591E+04</pdfrwt>
<totfact> 0.16818022E+01</totfact>
</mgrwt>
</event>
<event>
 6    1  0.2003386E-005  0.1142171E+04  0.7818608E-02  0.9165036E-01
         -2   -1    0    0    0  501 -0.00000000000E+00  0.00000000000E+00  0.96441466357E+02  0.96441466357E+02  0.00000000000E+00 0.  1.
          2   -1    0    0  501    0  0.00000000000E+00 -0.00000000000E+00 -0.33817289447E+04  0.33817289447E+04  0.00000000000E+00 0. -1.
         23    2    1    2    0    0  0.51580737459E+03  0.65205963886E+02 -0.96183806784E+03  0.10972617130E+04  0.92421494392E+02 0.  0.
         13    1    3    3    0    0  0.20127055024E+03  0.20001811804E+02 -0.28430394351E+03  0.34891064639E+03  0.00000000000E+00 0.  1.
        -13    1    3    3    0    0  0.31453682434E+03  0.45204152083E+02 -0.67753412433E+03  0.74835106659E+03  0.00000000000E+00 0. -1.
         22    1    1    2    0    0 -0.51580737459E+03 -0.65205963886E+02 -0.23234494105E+04  0.23809086981E+04  0.00000000000E+00 0.  1.
<mgrwt>
<rscale>  0 0.11421714E+04</rscale>
<asrwt>0</asrwt>
<pdfrwt beam="1">  1        2 0.52026605E+00 0.11421714E+04</pdfrwt>
<pdfrwt beam="2">  1       -2 0.14837147E-01 0.11421714E+04</pdfrwt>
<totfact> 0.35670879E+01</totfact>
</mgrwt>
</event>
<event>
 6    1  0.2003386E-005  0.3564088E+04  0.7818608E-02  0.8098768E-01
         -2   -1    0    0    0  501 -0.00000000000E+00  0.00000000000E+00  0.17789511544E+04  0.17789511544E+04  0.00000000000E+00 0.  1.
          2   -1    0    0  501    0  0.00000000000E+00 -0.00000000000E+00 -0.17851420509E+04  0.17851420509E+04  0.00000000000E+00 0. -1.
         23    2    1    2    0    0 -0.65088628193E+03  0.65634584656E+03 -0.15252872573E+04  0.17858647117E+04  0.91480755859E+02 0.  0.
         11    1    3    3    0    0 -0.92915097971E+02  0.11809391260E+03 -0.19536697547E+03  0.24647036886E+03  0.00000000000E+00 0.  1.
        -11    1    3    3    0    0 -0.55797118396E+03  0.53825193396E+03 -0.13299202819E+04  0.15393943428E+04  0.00000000000E+00 0. -1.
         22    1    1    2    0    0  0.65088628193E+03 -0.65634584656E+03  0.15190963608E+04  0.17782284936E+04  0.00000000000E+00 0.  1.
<mgrwt>
<rscale>  0 0.35640878E+04</rscale>
<asrwt>0</asrwt>
<pdfrwt beam="1">  1        2 0.27463724E+00 0.35640878E+04</pdfrwt>
<pdfrwt beam="2">  1       -2 0.27368479E+00 0.35640878E+04</pdfrwt>
<totfact> 0.33082740E-01</totfact>
</mgrwt>
</event>
<event>
 6    1  0.2003386E-005  0.2314947E+04  0.7818608E-02  0.8472051E-01
          1   -1    0    0  501    0  0.00000000000E+00  0.00000000000E+00  0.16897485204E+04  0.16897485204E+04  0.00000000000E+00 0.  1.
         -1   -1    0    0    0  501 -0.00000000000E+00 -0.00000000000E+00 -0.79286658438E+03  0.79286658438E+03  0.00000000000E+00 0. -1.
         23    2    1    2    0    0 -0.41454540731E+03  0.16017596343E+03 -0.69481322804E+03  0.83004204156E+03  0.93274513765E+02 0.  0.
         11    1    3    3    0    0 -0.21336798125E+03  0.13057786466E+03 -0.40440868210E+03  0.47552377051E+03  0.00000000000E+00 0.  1.
        -11    1    3    3    0    0 -0.20117742607E+03  0.29598098771E+02 -0.29040454594E+03  0.35451827106E+03  0.00000000000E+00 0. -1.
         22    1    1    2    0    0  0.41454540731E+03 -0.16017596343E+03  0.15916951640E+04  0.16525730632E+04  0.00000000000E+00 0.  1.
<mgrwt>
<rscale>  0 0.23149472E+04</rscale>
<asrwt>0</asrwt>
<pdfrwt beam="1">  1        1 0.25996131E+00 0.23149472E+04</pdfrwt>
<pdfrwt beam="2">  1       -1 0.12197947E+00 0.23149472E+04</pdfrwt>
<totfact> 0.25997890E+00</totfact>
</mgrwt>
</event>
<event>
 6    1  0.2003386E-005  0.1067066E+04  0.7818608E-02  0.9237900E-01
          1   -1    0    0  501    0  0.00000000000E+00  0.00000000000E+00  0.50419191780E+03  0.50419191780E+03  0.00000000000E+00 0. -1.
         -1   -1    0    0    0  501 -0.00000000000E+00 -0.00000000000E+00 -0.56458147345E+03  0.56458147345E+03  0.00000000000E+00 0.  1.
         23    2    1    2    0    0  0.21443251904E+03 -0.23593483549E+03  0.39345202431E+03  0.51413951966E+03  0.88816656242E+02 0.  0.
         11    1    3    3    0    0  0.23681038179E+02 -0.66940618834E+02  0.12656237323E+03  0.14512019962E+03  0.00000000000E+00 0. -1.
        -11    1    3    3    0    0  0.19075148086E+03 -0.16899421665E+03  0.26688965108E+03  0.36901932004E+03  0.00000000000E+00 0.  1.
         22    1    1    2    0    0 -0.21443251904E+03  0.23593483549E+03 -0.45384157995E+03  0.55463387159E+03  0.00000000000E+00 0.  1.
<mgrwt>
<rscale>  0 0.10670659E+04</rscale>
<asrwt>0</asrwt>
<pdfrwt beam="1">  1        1 0.77567988E-01 0.10670659E+04</pdfrwt>
<pdfrwt beam="2">  1       -1 0.86858688E-01 0.10670659E+04</pdfrwt>
<totfact> 0.57175626E+01</totfact>
</mgrwt>
</event>
<event>
 6    1  0.2003386E-005  0.5837644E+03  0.7818608E-02  0.9939674E-01
          3   -1    0    0  501    0  0.00000000000E+00  0.00000000000E+00  0.16163614923E+03  0.16163614923E+03  0.00000000000E+00 0. -1.
         -3   -1    0    0    0  501 -0.00000000000E+00 -0.00000000000E+00 -0.52708014042E+03  0.52708014042E+03  0.00000000000E+00 0.  1.
         23    2    1    2    0    0 -0.13948902047E+02 -0.90941031397E+02 -0.50499723664E+03  0.52156381023E+03  0.92421621174E+02 0.  0.
         13    1    3    3    0    0  0.20639977215E+02 -0.92079685776E+02 -0.40124202441E+03  0.41218908203E+03  0.00000000000E+00 0. -1.
        -13    1    3    3    0    0 -0.34588879263E+02  0.11386543781E+01 -0.10375521223E+03  0.10937472819E+03  0.00000000000E+00 0.  1.
         22    1    1    2    0    0  0.13948902047E+02  0.90941031397E+02  0.13955324546E+03  0.16715247943E+03  0.00000000000E+00 0. -1.
<mgrwt>
<rscale>  0 0.58376435E+03</rscale>
<asrwt>0</asrwt>
<pdfrwt beam="1">  1        3 0.24867100E-01 0.58376435E+03</pdfrwt>
<pdfrwt beam="2">  1       -3 0.81089252E-01 0.58376435E+03</pdfrwt>
<totfact> 0.57092633E+01</totfact>
</mgrwt>
</event>
<event>
 6    1  0.2003386E-005  0.4336396E+04  0.7818608E-02  0.7939922E-01
          2   -1    0    0  501    0  0.00000000000E+00  0.00000000000E+00  0.27318693551E+04  0.27318693551E+04  0.00000000000E+00 0. -1.
         -2   -1    0    0    0  501 -0.00000000000E+00 -0.00000000000E+00 -0.17208302088E+04  0.17208302088E+04  0.00000000000E+00 0.  1.
         23    2    1    2    0    0  0.12094159771E+04 -0.16037304192E+04 -0.33014936990E+03  0.20374511503E+04  0.87007589121E+02 0.  0.
         13    1    3    3    0    0  0.28669047163E+03 -0.40231464438E+03 -0.11681793198E+03  0.50763661101E+03  0.00000000000E+00 0. -1.
        -13    1    3    3    0    0  0.92272550545E+03 -0.12014157748E+04 -0.21333143793E+03  0.15298145393E+04  0.00000000000E+00 0.  1.
         22    1    1    2    0    0 -0.12094159771E+04  0.16037304192E+04  0.13411885163E+04  0.24152484135E+04  0.00000000000E+00 0. -1.
<mgrwt>
<rscale>  0 0.43363963E+04</rscale>
<asrwt>0</asrwt>
<pdfrwt beam="1">  1        2 0.42028759E+00 0.43363963E+04</pdfrwt>
<pdfrwt beam="2">  1       -2 0.26474311E+00 0.43363963E+04</pdfrwt>
<totfact> 0.10182241E-01</totfact>
</mgrwt>
</event>
<event>
 6    1  0.2553617E-005  0.2178052E+04  0.7818608E-02  0.8527619E-01
          1   -1    0    0  501    0  0.00000000000E+00  0.00000000000E+00  0.17762164726E+04  0.17762164726E+04  0.00000000000E+00 0. -1.
         -1   -1    0    0    0  501 -0.00000000000E+00 -0.00000000000E+00 -0.66769896422E+03  0.66769896422E+03  0.00000000000E+00 0.  1.
         23    2    1    2    0    0 -0.10842737692E+03  0.57004856769E+03 -0.47823186976E+03  0.75439318049E+03  0.60757583191E+02 0.  0.
         13    1    3    3    0    0 -0.94616905544E+02  0.33942976307E+03 -0.29308408171E+03  0.45832652315E+03  0.00000000000E+00 0. -1.
        -13    1    3    3    0    0 -0.13810471375E+02  0.23061880462E+03 -0.18514778806E+03  0.29606665734E+03  0.00000000000E+00 0.  1.
         22    1    1    2    0    0  0.10842737692E+03 -0.57004856769E+03  0.15867493781E+04  0.16895222563E+04  0.00000000000E+00 0. -1.
<mgrwt>
<rscale>  0 0.21780522E+04</rscale>
<asrwt>0</asrwt>
<pdfrwt beam="1">  1        1 0.27326407E+00 0.21780522E+04</pdfrwt>
<pdfrwt beam="2">  1       -1 0.10272292E+00 0.21780522E+04</pdfrwt>
<totfact> 0.34601127E+00</totfact>
</mgrwt>
</event>
<event>
 6    1  0.2003386E-005  0.2494577E+04  0.7818608E-02  0.8404920E-01
          2   -1    0    0  501    0  0.00000000000E+00  0.00000000000E+00  0.34808916644E+04  0.34808916644E+04  0.00000000000E+00 0. -1.
         -2   -1    0    0    0  501 -0.00000000000E+00 -0.00000000000E+00 -0.44693397867E+03  0.44693397867E+03  0.00000000000E+00 0.  1.
         23    2    1    2    0    0 -0.18304264024E+03  0.12303252071E+04  0.16224176252E+04  0.20464298671E+04  0.91823347012E+02 0.  0.
         13    1    3    3    0    0 -0.13675024888E+03  0.10843984951E+04  0.13927990415E+04  0.17704547147E+04  0.00000000000E+00 0.  1.
        -13    1    3    3    0    0 -0.46292391359E+02  0.14592671194E+03  0.22961858365E+03  0.27597515235E+03  0.00000000000E+00 0. -1.
         22    1    1    2    0    0  0.18304264024E+03 -0.12303252071E+04  0.14115400605E+04  0.18813957760E+04  0.00000000000E+00 0. -1.
<mgrwt>
<rscale>  0 0.24945771E+04</rscale>
<asrwt>0</asrwt>
<pdfrwt beam="1">  1        2 0.53552178E+00 0.24945771E+04</pdfrwt>
<pdfrwt beam="2">  1       -2 0.68759076E-01 0.24945771E+04</pdfrwt>
<totfact> 0.14477797E+00</totfact>
</mgrwt>
</event>
<event>
 6    1  0.2003386E-005  0.1263343E+04  0.7818608E-02  0.9059150E-01
          2   -1    0    0  501    0  0.00000000000E+00  0.00000000000E+00  0.54613524574E+03  0.54613524574E+03  0.00000000000E+00 0. -1.
         -2   -1    0    0    0  501 -0.00000000000E+00 -0.00000000000E+00 -0.73060463865E+03  0.73060463865E+03  0.00000000000E+00 0.  1.
         23    2    1    2    0    0  0.62600315637E+03  0.39423831790E+02 -0.12515062460E+03  0.64669789644E+03  0.95505497852E+02 0.  0.
         13    1    3    3    0    0  0.37825202578E+03 -0.15634269367E+02 -0.49053430782E+02  0.38173978632E+03  0.00000000000E+00 0.  1.
        -13    1    3    3    0    0  0.24775113059E+03  0.55058101156E+02 -0.76097193821E+02  0.26495811012E+03  0.00000000000E+00 0. -1.
         22    1    1    2    0    0 -0.62600315637E+03 -0.39423831790E+02 -0.59318768310E+02  0.63004198795E+03  0.00000000000E+00 0. -1.
<mgrwt>
<rscale>  0 0.12633431E+04</rscale>
<asrwt>0</asrwt>
<pdfrwt beam="1">  1        2 0.84020808E-01 0.12633431E+04</pdfrwt>
<pdfrwt beam="2">  1       -2 0.11240071E+00 0.12633431E+04</pdfrwt>
<totfact> 0.34007130E+01</totfact>
</mgrwt>
</event>
<event>
 6    1  0.2003386E-005  0.4101783E+04  0.7818608E-02  0.7984323E-01
         -2   -1    0    0    0  501 -0.00000000000E+00  0.00000000000E+00  0.19066269656E+04  0.19066269656E+04  0.00000000000E+00 0.  1.
          2   -1    0    0  501    0  0.00000000000E+00 -0.00000000000E+00 -0.22060721401E+04  0.22060721401E+04  0.00000000000E+00 0. -1.
         23    2    1    2    0    0  0.26780995336E+03  0.69369953626E+03  0.17655170479E+04  0.19179302802E+04  0.92004865558E+02 0.  0.
         11    1    3    3    0    0  0.16430443759E+03  0.32126604103E+03  0.92036683840E+03  0.98857621586E+03  0.00000000000E+00 0.  1.
        -11    1    3    3    0    0  0.10350551578E+03  0.37243349523E+03  0.84515020953E+03  0.92935406430E+03  0.00000000000E+00 0. -1.
         22    1    1    2    0    0 -0.26780995336E+03 -0.69369953626E+03 -0.20649622224E+04  0.21947688256E+04  0.00000000000E+00 0. -1.
<mgrwt>
<rscale>  0 0.41017833E+04</rscale>
<asrwt>0</asrwt>
<pdfrwt beam="1">  1        2 0.33939571E+00 0.41017833E+04</pdfrwt>
<pdfrwt beam="2">  1       -2 0.29332723E+00 0.41017833E+04</pdfrwt>
<totfact> 0.13997338E-01</totfact>
</mgrwt>
</event>
<event>
 6    1  0.2003386E-005  0.2697142E+04  0.7818608E-02  0.8335933E-01
          3   -1    0    0  501    0  0.00000000000E+00  0.00000000000E+00  0.87152294406E+03  0.87152294406E+03  0.00000000000E+00 0. -1.
         -3   -1    0    0    0  501 -0.00000000000E+00 -0.00000000000E+00 -0.20867423458E+04  0.20867423458E+04  0.00000000000E+00 0.  1.
         23    2    1    2    0    0 -0.61208965423E+02  0.50425603051E+03 -0.19766373083E+04  0.20429632029E+04  0.92644040575E+02 0.  0.
         11    1    3    3    0    0 -0.68999713411E+02  0.31362441282E+03 -0.13647210207E+04  0.14019931159E+04  0.00000000000E+00 0.  1.
        -11    1    3    3    0    0  0.77907479884E+01  0.19063161769E+03 -0.61191628764E+03  0.64097008705E+03  0.00000000000E+00 0. -1.
         22    1    1    2    0    0  0.61208965423E+02 -0.50425603051E+03  0.76141790660E+03  0.91530208688E+03  0.00000000000E+00 0. -1.
<mgrwt>
<rscale>  0 0.26971421E+04</rscale>
<asrwt>0</asrwt>
<pdfrwt beam="1">  1        3 0.13408045E+00 0.26971421E+04</pdfrwt>
<pdfrwt beam="2">  1       -3 0.32103728E+00 0.26971421E+04</pdfrwt>
<totfact> 0.28493737E-02</totfact>
</mgrwt>
</event>
<event>
 6    1  0.2003386E-005  0.2985482E+04  0.7818608E-02  0.8247889E-01
         -1   -1    0    0    0  501 -0.00000000000E+00  0.00000000000E+00  0.82951662663E+03  0.82951662663E+03  0.00000000000E+00 0.  1.
          1   -1    0    0  501    0  0.00000000000E+00 -0.00000000000E+00 -0.26862343637E+04  0.26862343637E+04  0.00000000000E+00 0. -1.
         23    2    1    2    0    0  0.60885262423E+03 -0.13334532889E+04 -0.12497743068E+04  0.19291888204E+04  0.10504520473E+03 0.  0.
         11    1    3    3    0    0  0.14639444131E+03 -0.42584171581E+03 -0.41070222494E+03  0.60946600967E+03  0.00000000000E+00 0. -1.
        -11    1    3    3    0    0  0.46245818293E+03 -0.90761157308E+03 -0.83907208185E+03  0.13197228107E+04  0.00000000000E+00 0.  1.
         22    1    1    2    0    0 -0.60885262423E+03  0.13334532889E+04 -0.60694343033E+03  0.15865621700E+04  0.00000000000E+00 0.  1.
<mgrwt>
<rscale>  0 0.29854823E+04</rscale>
<asrwt>0</asrwt>
<pdfrwt beam="1">  1        1 0.41326682E+00 0.29854823E+04</pdfrwt>
<pdfrwt beam="2">  1       -1 0.12761794E+00 0.29854823E+04</pdfrwt>
<totfact> 0.45414227E-01</totfact>
</mgrwt>
</event>
<event>
 6    1  0.2003386E-005  0.5223351E+03  0.7818608E-02  0.1008108E+00
          2   -1    0    0  501    0  0.00000000000E+00  0.00000000000E+00  0.67729666791E+03  0.67729666791E+03  0.00000000000E+00 0. -1.
         -2   -1    0    0    0  501 -0.00000000000E+00 -0.00000000000E+00 -0.10070694582E+03  0.10070694582E+03  0.00000000000E+00 0.  1.
         23    2    1    2    0    0 -0.19034341357E+03  0.14449641809E+03  0.43421947833E+03  0.49983259396E+03  0.64623808996E+02 0.  0.
         11    1    3    3    0    0 -0.16092123001E+03  0.91717896215E+02  0.35247957950E+03  0.39818295884E+03  0.00000000000E+00 0. -1.
        -11    1    3    3    0    0 -0.29422183566E+02  0.52778521873E+02  0.81739898839E+02  0.10164963512E+03  0.00000000000E+00 0.  1.
         22    1    1    2    0    0  0.19034341357E+03 -0.14449641809E+03  0.14237024376E+03  0.27817101977E+03  0.00000000000E+00 0.  1.
<mgrwt>
<rscale>  0 0.52233506E+03</rscale>
<asrwt>0</asrwt>
<pdfrwt beam="1">  1        2 0.10419948E+00 0.52233506E+03</pdfrwt>
<pdfrwt beam="2">  1       -2 0.15493377E-01 0.52233506E+03</pdfrwt>
<totfact> 0.14191101E+03</totfact>
</mgrwt>
</event>
<event>
 6    1  0.2003386E-005  0.2792092E+04  0.7818608E-02  0.8305728E-01
          2   -1    0    0  501    0  0.00000000000E+00  0.00000000000E+00  0.16264276977E+04  0.16264276977E+04  0.00000000000E+00 0. -1.
         -2   -1    0    0    0  501 -0.00000000000E+00 -0.00000000000E+00 -0.11982972293E+04  0.11982972293E+04  0.00000000000E+00 0.  1.
         23    2    1    2    0    0  0.37855066428E+03  0.82739949626E+03  0.12833275087E+04  0.15760245989E+04  0.95044778094E+02 0.  0.
         11    1    3    3    0    0  0.11334711072E+03  0.33567594544E+03  0.54752408434E+03  0.65215682990E+03  0.00000000000E+00 0. -1.
        -11    1    3    3    0    0  0.26520355356E+03  0.49172355082E+03  0.73580342436E+03  0.92386776898E+03  0.00000000000E+00 0.  1.
         22    1    1    2    0    0 -0.37855066428E+03 -0.82739949626E+03 -0.85519704026E+03  0.12487003281E+04  0.00000000000E+00 0.  1.
<mgrwt>
<rscale>  0 0.27920915E+04</rscale>
<asrwt>0</asrwt>
<pdfrwt beam="1">  1        2 0.25021965E+00 0.27920915E+04</pdfrwt>
<pdfrwt beam="2">  1       -2 0.18435342E+00 0.27920915E+04</pdfrwt>
<totfact> 0.15887811E+00</totfact>
</mgrwt>
</event>
<event>
 6    1  0.2003386E-005  0.3411080E+04  0.7818608E-02  0.8135192E-01
          2   -1    0    0  501    0  0.00000000000E+00  0.00000000000E+00  0.15072516111E+04  0.15072516111E+04  0.00000000000E+00 0. -1.
         -2   -1    0    0    0  501 -0.00000000000E+00 -0.00000000000E+00 -0.19299148783E+04  0.19299148783E+04  0.00000000000E+00 0.  1.
         23    2    1    2    0    0  0.10195106682E+04 -0.12845214013E+04 -0.67862188921E+03  0.17773737164E+04  0.95563729864E+02 0.  0.
         13    1    3    3    0    0  0.53123538035E+02 -0.82462870935E+02 -0.19126515478E+02  0.99940277018E+02  0.00000000000E+00 0. -1.
        -13    1    3    3    0    0  0.96638713020E+03 -0.12020585303E+04 -0.65949537373E+03  0.16774334394E+04  0.00000000000E+00 0.  1.
         22    1    1    2    0    0 -0.10195106682E+04  0.12845214013E+04  0.25595862198E+03  0.16597927729E+04  0.00000000000E+00 0.  1.
<mgrwt>
<rscale>  0 0.34110804E+04</rscale>
<asrwt>0</asrwt>
<pdfrwt beam="1">  1        2 0.23188486E+00 0.34110804E+04</pdfrwt>
<pdfrwt beam="2">  1       -2 0.29690998E+00 0.34110804E+04</pdfrwt>
<totfact> 0.34549091E-01</totfact>
</mgrwt>
</event>
<event>
 6    1  0.2003386E-005  0.2990650E+04  0.7818608E-02  0.8246406E-01
          2   -1    0    0  501    0  0.00000000000E+00  0.00000000000E+00  0.19662584727E+04  0.19662584727E+04  0.00000000000E+00 0.  1.
         -2   -1    0    0    0  501 -0.00000000000E+00 -0.00000000000E+00 -0.11371832076E+04  0.11371832076E+04  0.00000000000E+00 0. -1.
         23    2    1    2    0    0  0.33854677692E+02 -0.96365693717E+03  0.15994558633E+04  0.18692346078E+04  0.77447585618E+02 0.  0.
         13    1    3    3    0    0  0.46418573499E+02 -0.35310395007E+03  0.61932565818E+03  0.71442379188E+03  0.00000000000E+00 0. -1.
        -13    1    3    3    0    0 -0.12563895808E+02 -0.61055298710E+03  0.98013020509E+03  0.11548108159E+04  0.00000000000E+00 0.  1.
         22    1    1    2    0    0 -0.33854677692E+02  0.96365693717E+03 -0.77038059824E+03  0.12342070725E+04  0.00000000000E+00 0. -1.
<mgrwt>
<rscale>  0 0.29906495E+04</rscale>
<asrwt>0</asrwt>
<pdfrwt beam="1">  1        2 0.30250130E+00 0.29906495E+04</pdfrwt>
<pdfrwt beam="2">  1       -2 0.17495126E+00 0.29906495E+04</pdfrwt>
<totfact> 0.11752791E+00</totfact>
</mgrwt>
</event>
<event>
 6    1  0.2003386E-005  0.1110037E+04  0.7818608E-02  0.9195464E-01
         -1   -1    0    0    0  501 -0.00000000000E+00  0.00000000000E+00  0.28474334212E+03  0.28474334212E+03  0.00000000000E+00 0.  1.
          1   -1    0    0  501    0  0.00000000000E+00 -0.00000000000E+00 -0.10818353792E+04  0.10818353792E+04  0.00000000000E+00 0. -1.
         23    2    1    2    0    0 -0.25335590848E+03  0.35360169421E+02  0.19983488122E+03  0.33735433452E+03  0.91839040282E+02 0.  0.
         11    1    3    3    0    0 -0.19649506476E+03 -0.81979305053E+01  0.12131865174E+03  0.23107516482E+03  0.00000000000E+00 0. -1.
        -11    1    3    3    0    0 -0.56860843725E+02  0.43558099927E+02  0.78516229483E+02  0.10627916969E+03  0.00000000000E+00 0.  1.
         22    1    1    2    0    0  0.25335590848E+03 -0.35360169421E+02 -0.99692691826E+03  0.10292243868E+04  0.00000000000E+00 0. -1.
<mgrwt>
<rscale>  0 0.11100368E+04</rscale>
<asrwt>0</asrwt>
<pdfrwt beam="1">  1        1 0.16643621E+00 0.11100368E+04</pdfrwt>
<pdfrwt beam="2">  1       -1 0.43806669E-01 0.11100368E+04</pdfrwt>
<totfact> 0.67064464E+01</totfact>
</mgrwt>
</event>
<event>
 6    1  0.2003386E-005  0.3688194E+04  0.7818608E-02  0.8070583E-01
          2   -1    0    0  501    0  0.00000000000E+00  0.00000000000E+00  0.20409324075E+04  0.20409324075E+04  0.00000000000E+00 0. -1.
         -2   -1    0    0    0  501 -0.00000000000E+00 -0.00000000000E+00 -0.16662450857E+04  0.16662450857E+04  0.00000000000E+00 0.  1.
         23    2    1    2    0    0 -0.17825711693E+04 -0.44287615261E+03  0.33986390580E+03  0.18700841556E+04  0.89487509802E+02 0.  0.
         11    1    3    3    0    0 -0.68975274817E+03 -0.21304434307E+03  0.15027380252E+03  0.73737979457E+03  0.00000000000E+00 0.  1.
        -11    1    3    3    0    0 -0.10928184212E+04 -0.22983180954E+03  0.18959010328E+03  0.11327043611E+04  0.00000000000E+00 0. -1.
         22    1    1    2    0    0  0.17825711693E+04  0.44287615261E+03  0.34823415995E+02  0.18370933375E+04  0.00000000000E+00 0. -1.
<mgrwt>
<rscale>  0 0.36881939E+04</rscale>
<asrwt>0</asrwt>
<pdfrwt beam="1">  1        2 0.31398960E+00 0.36881939E+04</pdfrwt>
<pdfrwt beam="2">  1       -2 0.25634540E+00 0.36881939E+04</pdfrwt>
<totfact> 0.30136755E-01</totfact>
</mgrwt>
</event>
<event>
 6    1  0.2003386E-005  0.2238473E+04  0.7818608E-02  0.8502583E-01
          2   -1    0    0  501    0  0.00000000000E+00  0.00000000000E+00  0.12101716048E+04  0.12101716048E+04  0.00000000000E+00 0. -1.
         -2   -1    0    0    0  501 -0.00000000000E+00 -0.00000000000E+00 -0.10351343752E+04  0.10351343752E+04  0.00000000000E+00 0.  1.
         23    2    1    2    0    0 -0.73073910123E+03  0.65429929491E+03  0.62419794774E+03  0.11664952681E+04  0.94873237216E+02 0.  0.
         11    1    3    3    0    0 -0.28526837522E+03  0.19753159457E+03  0.20356418863E+03  0.40228740429E+03  0.00000000000E+00 0.  1.
        -11    1    3    3    0    0 -0.44547072601E+03  0.45676770034E+03  0.42063375911E+03  0.76420786381E+03  0.00000000000E+00 0. -1.
         22    1    1    2    0    0  0.73073910123E+03 -0.65429929491E+03 -0.44916071811E+03  0.10788107119E+04  0.00000000000E+00 0. -1.
<mgrwt>
<rscale>  0 0.22384729E+04</rscale>
<asrwt>0</asrwt>
<pdfrwt beam="1">  1        2 0.18618025E+00 0.22384729E+04</pdfrwt>
<pdfrwt beam="2">  1       -2 0.15925144E+00 0.22384729E+04</pdfrwt>
<totfact> 0.43421712E+00</totfact>
</mgrwt>
</event>
<event>
 6    1  0.2003386E-005  0.5006742E+04  0.7818608E-02  0.7827468E-01
         -2   -1    0    0    0  501 -0.00000000000E+00  0.00000000000E+00  0.22307836811E+04  0.22307836811E+04  0.00000000000E+00 0.  1.
          2   -1    0    0  501    0  0.00000000000E+00 -0.00000000000E+00 -0.28092670951E+04  0.28092670951E+04  0.00000000000E+00 0. -1.
         23    2    1    2    0    0  0.17084888728E+04 -0.11453732371E+03  0.15478519135E+04  0.23099674529E+04  0.89727700498E+02 0.  0.
         11    1    3    3    0    0  0.99648579682E+03 -0.59002507200E+02  0.96064447462E+03  0.13853891315E+04  0.00000000000E+00 0. -1.
        -11    1    3    3    0    0  0.71200307603E+03 -0.55534816511E+02  0.58720743890E+03  0.92457832141E+03  0.00000000000E+00 0.  1.
         22    1    1    2    0    0 -0.17084888728E+04  0.11453732371E+03 -0.21263353275E+04  0.27300833233E+04  0.00000000000E+00 0. -1.
<mgrwt>
<rscale>  0 0.50067423E+04</rscale>
<asrwt>0</asrwt>
<pdfrwt beam="1">  1        2 0.43219494E+00 0.50067423E+04</pdfrwt>
<pdfrwt beam="2">  1       -2 0.34319749E+00 0.50067423E+04</pdfrwt>
<totfact> 0.28514490E-02</totfact>
</mgrwt>
</event>
<event>
 6    1  0.2003386E-005  0.1448026E+04  0.7818608E-02  0.8919770E-01
          1   -1    0    0  501    0  0.00000000000E+00  0.00000000000E+00  0.60698394332E+03  0.60698394332E+03  0.00000000000E+00 0. -1.
         -1   -1    0    0    0  501 -0.00000000000E+00 -0.00000000000E+00 -0.86360521028E+03  0.86360521028E+03  0.00000000000E+00 0.  1.
         23    2    1    2    0    0 -0.58175695113E+03  0.19218456379E+03 -0.51472742964E+03  0.80576222276E+03  0.94511248295E+02 0.  0.
         13    1    3    3    0    0 -0.15556472068E+03  0.55011614852E+02 -0.86877130668E+02  0.18647867418E+03  0.00000000000E+00 0. -1.
        -13    1    3    3    0    0 -0.42619223045E+03  0.13717294894E+03 -0.42785029897E+03  0.61928354858E+03  0.00000000000E+00 0.  1.
         22    1    1    2    0    0  0.58175695113E+03 -0.19218456379E+03  0.25810616268E+03  0.66482693084E+03  0.00000000000E+00 0. -1.
<mgrwt>
<rscale>  0 0.14480255E+04</rscale>
<asrwt>0</asrwt>
<pdfrwt beam="1">  1        1 0.93382146E-01 0.14480255E+04</pdfrwt>
<pdfrwt beam="2">  1       -1 0.13286234E+00 0.14480255E+04</pdfrwt>
<totfact> 0.15701676E+01</totfact>
</mgrwt>
</event>
<event>
 6    1  0.2003386E-005  0.2833351E+04  0.7818608E-02  0.8292988E-01
         -2   -1    0    0    0  501 -0.00000000000E+00  0.00000000000E+00  0.92872058357E+03  0.92872058357E+03  0.00000000000E+00 0.  1.
          2   -1    0    0  501    0  0.00000000000E+00 -0.00000000000E+00 -0.21610040857E+04  0.21610040857E+04  0.00000000000E+00 0. -1.
         23    2    1    2    0    0  0.11310310250E+04  0.40706043124E+02  0.30988469546E+03  0.11768287204E+04  0.89493861972E+02 0.  0.
         11    1    3    3    0    0  0.15373521083E+03 -0.23921425078E+02  0.51534528513E+02  0.16389800870E+03  0.00000000000E+00 0. -1.
        -11    1    3    3    0    0  0.97729581416E+03  0.64627468201E+02  0.25835016695E+03  0.10129307117E+04  0.00000000000E+00 0.  1.
         22    1    1    2    0    0 -0.11310310250E+04 -0.40706043124E+02 -0.15421681976E+04  0.19128959488E+04  0.00000000000E+00 0. -1.
<mgrwt>
<rscale>  0 0.28333506E+04</rscale>
<asrwt>0</asrwt>
<pdfrwt beam="1">  1        2 0.33246216E+00 0.28333506E+04</pdfrwt>
<pdfrwt beam="2">  1       -2 0.14288009E+00 0.28333506E+04</pdfrwt>
<totfact> 0.16051486E+00</totfact>
</mgrwt>
</event>
<event>
 6    1  0.2003386E-005  0.2355541E+04  0.7818608E-02  0.8456338E-01
         -2   -1    0    0    0  501 -0.00000000000E+00  0.00000000000E+00  0.12327874584E+04  0.12327874584E+04  0.00000000000E+00 0.  1.
          2   -1    0    0  501    0  0.00000000000E+00 -0.00000000000E+00 -0.11252088929E+04  0.11252088929E+04  0.00000000000E+00 0. -1.
         23    2    1    2    0    0  0.43197341178E+03  0.10927033437E+04  0.10112399605E+03  0.11829885695E+04  0.92920757789E+02 0.  0.
         11    1    3    3    0    0  0.92264027910E+02  0.15382351288E+03  0.31493950289E+02  0.18211587757E+03  0.00000000000E+00 0. -1.
        -11    1    3    3    0    0  0.33970938387E+03  0.93887983082E+03  0.69630045761E+02  0.10008726919E+04  0.00000000000E+00 0.  1.
         22    1    1    2    0    0 -0.43197341178E+03 -0.10927033437E+04  0.64545694026E+01  0.11750077818E+04  0.00000000000E+00 0. -1.
<mgrwt>
<rscale>  0 0.23555411E+04</rscale>
<asrwt>0</asrwt>
<pdfrwt beam="1">  1        2 0.17310906E+00 0.23555411E+04</pdfrwt>
<pdfrwt beam="2">  1       -2 0.18965961E+00 0.23555411E+04</pdfrwt>
<totfact> 0.29560217E+00</totfact>
</mgrwt>
</event>
<event>
 6    1  0.2003386E-005  0.3550094E+04  0.7818608E-02  0.8102020E-01
          2   -1    0    0  501    0  0.00000000000E+00  0.00000000000E+00  0.21562093664E+04  0.21562093664E+04  0.00000000000E+00 0. -1.
         -2   -1    0    0    0  501 -0.00000000000E+00 -0.00000000000E+00 -0.14612640768E+04  0.14612640768E+04  0.00000000000E+00 0.  1.
         23    2    1    2    0    0  0.82700143451E+03  0.27252406221E+03  0.19224914587E+04  0.21124583820E+04  0.91138737343E+02 0.  0.
         13    1    3    3    0    0  0.59087466473E+03  0.19480736136E+03  0.14686150847E+04  0.15949649038E+04  0.00000000000E+00 0. -1.
        -13    1    3    3    0    0  0.23612676978E+03  0.77716700842E+02  0.45387637408E+03  0.51749347817E+03  0.00000000000E+00 0.  1.
         22    1    1    2    0    0 -0.82700143451E+03 -0.27252406221E+03 -0.12275461692E+04  0.15050150613E+04  0.00000000000E+00 0.  1.
<mgrwt>
<rscale>  0 0.35500937E+04</rscale>
<asrwt>0</asrwt>
<pdfrwt beam="1">  1        2 0.33172452E+00 0.35500937E+04</pdfrwt>
<pdfrwt beam="2">  1       -2 0.22480986E+00 0.35500937E+04</pdfrwt>
<totfact> 0.41217425E-01</totfact>
</mgrwt>
</event>
<event>
 6    1  0.2003386E-005  0.2418267E+04  0.7818608E-02  0.8432696E-01
         -1   -1    0    0    0  501 -0.00000000000E+00  0.00000000000E+00  0.57600016205E+03  0.57600016205E+03  0.00000000000E+00 0.  1.
          1   -1    0    0  501    0  0.00000000000E+00 -0.00000000000E+00 -0.25382004979E+04  0.25382004979E+04  0.00000000000E+00 0. -1.
         23    2    1    2    0    0 -0.20059549791E+03 -0.27088817820E+03 -0.24755647536E+04  0.25000655086E+04  0.91037021038E+02 0.  0.
         13    1    3    3    0    0 -0.15367712219E+03 -0.16330850080E+03 -0.18544716660E+04  0.18679805900E+04  0.00000000000E+00 0. -1.
        -13    1    3    3    0    0 -0.46918375720E+02 -0.10757967740E+03 -0.62109308751E+03  0.63208491860E+03  0.00000000000E+00 0.  1.
         22    1    1    2    0    0  0.20059549791E+03  0.27088817820E+03  0.51336441767E+03  0.61413515142E+03  0.00000000000E+00 0.  1.
<mgrwt>
<rscale>  0 0.24182671E+04</rscale>
<asrwt>0</asrwt>
<pdfrwt beam="1">  1        1 0.39049239E+00 0.24182671E+04</pdfrwt>
<pdfrwt beam="2">  1       -1 0.88615409E-01 0.24182671E+04</pdfrwt>
<totfact> 0.14248455E+00</totfact>
</mgrwt>
</event>
<event>
 6    1  0.2003386E-005  0.2272339E+04  0.7818608E-02  0.8488908E-01
          2   -1    0    0  501    0  0.00000000000E+00  0.00000000000E+00  0.17846530716E+04  0.17846530716E+04  0.00000000000E+00 0. -1.
         -2   -1    0    0    0  501 -0.00000000000E+00 -0.00000000000E+00 -0.72332346262E+03  0.72332346262E+03  0.00000000000E+00 0.  1.
         23    2    1    2    0    0  0.67021208653E+03 -0.48530363203E+03  0.13875710785E+04  0.16185175118E+04  0.97681021586E+02 0.  0.
         13    1    3    3    0    0  0.41119855373E+03 -0.24524183314E+03  0.75385418577E+03  0.89304195910E+03  0.00000000000E+00 0.  1.
        -13    1    3    3    0    0  0.25901353280E+03 -0.24006179889E+03  0.63371689270E+03  0.72547555269E+03  0.00000000000E+00 0. -1.
         22    1    1    2    0    0 -0.67021208653E+03  0.48530363203E+03 -0.32624146947E+03  0.88945902244E+03  0.00000000000E+00 0.  1.
<mgrwt>
<rscale>  0 0.22723393E+04</rscale>
<asrwt>0</asrwt>
<pdfrwt beam="1">  1        2 0.27456201E+00 0.22723393E+04</pdfrwt>
<pdfrwt beam="2">  1       -2 0.11128053E+00 0.22723393E+04</pdfrwt>
<totfact> 0.51083153E+00</totfact>
</mgrwt>
</event>
<event>
 6    1  0.2003386E-005  0.8314616E+03  0.7818608E-02  0.9515562E-01
         -2   -1    0    0    0  501 -0.00000000000E+00  0.00000000000E+00  0.14070783094E+03  0.14070783094E+03  0.00000000000E+00 0.  1.
          2   -1    0    0  501    0  0.00000000000E+00 -0.00000000000E+00 -0.12283048047E+04  0.12283048047E+04  0.00000000000E+00 0. -1.
         23    2    1    2    0    0 -0.50229658793E+02  0.40605637902E+03 -0.48373432506E+03  0.63959170089E+03  0.87600485325E+02 0.  0.
         13    1    3    3    0    0 -0.64617886447E+02  0.16904828438E+03 -0.20818944941E+03  0.27585438287E+03  0.00000000000E+00 0.  1.
        -13    1    3    3    0    0  0.14388227654E+02  0.23700809464E+03 -0.27554487565E+03  0.36373731802E+03  0.00000000000E+00 0. -1.
         22    1    1    2    0    0  0.50229658793E+02 -0.40605637902E+03 -0.60386264865E+03  0.72942093471E+03  0.00000000000E+00 0. -1.
<mgrwt>
<rscale>  0 0.83146162E+03</rscale>
<asrwt>0</asrwt>
<pdfrwt beam="1">  1        2 0.18896997E+00 0.83146162E+03</pdfrwt>
<pdfrwt beam="2">  1       -2 0.21647358E-01 0.83146162E+03</pdfrwt>
<totfact> 0.33976315E+02</totfact>
</mgrwt>
</event>
<event>
 6    1  0.2003386E-005  0.1913591E+04  0.7818608E-02  0.8648121E-01
         -2   -1    0    0    0  501 -0.00000000000E+00  0.00000000000E+00  0.58511924425E+03  0.58511924425E+03  0.00000000000E+00 0.  1.
          2   -1    0    0  501    0  0.00000000000E+00 -0.00000000000E+00 -0.15645658281E+04  0.15645658281E+04  0.00000000000E+00 0. -1.
         23    2    1    2    0    0 -0.72939800393E+03  0.50326410741E+03 -0.88954224393E+03  0.12589668227E+04  0.91737925913E+02 0.  0.
         11    1    3    3    0    0 -0.24051328654E+02  0.32610293419E+02 -0.23138491508E+02  0.46661412710E+02  0.00000000000E+00 0.  1.
        -11    1    3    3    0    0 -0.70534667527E+03  0.47065381399E+03 -0.86640375242E+03  0.12123054100E+04  0.00000000000E+00 0. -1.
         22    1    1    2    0    0  0.72939800393E+03 -0.50326410741E+03 -0.89904339948E+02  0.89071824966E+03  0.00000000000E+00 0.  1.
<mgrwt>
<rscale>  0 0.19135909E+04</rscale>
<asrwt>0</asrwt>
<pdfrwt beam="1">  1        2 0.24070243E+00 0.19135909E+04</pdfrwt>
<pdfrwt beam="2">  1       -2 0.90018348E-01 0.19135909E+04</pdfrwt>
<totfact> 0.11536929E+01</totfact>
</mgrwt>
</event>
<event>
 6    1  0.2003386E-005  0.5707958E+04  0.7818608E-02  0.7727705E-01
          1   -1    0    0  501    0  0.00000000000E+00  0.00000000000E+00  0.30195840602E+04  0.30195840602E+04  0.00000000000E+00 0. -1.
         -1   -1    0    0    0  501 -0.00000000000E+00 -0.00000000000E+00 -0.26974566658E+04  0.26974566658E+04  0.00000000000E+00 0.  1.
         23    2    1    2    0    0  0.43634219112E+03 -0.23721095552E+04 -0.13657584572E+04  0.27731900339E+04  0.89378694007E+02 0.  0.
         13    1    3    3    0    0  0.37484958917E+03 -0.20137641923E+04 -0.11228114403E+04  0.23359075254E+04  0.00000000000E+00 0. -1.
        -13    1    3    3    0    0  0.61492601953E+02 -0.35834536290E+03 -0.24294701692E+03  0.43728250850E+03  0.00000000000E+00 0.  1.
         22    1    1    2    0    0 -0.43634219112E+03  0.23721095552E+04  0.16878858515E+04  0.29438506921E+04  0.00000000000E+00 0. -1.
<mgrwt>
<rscale>  0 0.57079584E+04</rscale>
<asrwt>0</asrwt>
<pdfrwt beam="1">  1        1 0.46455139E+00 0.57079584E+04</pdfrwt>
<pdfrwt beam="2">  1       -1 0.41499334E+00 0.57079584E+04</pdfrwt>
<totfact> 0.22326975E-03</totfact>
</mgrwt>
</event>
<event>
 6    1  0.2003386E-005  0.1692146E+04  0.7818608E-02  0.8765857E-01
          2   -1    0    0  501    0  0.00000000000E+00  0.00000000000E+00  0.33798627858E+04  0.33798627858E+04  0.00000000000E+00 0. -1.
         -2   -1    0    0    0  501 -0.00000000000E+00 -0.00000000000E+00 -0.21179538507E+03  0.21179538507E+03  0.00000000000E+00 0.  1.
         23    2    1    2    0    0 -0.44538321262E+03  0.49446640297E+03  0.48793865991E+03  0.83014530702E+03  0.90519971208E+02 0.  0.
         11    1    3    3    0    0 -0.57298779948E+02  0.45839146803E+02  0.24424973514E+02  0.77336646516E+02  0.00000000000E+00 0. -1.
        -11    1    3    3    0    0 -0.38808443268E+03  0.44862725617E+03  0.46351368639E+03  0.75280866051E+03  0.00000000000E+00 0.  1.
         22    1    1    2    0    0  0.44538321262E+03 -0.49446640297E+03  0.26801287409E+04  0.27615128639E+04  0.00000000000E+00 0. -1.
<mgrwt>
<rscale>  0 0.16921458E+04</rscale>
<asrwt>0</asrwt>
<pdfrwt beam="1">  1        2 0.51997885E+00 0.16921458E+04</pdfrwt>
<pdfrwt beam="2">  1       -2 0.32583908E-01 0.16921458E+04</pdfrwt>
<totfact> 0.82966505E+00</totfact>
</mgrwt>
</event>
<event>
 6    1  0.2003386E-005  0.8351955E+03  0.7818608E-02  0.9510425E-01
         -1   -1    0    0    0  501 -0.00000000000E+00  0.00000000000E+00  0.34297539114E+03  0.34297539114E+03  0.00000000000E+00 0.  1.
          1   -1    0    0  501    0  0.00000000000E+00 -0.00000000000E+00 -0.50845590687E+03  0.50845590687E+03  0.00000000000E+00 0. -1.
         23    2    1    2    0    0 -0.18706552314E+03 -0.32780766411E+03  0.86471550105E+02  0.39763484795E+03  0.90469711676E+02 0.  0.
         11    1    3    3    0    0 -0.11674913874E+03 -0.25931954807E+03  0.93134708682E+02  0.29925083688E+03  0.00000000000E+00 0.  1.
        -11    1    3    3    0    0 -0.70316384398E+02 -0.68488116041E+02 -0.66631585768E+01  0.98384011078E+02  0.00000000000E+00 0. -1.
         22    1    1    2    0    0  0.18706552314E+03  0.32780766411E+03 -0.25195206584E+03  0.45379645005E+03  0.00000000000E+00 0. -1.
<mgrwt>
<rscale>  0 0.83519546E+03</rscale>
<asrwt>0</asrwt>
<pdfrwt beam="1">  1        1 0.78223985E-01 0.83519546E+03</pdfrwt>
<pdfrwt beam="2">  1       -1 0.52765445E-01 0.83519546E+03</pdfrwt>
<totfact> 0.15841719E+02</totfact>
</mgrwt>
</event>
<event>
 6    1  0.2003386E-005  0.2622838E+04  0.7818608E-02  0.8360485E-01
          2   -1    0    0  501    0  0.00000000000E+00  0.00000000000E+00  0.31457200844E+04  0.31457200844E+04  0.00000000000E+00 0. -1.
         -2   -1    0    0    0  501 -0.00000000000E+00 -0.00000000000E+00 -0.54671726396E+03  0.54671726396E+03  0.00000000000E+00 0.  1.
         23    2    1    2    0    0  0.10195673063E+04  0.73985408217E+03  0.18062507236E+04  0.22040296616E+04  0.91123640518E+02 0.  0.
         11    1    3    3    0    0  0.81858273915E+03  0.58106510928E+03  0.14979059622E+04  0.18031740442E+04  0.00000000000E+00 0.  1.
        -11    1    3    3    0    0  0.20098456714E+03  0.15878897290E+03  0.30834476131E+03  0.40085561736E+03  0.00000000000E+00 0. -1.
         22    1    1    2    0    0 -0.10195673063E+04 -0.73985408217E+03  0.79275209693E+03  0.14884076868E+04  0.00000000000E+00 0.  1.
<mgrwt>
<rscale>  0 0.26228378E+04</rscale>
<asrwt>0</asrwt>
<pdfrwt beam="1">  1        2 0.48395692E+00 0.26228378E+04</pdfrwt>
<pdfrwt beam="2">  1       -2 0.84110350E-01 0.26228378E+04</pdfrwt>
<totfact> 0.15324195E+00</totfact>
</mgrwt>
</event>
<event>
 6    1  0.2003386E-005  0.1858149E+04  0.7818608E-02  0.8675974E-01
          2   -1    0    0  501    0  0.00000000000E+00  0.00000000000E+00  0.26888349357E+04  0.26888349357E+04  0.00000000000E+00 0. -1.
         -2   -1    0    0    0  501 -0.00000000000E+00 -0.00000000000E+00 -0.32102341401E+03  0.32102341401E+03  0.00000000000E+00 0.  1.
         23    2    1    2    0    0 -0.61337555929E+03 -0.62011454824E+03  0.67782728913E+03  0.11080648972E+04  0.87099671988E+02 0.  0.
         13    1    3    3    0    0 -0.40845212306E+03 -0.46843970205E+03  0.47278819286E+03  0.78089536213E+03  0.00000000000E+00 0.  1.
        -13    1    3    3    0    0 -0.20492343623E+03 -0.15167484619E+03  0.20503909627E+03  0.32716953508E+03  0.00000000000E+00 0. -1.
         22    1    1    2    0    0  0.61337555929E+03  0.62011454824E+03  0.16899842325E+04  0.19017934525E+04  0.00000000000E+00 0. -1.
<mgrwt>
<rscale>  0 0.18581485E+04</rscale>
<asrwt>0</asrwt>
<pdfrwt beam="1">  1        2 0.41366690E+00 0.18581485E+04</pdfrwt>
<pdfrwt beam="2">  1       -2 0.49388219E-01 0.18581485E+04</pdfrwt>
<totfact> 0.98494835E+00</totfact>
</mgrwt>
</event>
<event>
 6    1  0.2003386E-005  0.9687174E+03  0.7818608E-02  0.9343536E-01
         -2   -1    0    0    0  501 -0.00000000000E+00  0.00000000000E+00  0.30182327097E+03  0.30182327097E+03  0.00000000000E+00 0.  1.
          2   -1    0    0  501    0  0.00000000000E+00 -0.00000000000E+00 -0.77728714665E+03  0.77728714665E+03  0.00000000000E+00 0. -1.
         23    2    1    2    0    0  0.13753545064E+03 -0.52058797810E+02  0.26930892664E+03  0.31995783370E+03  0.90662002879E+02 0.  0.
         13    1    3    3    0    0  0.12428071397E+03 -0.60854696178E+02  0.16914410646E+03  0.21853768248E+03  0.00000000000E+00 0.  1.
        -13    1    3    3    0    0  0.13254736665E+02  0.87958983674E+01  0.10016482018E+03  0.10142015122E+03  0.00000000000E+00 0. -1.
         22    1    1    2    0    0 -0.13753545064E+03  0.52058797810E+02 -0.74477280232E+03  0.75915258393E+03  0.00000000000E+00 0. -1.
<mgrwt>
<rscale>  0 0.96871740E+03</rscale>
<asrwt>0</asrwt>
<pdfrwt beam="1">  1        2 0.11958264E+00 0.96871740E+03</pdfrwt>
<pdfrwt beam="2">  1       -2 0.46434350E-01 0.96871740E+03</pdfrwt>
<totfact> 0.15731768E+02</totfact>
</mgrwt>
</event>
<event>
 6    1  0.2003386E-005  0.2061227E+04  0.7818608E-02  0.8578518E-01
         -2   -1    0    0    0  501 -0.00000000000E+00  0.00000000000E+00  0.80298289652E+03  0.80298289652E+03  0.00000000000E+00 0.  1.
          2   -1    0    0  501    0  0.00000000000E+00 -0.00000000000E+00 -0.13227730255E+04  0.13227730255E+04  0.00000000000E+00 0. -1.
         23    2    1    2    0    0 -0.32959457362E+02 -0.90825688996E+03  0.23622750276E+03  0.94356322899E+03  0.92147870537E+02 0.  0.
         11    1    3    3    0    0 -0.64778752580E+02 -0.56567454047E+03  0.14097959876E+03  0.58656561423E+03  0.00000000000E+00 0.  1.
        -11    1    3    3    0    0  0.31819295218E+02 -0.34258234949E+03  0.95247903997E+02  0.35699761476E+03  0.00000000000E+00 0. -1.
         22    1    1    2    0    0  0.32959457362E+02  0.90825688996E+03 -0.75601763176E+03  0.11821926931E+04  0.00000000000E+00 0. -1.
<mgrwt>
<rscale>  0 0.20612269E+04</rscale>
<asrwt>0</asrwt>
<pdfrwt beam="1">  1        2 0.20350354E+00 0.20612269E+04</pdfrwt>
<pdfrwt beam="2">  1       -2 0.12353583E+00 0.20612269E+04</pdfrwt>
<totfact> 0.73218262E+00</totfact>
</mgrwt>
</event>
<event>
 6    1  0.2003386E-005  0.7423747E+03  0.7818608E-02  0.9647390E-01
          2   -1    0    0  501    0  0.00000000000E+00  0.00000000000E+00  0.38882904099E+03  0.38882904099E+03  0.00000000000E+00 0. -1.
         -2   -1    0    0    0  501 -0.00000000000E+00 -0.00000000000E+00 -0.35434605982E+03  0.35434605982E+03  0.00000000000E+00 0.  1.
         23    2    1    2    0    0  0.30437917275E+03 -0.18238427794E+03  0.10683599589E+03  0.38103470762E+03  0.88672502791E+02 0.  0.
         13    1    3    3    0    0  0.19236318877E+03 -0.70601768959E+02  0.82636057577E+02  0.22094552312E+03  0.00000000000E+00 0. -1.
        -13    1    3    3    0    0  0.11201598397E+03 -0.11178250898E+03  0.24199938317E+02  0.16008918450E+03  0.00000000000E+00 0.  1.
         22    1    1    2    0    0 -0.30437917275E+03  0.18238427794E+03 -0.72353014730E+02  0.36214039319E+03  0.00000000000E+00 0.  1.
<mgrwt>
<rscale>  0 0.74237467E+03</rscale>
<asrwt>0</asrwt>
<pdfrwt beam="1">  1        2 0.59819853E-01 0.74237467E+03</pdfrwt>
<pdfrwt beam="2">  1       -2 0.54514778E-01 0.74237467E+03</pdfrwt>
<totfact> 0.26230637E+02</totfact>
</mgrwt>
</event>
<event>
 6    1  0.2003386E-005  0.6807080E+03  0.7818608E-02  0.9750805E-01
          2   -1    0    0  501    0  0.00000000000E+00  0.00000000000E+00  0.65028076003E+03  0.65028076003E+03  0.00000000000E+00 0.  1.
         -2   -1    0    0    0  501 -0.00000000000E+00 -0.00000000000E+00 -0.17813974673E+03  0.17813974673E+03  0.00000000000E+00 0. -1.
         23    2    1    2    0    0  0.29444340327E+02  0.16230841510E+03 -0.11329329939E+03  0.22019001980E+03  0.91854680574E+02 0.  0.
         13    1    3    3    0    0 -0.19434062659E+02  0.19721711694E+01 -0.35894387697E+01  0.19860924481E+02  0.00000000000E+00 0. -1.
        -13    1    3    3    0    0  0.48878402986E+02  0.16033624393E+03 -0.10970386062E+03  0.20032909532E+03  0.00000000000E+00 0.  1.
         22    1    1    2    0    0 -0.29444340327E+02 -0.16230841510E+03  0.58543431269E+03  0.60823048696E+03  0.00000000000E+00 0.  1.
<mgrwt>
<rscale>  0 0.68070801E+03</rscale>
<asrwt>0</asrwt>
<pdfrwt beam="1">  1        2 0.10004319E+00 0.68070801E+03</pdfrwt>
<pdfrwt beam="2">  1       -2 0.27406115E-01 0.68070801E+03</pdfrwt>
<totfact> 0.54797237E+02</totfact>
</mgrwt>
</event>
<event>
 6    1  0.2003386E-005  0.5958097E+03  0.7818608E-02  0.9914138E-01
          2   -1    0    0  501    0  0.00000000000E+00  0.00000000000E+00  0.56587417440E+03  0.56587417440E+03  0.00000000000E+00 0. -1.
         -2   -1    0    0    0  501 -0.00000000000E+00 -0.00000000000E+00 -0.15683223208E+03  0.15683223208E+03  0.00000000000E+00 0.  1.
         23    2    1    2    0    0 -0.16870537668E+03  0.19672745058E+03  0.48682820239E+02  0.27883492643E+03  0.90640527778E+02 0.  0.
         13    1    3    3    0    0 -0.56329600363E+02  0.13393629321E+03  0.17213332343E+02  0.14631559495E+03  0.00000000000E+00 0.  1.
        -13    1    3    3    0    0 -0.11237577631E+03  0.62791157379E+02  0.31469487896E+02  0.13251933148E+03  0.00000000000E+00 0. -1.
         22    1    1    2    0    0  0.16870537668E+03 -0.19672745058E+03  0.36035912208E+03  0.44387148005E+03  0.00000000000E+00 0. -1.
<mgrwt>
<rscale>  0 0.59580973E+03</rscale>
<asrwt>0</asrwt>
<pdfrwt beam="1">  1        2 0.87057564E-01 0.59580973E+03</pdfrwt>
<pdfrwt beam="2">  1       -2 0.24128036E-01 0.59580973E+03</pdfrwt>
<totfact> 0.81712179E+02</totfact>
</mgrwt>
</event>
<event>
 6    1  0.2003386E-005  0.1252572E+04  0.7818608E-02  0.9068046E-01
          2   -1    0    0  501    0  0.00000000000E+00  0.00000000000E+00  0.19670192947E+04  0.19670192947E+04  0.00000000000E+00 0.  1.
         -2   -1    0    0    0  501 -0.00000000000E+00 -0.00000000000E+00 -0.19940522514E+03  0.19940522514E+03  0.00000000000E+00 0. -1.
         23    2    1    2    0    0  0.58917434870E+03  0.19270092432E+03  0.99481504735E+03  0.11757286088E+04  0.91764501747E+02 0.  0.
         11    1    3    3    0    0  0.10813486409E+03 -0.52266705262E+00  0.18015575204E+03  0.21011786455E+03  0.00000000000E+00 0.  1.
        -11    1    3    3    0    0  0.48103948461E+03  0.19322359137E+03  0.81465929531E+03  0.96561074427E+03  0.00000000000E+00 0. -1.
         22    1    1    2    0    0 -0.58917434870E+03 -0.19270092432E+03  0.77279902226E+03  0.99069591107E+03  0.00000000000E+00 0. -1.
<mgrwt>
<rscale>  0 0.12525716E+04</rscale>
<asrwt>0</asrwt>
<pdfrwt beam="1">  1        2 0.30261834E+00 0.12525716E+04</pdfrwt>
<pdfrwt beam="2">  1       -2 0.30677728E-01 0.12525716E+04</pdfrwt>
<totfact> 0.67459600E+01</totfact>
</mgrwt>
</event>
<event>
 6    1  0.2003386E-005  0.2499708E+04  0.7818608E-02  0.8403089E-01
          2   -1    0    0  501    0  0.00000000000E+00  0.00000000000E+00  0.20285587610E+04  0.20285587610E+04  0.00000000000E+00 0. -1.
         -2   -1    0    0    0  501 -0.00000000000E+00 -0.00000000000E+00 -0.77007154346E+03  0.77007154346E+03  0.00000000000E+00 0.  1.
         23    2    1    2    0    0 -0.26392075705E+03 -0.47908203392E+03  0.18861089140E+04  0.19661143856E+04  0.95000951304E+02 0.  0.
         13    1    3    3    0    0 -0.12898686764E+03 -0.16955914468E+03  0.85420975347E+03  0.88037618010E+03  0.00000000000E+00 0. -1.
        -13    1    3    3    0    0 -0.13493388941E+03 -0.30952288924E+03  0.10318991605E+04  0.10857382055E+04  0.00000000000E+00 0.  1.
         22    1    1    2    0    0  0.26392075705E+03  0.47908203392E+03 -0.62762169645E+03  0.83251591882E+03  0.00000000000E+00 0.  1.
<mgrwt>
<rscale>  0 0.24997083E+04</rscale>
<asrwt>0</asrwt>
<pdfrwt beam="1">  1        2 0.31208596E+00 0.24997083E+04</pdfrwt>
<pdfrwt beam="2">  1       -2 0.11847255E+00 0.24997083E+04</pdfrwt>
<totfact> 0.31490335E+00</totfact>
</mgrwt>
</event>
<event>
 6    1  0.2003386E-005  0.3227050E+04  0.7818608E-02  0.8181710E-01
          2   -1    0    0  501    0  0.00000000000E+00  0.00000000000E+00  0.23829592604E+04  0.23829592604E+04  0.00000000000E+00 0. -1.
         -2   -1    0    0    0  501 -0.00000000000E+00 -0.00000000000E+00 -0.10925337085E+04  0.10925337085E+04  0.00000000000E+00 0.  1.
         23    2    1    2    0    0  0.79522922345E+02  0.54303443926E+03  0.22783981120E+04  0.23453159576E+04  0.90546599279E+02 0.  0.
         13    1    3    3    0    0  0.16345501622E+02  0.35231057108E+03  0.15583544701E+04  0.15977667440E+04  0.00000000000E+00 0. -1.
        -13    1    3    3    0    0  0.63177420724E+02  0.19072386818E+03  0.72004364190E+03  0.74754921351E+03  0.00000000000E+00 0.  1.
         22    1    1    2    0    0 -0.79522922345E+02 -0.54303443926E+03 -0.98797256012E+03  0.11301770113E+04  0.00000000000E+00 0.  1.
<mgrwt>
<rscale>  0 0.32270502E+04</rscale>
<asrwt>0</asrwt>
<pdfrwt beam="1">  1        2 0.36660912E+00 0.32270502E+04</pdfrwt>
<pdfrwt beam="2">  1       -2 0.16808211E+00 0.32270502E+04</pdfrwt>
<totfact> 0.75135103E-01</totfact>
</mgrwt>
</event>
<event>
 6    1  0.2003386E-005  0.1431485E+04  0.7818608E-02  0.8931338E-01
         -2   -1    0    0    0  501 -0.00000000000E+00  0.00000000000E+00  0.48453790766E+03  0.48453790766E+03  0.00000000000E+00 0.  1.
          2   -1    0    0  501    0  0.00000000000E+00 -0.00000000000E+00 -0.10572705855E+04  0.10572705855E+04  0.00000000000E+00 0. -1.
         23    2    1    2    0    0  0.22168883453E+03 -0.18181960465E+03 -0.99040146819E+03  0.10352006305E+04  0.92417364460E+02 0.  0.
         11    1    3    3    0    0  0.65750556240E+02 -0.97860491732E+02 -0.50263255000E+03  0.51627443459E+03  0.00000000000E+00 0. -1.
        -11    1    3    3    0    0  0.15593827829E+03 -0.83959112913E+02 -0.48776891818E+03  0.51892619593E+03  0.00000000000E+00 0.  1.
         22    1    1    2    0    0 -0.22168883453E+03  0.18181960465E+03  0.41766879039E+03  0.50660786260E+03  0.00000000000E+00 0.  1.
<mgrwt>
<rscale>  0 0.14314855E+04</rscale>
<asrwt>0</asrwt>
<pdfrwt beam="1">  1        2 0.16265701E+00 0.14314855E+04</pdfrwt>
<pdfrwt beam="2">  1       -2 0.74544294E-01 0.14314855E+04</pdfrwt>
<totfact> 0.36414352E+01</totfact>
</mgrwt>
</event>
<event>
 6    1  0.2003386E-005  0.1727246E+04  0.7818608E-02  0.8745975E-01
          1   -1    0    0  501    0  0.00000000000E+00  0.00000000000E+00  0.22898994330E+04  0.22898994330E+04  0.00000000000E+00 0.  1.
         -1   -1    0    0    0  501 -0.00000000000E+00 -0.00000000000E+00 -0.32571084273E+03  0.32571084273E+03  0.00000000000E+00 0. -1.
         23    2    1    2    0    0  0.45876578899E+03  0.28334552602E+03 -0.31925563815E+02  0.54794916897E+03  0.92077759943E+02 0.  0.
         11    1    3    3    0    0  0.34186173279E+02  0.33983475330E+01  0.14458890966E+02  0.37273351571E+02  0.00000000000E+00 0. -1.
        -11    1    3    3    0    0  0.42457961571E+03  0.27994717849E+03 -0.46384454780E+02  0.51067581739E+03  0.00000000000E+00 0.  1.
         22    1    1    2    0    0 -0.45876578899E+03 -0.28334552602E+03  0.19961141541E+04  0.20676611067E+04  0.00000000000E+00 0.  1.
<mgrwt>
<rscale>  0 0.17272464E+04</rscale>
<asrwt>0</asrwt>
<pdfrwt beam="1">  1        1 0.35229221E+00 0.17272464E+04</pdfrwt>
<pdfrwt beam="2">  1       -1 0.50109362E-01 0.17272464E+04</pdfrwt>
<totfact> 0.71823691E+00</totfact>
</mgrwt>
</event>
<event>
 6    1  0.2003386E-005  0.1473560E+04  0.7818608E-02  0.8902228E-01
          2   -1    0    0  501    0  0.00000000000E+00  0.00000000000E+00  0.17115289687E+04  0.17115289687E+04  0.00000000000E+00 0. -1.
         -2   -1    0    0    0  501 -0.00000000000E+00 -0.00000000000E+00 -0.31716970195E+03  0.31716970195E+03  0.00000000000E+00 0.  1.
         23    2    1    2    0    0 -0.50045801121E+02  0.58456332632E+03  0.13070584913E+04  0.14355374025E+04  0.90260010331E+02 0.  0.
         11    1    3    3    0    0 -0.53654754721E+02  0.20335273739E+03  0.52328877293E+03  0.56397013076E+03  0.00000000000E+00 0.  1.
        -11    1    3    3    0    0  0.36089536006E+01  0.38121058893E+03  0.78376971839E+03  0.87156727172E+03  0.00000000000E+00 0. -1.
         22    1    1    2    0    0  0.50045801121E+02 -0.58456332632E+03  0.87300775448E+02  0.59316126819E+03  0.00000000000E+00 0.  1.
<mgrwt>
<rscale>  0 0.14735605E+04</rscale>
<asrwt>0</asrwt>
<pdfrwt beam="1">  1        2 0.26331214E+00 0.14735605E+04</pdfrwt>
<pdfrwt beam="2">  1       -2 0.48795340E-01 0.14735605E+04</pdfrwt>
<totfact> 0.37200962E+01</totfact>
</mgrwt>
</event>
<event>
 6    1  0.2003386E-005  0.1975684E+04  0.7818608E-02  0.8618074E-01
         -1   -1    0    0    0  501 -0.00000000000E+00  0.00000000000E+00  0.90999684614E+03  0.90999684614E+03  0.00000000000E+00 0.  1.
          1   -1    0    0  501    0  0.00000000000E+00 -0.00000000000E+00 -0.10723464554E+04  0.10723464554E+04  0.00000000000E+00 0. -1.
         23    2    1    2    0    0  0.44518244726E+03 -0.70174882478E+03 -0.61292509911E+03  0.10370089181E+04  0.95244394119E+02 0.  0.
         13    1    3    3    0    0  0.13982429386E+03 -0.16313024910E+03 -0.12387017201E+03  0.24800429601E+03  0.00000000000E+00 0.  1.
        -13    1    3    3    0    0  0.30535815340E+03 -0.53861857568E+03 -0.48905492710E+03  0.78900462206E+03  0.00000000000E+00 0. -1.
         22    1    1    2    0    0 -0.44518244726E+03  0.70174882478E+03  0.45057548988E+03  0.94533438344E+03  0.00000000000E+00 0.  1.
<mgrwt>
<rscale>  0 0.19756841E+04</rscale>
<asrwt>0</asrwt>
<pdfrwt beam="1">  1        1 0.16497638E+00 0.19756841E+04</pdfrwt>
<pdfrwt beam="2">  1       -1 0.13999951E+00 0.19756841E+04</pdfrwt>
<totfact> 0.51849889E+00</totfact>
</mgrwt>
</event>
<event>
 6    1  0.2003386E-005  0.2092453E+04  0.7818608E-02  0.8564575E-01
         -2   -1    0    0    0  501 -0.00000000000E+00  0.00000000000E+00  0.85522556111E+03  0.85522556111E+03  0.00000000000E+00 0.  1.
          2   -1    0    0  501    0  0.00000000000E+00 -0.00000000000E+00 -0.12798840247E+04  0.12798840247E+04  0.00000000000E+00 0. -1.
         23    2    1    2    0    0 -0.29063610417E+02  0.92329928006E+03  0.28406479496E+03  0.97080081612E+03  0.91843142568E+02 0.  0.
         13    1    3    3    0    0  0.19369002769E+02  0.53904941945E+03  0.19357216066E+03  0.57307906632E+03  0.00000000000E+00 0.  1.
        -13    1    3    3    0    0 -0.48432613186E+02  0.38424986061E+03  0.90492634303E+02  0.39772174979E+03  0.00000000000E+00 0. -1.
         22    1    1    2    0    0  0.29063610417E+02 -0.92329928006E+03 -0.70872325857E+03  0.11643087697E+04  0.00000000000E+00 0. -1.
<mgrwt>
<rscale>  0 0.20924527E+04</rscale>
<asrwt>0</asrwt>
<pdfrwt beam="1">  1        2 0.19690524E+00 0.20924527E+04</pdfrwt>
<pdfrwt beam="2">  1       -2 0.13157316E+00 0.20924527E+04</pdfrwt>
<totfact> 0.65988890E+00</totfact>
</mgrwt>
</event>
<event>
 6    1  0.2204636E-005  0.3443212E+04  0.7818608E-02  0.8127381E-01
          2   -1    0    0  501    0  0.00000000000E+00  0.00000000000E+00  0.14941110091E+04  0.14941110091E+04  0.00000000000E+00 0. -1.
         -2   -1    0    0    0  501 -0.00000000000E+00 -0.00000000000E+00 -0.19837401267E+04  0.19837401267E+04  0.00000000000E+00 0.  1.
         23    2    1    2    0    0  0.32974276533E+03 -0.14468748674E+04  0.63410490976E+03  0.16164120857E+04  0.92313709423E+02 0.  0.
         11    1    3    3    0    0  0.20793926176E+03 -0.10317638812E+04  0.41375320363E+03  0.11309143012E+04  0.00000000000E+00 0.  1.
        -11    1    3    3    0    0  0.12180350357E+03 -0.41511098620E+03  0.22035170613E+03  0.48549778449E+03  0.00000000000E+00 0. -1.
         22    1    1    2    0    0 -0.32974276533E+03  0.14468748674E+04 -0.11237340273E+04  0.18614390501E+04  0.00000000000E+00 0.  1.
<mgrwt>
<rscale>  0 0.34432124E+04</rscale>
<asrwt>0</asrwt>
<pdfrwt beam="1">  1        2 0.22986323E+00 0.34432124E+04</pdfrwt>
<pdfrwt beam="2">  1       -2 0.30519079E+00 0.34432124E+04</pdfrwt>
<totfact> 0.31187234E-01</totfact>
</mgrwt>
</event>
<event>
 6    1  0.2003386E-005  0.1456174E+04  0.7818608E-02  0.8914132E-01
          2   -1    0    0  501    0  0.00000000000E+00  0.00000000000E+00  0.17789412128E+04  0.17789412128E+04  0.00000000000E+00 0.  1.
         -2   -1    0    0    0  501 -0.00000000000E+00 -0.00000000000E+00 -0.29799208674E+03  0.29799208674E+03  0.00000000000E+00 0. -1.
         23    2    1    2    0    0  0.16322010869E+03 -0.41630726033E+03  0.15576044051E+04  0.16232499621E+04  0.94108541405E+02 0.  0.
         13    1    3    3    0    0  0.99369255053E+02 -0.14352060306E+03  0.67768036880E+03  0.69980218249E+03  0.00000000000E+00 0. -1.
        -13    1    3    3    0    0  0.63850853638E+02 -0.27278665727E+03  0.87992403634E+03  0.92344777959E+03  0.00000000000E+00 0.  1.
         22    1    1    2    0    0 -0.16322010869E+03  0.41630726033E+03 -0.76655279079E+02  0.45368333747E+03  0.00000000000E+00 0. -1.
<mgrwt>
<rscale>  0 0.14561736E+04</rscale>
<asrwt>0</asrwt>
<pdfrwt beam="1">  1        2 0.27368326E+00 0.14561736E+04</pdfrwt>
<pdfrwt beam="2">  1       -2 0.45844937E-01 0.14561736E+04</pdfrwt>
<totfact> 0.38764827E+01</totfact>
</mgrwt>
</event>
<event>
 6    1  0.2003386E-005  0.5443688E+04  0.7818608E-02  0.7763486E-01
         -2   -1    0    0    0  501 -0.00000000000E+00  0.00000000000E+00  0.41001526802E+04  0.41001526802E+04  0.00000000000E+00 0.  1.
          2   -1    0    0  501    0  0.00000000000E+00 -0.00000000000E+00 -0.18068679924E+04  0.18068679924E+04  0.00000000000E+00 0. -1.
         23    2    1    2    0    0 -0.11567711222E+04 -0.24533604851E+04  0.91101780355E+03  0.28627212724E+04  0.90125170605E+02 0.  0.
         13    1    3    3    0    0 -0.73771165548E+03 -0.16120604327E+04  0.55537216897E+03  0.18577931993E+04  0.00000000000E+00 0. -1.
        -13    1    3    3    0    0 -0.41905946672E+03 -0.84130005241E+03  0.35564563458E+03  0.10049280732E+04  0.00000000000E+00 0.  1.
         22    1    1    2    0    0  0.11567711222E+04  0.24533604851E+04  0.13822668842E+04  0.30442994002E+04  0.00000000000E+00 0. -1.
<mgrwt>
<rscale>  0 0.54436880E+04</rscale>
<asrwt>0</asrwt>
<pdfrwt beam="1">  1        2 0.27797969E+00 0.54436880E+04</pdfrwt>
<pdfrwt beam="2">  1       -2 0.63079272E+00 0.54436880E+04</pdfrwt>
<totfact> 0.23856096E-03</totfact>
</mgrwt>
</event>
<event>
 6    1  0.2003386E-005  0.5754186E+04  0.7818608E-02  0.7721650E-01
         -2   -1    0    0    0  501 -0.00000000000E+00  0.00000000000E+00  0.17377117564E+04  0.17377117564E+04  0.00000000000E+00 0.  1.
          2   -1    0    0  501    0  0.00000000000E+00 -0.00000000000E+00 -0.47635420129E+04  0.47635420129E+04  0.00000000000E+00 0. -1.
         23    2    1    2    0    0 -0.26411628719E+03 -0.27196596688E+04 -0.49812025421E+03  0.27789394378E+04  0.89858133058E+02 0.  0.
         13    1    3    3    0    0 -0.67086777219E+02 -0.38922928226E+03 -0.59650141071E+02  0.39944737973E+03  0.00000000000E+00 0. -1.
        -13    1    3    3    0    0 -0.19702950998E+03 -0.23304303865E+04 -0.43847011314E+03  0.23794920581E+04  0.00000000000E+00 0.  1.
         22    1    1    2    0    0  0.26411628719E+03  0.27196596688E+04 -0.25277100022E+04  0.37223143315E+04  0.00000000000E+00 0. -1.
<mgrwt>
<rscale>  0 0.57541856E+04</rscale>
<asrwt>0</asrwt>
<pdfrwt beam="1">  1        2 0.73285261E+00 0.57541856E+04</pdfrwt>
<pdfrwt beam="2">  1       -2 0.26734027E+00 0.57541856E+04</pdfrwt>
<totfact> 0.22220147E-03</totfact>
</mgrwt>
</event>
<event>
 6    1  0.2003386E-005  0.1500627E+04  0.7818608E-02  0.8884036E-01
          2   -1    0    0  501    0  0.00000000000E+00  0.00000000000E+00  0.15705926244E+04  0.15705926244E+04  0.00000000000E+00 0.  1.
         -2   -1    0    0    0  501 -0.00000000000E+00 -0.00000000000E+00 -0.35844477270E+03  0.35844477270E+03  0.00000000000E+00 0. -1.
         23    2    1    2    0    0 -0.40799236050E+03 -0.39055271082E+03 -0.21262986944E+02  0.57246396266E+03  0.90959814074E+02 0.  0.
         13    1    3    3    0    0 -0.25691671644E+03 -0.18444016421E+03 -0.20202975001E+02  0.31691092369E+03  0.00000000000E+00 0.  1.
        -13    1    3    3    0    0 -0.15107564406E+03 -0.20611254661E+03 -0.10600119437E+01  0.25555303896E+03  0.00000000000E+00 0. -1.
         22    1    1    2    0    0  0.40799236050E+03  0.39055271082E+03  0.12334108387E+04  0.13565734345E+04  0.00000000000E+00 0.  1.
<mgrwt>
<rscale>  0 0.15006275E+04</rscale>
<asrwt>0</asrwt>
<pdfrwt beam="1">  1        2 0.24162963E+00 0.15006275E+04</pdfrwt>
<pdfrwt beam="2">  1       -2 0.55145350E-01 0.15006275E+04</pdfrwt>
<totfact> 0.34597021E+01</totfact>
</mgrwt>
</event>
<event>
 6    1  0.2003386E-005  0.2786317E+04  0.7818608E-02  0.8307529E-01
         -2   -1    0    0    0  501 -0.00000000000E+00  0.00000000000E+00  0.90212421133E+03  0.90212421133E+03  0.00000000000E+00 0. -1.
          2   -1    0    0  501    0  0.00000000000E+00 -0.00000000000E+00 -0.21514679144E+04  0.21514679144E+04  0.00000000000E+00 0.  1.
         23    2    1    2    0    0  0.60306444379E+03  0.71058234905E+02 -0.19975744210E+04  0.20899608668E+04  0.94323174811E+02 0.  0.
         13    1    3    3    0    0  0.16514100249E+03  0.15250263165E+02 -0.69871720550E+03  0.71812941347E+03  0.00000000000E+00 0. -1.
        -13    1    3    3    0    0  0.43792344130E+03  0.55807971740E+02 -0.12988572155E+04  0.13718314533E+04  0.00000000000E+00 0.  1.
         22    1    1    2    0    0 -0.60306444379E+03 -0.71058234905E+02  0.74823071786E+03  0.96363125897E+03  0.00000000000E+00 0. -1.
<mgrwt>
<rscale>  0 0.27863175E+04</rscale>
<asrwt>0</asrwt>
<pdfrwt beam="1">  1        2 0.33099506E+00 0.27863175E+04</pdfrwt>
<pdfrwt beam="2">  1       -2 0.13878834E+00 0.27863175E+04</pdfrwt>
<totfact> 0.17596069E+00</totfact>
</mgrwt>
</event>
<event>
 6    1  0.2473522E-005  0.2780543E+04  0.7818608E-02  0.8309334E-01
          2   -1    0    0  501    0  0.00000000000E+00  0.00000000000E+00  0.17989127506E+04  0.17989127506E+04  0.00000000000E+00 0. -1.
         -2   -1    0    0    0  501 -0.00000000000E+00 -0.00000000000E+00 -0.10744573995E+04  0.10744573995E+04  0.00000000000E+00 0.  1.
         23    2    1    2    0    0 -0.15605051303E+03  0.11729166875E+04  0.11138834869E+04  0.16276817494E+04  0.92337080939E+02 0.  0.
         13    1    3    3    0    0 -0.26275889112E+02  0.54370316202E+03  0.50312257260E+03  0.74123941733E+03  0.00000000000E+00 0.  1.
        -13    1    3    3    0    0 -0.12977462392E+03  0.62921352552E+03  0.61076091430E+03  0.88644233210E+03  0.00000000000E+00 0. -1.
         22    1    1    2    0    0  0.15605051303E+03 -0.11729166875E+04 -0.38942813582E+03  0.12456884006E+04  0.00000000000E+00 0.  1.
<mgrwt>
<rscale>  0 0.27805432E+04</rscale>
<asrwt>0</asrwt>
<pdfrwt beam="1">  1        2 0.27675581E+00 0.27805432E+04</pdfrwt>
<pdfrwt beam="2">  1       -2 0.16530114E+00 0.27805432E+04</pdfrwt>
<totfact> 0.17350262E+00</totfact>
</mgrwt>
</event>
<event>
 6    1  0.2003386E-005  0.1188975E+04  0.7818608E-02  0.9122562E-01
         -2   -1    0    0    0  501 -0.00000000000E+00  0.00000000000E+00  0.49150854267E+03  0.49150854267E+03  0.00000000000E+00 0.  1.
          2   -1    0    0  501    0  0.00000000000E+00 -0.00000000000E+00 -0.71904235829E+03  0.71904235829E+03  0.00000000000E+00 0. -1.
         23    2    1    2    0    0 -0.20288323401E+03  0.35938758638E+02  0.44951439956E+03  0.50284510990E+03  0.91306123140E+02 0.  0.
         11    1    3    3    0    0 -0.12873124420E+03 -0.43451629267E+01  0.34657854460E+03  0.36973950458E+03  0.00000000000E+00 0. -1.
        -11    1    3    3    0    0 -0.74151989814E+02  0.40283921565E+02  0.10293585496E+03  0.13310560532E+03  0.00000000000E+00 0.  1.
         22    1    1    2    0    0  0.20288323401E+03 -0.35938758638E+02 -0.67704821519E+03  0.70770579106E+03  0.00000000000E+00 0. -1.
<mgrwt>
<rscale>  0 0.11889751E+04</rscale>
<asrwt>0</asrwt>
<pdfrwt beam="1">  1        2 0.11062190E+00 0.11889751E+04</pdfrwt>
<pdfrwt beam="2">  1       -2 0.75616699E-01 0.11889751E+04</pdfrwt>
<totfact> 0.61338727E+01</totfact>
</mgrwt>
</event>
<event>
 6    1  0.2003386E-005  0.2645542E+04  0.7818608E-02  0.8352894E-01
          1   -1    0    0  501    0  0.00000000000E+00  0.00000000000E+00  0.14599066986E+04  0.14599066986E+04  0.00000000000E+00 0. -1.
         -1   -1    0    0    0  501 -0.00000000000E+00 -0.00000000000E+00 -0.11985173020E+04  0.11985173020E+04  0.00000000000E+00 0.  1.
         23    2    1    2    0    0  0.46758445624E+03  0.11266947609E+04  0.64096039794E+03  0.13808675623E+04  0.88818269460E+02 0.  0.
         13    1    3    3    0    0  0.25599493697E+03  0.68394739309E+03  0.34347392554E+03  0.80702650626E+03  0.00000000000E+00 0. -1.
        -13    1    3    3    0    0  0.21158951927E+03  0.44274736776E+03  0.29748647240E+03  0.57384105603E+03  0.00000000000E+00 0.  1.
         22    1    1    2    0    0 -0.46758445624E+03 -0.11266947609E+04 -0.37957100138E+03  0.12775564383E+04  0.00000000000E+00 0.  1.
<mgrwt>
<rscale>  0 0.26455422E+04</rscale>
<asrwt>0</asrwt>
<pdfrwt beam="1">  1        1 0.22460103E+00 0.26455422E+04</pdfrwt>
<pdfrwt beam="2">  1       -1 0.18438728E+00 0.26455422E+04</pdfrwt>
<totfact> 0.11848143E+00</totfact>
</mgrwt>
</event>
<event>
 6    1  0.2820550E-005  0.2532168E+04  0.7818608E-02  0.8391614E-01
          2   -1    0    0  501    0  0.00000000000E+00  0.00000000000E+00  0.20330842804E+04  0.20330842804E+04  0.00000000000E+00 0. -1.
         -2   -1    0    0    0  501 -0.00000000000E+00 -0.00000000000E+00 -0.78844204489E+03  0.78844204489E+03  0.00000000000E+00 0.  1.
         23    2    1    2    0    0  0.33059936624E+03  0.11826401757E+04  0.28714591454E+03  0.12643709282E+04  0.90814875422E+02 0.  0.
         11    1    3    3    0    0  0.18802071366E+03  0.82634965217E+03  0.19005722479E+03  0.86852016965E+03  0.00000000000E+00 0. -1.
        -11    1    3    3    0    0  0.14257865258E+03  0.35629052353E+03  0.97088689754E+02  0.39585075850E+03  0.00000000000E+00 0.  1.
         22    1    1    2    0    0 -0.33059936624E+03 -0.11826401757E+04  0.95749632094E+03  0.15571553971E+04  0.00000000000E+00 0.  1.
<mgrwt>
<rscale>  0 0.25321683E+04</rscale>
<asrwt>0</asrwt>
<pdfrwt beam="1">  1        2 0.31278219E+00 0.25321683E+04</pdfrwt>
<pdfrwt beam="2">  1       -2 0.12129878E+00 0.25321683E+04</pdfrwt>
<totfact> 0.29446267E+00</totfact>
</mgrwt>
</event>
<event>
 6    1  0.2003386E-005  0.3704309E+04  0.7818608E-02  0.8067008E-01
          2   -1    0    0  501    0  0.00000000000E+00  0.00000000000E+00  0.30567181875E+04  0.30567181875E+04  0.00000000000E+00 0. -1.
         -2   -1    0    0    0  501 -0.00000000000E+00 -0.00000000000E+00 -0.11222742831E+04  0.11222742831E+04  0.00000000000E+00 0.  1.
         23    2    1    2    0    0  0.83828782761E+03 -0.13914545088E+04 -0.33183589131E+02  0.16274380258E+04  0.92635010952E+02 0.  0.
         11    1    3    3    0    0  0.54867653884E+03 -0.99314912224E+03 -0.24307579056E+02  0.11348929384E+04  0.00000000000E+00 0. -1.
        -11    1    3    3    0    0  0.28961128876E+03 -0.39830538654E+03 -0.88760100753E+01  0.49254508736E+03  0.00000000000E+00 0.  1.
         22    1    1    2    0    0 -0.83828782761E+03  0.13914545088E+04  0.19676274935E+04  0.25515544449E+04  0.00000000000E+00 0. -1.
<mgrwt>
<rscale>  0 0.37043090E+04</rscale>
<asrwt>0</asrwt>
<pdfrwt beam="1">  1        2 0.47026433E+00 0.37043090E+04</pdfrwt>
<pdfrwt beam="2">  1       -2 0.17265758E+00 0.37043090E+04</pdfrwt>
<totfact> 0.26425125E-01</totfact>
</mgrwt>
</event>
<event>
 6    1  0.2003386E-005  0.2543911E+04  0.7818608E-02  0.8387507E-01
         -4   -1    0    0    0  501 -0.00000000000E+00  0.00000000000E+00  0.13011770418E+04  0.13011770418E+04  0.00000000000E+00 0.  1.
          4   -1    0    0  501    0  0.00000000000E+00 -0.00000000000E+00 -0.12433897952E+04  0.12433897952E+04  0.00000000000E+00 0. -1.
         23    2    1    2    0    0 -0.10960721120E+04 -0.19489593567E+03 -0.58308785269E+03  0.12600126758E+04  0.91005487495E+02 0.  0.
         13    1    3    3    0    0 -0.85909925945E+03 -0.15751438915E+03 -0.49830065026E+03  0.10055674311E+04  0.00000000000E+00 0.  1.
        -13    1    3    3    0    0 -0.23697285253E+03 -0.37381546523E+02 -0.84787202423E+02  0.25444524470E+03  0.00000000000E+00 0. -1.
         22    1    1    2    0    0  0.10960721120E+04  0.19489593567E+03  0.64087509924E+03  0.12845541613E+04  0.00000000000E+00 0.  1.
<mgrwt>
<rscale>  0 0.25439106E+04</rscale>
<asrwt>0</asrwt>
<pdfrwt beam="1">  1        4 0.19129074E+00 0.25439106E+04</pdfrwt>
<pdfrwt beam="2">  1       -4 0.20018108E+00 0.25439106E+04</pdfrwt>
<totfact> 0.34978219E-02</totfact>
</mgrwt>
</event>
<event>
 6    1  0.2003386E-005  0.2182221E+04  0.7818608E-02  0.8525865E-01
          2   -1    0    0  501    0  0.00000000000E+00  0.00000000000E+00  0.19014052035E+04  0.19014052035E+04  0.00000000000E+00 0. -1.
         -2   -1    0    0    0  501 -0.00000000000E+00 -0.00000000000E+00 -0.62612737896E+03  0.62612737896E+03  0.00000000000E+00 0.  1.
         23    2    1    2    0    0 -0.37881467124E+03 -0.54251071565E+03  0.16408285986E+04  0.17715922407E+04  0.91663217817E+02 0.  0.
         11    1    3    3    0    0 -0.13117260818E+03 -0.24462888643E+03  0.76948865291E+03  0.81802343008E+03  0.00000000000E+00 0.  1.
        -11    1    3    3    0    0 -0.24764206307E+03 -0.29788182922E+03  0.87133994573E+03  0.95356881062E+03  0.00000000000E+00 0. -1.
         22    1    1    2    0    0  0.37881467124E+03  0.54251071565E+03 -0.36555077414E+03  0.75594034171E+03  0.00000000000E+00 0.  1.
<mgrwt>
<rscale>  0 0.21822208E+04</rscale>
<asrwt>0</asrwt>
<pdfrwt beam="1">  1        2 0.29252388E+00 0.21822208E+04</pdfrwt>
<pdfrwt beam="2">  1       -2 0.96327290E-01 0.21822208E+04</pdfrwt>
<totfact> 0.62595049E+00</totfact>
</mgrwt>
</event>
<event>
 6    1  0.2003386E-005  0.2925483E+04  0.7818608E-02  0.8265336E-01
         -2   -1    0    0    0  501 -0.00000000000E+00  0.00000000000E+00  0.13801597773E+04  0.13801597773E+04  0.00000000000E+00 0.  1.
          2   -1    0    0  501    0  0.00000000000E+00 -0.00000000000E+00 -0.15502644204E+04  0.15502644204E+04  0.00000000000E+00 0. -1.
         23    2    1    2    0    0  0.66068212155E+03  0.28919759982E+03  0.11878969812E+04  0.13927946816E+04  0.92960582323E+02 0.  0.
         13    1    3    3    0    0  0.19603369723E+03  0.62599360202E+02  0.27198117390E+03  0.34105959788E+03  0.00000000000E+00 0. -1.
        -13    1    3    3    0    0  0.46464842431E+03  0.22659823962E+03  0.91591580725E+03  0.10517350837E+04  0.00000000000E+00 0.  1.
         22    1    1    2    0    0 -0.66068212155E+03 -0.28919759982E+03 -0.13580016242E+04  0.15376295161E+04  0.00000000000E+00 0. -1.
<mgrwt>
<rscale>  0 0.29254829E+04</rscale>
<asrwt>0</asrwt>
<pdfrwt beam="1">  1        2 0.23850222E+00 0.29254829E+04</pdfrwt>
<pdfrwt beam="2">  1       -2 0.21233227E+00 0.29254829E+04</pdfrwt>
<totfact> 0.11330924E+00</totfact>
</mgrwt>
</event>
<event>
 6    1  0.2003386E-005  0.1811196E+04  0.7818608E-02  0.8700368E-01
          2   -1    0    0  501    0  0.00000000000E+00  0.00000000000E+00  0.20276048969E+04  0.20276048969E+04  0.00000000000E+00 0. -1.
         -2   -1    0    0    0  501 -0.00000000000E+00 -0.00000000000E+00 -0.40447103932E+03  0.40447103932E+03  0.00000000000E+00 0.  1.
         23    2    1    2    0    0 -0.67139828877E+03  0.59510426492E+02  0.58434291482E+01  0.67994994677E+03  0.89334379816E+02 0.  0.
         11    1    3    3    0    0 -0.42820638104E+03 -0.50173781365E+01 -0.14163048913E+01  0.42823811690E+03  0.00000000000E+00 0. -1.
        -11    1    3    3    0    0 -0.24319190773E+03  0.64527804629E+02  0.72597340396E+01  0.25171182987E+03  0.00000000000E+00 0.  1.
         22    1    1    2    0    0  0.67139828877E+03 -0.59510426492E+02  0.16172904284E+04  0.17521259895E+04  0.00000000000E+00 0. -1.
<mgrwt>
<rscale>  0 0.18111957E+04</rscale>
<asrwt>0</asrwt>
<pdfrwt beam="1">  1        2 0.31193921E+00 0.18111957E+04</pdfrwt>
<pdfrwt beam="2">  1       -2 0.62226315E-01 0.18111957E+04</pdfrwt>
<totfact> 0.14580387E+01</totfact>
</mgrwt>
</event>
<event>
 6    1  0.2003386E-005  0.1897672E+04  0.7818608E-02  0.8656016E-01
         -2   -1    0    0    0  501 -0.00000000000E+00  0.00000000000E+00  0.41222951531E+03  0.41222951531E+03  0.00000000000E+00 0.  1.
          2   -1    0    0  501    0  0.00000000000E+00 -0.00000000000E+00 -0.21839528674E+04  0.21839528674E+04  0.00000000000E+00 0. -1.
         23    2    1    2    0    0  0.30211769499E+03  0.29459729358E+03 -0.20475603673E+04  0.20920507273E+04  0.78167262026E+02 0.  0.
         11    1    3    3    0    0  0.76445132667E+02  0.84715650648E+02 -0.40204763277E+03  0.41792690604E+03  0.00000000000E+00 0.  1.
        -11    1    3    3    0    0  0.22567256232E+03  0.20988164293E+03 -0.16455127346E+04  0.16741238213E+04  0.00000000000E+00 0. -1.
         22    1    1    2    0    0 -0.30211769499E+03 -0.29459729358E+03  0.27583701522E+03  0.50413165540E+03  0.00000000000E+00 0.  1.
<mgrwt>
<rscale>  0 0.18976721E+04</rscale>
<asrwt>0</asrwt>
<pdfrwt beam="1">  1        2 0.33599274E+00 0.18976721E+04</pdfrwt>
<pdfrwt beam="2">  1       -2 0.63419927E-01 0.18976721E+04</pdfrwt>
<totfact> 0.11368348E+01</totfact>
</mgrwt>
</event>
<event>
 6    1  0.2003386E-005  0.3701166E+04  0.7818608E-02  0.8067704E-01
          2   -1    0    0  501    0  0.00000000000E+00  0.00000000000E+00  0.37820445318E+04  0.37820445318E+04  0.00000000000E+00 0. -1.
         -2   -1    0    0    0  501 -0.00000000000E+00 -0.00000000000E+00 -0.90550420756E+03  0.90550420756E+03  0.00000000000E+00 0.  1.
         23    2    1    2    0    0  0.51926275173E+03  0.16677513882E+04  0.66863040118E+03  0.18722521783E+04  0.85047678616E+02 0.  0.
         13    1    3    3    0    0  0.44177496955E+03  0.14503625732E+04  0.60897118325E+03  0.16338796221E+04  0.00000000000E+00 0.  1.
        -13    1    3    3    0    0  0.77487782183E+02  0.21738881506E+03  0.59659217931E+02  0.23837255627E+03  0.00000000000E+00 0. -1.
         22    1    1    2    0    0 -0.51926275173E+03 -0.16677513882E+04  0.22079099231E+04  0.28152965610E+04  0.00000000000E+00 0. -1.
<mgrwt>
<rscale>  0 0.37011659E+04</rscale>
<asrwt>0</asrwt>
<pdfrwt beam="1">  1        2 0.58185300E+00 0.37011659E+04</pdfrwt>
<pdfrwt beam="2">  1       -2 0.13930834E+00 0.37011659E+04</pdfrwt>
<totfact> 0.14866399E-01</totfact>
</mgrwt>
</event>
<event>
 6    1  0.2003386E-005  0.2255585E+04  0.7818608E-02  0.8495642E-01
          1   -1    0    0  501    0  0.00000000000E+00  0.00000000000E+00  0.22415955996E+04  0.22415955996E+04  0.00000000000E+00 0. -1.
         -1   -1    0    0    0  501 -0.00000000000E+00 -0.00000000000E+00 -0.56741522633E+03  0.56741522633E+03  0.00000000000E+00 0.  1.
         23    2    1    2    0    0  0.11150974349E+04 -0.12911428270E+03  0.94594207205E+03  0.14709361604E+04  0.93455855552E+02 0.  0.
         11    1    3    3    0    0  0.68170781017E+03 -0.12381407832E+03  0.57026558822E+03  0.89736185876E+03  0.00000000000E+00 0.  1.
        -11    1    3    3    0    0  0.43338962469E+03 -0.53002043802E+01  0.37567648383E+03  0.57357430160E+03  0.00000000000E+00 0. -1.
         22    1    1    2    0    0 -0.11150974349E+04  0.12911428270E+03  0.72823830118E+03  0.13380746655E+04  0.00000000000E+00 0.  1.
<mgrwt>
<rscale>  0 0.22555846E+04</rscale>
<asrwt>0</asrwt>
<pdfrwt beam="1">  1        1 0.34486086E+00 0.22555846E+04</pdfrwt>
<pdfrwt beam="2">  1       -1 0.87294651E-01 0.22555846E+04</pdfrwt>
<totfact> 0.23914422E+00</totfact>
</mgrwt>
</event>
<event>
 6    1  0.2003386E-005  0.1437113E+04  0.7818608E-02  0.8927384E-01
         -2   -1    0    0    0  501 -0.00000000000E+00  0.00000000000E+00  0.14013588944E+03  0.14013588944E+03  0.00000000000E+00 0.  1.
          2   -1    0    0  501    0  0.00000000000E+00 -0.00000000000E+00 -0.36844470023E+04  0.36844470023E+04  0.00000000000E+00 0. -1.
         23    2    1    2    0    0 -0.31058211787E+03  0.12744366812E+03 -0.34613808756E+04  0.34787786628E+04  0.89667599269E+02 0.  0.
         11    1    3    3    0    0 -0.21135744158E+03  0.11853619944E+03 -0.21483275420E+04  0.21619514394E+04  0.00000000000E+00 0. -1.
        -11    1    3    3    0    0 -0.99224676296E+02  0.89074686858E+01 -0.13130533336E+04  0.13168272234E+04  0.00000000000E+00 0.  1.
         22    1    1    2    0    0  0.31058211787E+03 -0.12744366812E+03 -0.82930237241E+02  0.34580422892E+03  0.00000000000E+00 0.  1.
<mgrwt>
<rscale>  0 0.14371127E+04</rscale>
<asrwt>0</asrwt>
<pdfrwt beam="1">  1        2 0.56683803E+00 0.14371127E+04</pdfrwt>
<pdfrwt beam="2">  1       -2 0.21559366E-01 0.14371127E+04</pdfrwt>
<totfact> 0.11104073E+01</totfact>
</mgrwt>
</event>
<event>
 6    1  0.2003386E-005  0.2864788E+04  0.7818608E-02  0.8283432E-01
          2   -1    0    0  501    0  0.00000000000E+00  0.00000000000E+00  0.16495019134E+04  0.16495019134E+04  0.00000000000E+00 0.  1.
         -2   -1    0    0    0  501 -0.00000000000E+00 -0.00000000000E+00 -0.12438618603E+04  0.12438618603E+04  0.00000000000E+00 0. -1.
         23    2    1    2    0    0 -0.92437664811E+03  0.67992840552E+02 -0.89820115582E+03  0.12936459511E+04  0.87517520746E+02 0.  0.
         11    1    3    3    0    0 -0.80661614102E+03  0.81927665588E+02 -0.80813835906E+03  0.11447398607E+04  0.00000000000E+00 0.  1.
        -11    1    3    3    0    0 -0.11776050709E+03 -0.13934825036E+02 -0.90062796756E+02  0.14890609034E+03  0.00000000000E+00 0. -1.
         22    1    1    2    0    0  0.92437664811E+03 -0.67992840552E+02  0.13038412090E+04  0.15997178226E+04  0.00000000000E+00 0.  1.
<mgrwt>
<rscale>  0 0.28647880E+04</rscale>
<asrwt>0</asrwt>
<pdfrwt beam="1">  1        2 0.25376952E+00 0.28647880E+04</pdfrwt>
<pdfrwt beam="2">  1       -2 0.19136336E+00 0.28647880E+04</pdfrwt>
<totfact> 0.13747517E+00</totfact>
</mgrwt>
</event>
<event>
 6    1  0.2003386E-005  0.2911736E+04  0.7818608E-02  0.8269394E-01
         -1   -1    0    0    0  501 -0.00000000000E+00  0.00000000000E+00  0.17020759624E+04  0.17020759624E+04  0.00000000000E+00 0.  1.
          1   -1    0    0  501    0  0.00000000000E+00 -0.00000000000E+00 -0.12452747695E+04  0.12452747695E+04  0.00000000000E+00 0. -1.
         23    2    1    2    0    0 -0.63997413093E+03  0.11905953253E+04  0.77206031589E+03  0.15593765133E+04  0.92162150872E+02 0.  0.
         13    1    3    3    0    0 -0.41022462423E+03  0.83792865112E+03  0.50442964681E+03  0.10605931997E+04  0.00000000000E+00 0. -1.
        -13    1    3    3    0    0 -0.22974950670E+03  0.35266667414E+03  0.26763066907E+03  0.49878331358E+03  0.00000000000E+00 0.  1.
         22    1    1    2    0    0  0.63997413093E+03 -0.11905953253E+04 -0.31525912301E+03  0.13879742186E+04  0.00000000000E+00 0.  1.
<mgrwt>
<rscale>  0 0.29117364E+04</rscale>
<asrwt>0</asrwt>
<pdfrwt beam="1">  1        1 0.19158073E+00 0.29117364E+04</pdfrwt>
<pdfrwt beam="2">  1       -1 0.26185784E+00 0.29117364E+04</pdfrwt>
<totfact> 0.49560366E-01</totfact>
</mgrwt>
</event>
<event>
 6    1  0.2003386E-005  0.4058547E+04  0.7818608E-02  0.7992839E-01
         -1   -1    0    0    0  501 -0.00000000000E+00  0.00000000000E+00  0.11652088319E+04  0.11652088319E+04  0.00000000000E+00 0.  1.
          1   -1    0    0  501    0  0.00000000000E+00 -0.00000000000E+00 -0.35340875124E+04  0.35340875124E+04  0.00000000000E+00 0. -1.
         23    2    1    2    0    0  0.89979901692E+03  0.17945407622E+04 -0.84996029795E+03  0.21819310807E+04  0.91520023279E+02 0.  0.
         13    1    3    3    0    0  0.67483511006E+03  0.12552137570E+04 -0.59334881893E+03  0.15437055491E+04  0.00000000000E+00 0.  1.
        -13    1    3    3    0    0  0.22496390686E+03  0.53932700522E+03 -0.25661147902E+03  0.63822553154E+03  0.00000000000E+00 0. -1.
         22    1    1    2    0    0 -0.89979901692E+03 -0.17945407622E+04 -0.15189183825E+04  0.25173652636E+04  0.00000000000E+00 0. -1.
<mgrwt>
<rscale>  0 0.40585465E+04</rscale>
<asrwt>0</asrwt>
<pdfrwt beam="1">  1        1 0.54370577E+00 0.40585465E+04</pdfrwt>
<pdfrwt beam="2">  1       -1 0.17926290E+00 0.40585465E+04</pdfrwt>
<totfact> 0.38472122E-02</totfact>
</mgrwt>
</event>
<event>
 6    1  0.2003386E-005  0.1874973E+04  0.7818608E-02  0.8667415E-01
          2   -1    0    0  501    0  0.00000000000E+00  0.00000000000E+00  0.28484270050E+04  0.28484270050E+04  0.00000000000E+00 0. -1.
         -2   -1    0    0    0  501 -0.00000000000E+00 -0.00000000000E+00 -0.30854948980E+03  0.30854948980E+03  0.00000000000E+00 0.  1.
         23    2    1    2    0    0 -0.73346916607E+03  0.32075606003E+03  0.45861829711E+03  0.92706586867E+03  0.90878571647E+02 0.  0.
         11    1    3    3    0    0 -0.58639678800E+03  0.27513020524E+03  0.33287311698E+03  0.72825979899E+03  0.00000000000E+00 0. -1.
        -11    1    3    3    0    0 -0.14707237807E+03  0.45625854791E+02  0.12574518013E+03  0.19880606968E+03  0.00000000000E+00 0.  1.
         22    1    1    2    0    0  0.73346916607E+03 -0.32075606003E+03  0.20812592181E+04  0.22299106261E+04  0.00000000000E+00 0. -1.
<mgrwt>
<rscale>  0 0.18749727E+04</rscale>
<asrwt>0</asrwt>
<pdfrwt beam="1">  1        2 0.43821952E+00 0.18749727E+04</pdfrwt>
<pdfrwt beam="2">  1       -2 0.47469154E-01 0.18749727E+04</pdfrwt>
<totfact> 0.85487336E+00</totfact>
</mgrwt>
</event>
<event>
 6    1  0.2003386E-005  0.5422265E+04  0.7818608E-02  0.7766477E-01
          2   -1    0    0  501    0  0.00000000000E+00  0.00000000000E+00  0.46496867996E+04  0.46496867996E+04  0.00000000000E+00 0. -1.
         -2   -1    0    0    0  501 -0.00000000000E+00 -0.00000000000E+00 -0.15808033647E+04  0.15808033647E+04  0.00000000000E+00 0.  1.
         23    2    1    2    0    0 -0.17940047850E+04  0.18612954962E+04  0.59912777888E+03  0.26552185533E+04  0.91418692765E+02 0.  0.
         13    1    3    3    0    0 -0.11819398666E+04  0.12344188296E+04  0.35192073405E+03  0.17448839211E+04  0.00000000000E+00 0. -1.
        -13    1    3    3    0    0 -0.61206491847E+03  0.62687666654E+03  0.24720704483E+03  0.91033463215E+03  0.00000000000E+00 0.  1.
         22    1    1    2    0    0  0.17940047850E+04 -0.18612954962E+04  0.24697556560E+04  0.35752716111E+04  0.00000000000E+00 0. -1.
<mgrwt>
<rscale>  0 0.54222654E+04</rscale>
<asrwt>0</asrwt>
<pdfrwt beam="1">  1        2 0.71533642E+00 0.54222654E+04</pdfrwt>
<pdfrwt beam="2">  1       -2 0.24320052E+00 0.54222654E+04</pdfrwt>
<totfact> 0.42696006E-03</totfact>
</mgrwt>
</event>
<event>
 6    1  0.2003386E-005  0.7422106E+03  0.7818608E-02  0.9647651E-01
          2   -1    0    0  501    0  0.00000000000E+00  0.00000000000E+00  0.12048206230E+04  0.12048206230E+04  0.00000000000E+00 0. -1.
         -2   -1    0    0    0  501 -0.00000000000E+00 -0.00000000000E+00 -0.11430674770E+03  0.11430674770E+03  0.00000000000E+00 0.  1.
         23    2    1    2    0    0 -0.30718023879E+03 -0.18042461295E+02  0.90673930181E+03  0.96071654026E+03  0.78197696775E+02 0.  0.
         11    1    3    3    0    0 -0.24527916400E+03 -0.36923876980E+02  0.77870544019E+03  0.81725602082E+03  0.00000000000E+00 0.  1.
        -11    1    3    3    0    0 -0.61901074793E+02  0.18881415686E+02  0.12803386162E+03  0.14346051945E+03  0.00000000000E+00 0. -1.
         22    1    1    2    0    0  0.30718023879E+03  0.18042461295E+02  0.18377457347E+03  0.35841083043E+03  0.00000000000E+00 0.  1.
<mgrwt>
<rscale>  0 0.74221055E+03</rscale>
<asrwt>0</asrwt>
<pdfrwt beam="1">  1        2 0.18535701E+00 0.74221055E+03</pdfrwt>
<pdfrwt beam="2">  1       -2 0.17585654E-01 0.74221055E+03</pdfrwt>
<totfact> 0.50638911E+02</totfact>
</mgrwt>
</event>
<event>
 6    1  0.2003386E-005  0.4236040E+04  0.7818608E-02  0.7958552E-01
         -2   -1    0    0    0  501 -0.00000000000E+00  0.00000000000E+00  0.17229048525E+04  0.17229048525E+04  0.00000000000E+00 0.  1.
          2   -1    0    0  501    0  0.00000000000E+00 -0.00000000000E+00 -0.26037469524E+04  0.26037469524E+04  0.00000000000E+00 0. -1.
         23    2    1    2    0    0 -0.80104408893E+03 -0.18423346864E+04 -0.11227614999E+04  0.23031909762E+04  0.90700376054E+02 0.  0.
         11    1    3    3    0    0 -0.46173406479E+03 -0.10961147448E+04 -0.71308917565E+03  0.13867811842E+04  0.00000000000E+00 0. -1.
        -11    1    3    3    0    0 -0.33931002414E+03 -0.74621994154E+03 -0.40967232427E+03  0.91640979202E+03  0.00000000000E+00 0.  1.
         22    1    1    2    0    0  0.80104408893E+03  0.18423346864E+04  0.24191939998E+03  0.20234608287E+04  0.00000000000E+00 0.  1.
<mgrwt>
<rscale>  0 0.42360398E+04</rscale>
<asrwt>0</asrwt>
<pdfrwt beam="1">  1        2 0.40057645E+00 0.42360398E+04</pdfrwt>
<pdfrwt beam="2">  1       -2 0.26506229E+00 0.42360398E+04</pdfrwt>
<totfact> 0.12175455E-01</totfact>
</mgrwt>
</event>
<event>
 6    1  0.2003386E-005  0.1920298E+04  0.7818608E-02  0.8644818E-01
         -2   -1    0    0    0  501 -0.00000000000E+00  0.00000000000E+00  0.36672056913E+03  0.36672056913E+03  0.00000000000E+00 0.  1.
          2   -1    0    0  501    0  0.00000000000E+00 -0.00000000000E+00 -0.25138645390E+04  0.25138645390E+04  0.00000000000E+00 0. -1.
         23    2    1    2    0    0  0.89479192628E+03  0.11258073571E+03 -0.15605120748E+04  0.18047301022E+04  0.92335220507E+02 0.  0.
         11    1    3    3    0    0  0.49487692827E+03  0.86778607972E+02 -0.79001009496E+03  0.93624230361E+03  0.00000000000E+00 0. -1.
        -11    1    3    3    0    0  0.39991499801E+03  0.25802127741E+02 -0.77050197979E+03  0.86848779859E+03  0.00000000000E+00 0.  1.
         22    1    1    2    0    0 -0.89479192628E+03 -0.11258073571E+03 -0.58663189509E+03  0.10758550059E+04  0.00000000000E+00 0.  1.
<mgrwt>
<rscale>  0 0.19202977E+04</rscale>
<asrwt>0</asrwt>
<pdfrwt beam="1">  1        2 0.38674837E+00 0.19202977E+04</pdfrwt>
<pdfrwt beam="2">  1       -2 0.56418551E-01 0.19202977E+04</pdfrwt>
<totfact> 0.94273726E+00</totfact>
</mgrwt>
</event>
<event>
 6    1  0.2003386E-005  0.1509244E+04  0.7818608E-02  0.8878329E-01
          2   -1    0    0  501    0  0.00000000000E+00  0.00000000000E+00  0.94221557208E+03  0.94221557208E+03  0.00000000000E+00 0. -1.
         -2   -1    0    0    0  501 -0.00000000000E+00 -0.00000000000E+00 -0.60437820996E+03  0.60437820996E+03  0.00000000000E+00 0.  1.
         23    2    1    2    0    0  0.17868144297E+03 -0.51394112827E+03  0.70124655345E+03  0.89227827578E+03  0.91385181045E+02 0.  0.
         11    1    3    3    0    0  0.10100299787E+03 -0.37040172257E+03  0.54241266758E+03  0.66453784212E+03  0.00000000000E+00 0. -1.
        -11    1    3    3    0    0  0.77678445105E+02 -0.14353940570E+03  0.15883388587E+03  0.22774043366E+03  0.00000000000E+00 0.  1.
         22    1    1    2    0    0 -0.17868144297E+03  0.51394112827E+03 -0.36340919133E+03  0.65431550626E+03  0.00000000000E+00 0. -1.
<mgrwt>
<rscale>  0 0.15092443E+04</rscale>
<asrwt>0</asrwt>
<pdfrwt beam="1">  1        2 0.14495624E+00 0.15092443E+04</pdfrwt>
<pdfrwt beam="2">  1       -2 0.92981263E-01 0.15092443E+04</pdfrwt>
<totfact> 0.25999656E+01</totfact>
</mgrwt>
</event>
<event>
 6    1  0.2003386E-005  0.5016099E+04  0.7818608E-02  0.7826029E-01
         -2   -1    0    0    0  501 -0.00000000000E+00  0.00000000000E+00  0.15581534484E+04  0.15581534484E+04  0.00000000000E+00 0. -1.
          2   -1    0    0  501    0  0.00000000000E+00 -0.00000000000E+00 -0.40370296985E+04  0.40370296985E+04  0.00000000000E+00 0.  1.
         23    2    1    2    0    0 -0.23912006320E+04  0.43899066154E+02 -0.20793390153E+04  0.31704362338E+04  0.90816198298E+02 0.  0.
         11    1    3    3    0    0 -0.10176101261E+04  0.27945010193E+02 -0.94346836086E+03  0.13879639189E+04  0.00000000000E+00 0. -1.
        -11    1    3    3    0    0 -0.13735905059E+04  0.15954055961E+02 -0.11358706545E+04  0.17824723149E+04  0.00000000000E+00 0.  1.
         22    1    1    2    0    0  0.23912006320E+04 -0.43899066154E+02 -0.39953723474E+03  0.24247469131E+04  0.00000000000E+00 0. -1.
<mgrwt>
<rscale>  0 0.50160988E+04</rscale>
<asrwt>0</asrwt>
<pdfrwt beam="1">  1        2 0.62108150E+00 0.50160988E+04</pdfrwt>
<pdfrwt beam="2">  1       -2 0.23971591E+00 0.50160988E+04</pdfrwt>
<totfact> 0.17173935E-02</totfact>
</mgrwt>
</event>
<event>
 6    1  0.2003386E-005  0.3941596E+04  0.7818608E-02  0.8016433E-01
          2   -1    0    0  501    0  0.00000000000E+00  0.00000000000E+00  0.37120871316E+04  0.37120871316E+04  0.00000000000E+00 0. -1.
         -2   -1    0    0    0  501 -0.00000000000E+00 -0.00000000000E+00 -0.10463237291E+04  0.10463237291E+04  0.00000000000E+00 0.  1.
         23    2    1    2    0    0 -0.10796616280E+04 -0.16812181615E+03 -0.64489559919E+03  0.12720951548E+04  0.91660094498E+02 0.  0.
         11    1    3    3    0    0 -0.51013685139E+03 -0.33416698561E+02 -0.30625191588E+03  0.59594170761E+03  0.00000000000E+00 0.  1.
        -11    1    3    3    0    0 -0.56952477666E+03 -0.13470511759E+03 -0.33864368331E+03  0.67615344721E+03  0.00000000000E+00 0. -1.
         22    1    1    2    0    0  0.10796616280E+04  0.16812181615E+03  0.33106590017E+04  0.34863157059E+04  0.00000000000E+00 0. -1.
<mgrwt>
<rscale>  0 0.39415960E+04</rscale>
<asrwt>0</asrwt>
<pdfrwt beam="1">  1        2 0.57109032E+00 0.39415960E+04</pdfrwt>
<pdfrwt beam="2">  1       -2 0.16097288E+00 0.39415960E+04</pdfrwt>
<totfact> 0.11200614E-01</totfact>
</mgrwt>
</event>
<event>
 6    1  0.2003386E-005  0.3650720E+04  0.7818608E-02  0.8078971E-01
         -2   -1    0    0    0  501 -0.00000000000E+00  0.00000000000E+00  0.18735186646E+04  0.18735186646E+04  0.00000000000E+00 0.  1.
          2   -1    0    0  501    0  0.00000000000E+00 -0.00000000000E+00 -0.17784391079E+04  0.17784391079E+04  0.00000000000E+00 0. -1.
         23    2    1    2    0    0  0.12153121362E+04  0.13072267457E+04 -0.32906365814E+03  0.18173671316E+04  0.93354416255E+02 0.  0.
         13    1    3    3    0    0  0.35960873776E+03  0.40913873501E+03 -0.59668701809E+02  0.54797199083E+03  0.00000000000E+00 0. -1.
        -13    1    3    3    0    0  0.85570339841E+03  0.89808801067E+03 -0.26939495633E+03  0.12693951408E+04  0.00000000000E+00 0.  1.
         22    1    1    2    0    0 -0.12153121362E+04 -0.13072267457E+04  0.42414321477E+03  0.18345906409E+04  0.00000000000E+00 0.  1.
<mgrwt>
<rscale>  0 0.36507199E+04</rscale>
<asrwt>0</asrwt>
<pdfrwt beam="1">  1        2 0.27360602E+00 0.36507199E+04</pdfrwt>
<pdfrwt beam="2">  1       -2 0.28823364E+00 0.36507199E+04</pdfrwt>
<totfact> 0.27005058E-01</totfact>
</mgrwt>
</event>
<event>
 6    1  0.2003386E-005  0.1110343E+04  0.7818608E-02  0.9195169E-01
         -2   -1    0    0    0  501 -0.00000000000E+00  0.00000000000E+00  0.12043992249E+03  0.12043992249E+03  0.00000000000E+00 0.  1.
          2   -1    0    0  501    0  0.00000000000E+00 -0.00000000000E+00 -0.25590801711E+04  0.25590801711E+04  0.00000000000E+00 0. -1.
         23    2    1    2    0    0 -0.27709753186E+03  0.72643033217E+02 -0.23646147557E+04  0.23836487938E+04  0.91206232964E+02 0.  0.
         11    1    3    3    0    0 -0.35958375293E+02  0.10353692329E+01 -0.61412178429E+03  0.61517448150E+03  0.00000000000E+00 0. -1.
        -11    1    3    3    0    0 -0.24113915656E+03  0.71607663984E+02 -0.17504929714E+04  0.17684743124E+04  0.00000000000E+00 0.  1.
         22    1    1    2    0    0  0.27709753186E+03 -0.72643033217E+02 -0.74025492922E+02  0.29587129979E+03  0.00000000000E+00 0.  1.
<mgrwt>
<rscale>  0 0.11103430E+04</rscale>
<asrwt>0</asrwt>
<pdfrwt beam="1">  1        2 0.39370464E+00 0.11103430E+04</pdfrwt>
<pdfrwt beam="2">  1       -2 0.18529219E-01 0.11103430E+04</pdfrwt>
<totfact> 0.78708087E+01</totfact>
</mgrwt>
</event>
<event>
 6    1  0.2003386E-005  0.1343754E+04  0.7818608E-02  0.8995569E-01
          2   -1    0    0  501    0  0.00000000000E+00  0.00000000000E+00  0.40898156063E+04  0.40898156063E+04  0.00000000000E+00 0. -1.
         -2   -1    0    0    0  501 -0.00000000000E+00 -0.00000000000E+00 -0.11037635134E+03  0.11037635134E+03  0.00000000000E+00 0.  1.
         23    2    1    2    0    0  0.52185771910E+03  0.14590097851E+03  0.77303301048E+03  0.94832117620E+03  0.90058000303E+02 0.  0.
         13    1    3    3    0    0  0.34311443162E+03  0.11919687022E+03  0.57592785134E+03  0.68090256058E+03  0.00000000000E+00 0. -1.
        -13    1    3    3    0    0  0.17874328748E+03  0.26704108286E+02  0.19710515914E+03  0.26741861562E+03  0.00000000000E+00 0.  1.
         22    1    1    2    0    0 -0.52185771910E+03 -0.14590097851E+03  0.32064062445E+04  0.32518707814E+04  0.00000000000E+00 0. -1.
<mgrwt>
<rscale>  0 0.13437543E+04</rscale>
<asrwt>0</asrwt>
<pdfrwt beam="1">  1        2 0.62920228E+00 0.13437543E+04</pdfrwt>
<pdfrwt beam="2">  1       -2 0.16980980E-01 0.13437543E+04</pdfrwt>
<totfact> 0.82864086E+00</totfact>
</mgrwt>
</event>
<event>
 6    1  0.2003386E-005  0.2576767E+04  0.7818608E-02  0.8376136E-01
         -1   -1    0    0    0  501 -0.00000000000E+00  0.00000000000E+00  0.41212139223E+03  0.41212139223E+03  0.00000000000E+00 0.  1.
          1   -1    0    0  501    0  0.00000000000E+00 -0.00000000000E+00 -0.40277752467E+04  0.40277752467E+04  0.00000000000E+00 0. -1.
         23    2    1    2    0    0 -0.12563526222E+04  0.18991060663E+03 -0.21599945202E+04  0.25076875283E+04  0.91828440218E+02 0.  0.
         13    1    3    3    0    0 -0.84454106048E+03  0.15189979680E+03 -0.15265103617E+04  0.17511587694E+04  0.00000000000E+00 0. -1.
        -13    1    3    3    0    0 -0.41181156172E+03  0.38010809828E+02 -0.63348415851E+03  0.75652875895E+03  0.00000000000E+00 0.  1.
         22    1    1    2    0    0  0.12563526222E+04 -0.18991060663E+03 -0.14556593343E+04  0.19322091106E+04  0.00000000000E+00 0. -1.
<mgrwt>
<rscale>  0 0.25767672E+04</rscale>
<asrwt>0</asrwt>
<pdfrwt beam="1">  1        1 0.61965773E+00 0.25767672E+04</pdfrwt>
<pdfrwt beam="2">  1       -1 0.63403291E-01 0.25767672E+04</pdfrwt>
<totfact> 0.20230942E-01</totfact>
</mgrwt>
</event>
<event>
 6    1  0.2003386E-005  0.1158005E+04  0.7818608E-02  0.9150430E-01
          2   -1    0    0  501    0  0.00000000000E+00  0.00000000000E+00  0.30125332717E+04  0.30125332717E+04  0.00000000000E+00 0. -1.
         -2   -1    0    0    0  501 -0.00000000000E+00 -0.00000000000E+00 -0.11128302271E+03  0.11128302271E+03  0.00000000000E+00 0.  1.
         23    2    1    2    0    0 -0.47655455179E+03  0.25009623897E+03  0.91064269994E+03  0.10617370564E+04  0.91449878971E+02 0.  0.
         13    1    3    3    0    0 -0.20084601913E+03  0.14777197351E+03  0.36787305432E+03  0.44441676796E+03  0.00000000000E+00 0. -1.
        -13    1    3    3    0    0 -0.27570853267E+03  0.10232426546E+03  0.54276964562E+03  0.61732028842E+03  0.00000000000E+00 0.  1.
         22    1    1    2    0    0  0.47655455179E+03 -0.25009623897E+03  0.19906075491E+04  0.20620792380E+04  0.00000000000E+00 0. -1.
<mgrwt>
<rscale>  0 0.11580049E+04</rscale>
<asrwt>0</asrwt>
<pdfrwt beam="1">  1        2 0.46346660E+00 0.11580049E+04</pdfrwt>
<pdfrwt beam="2">  1       -2 0.17120467E-01 0.11580049E+04</pdfrwt>
<totfact> 0.48180319E+01</totfact>
</mgrwt>
</event>
<event>
 6    1  0.2003386E-005  0.7076424E+03  0.7818608E-02  0.9704251E-01
         -2   -1    0    0    0  501 -0.00000000000E+00  0.00000000000E+00  0.14978783651E+03  0.14978783651E+03  0.00000000000E+00 0. -1.
          2   -1    0    0  501    0  0.00000000000E+00 -0.00000000000E+00 -0.83577852251E+03  0.83577852251E+03  0.00000000000E+00 0.  1.
         23    2    1    2    0    0  0.46458111207E+02  0.24901606760E+03 -0.67908711884E+03  0.73215953737E+03  0.10359013063E+03 0.  0.
         13    1    3    3    0    0  0.66196368315E+02  0.88363498256E+02 -0.31243903139E+03  0.33137322665E+03  0.00000000000E+00 0.  1.
        -13    1    3    3    0    0 -0.19738257108E+02  0.16065256935E+03 -0.36664808745E+03  0.40078631073E+03  0.00000000000E+00 0. -1.
         22    1    1    2    0    0 -0.46458111207E+02 -0.24901606760E+03 -0.69035671619E+01  0.25340682165E+03  0.00000000000E+00 0. -1.
<mgrwt>
<rscale>  0 0.70764244E+03</rscale>
<asrwt>0</asrwt>
<pdfrwt beam="1">  1        2 0.12858131E+00 0.70764244E+03</pdfrwt>
<pdfrwt beam="2">  1       -2 0.23044283E-01 0.70764244E+03</pdfrwt>
<totfact> 0.54228835E+02</totfact>
</mgrwt>
</event>
<event>
 6    1  0.2003386E-005  0.4711002E+04  0.7818608E-02  0.7874703E-01
         -2   -1    0    0    0  501 -0.00000000000E+00  0.00000000000E+00  0.31242111111E+04  0.31242111111E+04  0.00000000000E+00 0.  1.
          2   -1    0    0  501    0  0.00000000000E+00 -0.00000000000E+00 -0.17759315795E+04  0.17759315795E+04  0.00000000000E+00 0. -1.
         23    2    1    2    0    0  0.12182137081E+04 -0.20051647763E+04  0.88086080387E+03  0.25078194085E+04  0.92260560788E+02 0.  0.
         13    1    3    3    0    0  0.68334846871E+03 -0.12059540078E+04  0.50209557783E+03  0.14742422351E+04  0.00000000000E+00 0.  1.
        -13    1    3    3    0    0  0.53486523940E+03 -0.79921076852E+03  0.37876522603E+03  0.10335771734E+04  0.00000000000E+00 0. -1.
         22    1    1    2    0    0 -0.12182137081E+04  0.20051647763E+04  0.46741872771E+03  0.23923232820E+04  0.00000000000E+00 0. -1.
<mgrwt>
<rscale>  0 0.47110021E+04</rscale>
<asrwt>0</asrwt>
<pdfrwt beam="1">  1        2 0.27322024E+00 0.47110021E+04</pdfrwt>
<pdfrwt beam="2">  1       -2 0.48064786E+00 0.47110021E+04</pdfrwt>
<totfact> 0.14552270E-02</totfact>
</mgrwt>
</event>
<event>
 6    1  0.2003386E-005  0.9170300E+03  0.7818608E-02  0.9404540E-01
          1   -1    0    0  501    0  0.00000000000E+00  0.00000000000E+00  0.49715829102E+03  0.49715829102E+03  0.00000000000E+00 0. -1.
         -1   -1    0    0    0  501 -0.00000000000E+00 -0.00000000000E+00 -0.42287537311E+03  0.42287537311E+03  0.00000000000E+00 0.  1.
         23    2    1    2    0    0  0.39188933863E+03  0.86639478030E+02  0.25020191058E+03  0.48182008052E+03  0.92010548557E+02 0.  0.
         13    1    3    3    0    0  0.11309938605E+03  0.36718813745E+02  0.12383946218E+03  0.17168562782E+03  0.00000000000E+00 0. -1.
        -13    1    3    3    0    0  0.27878995258E+03  0.49920664286E+02  0.12636244840E+03  0.31013445270E+03  0.00000000000E+00 0.  1.
         22    1    1    2    0    0 -0.39188933863E+03 -0.86639478030E+02 -0.17591899267E+03  0.43821358362E+03  0.00000000000E+00 0.  1.
<mgrwt>
<rscale>  0 0.91702998E+03</rscale>
<asrwt>0</asrwt>
<pdfrwt beam="1">  1        1 0.76485891E-01 0.91702998E+03</pdfrwt>
<pdfrwt beam="2">  1       -1 0.65057750E-01 0.91702998E+03</pdfrwt>
<totfact> 0.10780433E+02</totfact>
</mgrwt>
</event>
<event>
 6    1  0.2003386E-005  0.1433889E+04  0.7818608E-02  0.8929647E-01
          2   -1    0    0  501    0  0.00000000000E+00  0.00000000000E+00  0.35200517901E+04  0.35200517901E+04  0.00000000000E+00 0. -1.
         -2   -1    0    0    0  501 -0.00000000000E+00 -0.00000000000E+00 -0.14602315568E+03  0.14602315568E+03  0.00000000000E+00 0.  1.
         23    2    1    2    0    0  0.25995643091E+03  0.36317223670E+03  0.31182693023E+04  0.31514058721E+04  0.91017082998E+02 0.  0.
         13    1    3    3    0    0  0.70066848936E+02  0.12058908692E+03  0.71529541075E+03  0.72876513078E+03  0.00000000000E+00 0. -1.
        -13    1    3    3    0    0  0.18988958197E+03  0.24258314979E+03  0.24029738915E+04  0.24226407413E+04  0.00000000000E+00 0.  1.
         22    1    1    2    0    0 -0.25995643091E+03 -0.36317223670E+03  0.25575933217E+03  0.51466907375E+03  0.00000000000E+00 0.  1.
<mgrwt>
<rscale>  0 0.14338885E+04</rscale>
<asrwt>0</asrwt>
<pdfrwt beam="1">  1        2 0.54154637E+00 0.14338885E+04</pdfrwt>
<pdfrwt beam="2">  1       -2 0.22465104E-01 0.14338885E+04</pdfrwt>
<totfact> 0.13512496E+01</totfact>
</mgrwt>
</event>
<event>
 6    1  0.2003386E-005  0.1553159E+04  0.7818608E-02  0.8849852E-01
          2   -1    0    0  501    0  0.00000000000E+00  0.00000000000E+00  0.11411349891E+04  0.11411349891E+04  0.00000000000E+00 0. -1.
         -2   -1    0    0    0  501 -0.00000000000E+00 -0.00000000000E+00 -0.52848761592E+03  0.52848761592E+03  0.00000000000E+00 0.  1.
         23    2    1    2    0    0 -0.74683200204E+03 -0.20352951364E+03  0.30506143376E+03  0.83668118310E+03  0.88264497899E+02 0.  0.
         13    1    3    3    0    0 -0.53085430822E+03 -0.16437872232E+03  0.18048519187E+03  0.58429578587E+03  0.00000000000E+00 0.  1.
        -13    1    3    3    0    0 -0.21597769382E+03 -0.39150791330E+02  0.12457624189E+03  0.25238539722E+03  0.00000000000E+00 0. -1.
         22    1    1    2    0    0  0.74683200204E+03  0.20352951364E+03  0.30758593939E+03  0.83294142189E+03  0.00000000000E+00 0. -1.
<mgrwt>
<rscale>  0 0.15531590E+04</rscale>
<asrwt>0</asrwt>
<pdfrwt beam="1">  1        2 0.17555923E+00 0.15531590E+04</pdfrwt>
<pdfrwt beam="2">  1       -2 0.81305787E-01 0.15531590E+04</pdfrwt>
<totfact> 0.26368777E+01</totfact>
</mgrwt>
</event>
<event>
 6    1  0.2003386E-005  0.4122203E+04  0.7818608E-02  0.7980338E-01
          2   -1    0    0  501    0  0.00000000000E+00  0.00000000000E+00  0.20468428168E+04  0.20468428168E+04  0.00000000000E+00 0. -1.
         -2   -1    0    0    0  501 -0.00000000000E+00 -0.00000000000E+00 -0.20754593800E+04  0.20754593800E+04  0.00000000000E+00 0.  1.
         23    2    1    2    0    0  0.86517236772E+03 -0.10578228805E+04 -0.15558764770E+04  0.20729034272E+04  0.93083481338E+02 0.  0.
         11    1    3    3    0    0  0.48729045390E+03 -0.54957583518E+03 -0.88983747196E+03  0.11538181449E+04  0.00000000000E+00 0.  1.
        -11    1    3    3    0    0  0.37788191382E+03 -0.50824704532E+03 -0.66603900507E+03  0.91908528230E+03  0.00000000000E+00 0. -1.
         22    1    1    2    0    0 -0.86517236772E+03  0.10578228805E+04  0.15272599138E+04  0.20493987696E+04  0.00000000000E+00 0. -1.
<mgrwt>
<rscale>  0 0.41222029E+04</rscale>
<asrwt>0</asrwt>
<pdfrwt beam="1">  1        2 0.31489890E+00 0.41222029E+04</pdfrwt>
<pdfrwt beam="2">  1       -2 0.31930144E+00 0.41222029E+04</pdfrwt>
<totfact> 0.11884858E-01</totfact>
</mgrwt>
</event>
<event>
 6    1  0.2003386E-005  0.2602753E+04  0.7818608E-02  0.8367267E-01
          2   -1    0    0  501    0  0.00000000000E+00  0.00000000000E+00  0.18554315414E+04  0.18554315414E+04  0.00000000000E+00 0. -1.
         -2   -1    0    0    0  501 -0.00000000000E+00 -0.00000000000E+00 -0.91276895152E+03  0.91276895152E+03  0.00000000000E+00 0.  1.
         23    2    1    2    0    0 -0.60166628952E+03  0.81038749923E+03  0.13428747485E+04  0.16824288803E+04  0.92326184346E+02 0.  0.
         13    1    3    3    0    0 -0.45749850946E+03  0.60239833201E+03  0.10686605381E+04  0.13092837669E+04  0.00000000000E+00 0. -1.
        -13    1    3    3    0    0 -0.14416778006E+03  0.20798916723E+03  0.27421421047E+03  0.37314511348E+03  0.00000000000E+00 0.  1.
         22    1    1    2    0    0  0.60166628952E+03 -0.81038749923E+03 -0.40021215861E+03  0.10857716126E+04  0.00000000000E+00 0.  1.
<mgrwt>
<rscale>  0 0.26027526E+04</rscale>
<asrwt>0</asrwt>
<pdfrwt beam="1">  1        2 0.28545101E+00 0.26027526E+04</pdfrwt>
<pdfrwt beam="2">  1       -2 0.14042599E+00 0.26027526E+04</pdfrwt>
<totfact> 0.25334507E+00</totfact>
</mgrwt>
</event>
<event>
 6    1  0.2003386E-005  0.2195285E+04  0.7818608E-02  0.8520393E-01
         -2   -1    0    0    0  501 -0.00000000000E+00  0.00000000000E+00  0.93216643973E+03  0.93216643973E+03  0.00000000000E+00 0.  1.
          2   -1    0    0  501    0  0.00000000000E+00 -0.00000000000E+00 -0.12924933562E+04  0.12924933562E+04  0.00000000000E+00 0. -1.
         23    2    1    2    0    0 -0.62609834342E+03 -0.33692128520E+03 -0.10253500494E+04  0.12511245601E+04  0.91950275940E+02 0.  0.
         13    1    3    3    0    0 -0.48373802278E+03 -0.21611098697E+03 -0.73985458345E+03  0.90999518571E+03  0.00000000000E+00 0. -1.
        -13    1    3    3    0    0 -0.14236032064E+03 -0.12081029823E+03 -0.28549546590E+03  0.34112937444E+03  0.00000000000E+00 0.  1.
         22    1    1    2    0    0  0.62609834342E+03  0.33692128520E+03  0.66502313287E+03  0.97353523578E+03  0.00000000000E+00 0.  1.
<mgrwt>
<rscale>  0 0.21952849E+04</rscale>
<asrwt>0</asrwt>
<pdfrwt beam="1">  1        2 0.19884513E+00 0.21952849E+04</pdfrwt>
<pdfrwt beam="2">  1       -2 0.14341022E+00 0.21952849E+04</pdfrwt>
<totfact> 0.51511148E+00</totfact>
</mgrwt>
</event>
<event>
 6    1  0.2272252E-005  0.3671768E+04  0.7818608E-02  0.8074247E-01
         -1   -1    0    0    0  501 -0.00000000000E+00  0.00000000000E+00  0.12973934215E+04  0.12973934215E+04  0.00000000000E+00 0. -1.
          1   -1    0    0  501    0  0.00000000000E+00 -0.00000000000E+00 -0.25978780725E+04  0.25978780725E+04  0.00000000000E+00 0.  1.
         23    2    1    2    0    0 -0.40054682514E+03  0.17806588425E+04 -0.45308363432E+03  0.18829911569E+04  0.95850116774E+02 0.  0.
         11    1    3    3    0    0 -0.22808230490E+03  0.12138683302E+04 -0.31582020922E+03  0.12748491148E+04  0.00000000000E+00 0.  1.
        -11    1    3    3    0    0 -0.17246452023E+03  0.56679051222E+03 -0.13726342510E+03  0.60814204209E+03  0.00000000000E+00 0. -1.
         22    1    1    2    0    0  0.40054682514E+03 -0.17806588425E+04 -0.84740101667E+03  0.20122803372E+04  0.00000000000E+00 0. -1.
<mgrwt>
<rscale>  0 0.36717679E+04</rscale>
<asrwt>0</asrwt>
<pdfrwt beam="1">  1        1 0.39967354E+00 0.36717679E+04</pdfrwt>
<pdfrwt beam="2">  1       -1 0.19959899E+00 0.36717679E+04</pdfrwt>
<totfact> 0.14101042E-01</totfact>
</mgrwt>
</event>
<event>
 6    1  0.2003386E-005  0.8320937E+03  0.7818608E-02  0.9514690E-01
          1   -1    0    0  501    0  0.00000000000E+00  0.00000000000E+00  0.50629400380E+03  0.50629400380E+03  0.00000000000E+00 0. -1.
         -1   -1    0    0    0  501 -0.00000000000E+00 -0.00000000000E+00 -0.34188630744E+03  0.34188630744E+03  0.00000000000E+00 0.  1.
         23    2    1    2    0    0 -0.62052919281E+02 -0.20803718739E+03  0.43890888012E+03  0.49820754657E+03  0.91867939383E+02 0.  0.
         11    1    3    3    0    0  0.11762136425E+02 -0.13451089677E+01  0.52497033919E+02  0.53815385734E+02  0.00000000000E+00 0. -1.
        -11    1    3    3    0    0 -0.73815055706E+02 -0.20669207842E+03  0.38641184620E+03  0.44439216084E+03  0.00000000000E+00 0.  1.
         22    1    1    2    0    0  0.62052919281E+02  0.20803718739E+03 -0.27450118375E+03  0.34997276467E+03  0.00000000000E+00 0.  1.
<mgrwt>
<rscale>  0 0.83209371E+03</rscale>
<asrwt>0</asrwt>
<pdfrwt beam="1">  1        1 0.77891386E-01 0.83209371E+03</pdfrwt>
<pdfrwt beam="2">  1       -1 0.52597893E-01 0.83209371E+03</pdfrwt>
<totfact> 0.16035319E+02</totfact>
</mgrwt>
</event>
<event>
 6    1  0.2003386E-005  0.1662990E+04  0.7818608E-02  0.8782759E-01
         -2   -1    0    0    0  501 -0.00000000000E+00  0.00000000000E+00  0.55911552069E+03  0.55911552069E+03  0.00000000000E+00 0.  1.
          2   -1    0    0  501    0  0.00000000000E+00 -0.00000000000E+00 -0.12365672475E+04  0.12365672475E+04  0.00000000000E+00 0. -1.
         23    2    1    2    0    0 -0.48259382872E+03  0.15129938536E+03  0.36952299161E+03  0.63295134239E+03  0.91059612222E+02 0.  0.
         11    1    3    3    0    0 -0.15747721507E+03  0.23938976631E+02  0.74580353110E+02  0.17588171292E+03  0.00000000000E+00 0.  1.
        -11    1    3    3    0    0 -0.32511661365E+03  0.12736040873E+03  0.29494263850E+03  0.45706962948E+03  0.00000000000E+00 0. -1.
         22    1    1    2    0    0  0.48259382872E+03 -0.15129938536E+03 -0.10469747185E+04  0.11627314258E+04  0.00000000000E+00 0. -1.
<mgrwt>
<rscale>  0 0.16629900E+04</rscale>
<asrwt>0</asrwt>
<pdfrwt beam="1">  1        2 0.19024111E+00 0.16629900E+04</pdfrwt>
<pdfrwt beam="2">  1       -2 0.86017773E-01 0.16629900E+04</pdfrwt>
<totfact> 0.20161152E+01</totfact>
</mgrwt>
</event>
<event>
 6    1  0.2003386E-005  0.3117598E+04  0.7818608E-02  0.8210925E-01
         -1   -1    0    0    0  501 -0.00000000000E+00  0.00000000000E+00  0.10071948181E+04  0.10071948181E+04  0.00000000000E+00 0.  1.
          1   -1    0    0  501    0  0.00000000000E+00 -0.00000000000E+00 -0.24124962086E+04  0.24124962086E+04  0.00000000000E+00 0. -1.
         23    2    1    2    0    0 -0.92859520843E+03 -0.16018434146E+03 -0.20635063050E+04  0.22702643027E+04  0.89964709696E+02 0.  0.
         13    1    3    3    0    0 -0.33773934686E+03 -0.10064094878E+03 -0.79771959358E+03  0.87209690801E+03  0.00000000000E+00 0.  1.
        -13    1    3    3    0    0 -0.59085586158E+03 -0.59543392678E+02 -0.12657867115E+04  0.13981673947E+04  0.00000000000E+00 0. -1.
         22    1    1    2    0    0  0.92859520843E+03  0.16018434146E+03  0.65820491452E+03  0.11494267240E+04  0.00000000000E+00 0.  1.
<mgrwt>
<rscale>  0 0.31175976E+04</rscale>
<asrwt>0</asrwt>
<pdfrwt beam="1">  1        1 0.37115326E+00 0.31175976E+04</pdfrwt>
<pdfrwt beam="2">  1       -1 0.15495305E+00 0.31175976E+04</pdfrwt>
<totfact> 0.41901032E-01</totfact>
</mgrwt>
</event>
<event>
 6    1  0.2003386E-005  0.2627667E+04  0.7818608E-02  0.8358864E-01
          2   -1    0    0  501    0  0.00000000000E+00  0.00000000000E+00  0.33129542280E+04  0.33129542280E+04  0.00000000000E+00 0. -1.
         -2   -1    0    0    0  501 -0.00000000000E+00 -0.00000000000E+00 -0.52103283873E+03  0.52103283873E+03  0.00000000000E+00 0.  1.
         23    2    1    2    0    0 -0.50558259302E+03 -0.12007381592E+04  0.16290772387E+04  0.20876788454E+04  0.84406320097E+02 0.  0.
         13    1    3    3    0    0 -0.24382873105E+03 -0.61729367216E+03  0.89280078435E+03  0.11124734461E+04  0.00000000000E+00 0.  1.
        -13    1    3    3    0    0 -0.26175386197E+03 -0.58344448699E+03  0.73627645433E+03  0.97520539932E+03  0.00000000000E+00 0. -1.
         22    1    1    2    0    0  0.50558259302E+03  0.12007381592E+04  0.11628441506E+04  0.17463082213E+04  0.00000000000E+00 0.  1.
<mgrwt>
<rscale>  0 0.26276666E+04</rscale>
<asrwt>0</asrwt>
<pdfrwt beam="1">  1        2 0.50968525E+00 0.26276666E+04</pdfrwt>
<pdfrwt beam="2">  1       -2 0.80158900E-01 0.26276666E+04</pdfrwt>
<totfact> 0.13263387E+00</totfact>
</mgrwt>
</event>
<event>
 6    1  0.2003386E-005  0.2574258E+04  0.7818608E-02  0.8376998E-01
         -2   -1    0    0    0  501 -0.00000000000E+00  0.00000000000E+00  0.89685900843E+03  0.89685900843E+03  0.00000000000E+00 0.  1.
          2   -1    0    0  501    0  0.00000000000E+00 -0.00000000000E+00 -0.18472258688E+04  0.18472258688E+04  0.00000000000E+00 0. -1.
         23    2    1    2    0    0 -0.84414061341E+03  0.62625278066E+03  0.31328005461E+03  0.11004397068E+04  0.89762103389E+02 0.  0.
         13    1    3    3    0    0 -0.26353885356E+03  0.14893535705E+03  0.73595899177E+02  0.31152981285E+03  0.00000000000E+00 0. -1.
        -13    1    3    3    0    0 -0.58060175984E+03  0.47731742361E+03  0.23968415544E+03  0.78890989396E+03  0.00000000000E+00 0.  1.
         22    1    1    2    0    0  0.84414061341E+03 -0.62625278066E+03 -0.12636469150E+04  0.16436451704E+04  0.00000000000E+00 0. -1.
<mgrwt>
<rscale>  0 0.25742581E+04</rscale>
<asrwt>0</asrwt>
<pdfrwt beam="1">  1        2 0.28418859E+00 0.25742581E+04</pdfrwt>
<pdfrwt beam="2">  1       -2 0.13797831E+00 0.25742581E+04</pdfrwt>
<totfact> 0.26860716E+00</totfact>
</mgrwt>
</event>
<event>
 6    1  0.3819196E-005  0.2643146E+04  0.7818608E-02  0.8353691E-01
          2   -1    0    0  501    0  0.00000000000E+00  0.00000000000E+00  0.18969841410E+04  0.18969841410E+04  0.00000000000E+00 0. -1.
         -2   -1    0    0    0  501 -0.00000000000E+00 -0.00000000000E+00 -0.92070113562E+03  0.92070113562E+03  0.00000000000E+00 0.  1.
         23    2    1    2    0    0  0.83955657742E+03  0.10058571294E+04  0.31855774083E+03  0.13516681092E+04  0.94466034858E+02 0.  0.
         11    1    3    3    0    0  0.26577108729E+03  0.38416506245E+03  0.96463829345E+02  0.47699301506E+03  0.00000000000E+00 0.  1.
        -11    1    3    3    0    0  0.57378549014E+03  0.62169206696E+03  0.22209391148E+03  0.87467509415E+03  0.00000000000E+00 0. -1.
         22    1    1    2    0    0 -0.83955657742E+03 -0.10058571294E+04  0.65772526456E+03  0.14660171674E+04  0.00000000000E+00 0. -1.
<mgrwt>
<rscale>  0 0.26431462E+04</rscale>
<asrwt>0</asrwt>
<pdfrwt beam="1">  1        2 0.29184371E+00 0.26431462E+04</pdfrwt>
<pdfrwt beam="2">  1       -2 0.14164633E+00 0.26431462E+04</pdfrwt>
<totfact> 0.23409763E+00</totfact>
</mgrwt>
</event>
<event>
 6    1  0.2003386E-005  0.1139631E+04  0.7818608E-02  0.9167403E-01
         -1   -1    0    0    0  501 -0.00000000000E+00  0.00000000000E+00  0.45729970439E+03  0.45729970439E+03  0.00000000000E+00 0.  1.
          1   -1    0    0  501    0  0.00000000000E+00 -0.00000000000E+00 -0.71001560343E+03  0.71001560343E+03  0.00000000000E+00 0. -1.
         23    2    1    2    0    0 -0.75857284137E+02  0.14838691731E+03  0.42685479406E+03  0.46760870380E+03  0.93165872868E+02 0.  0.
         11    1    3    3    0    0 -0.86710312501E+02  0.70066460889E+02  0.23512191489E+03  0.26021203296E+03  0.00000000000E+00 0.  1.
        -11    1    3    3    0    0  0.10853028364E+02  0.78320456419E+02  0.19173287917E+03  0.20739667083E+03  0.00000000000E+00 0. -1.
         22    1    1    2    0    0  0.75857284137E+02 -0.14838691731E+03 -0.67957069310E+03  0.69970660402E+03  0.00000000000E+00 0. -1.
<mgrwt>
<rscale>  0 0.11396314E+04</rscale>
<asrwt>0</asrwt>
<pdfrwt beam="1">  1        1 0.10923317E+00 0.11396314E+04</pdfrwt>
<pdfrwt beam="2">  1       -1 0.70353801E-01 0.11396314E+04</pdfrwt>
<totfact> 0.54122660E+01</totfact>
</mgrwt>
</event>
<event>
 6    1  0.2003386E-005  0.1083484E+04  0.7818608E-02  0.9221441E-01
         -2   -1    0    0    0  501 -0.00000000000E+00  0.00000000000E+00  0.26352324822E+03  0.26352324822E+03  0.00000000000E+00 0.  1.
          2   -1    0    0  501    0  0.00000000000E+00 -0.00000000000E+00 -0.11136945369E+04  0.11136945369E+04  0.00000000000E+00 0. -1.
         23    2    1    2    0    0  0.45416818572E+03 -0.28348394215E+03 -0.36100160540E+03  0.65201514764E+03  0.90386433038E+02 0.  0.
         11    1    3    3    0    0  0.33143986581E+03 -0.20083356345E+03 -0.21074373820E+03  0.44113425173E+03  0.00000000000E+00 0.  1.
        -11    1    3    3    0    0  0.12272831991E+03 -0.82650378698E+02 -0.15025786719E+03  0.21088089591E+03  0.00000000000E+00 0. -1.
         22    1    1    2    0    0 -0.45416818572E+03  0.28348394215E+03 -0.48916968333E+03  0.72520263752E+03  0.00000000000E+00 0.  1.
<mgrwt>
<rscale>  0 0.10834840E+04</rscale>
<asrwt>0</asrwt>
<pdfrwt beam="1">  1        2 0.17133762E+00 0.10834840E+04</pdfrwt>
<pdfrwt beam="2">  1       -2 0.40542039E-01 0.10834840E+04</pdfrwt>
<totfact> 0.12221807E+02</totfact>
</mgrwt>
</event>
<event>
 6    1  0.2003386E-005  0.1784377E+04  0.7818608E-02  0.8714652E-01
          2   -1    0    0  501    0  0.00000000000E+00  0.00000000000E+00  0.14235031673E+04  0.14235031673E+04  0.00000000000E+00 0. -1.
         -2   -1    0    0    0  501 -0.00000000000E+00 -0.00000000000E+00 -0.55918390454E+03  0.55918390454E+03  0.00000000000E+00 0.  1.
         23    2    1    2    0    0 -0.11412910467E+03 -0.75527494970E+03 -0.73833949170E+02  0.77289487843E+03  0.91920285477E+02 0.  0.
         11    1    3    3    0    0 -0.42876760216E+02 -0.45161602571E+03 -0.81423360095E+02  0.46089609980E+03  0.00000000000E+00 0.  1.
        -11    1    3    3    0    0 -0.71252344452E+02 -0.30365892399E+03  0.75894109250E+01  0.31199877863E+03  0.00000000000E+00 0. -1.
         22    1    1    2    0    0  0.11412910467E+03  0.75527494970E+03  0.93815321195E+03  0.12097921934E+04  0.00000000000E+00 0. -1.
<mgrwt>
<rscale>  0 0.17843767E+04</rscale>
<asrwt>0</asrwt>
<pdfrwt beam="1">  1        2 0.21900049E+00 0.17843767E+04</pdfrwt>
<pdfrwt beam="2">  1       -2 0.86028293E-01 0.17843767E+04</pdfrwt>
<totfact> 0.15546901E+01</totfact>
</mgrwt>
</event>
<event>
 6    1  0.2003386E-005  0.2766669E+04  0.7818608E-02  0.8313692E-01
         -2   -1    0    0    0  501 -0.00000000000E+00  0.00000000000E+00  0.28879433230E+04  0.28879433230E+04  0.00000000000E+00 0. -1.
          2   -1    0    0  501    0  0.00000000000E+00 -0.00000000000E+00 -0.66262163128E+03  0.66262163128E+03  0.00000000000E+00 0.  1.
         23    2    1    2    0    0  0.98124938497E+03  0.68023005649E+03  0.20070363629E+04  0.23368056001E+04  0.83079270746E+02 0.  0.
         11    1    3    3    0    0  0.13901418458E+03  0.13316227281E+03  0.31569157780E+03  0.36975438701E+03  0.00000000000E+00 0. -1.
        -11    1    3    3    0    0  0.84223520039E+03  0.54706778368E+03  0.16913447851E+04  0.19670512131E+04  0.00000000000E+00 0.  1.
         22    1    1    2    0    0 -0.98124938497E+03 -0.68023005649E+03  0.21828532886E+03  0.12137593543E+04  0.00000000000E+00 0.  1.
<mgrwt>
<rscale>  0 0.27666685E+04</rscale>
<asrwt>0</asrwt>
<pdfrwt beam="1">  1        2 0.10194179E+00 0.27666685E+04</pdfrwt>
<pdfrwt beam="2">  1       -2 0.44429897E+00 0.27666685E+04</pdfrwt>
<totfact> 0.14483578E-01</totfact>
</mgrwt>
</event>
<event>
 6    1  0.2003386E-005  0.1996284E+04  0.7818608E-02  0.8608360E-01
         -2   -1    0    0    0  501 -0.00000000000E+00  0.00000000000E+00  0.77477040928E+03  0.77477040928E+03  0.00000000000E+00 0.  1.
          2   -1    0    0  501    0  0.00000000000E+00 -0.00000000000E+00 -0.12859126582E+04  0.12859126582E+04  0.00000000000E+00 0. -1.
         23    2    1    2    0    0 -0.31708834746E+03  0.52658609975E+03  0.55303179669E+03  0.83173866682E+03  0.90039442366E+02 0.  0.
         13    1    3    3    0    0 -0.20484932970E+03  0.38697158851E+03  0.34667029485E+03  0.55847162106E+03  0.00000000000E+00 0. -1.
        -13    1    3    3    0    0 -0.11223901776E+03  0.13961451124E+03  0.20636150185E+03  0.27326704576E+03  0.00000000000E+00 0.  1.
         22    1    1    2    0    0  0.31708834746E+03 -0.52658609975E+03 -0.10641740456E+04  0.12289444006E+04  0.00000000000E+00 0. -1.
<mgrwt>
<rscale>  0 0.19962836E+04</rscale>
<asrwt>0</asrwt>
<pdfrwt beam="1">  1        2 0.19783271E+00 0.19962836E+04</pdfrwt>
<pdfrwt beam="2">  1       -2 0.11919545E+00 0.19962836E+04</pdfrwt>
<totfact> 0.84558797E+00</totfact>
</mgrwt>
</event>
<event>
 6    1  0.2003386E-005  0.1689424E+04  0.7818608E-02  0.8767419E-01
          2   -1    0    0  501    0  0.00000000000E+00  0.00000000000E+00  0.92754950247E+03  0.92754950247E+03  0.00000000000E+00 0. -1.
         -2   -1    0    0    0  501 -0.00000000000E+00 -0.00000000000E+00 -0.76927225066E+03  0.76927225066E+03  0.00000000000E+00 0.  1.
         23    2    1    2    0    0  0.39584917693E+03 -0.42048018912E+03  0.69501559223E+03  0.90841309869E+03  0.93099538680E+02 0.  0.
         13    1    3    3    0    0  0.34589865672E+02 -0.84977623165E+02  0.11742888562E+03  0.14902079863E+03  0.00000000000E+00 0.  1.
        -13    1    3    3    0    0  0.36125931126E+03 -0.33550256596E+03  0.57758670661E+03  0.75939230006E+03  0.00000000000E+00 0. -1.
         22    1    1    2    0    0 -0.39584917693E+03  0.42048018912E+03 -0.53673834043E+03  0.78840865445E+03  0.00000000000E+00 0.  1.
<mgrwt>
<rscale>  0 0.16894237E+04</rscale>
<asrwt>0</asrwt>
<pdfrwt beam="1">  1        2 0.14269992E+00 0.16894237E+04</pdfrwt>
<pdfrwt beam="2">  1       -2 0.11834958E+00 0.16894237E+04</pdfrwt>
<totfact> 0.14706135E+01</totfact>
</mgrwt>
</event>
<event>
 6    1  0.2003386E-005  0.1945872E+04  0.7818608E-02  0.8632354E-01
          2   -1    0    0  501    0  0.00000000000E+00  0.00000000000E+00  0.37573018134E+03  0.37573018134E+03  0.00000000000E+00 0. -1.
         -2   -1    0    0    0  501 -0.00000000000E+00 -0.00000000000E+00 -0.25193737788E+04  0.25193737788E+04  0.00000000000E+00 0.  1.
         23    2    1    2    0    0 -0.18255999032E+01 -0.61372268498E+03 -0.21936113079E+04  0.22793478080E+04  0.82686108305E+02 0.  0.
         11    1    3    3    0    0  0.77399628387E+01 -0.97536407980E+02 -0.47002942980E+03  0.48010511639E+03  0.00000000000E+00 0. -1.
        -11    1    3    3    0    0 -0.95655627420E+01 -0.51618627700E+03 -0.17235818781E+04  0.17992426916E+04  0.00000000000E+00 0.  1.
         22    1    1    2    0    0  0.18255999032E+01  0.61372268498E+03  0.49967710468E+02  0.61575615219E+03  0.00000000000E+00 0. -1.
<mgrwt>
<rscale>  0 0.19458723E+04</rscale>
<asrwt>0</asrwt>
<pdfrwt beam="1">  1        2 0.57804644E-01 0.19458723E+04</pdfrwt>
<pdfrwt beam="2">  1       -2 0.38759596E+00 0.19458723E+04</pdfrwt>
<totfact> 0.71428792E-01</totfact>
</mgrwt>
</event>
<event>
 6    1  0.2003386E-005  0.4477294E+04  0.7818608E-02  0.7914624E-01
          2   -1    0    0  501    0  0.00000000000E+00  0.00000000000E+00  0.33449542971E+04  0.33449542971E+04  0.00000000000E+00 0. -1.
         -2   -1    0    0    0  501 -0.00000000000E+00 -0.00000000000E+00 -0.14982390190E+04  0.14982390190E+04  0.00000000000E+00 0.  1.
         23    2    1    2    0    0 -0.13520490646E+04 -0.95954986383E+03 -0.70183994970E+03  0.18028140038E+04  0.93735814810E+02 0.  0.
         11    1    3    3    0    0 -0.97582349429E+03 -0.66563436880E+03 -0.46003029142E+03  0.12676468254E+04  0.00000000000E+00 0.  1.
        -11    1    3    3    0    0 -0.37622557028E+03 -0.29391549503E+03 -0.24180965827E+03  0.53516717835E+03  0.00000000000E+00 0. -1.
         22    1    1    2    0    0  0.13520490646E+04  0.95954986383E+03  0.25485552278E+04  0.30403793124E+04  0.00000000000E+00 0. -1.
<mgrwt>
<rscale>  0 0.44772943E+04</rscale>
<asrwt>0</asrwt>
<pdfrwt beam="1">  1        2 0.51460835E+00 0.44772943E+04</pdfrwt>
<pdfrwt beam="2">  1       -2 0.23049831E+00 0.44772943E+04</pdfrwt>
<totfact> 0.66863810E-02</totfact>
</mgrwt>
</event>
<event>
 6    1  0.2003386E-005  0.1504431E+04  0.7818608E-02  0.8881512E-01
         -2   -1    0    0    0  501 -0.00000000000E+00  0.00000000000E+00  0.48757544852E+03  0.48757544852E+03  0.00000000000E+00 0.  1.
          2   -1    0    0  501    0  0.00000000000E+00 -0.00000000000E+00 -0.11604931777E+04  0.11604931777E+04  0.00000000000E+00 0. -1.
         23    2    1    2    0    0  0.58234323445E+03 -0.47133648482E+03 -0.35671127389E+03  0.83488460828E+03  0.92236931819E+02 0.  0.
         11    1    3    3    0    0  0.52406130124E+03 -0.45332448945E+03 -0.33874517222E+03  0.77129218322E+03  0.00000000000E+00 0.  1.
        -11    1    3    3    0    0  0.58281933215E+02 -0.18011995374E+02 -0.17966101666E+02  0.63592425065E+02  0.00000000000E+00 0. -1.
         22    1    1    2    0    0 -0.58234323445E+03  0.47133648482E+03 -0.31620645528E+03  0.81318401792E+03  0.00000000000E+00 0.  1.
<mgrwt>
<rscale>  0 0.15044308E+04</rscale>
<asrwt>0</asrwt>
<pdfrwt beam="1">  1        2 0.17853741E+00 0.15044308E+04</pdfrwt>
<pdfrwt beam="2">  1       -2 0.75011607E-01 0.15044308E+04</pdfrwt>
<totfact> 0.30850799E+01</totfact>
</mgrwt>
</event>
<event>
 6    1  0.2003386E-005  0.1912894E+04  0.7818608E-02  0.8648465E-01
          2   -1    0    0  501    0  0.00000000000E+00  0.00000000000E+00  0.12978390407E+04  0.12978390407E+04  0.00000000000E+00 0. -1.
         -2   -1    0    0    0  501 -0.00000000000E+00 -0.00000000000E+00 -0.70485691538E+03  0.70485691538E+03  0.00000000000E+00 0.  1.
         23    2    1    2    0    0  0.17076024641E+03 -0.91358991815E+03  0.71711819303E+02  0.93708423867E+03  0.95805454104E+02 0.  0.
         11    1    3    3    0    0  0.83984145883E+02 -0.53536681998E+03 -0.29229499723E+01  0.54192205375E+03  0.00000000000E+00 0. -1.
        -11    1    3    3    0    0  0.86776100530E+02 -0.37822309816E+03  0.74634769275E+02  0.39516218492E+03  0.00000000000E+00 0.  1.
         22    1    1    2    0    0 -0.17076024641E+03  0.91358991815E+03  0.52127030597E+03  0.10656117174E+04  0.00000000000E+00 0.  1.
<mgrwt>
<rscale>  0 0.19128940E+04</rscale>
<asrwt>0</asrwt>
<pdfrwt beam="1">  1        2 0.19966754E+00 0.19128940E+04</pdfrwt>
<pdfrwt beam="2">  1       -2 0.10843953E+00 0.19128940E+04</pdfrwt>
<totfact> 0.10552021E+01</totfact>
</mgrwt>
</event>
<event>
 6    1  0.2003386E-005  0.3238406E+04  0.7818608E-02  0.8178747E-01
         -2   -1    0    0    0  501 -0.00000000000E+00  0.00000000000E+00  0.11819484661E+04  0.11819484661E+04  0.00000000000E+00 0.  1.
          2   -1    0    0  501    0  0.00000000000E+00 -0.00000000000E+00 -0.22182173800E+04  0.22182173800E+04  0.00000000000E+00 0. -1.
         23    2    1    2    0    0  0.10926972324E+04 -0.97309297129E+03  0.20648717486E+03  0.14804419418E+04  0.90411377582E+02 0.  0.
         11    1    3    3    0    0  0.52548832991E+03 -0.45596318284E+03  0.14288302751E+03  0.71025063783E+03  0.00000000000E+00 0. -1.
        -11    1    3    3    0    0  0.56720890246E+03 -0.51712978844E+03  0.63604147357E+02  0.77019130396E+03  0.00000000000E+00 0.  1.
         22    1    1    2    0    0 -0.10926972324E+04  0.97309297129E+03 -0.12427560888E+04  0.19197239043E+04  0.00000000000E+00 0. -1.
<mgrwt>
<rscale>  0 0.32384062E+04</rscale>
<asrwt>0</asrwt>
<pdfrwt beam="1">  1        2 0.34126421E+00 0.32384062E+04</pdfrwt>
<pdfrwt beam="2">  1       -2 0.18183823E+00 0.32384062E+04</pdfrwt>
<totfact> 0.74552907E-01</totfact>
</mgrwt>
</event>
<event>
 6    1  0.2003386E-005  0.9604368E+03  0.7818608E-02  0.9353034E-01
          2   -1    0    0  501    0  0.00000000000E+00  0.00000000000E+00  0.46573044565E+03  0.46573044565E+03  0.00000000000E+00 0.  1.
         -2   -1    0    0    0  501 -0.00000000000E+00 -0.00000000000E+00 -0.49515703394E+03  0.49515703394E+03  0.00000000000E+00 0. -1.
         23    2    1    2    0    0  0.51288964434E+02 -0.43905340006E+03  0.15856831310E+03  0.48053289292E+03  0.10183076785E+03 0.  0.
         13    1    3    3    0    0  0.22890095141E+02 -0.24284761531E+03  0.33713966183E+02  0.24624287245E+03  0.00000000000E+00 0.  1.
        -13    1    3    3    0    0  0.28398869293E+02 -0.19620578475E+03  0.12485434692E+03  0.23429002047E+03  0.00000000000E+00 0. -1.
         22    1    1    2    0    0 -0.51288964434E+02  0.43905340006E+03 -0.18799490139E+03  0.48035458666E+03  0.00000000000E+00 0. -1.
<mgrwt>
<rscale>  0 0.96043679E+03</rscale>
<asrwt>0</asrwt>
<pdfrwt beam="1">  1        2 0.71650838E-01 0.96043679E+03</pdfrwt>
<pdfrwt beam="2">  1       -2 0.76178005E-01 0.96043679E+03</pdfrwt>
<totfact> 0.10324516E+02</totfact>
</mgrwt>
</event>
<event>
 6    1  0.2003386E-005  0.4359593E+04  0.7818608E-02  0.7935690E-01
         -2   -1    0    0    0  501 -0.00000000000E+00  0.00000000000E+00  0.11574228367E+04  0.11574228367E+04  0.00000000000E+00 0.  1.
          2   -1    0    0  501    0  0.00000000000E+00 -0.00000000000E+00 -0.41052515859E+04  0.41052515859E+04  0.00000000000E+00 0. -1.
         23    2    1    2    0    0  0.77674289698E+03 -0.14990203732E+04  0.18759674745E+03  0.17015952811E+04  0.99208637943E+02 0.  0.
         13    1    3    3    0    0  0.10584114918E+03 -0.28607141774E+03  0.39796701068E+02  0.30760848870E+03  0.00000000000E+00 0.  1.
        -13    1    3    3    0    0  0.67090174780E+03 -0.12129489554E+04  0.14780004639E+03  0.13939867924E+04  0.00000000000E+00 0. -1.
         22    1    1    2    0    0 -0.77674289698E+03  0.14990203732E+04 -0.31354254966E+04  0.35610791415E+04  0.00000000000E+00 0. -1.
<mgrwt>
<rscale>  0 0.43595926E+04</rscale>
<asrwt>0</asrwt>
<pdfrwt beam="1">  1        2 0.63157717E+00 0.43595926E+04</pdfrwt>
<pdfrwt beam="2">  1       -2 0.17806505E+00 0.43595926E+04</pdfrwt>
<totfact> 0.39959621E-02</totfact>
</mgrwt>
</event>
<event>
 6    1  0.2003386E-005  0.2049042E+04  0.7818608E-02  0.8584029E-01
          2   -1    0    0  501    0  0.00000000000E+00  0.00000000000E+00  0.55698426180E+03  0.55698426180E+03  0.00000000000E+00 0. -1.
         -2   -1    0    0    0  501 -0.00000000000E+00 -0.00000000000E+00 -0.18845118151E+04  0.18845118151E+04  0.00000000000E+00 0.  1.
         23    2    1    2    0    0 -0.10223838834E+04  0.15037730897E+02 -0.65757605362E+03  0.12190681852E+04  0.90697494886E+02 0.  0.
         11    1    3    3    0    0 -0.40910295429E+03  0.42167294506E+02 -0.29470528047E+03  0.50595900059E+03  0.00000000000E+00 0.  1.
        -11    1    3    3    0    0 -0.61328092911E+03 -0.27129563609E+02 -0.36287077314E+03  0.71310918465E+03  0.00000000000E+00 0. -1.
         22    1    1    2    0    0  0.10223838834E+04 -0.15037730897E+02 -0.66995149971E+03  0.12224278917E+04  0.00000000000E+00 0. -1.
<mgrwt>
<rscale>  0 0.20490421E+04</rscale>
<asrwt>0</asrwt>
<pdfrwt beam="1">  1        2 0.85689885E-01 0.20490421E+04</pdfrwt>
<pdfrwt beam="2">  1       -2 0.28992490E+00 0.20490421E+04</pdfrwt>
<totfact> 0.18393872E+00</totfact>
</mgrwt>
</event>
<event>
 6    1  0.2003386E-005  0.1631718E+04  0.7818608E-02  0.8801296E-01
          2   -1    0    0  501    0  0.00000000000E+00  0.00000000000E+00  0.10792708242E+04  0.10792708242E+04  0.00000000000E+00 0. -1.
         -2   -1    0    0    0  501 -0.00000000000E+00 -0.00000000000E+00 -0.61673657404E+03  0.61673657404E+03  0.00000000000E+00 0.  1.
         23    2    1    2    0    0  0.22869223417E+03 -0.77959656281E+03  0.27108447682E+03  0.86130747945E+03  0.91065042021E+02 0.  0.
         11    1    3    3    0    0  0.14893482004E+03 -0.37751985941E+03  0.10639898296E+03  0.41955162787E+03  0.00000000000E+00 0.  1.
        -11    1    3    3    0    0  0.79757414126E+02 -0.40207670340E+03  0.16468549386E+03  0.44175585159E+03  0.00000000000E+00 0. -1.
         22    1    1    2    0    0 -0.22869223417E+03  0.77959656281E+03  0.19144977333E+03  0.83469991878E+03  0.00000000000E+00 0. -1.
<mgrwt>
<rscale>  0 0.16317179E+04</rscale>
<asrwt>0</asrwt>
<pdfrwt beam="1">  1        2 0.16604167E+00 0.16317179E+04</pdfrwt>
<pdfrwt beam="2">  1       -2 0.94882549E-01 0.16317179E+04</pdfrwt>
<totfact> 0.20069331E+01</totfact>
</mgrwt>
</event>
<event>
 6    1  0.2003386E-005  0.2452256E+04  0.7818608E-02  0.8420195E-01
         -2   -1    0    0    0  501 -0.00000000000E+00  0.00000000000E+00  0.15983109096E+04  0.15983109096E+04  0.00000000000E+00 0.  1.
          2   -1    0    0  501    0  0.00000000000E+00 -0.00000000000E+00 -0.94061130562E+03  0.94061130562E+03  0.00000000000E+00 0. -1.
         23    2    1    2    0    0 -0.97705022295E+03  0.94757574809E+01 -0.43548637906E+03  0.10727119569E+04  0.79659449746E+02 0.  0.
         13    1    3    3    0    0 -0.22716350484E+03  0.25152189982E+02 -0.75103877732E+02  0.24057531677E+03  0.00000000000E+00 0.  1.
        -13    1    3    3    0    0 -0.74988671811E+03 -0.15676432501E+02 -0.36038250133E+03  0.83213664010E+03  0.00000000000E+00 0. -1.
         22    1    1    2    0    0  0.97705022295E+03 -0.94757574809E+01  0.10931859830E+04  0.14662102583E+04  0.00000000000E+00 0.  1.
<mgrwt>
<rscale>  0 0.24522555E+04</rscale>
<asrwt>0</asrwt>
<pdfrwt beam="1">  1        2 0.14470943E+00 0.24522555E+04</pdfrwt>
<pdfrwt beam="2">  1       -2 0.24589399E+00 0.24522555E+04</pdfrwt>
<totfact> 0.16794722E+00</totfact>
</mgrwt>
</event>
<event>
 6    1  0.2167947E-005  0.2170936E+04  0.7818608E-02  0.8530623E-01
         -2   -1    0    0    0  501 -0.00000000000E+00  0.00000000000E+00  0.68462662837E+03  0.68462662837E+03  0.00000000000E+00 0.  1.
          2   -1    0    0  501    0  0.00000000000E+00 -0.00000000000E+00 -0.17209983583E+04  0.17209983583E+04  0.00000000000E+00 0. -1.
         23    2    1    2    0    0 -0.12817286891E+03  0.79938753091E+03  0.27890565908E+03  0.86114989171E+03  0.91334880739E+02 0.  0.
         13    1    3    3    0    0 -0.11608155504E+03  0.43797699872E+03  0.15823682230E+03  0.47993506931E+03  0.00000000000E+00 0. -1.
        -13    1    3    3    0    0 -0.12091313874E+02  0.36141053219E+03  0.12066883677E+03  0.38121482240E+03  0.00000000000E+00 0.  1.
         22    1    1    2    0    0  0.12817286891E+03 -0.79938753091E+03 -0.13152773890E+04  0.15444750950E+04  0.00000000000E+00 0. -1.
<mgrwt>
<rscale>  0 0.21709365E+04</rscale>
<asrwt>0</asrwt>
<pdfrwt beam="1">  1        2 0.26476897E+00 0.21709365E+04</pdfrwt>
<pdfrwt beam="2">  1       -2 0.10532717E+00 0.21709365E+04</pdfrwt>
<totfact> 0.63820588E+00</totfact>
</mgrwt>
</event>
<event>
 6    1  0.2003386E-005  0.4560625E+04  0.7818608E-02  0.7900108E-01
          2   -1    0    0  501    0  0.00000000000E+00  0.00000000000E+00  0.23283427985E+04  0.23283427985E+04  0.00000000000E+00 0. -1.
         -2   -1    0    0    0  501 -0.00000000000E+00 -0.00000000000E+00 -0.22332729741E+04  0.22332729741E+04  0.00000000000E+00 0.  1.
         23    2    1    2    0    0  0.15879127797E+04  0.79735817061E+03 -0.13804773141E+04  0.22519650617E+04  0.91553132682E+02 0.  0.
         11    1    3    3    0    0  0.79936478227E+03  0.44649537042E+03 -0.68319348001E+03  0.11424077652E+04  0.00000000000E+00 0.  1.
        -11    1    3    3    0    0  0.78854799745E+03  0.35086280018E+03 -0.69728383409E+03  0.11095572965E+04  0.00000000000E+00 0. -1.
         22    1    1    2    0    0 -0.15879127797E+04 -0.79735817061E+03  0.14755471385E+04  0.23096507109E+04  0.00000000000E+00 0. -1.
<mgrwt>
<rscale>  0 0.45606250E+04</rscale>
<asrwt>0</asrwt>
<pdfrwt beam="1">  1        2 0.35820658E+00 0.45606250E+04</pdfrwt>
<pdfrwt beam="2">  1       -2 0.34358046E+00 0.45606250E+04</pdfrwt>
<totfact> 0.56243097E-02</totfact>
</mgrwt>
</event>
<event>
 6    1  0.2003386E-005  0.5921356E+04  0.7818608E-02  0.7700230E-01
          2   -1    0    0  501    0  0.00000000000E+00  0.00000000000E+00  0.29998047486E+04  0.29998047486E+04  0.00000000000E+00 0. -1.
         -2   -1    0    0    0  501 -0.00000000000E+00 -0.00000000000E+00 -0.29220617749E+04  0.29220617749E+04  0.00000000000E+00 0.  1.
         23    2    1    2    0    0 -0.26264212596E+04  0.51066464435E+03  0.13049023667E+04  0.29782654656E+04  0.91804059125E+02 0.  0.
         13    1    3    3    0    0 -0.49128287500E+03  0.10804900152E+03  0.28322836533E+03  0.57727961762E+03  0.00000000000E+00 0.  1.
        -13    1    3    3    0    0 -0.21351383846E+04  0.40261564283E+03  0.10216740014E+04  0.24009858480E+04  0.00000000000E+00 0. -1.
         22    1    1    2    0    0  0.26264212596E+04 -0.51066464435E+03 -0.12271593930E+04  0.29436010578E+04  0.00000000000E+00 0.  1.
<mgrwt>
<rscale>  0 0.59213562E+04</rscale>
<asrwt>0</asrwt>
<pdfrwt beam="1">  1        2 0.46150842E+00 0.59213562E+04</pdfrwt>
<pdfrwt beam="2">  1       -2 0.44954796E+00 0.59213562E+04</pdfrwt>
<totfact> 0.41392076E-03</totfact>
</mgrwt>
</event>
<event>
 6    1  0.2003386E-005  0.2898862E+04  0.7818608E-02  0.8273216E-01
         -1   -1    0    0    0  501 -0.00000000000E+00  0.00000000000E+00  0.15948835235E+04  0.15948835235E+04  0.00000000000E+00 0.  1.
          1   -1    0    0  501    0  0.00000000000E+00 -0.00000000000E+00 -0.13172435616E+04  0.13172435616E+04  0.00000000000E+00 0. -1.
         23    2    1    2    0    0  0.41570927663E+03  0.13004862846E+04 -0.34576431172E+03  0.14112234681E+04  0.88994035720E+02 0.  0.
         13    1    3    3    0    0  0.30654479585E+03  0.84099602762E+03 -0.20322128501E+03  0.91790136781E+03  0.00000000000E+00 0. -1.
        -13    1    3    3    0    0  0.10916448079E+03  0.45949025702E+03 -0.14254302671E+03  0.49332210028E+03  0.00000000000E+00 0.  1.
         22    1    1    2    0    0 -0.41570927663E+03 -0.13004862846E+04  0.62340427365E+03  0.15009036170E+04  0.00000000000E+00 0.  1.
<mgrwt>
<rscale>  0 0.28988619E+04</rscale>
<asrwt>0</asrwt>
<pdfrwt beam="1">  1        1 0.20265285E+00 0.28988619E+04</pdfrwt>
<pdfrwt beam="2">  1       -1 0.24536670E+00 0.28988619E+04</pdfrwt>
<totfact> 0.56427744E-01</totfact>
</mgrwt>
</event>
<event>
 6    1  0.2003386E-005  0.1202608E+04  0.7818608E-02  0.9110577E-01
          2   -1    0    0  501    0  0.00000000000E+00  0.00000000000E+00  0.28660581297E+04  0.28660581297E+04  0.00000000000E+00 0. -1.
         -2   -1    0    0    0  501 -0.00000000000E+00 -0.00000000000E+00 -0.12615466695E+03  0.12615466695E+03  0.00000000000E+00 0.  1.
         23    2    1    2    0    0  0.38357652526E+03  0.32254155286E+03  0.21900011201E+04  0.22481989591E+04  0.84437251897E+02 0.  0.
         11    1    3    3    0    0  0.32927684443E+03  0.28845641382E+03  0.17698088014E+04  0.18231438606E+04  0.00000000000E+00 0.  1.
        -11    1    3    3    0    0  0.54299680824E+02  0.34085139038E+02  0.42019231875E+03  0.42505509852E+03  0.00000000000E+00 0. -1.
         22    1    1    2    0    0 -0.38357652526E+03 -0.32254155286E+03  0.54990234266E+03  0.74401383758E+03  0.00000000000E+00 0.  1.
<mgrwt>
<rscale>  0 0.12026082E+04</rscale>
<asrwt>0</asrwt>
<pdfrwt beam="1">  1        2 0.44093197E+00 0.12026082E+04</pdfrwt>
<pdfrwt beam="2">  1       -2 0.19408412E-01 0.12026082E+04</pdfrwt>
<totfact> 0.47421446E+01</totfact>
</mgrwt>
</event>
<event>
 6    1  0.2003386E-005  0.2991092E+04  0.7818608E-02  0.8246279E-01
          2   -1    0    0  501    0  0.00000000000E+00  0.00000000000E+00  0.19390758060E+04  0.19390758060E+04  0.00000000000E+00 0. -1.
         -2   -1    0    0    0  501 -0.00000000000E+00 -0.00000000000E+00 -0.11534657993E+04  0.11534657993E+04  0.00000000000E+00 0.  1.
         23    2    1    2    0    0  0.11640175619E+04 -0.93690438501E+03  0.39243020903E+03  0.15474470890E+04  0.88680963416E+02 0.  0.
         11    1    3    3    0    0  0.57496883735E+03 -0.49398768886E+03  0.23730262724E+03  0.79430821320E+03  0.00000000000E+00 0. -1.
        -11    1    3    3    0    0  0.58904872453E+03 -0.44291669615E+03  0.15512758179E+03  0.75313887579E+03  0.00000000000E+00 0.  1.
         22    1    1    2    0    0 -0.11640175619E+04  0.93690438501E+03  0.39317979772E+03  0.15450945163E+04  0.00000000000E+00 0. -1.
<mgrwt>
<rscale>  0 0.29910919E+04</rscale>
<asrwt>0</asrwt>
<pdfrwt beam="1">  1        2 0.29831935E+00 0.29910919E+04</pdfrwt>
<pdfrwt beam="2">  1       -2 0.17745628E+00 0.29910919E+04</pdfrwt>
<totfact> 0.11687052E+00</totfact>
</mgrwt>
</event>
<event>
 6    1  0.2003386E-005  0.1907378E+04  0.7818608E-02  0.8651193E-01
         -1   -1    0    0    0  501 -0.00000000000E+00  0.00000000000E+00  0.16559537462E+04  0.16559537462E+04  0.00000000000E+00 0.  1.
          1   -1    0    0  501    0  0.00000000000E+00 -0.00000000000E+00 -0.54924391087E+03  0.54924391087E+03  0.00000000000E+00 0. -1.
         23    2    1    2    0    0  0.62950569520E+03 -0.22224267275E+03  0.13385319872E+04  0.14985076714E+04  0.90488311927E+02 0.  0.
         13    1    3    3    0    0  0.21397229249E+03 -0.11817108098E+03  0.44981699355E+03  0.51194127985E+03  0.00000000000E+00 0. -1.
        -13    1    3    3    0    0  0.41553340272E+03 -0.10407159178E+03  0.88871499362E+03  0.98656639152E+03  0.00000000000E+00 0.  1.
         22    1    1    2    0    0 -0.62950569520E+03  0.22224267275E+03 -0.23182215180E+03  0.70668998575E+03  0.00000000000E+00 0. -1.
<mgrwt>
<rscale>  0 0.19073778E+04</rscale>
<asrwt>0</asrwt>
<pdfrwt beam="1">  1        1 0.84499064E-01 0.19073778E+04</pdfrwt>
<pdfrwt beam="2">  1       -1 0.25476211E+00 0.19073778E+04</pdfrwt>
<totfact> 0.23588707E+00</totfact>
</mgrwt>
</event>
<event>
 6    1  0.2003386E-005  0.1934883E+04  0.7818608E-02  0.8637685E-01
          2   -1    0    0  501    0  0.00000000000E+00  0.00000000000E+00  0.99704775930E+03  0.99704775930E+03  0.00000000000E+00 0. -1.
         -2   -1    0    0    0  501 -0.00000000000E+00 -0.00000000000E+00 -0.93871478428E+03  0.93871478428E+03  0.00000000000E+00 0.  1.
         23    2    1    2    0    0  0.16274940835E+03  0.51884593714E+03  0.82699044403E+03  0.99420915632E+03  0.94075371867E+02 0.  0.
         13    1    3    3    0    0  0.16629342803E+03  0.44687829912E+03  0.68007838684E+03  0.83057831098E+03  0.00000000000E+00 0. -1.
        -13    1    3    3    0    0 -0.35440196867E+01  0.71967638019E+02  0.14691205719E+03  0.16363084533E+03  0.00000000000E+00 0.  1.
         22    1    1    2    0    0 -0.16274940835E+03 -0.51884593714E+03 -0.76865746901E+03  0.94155338726E+03  0.00000000000E+00 0.  1.
<mgrwt>
<rscale>  0 0.19348834E+04</rscale>
<asrwt>0</asrwt>
<pdfrwt beam="1">  1        2 0.15339196E+00 0.19348834E+04</pdfrwt>
<pdfrwt beam="2">  1       -2 0.14441766E+00 0.19348834E+04</pdfrwt>
<totfact> 0.78239533E+00</totfact>
</mgrwt>
</event>
<event>
 6    1  0.2003386E-005  0.2396436E+04  0.7818608E-02  0.8440839E-01
         -2   -1    0    0    0  501 -0.00000000000E+00  0.00000000000E+00  0.49250469963E+03  0.49250469963E+03  0.00000000000E+00 0.  1.
          2   -1    0    0  501    0  0.00000000000E+00 -0.00000000000E+00 -0.29151516041E+04  0.29151516041E+04  0.00000000000E+00 0. -1.
         23    2    1    2    0    0 -0.20558214784E+03 -0.98132887380E+03 -0.21414376070E+04  0.23663354852E+04  0.92294236217E+02 0.  0.
         13    1    3    3    0    0 -0.11241585090E+03 -0.33631126983E+03 -0.79255297659E+03  0.86826425381E+03  0.00000000000E+00 0. -1.
        -13    1    3    3    0    0 -0.93166296943E+02 -0.64501760397E+03 -0.13488846304E+04  0.14980712314E+04  0.00000000000E+00 0.  1.
         22    1    1    2    0    0  0.20558214784E+03  0.98132887380E+03 -0.28120929751E+03  0.10413208185E+04  0.00000000000E+00 0.  1.
<mgrwt>
<rscale>  0 0.23964356E+04</rscale>
<asrwt>0</asrwt>
<pdfrwt beam="1">  1        2 0.44848486E+00 0.23964356E+04</pdfrwt>
<pdfrwt beam="2">  1       -2 0.75769954E-01 0.23964356E+04</pdfrwt>
<totfact> 0.27617272E+00</totfact>
</mgrwt>
</event>
<event>
 6    1  0.2003386E-005  0.3441159E+04  0.7818608E-02  0.8127878E-01
          2   -1    0    0  501    0  0.00000000000E+00  0.00000000000E+00  0.14219347799E+04  0.14219347799E+04  0.00000000000E+00 0. -1.
         -2   -1    0    0    0  501 -0.00000000000E+00 -0.00000000000E+00 -0.20819480485E+04  0.20819480485E+04  0.00000000000E+00 0.  1.
         23    2    1    2    0    0  0.43130262537E+03 -0.90325819942E+03  0.10935628176E+04  0.14847428086E+04  0.81757214251E+02 0.  0.
         13    1    3    3    0    0  0.12664369125E+02 -0.70499780167E+02  0.91697688388E+02  0.11635751503E+03  0.00000000000E+00 0. -1.
        -13    1    3    3    0    0  0.41863825624E+03 -0.83275841925E+03  0.10018651293E+04  0.13683852936E+04  0.00000000000E+00 0.  1.
         22    1    1    2    0    0 -0.43130262537E+03  0.90325819942E+03 -0.17535760863E+04  0.20191400199E+04  0.00000000000E+00 0.  1.
<mgrwt>
<rscale>  0 0.34411593E+04</rscale>
<asrwt>0</asrwt>
<pdfrwt beam="1">  1        2 0.21875920E+00 0.34411593E+04</pdfrwt>
<pdfrwt beam="2">  1       -2 0.32029970E+00 0.34411593E+04</pdfrwt>
<totfact> 0.27669230E-01</totfact>
</mgrwt>
</event>
<event>
 6    1  0.2003386E-005  0.2994691E+04  0.7818608E-02  0.8245248E-01
         -2   -1    0    0    0  501 -0.00000000000E+00  0.00000000000E+00  0.50341532922E+03  0.50341532922E+03  0.00000000000E+00 0.  1.
          2   -1    0    0  501    0  0.00000000000E+00 -0.00000000000E+00 -0.44536661138E+04  0.44536661138E+04  0.00000000000E+00 0. -1.
         23    2    1    2    0    0 -0.12523714168E+04  0.69178950138E+03 -0.12538457375E+04  0.19046058808E+04  0.91583557208E+02 0.  0.
         11    1    3    3    0    0 -0.79289782642E+03  0.39397037114E+03 -0.74499483129E+03  0.11571157743E+04  0.00000000000E+00 0.  1.
        -11    1    3    3    0    0 -0.45947359039E+03  0.29781913024E+03 -0.50885090617E+03  0.74749010650E+03  0.00000000000E+00 0. -1.
         22    1    1    2    0    0  0.12523714168E+04 -0.69178950138E+03 -0.26964050471E+04  0.30524755622E+04  0.00000000000E+00 0. -1.
<mgrwt>
<rscale>  0 0.29946912E+04</rscale>
<asrwt>0</asrwt>
<pdfrwt beam="1">  1        2 0.68517937E+00 0.29946912E+04</pdfrwt>
<pdfrwt beam="2">  1       -2 0.77448516E-01 0.29946912E+04</pdfrwt>
<totfact> 0.17363944E-01</totfact>
</mgrwt>
</event>
<event>
 6    1  0.2003386E-005  0.4887215E+04  0.7818608E-02  0.7846145E-01
          1   -1    0    0  501    0  0.00000000000E+00  0.00000000000E+00  0.30531943355E+04  0.30531943355E+04  0.00000000000E+00 0. -1.
         -1   -1    0    0    0  501 -0.00000000000E+00 -0.00000000000E+00 -0.19557277481E+04  0.19557277481E+04  0.00000000000E+00 0.  1.
         23    2    1    2    0    0 -0.10469153299E+04 -0.12935652840E+04  0.23821395848E+04  0.29066072731E+04  0.66588188169E+02 0.  0.
         11    1    3    3    0    0 -0.93344559348E+03 -0.11253976959E+04  0.20690028035E+04  0.25334982240E+04  0.00000000000E+00 0.  1.
        -11    1    3    3    0    0 -0.11346973641E+03 -0.16816758814E+03  0.31313678124E+03  0.37310904914E+03  0.00000000000E+00 0. -1.
         22    1    1    2    0    0  0.10469153299E+04  0.12935652840E+04 -0.12846729974E+04  0.21023148105E+04  0.00000000000E+00 0.  1.
<mgrwt>
<rscale>  0 0.48872147E+04</rscale>
<asrwt>0</asrwt>
<pdfrwt beam="1">  1        1 0.46972220E+00 0.48872147E+04</pdfrwt>
<pdfrwt beam="2">  1       -1 0.30088119E+00 0.48872147E+04</pdfrwt>
<totfact> 0.12970734E-02</totfact>
</mgrwt>
</event>
<event>
 6    1  0.2003386E-005  0.2050078E+04  0.7818608E-02  0.8583559E-01
          2   -1    0    0  501    0  0.00000000000E+00  0.00000000000E+00  0.14118380008E+04  0.14118380008E+04  0.00000000000E+00 0. -1.
         -2   -1    0    0    0  501 -0.00000000000E+00 -0.00000000000E+00 -0.74421052379E+03  0.74421052379E+03  0.00000000000E+00 0.  1.
         23    2    1    2    0    0  0.56569152175E+02 -0.32215646962E+03 -0.68421685537E+03  0.76519700164E+03  0.10192588611E+03 0.  0.
         13    1    3    3    0    0  0.47231236124E+02 -0.24727066387E+03 -0.60745277394E+03  0.65755033529E+03  0.00000000000E+00 0. -1.
        -13    1    3    3    0    0  0.93379160507E+01 -0.74885805750E+02 -0.76764081429E+02  0.10764666635E+03  0.00000000000E+00 0.  1.
         22    1    1    2    0    0 -0.56569152175E+02  0.32215646962E+03  0.13518443324E+04  0.13908515229E+04  0.00000000000E+00 0. -1.
<mgrwt>
<rscale>  0 0.20500778E+04</rscale>
<asrwt>0</asrwt>
<pdfrwt beam="1">  1        2 0.21720585E+00 0.20500778E+04</pdfrwt>
<pdfrwt beam="2">  1       -2 0.11449393E+00 0.20500778E+04</pdfrwt>
<totfact> 0.78584870E+00</totfact>
</mgrwt>
</event>
<event>
 6    1  0.2003386E-005  0.4317593E+04  0.7818608E-02  0.7943373E-01
         -2   -1    0    0    0  501 -0.00000000000E+00  0.00000000000E+00  0.25715834043E+04  0.25715834043E+04  0.00000000000E+00 0.  1.
          2   -1    0    0  501    0  0.00000000000E+00 -0.00000000000E+00 -0.18122693491E+04  0.18122693491E+04  0.00000000000E+00 0. -1.
         23    2    1    2    0    0  0.19143384466E+04 -0.72287970034E+03 -0.31562392685E+03  0.20724163138E+04  0.89689269393E+02 0.  0.
         11    1    3    3    0    0  0.13305308555E+04 -0.50232391348E+03 -0.17745842822E+03  0.14332247435E+04  0.00000000000E+00 0.  1.
        -11    1    3    3    0    0  0.58380759109E+03 -0.22055578686E+03 -0.13816549863E+03  0.63919157030E+03  0.00000000000E+00 0. -1.
         22    1    1    2    0    0 -0.19143384466E+04  0.72287970034E+03  0.10749379821E+04  0.23114364397E+04  0.00000000000E+00 0.  1.
<mgrwt>
<rscale>  0 0.43175927E+04</rscale>
<asrwt>0</asrwt>
<pdfrwt beam="1">  1        2 0.27881067E+00 0.43175927E+04</pdfrwt>
<pdfrwt beam="2">  1       -2 0.39562822E+00 0.43175927E+04</pdfrwt>
<totfact> 0.51770761E-02</totfact>
</mgrwt>
</event>
<event>
 6    1  0.2003386E-005  0.1714526E+04  0.7818608E-02  0.8753123E-01
         -2   -1    0    0    0  501 -0.00000000000E+00  0.00000000000E+00  0.13060978587E+04  0.13060978587E+04  0.00000000000E+00 0.  1.
          2   -1    0    0  501    0  0.00000000000E+00 -0.00000000000E+00 -0.56266846535E+03  0.56266846535E+03  0.00000000000E+00 0. -1.
         23    2    1    2    0    0  0.57771505982E+03 -0.53757635338E+02  0.10570001485E+04  0.12092428657E+04  0.91511860548E+02 0.  0.
         11    1    3    3    0    0  0.31888136735E+03 -0.19872094417E+02  0.67203601470E+03  0.74411869459E+03  0.00000000000E+00 0.  1.
        -11    1    3    3    0    0  0.25883369247E+03 -0.33885540921E+02  0.38496413376E+03  0.46512417108E+03  0.00000000000E+00 0. -1.
         22    1    1    2    0    0 -0.57771505982E+03  0.53757635338E+02 -0.31357075510E+03  0.65952345838E+03  0.00000000000E+00 0. -1.
<mgrwt>
<rscale>  0 0.17145263E+04</rscale>
<asrwt>0</asrwt>
<pdfrwt beam="1">  1        2 0.86564380E-01 0.17145263E+04</pdfrwt>
<pdfrwt beam="2">  1       -2 0.20093813E+00 0.17145263E+04</pdfrwt>
<totfact> 0.66717386E+00</totfact>
</mgrwt>
</event>
<event>
 6    1  0.2003386E-005  0.5071575E+04  0.7818608E-02  0.7817560E-01
          2   -1    0    0  501    0  0.00000000000E+00  0.00000000000E+00  0.38473307215E+04  0.38473307215E+04  0.00000000000E+00 0. -1.
         -2   -1    0    0    0  501 -0.00000000000E+00 -0.00000000000E+00 -0.16713451651E+04  0.16713451651E+04  0.00000000000E+00 0.  1.
         23    2    1    2    0    0  0.11223828078E+04 -0.21139585048E+04  0.17973408932E+03  0.24020136259E+04  0.93815718119E+02 0.  0.
         11    1    3    3    0    0  0.43410255526E+03 -0.85417058801E+03  0.29197745643E+02  0.95859529013E+03  0.00000000000E+00 0. -1.
        -11    1    3    3    0    0  0.68828025253E+03 -0.12597879168E+04  0.15053634367E+03  0.14434183358E+04  0.00000000000E+00 0.  1.
         22    1    1    2    0    0 -0.11223828078E+04  0.21139585048E+04  0.19962514671E+04  0.31166622607E+04  0.00000000000E+00 0. -1.
<mgrwt>
<rscale>  0 0.50715747E+04</rscale>
<asrwt>0</asrwt>
<pdfrwt beam="1">  1        2 0.59189703E+00 0.50715747E+04</pdfrwt>
<pdfrwt beam="2">  1       -2 0.25713003E+00 0.50715747E+04</pdfrwt>
<totfact> 0.18929296E-02</totfact>
</mgrwt>
</event>
<event>
 6    1  0.2003386E-005  0.3337815E+04  0.7818608E-02  0.8153339E-01
          2   -1    0    0  501    0  0.00000000000E+00  0.00000000000E+00  0.18353763225E+04  0.18353763225E+04  0.00000000000E+00 0. -1.
         -2   -1    0    0    0  501 -0.00000000000E+00 -0.00000000000E+00 -0.15175374973E+04  0.15175374973E+04  0.00000000000E+00 0.  1.
         23    2    1    2    0    0  0.10199216357E+04 -0.13184538680E+04  0.21116088047E+03  0.16826021935E+04  0.89445396090E+02 0.  0.
         11    1    3    3    0    0  0.71622860586E+03 -0.89373463590E+03  0.18177514779E+03  0.11596496107E+04  0.00000000000E+00 0.  1.
        -11    1    3    3    0    0  0.30369302982E+03 -0.42471923215E+03  0.29385732675E+02  0.52295258274E+03  0.00000000000E+00 0. -1.
         22    1    1    2    0    0 -0.10199216357E+04  0.13184538680E+04  0.10667794472E+03  0.16703116263E+04  0.00000000000E+00 0.  1.
<mgrwt>
<rscale>  0 0.33378151E+04</rscale>
<asrwt>0</asrwt>
<pdfrwt beam="1">  1        2 0.28236559E+00 0.33378151E+04</pdfrwt>
<pdfrwt beam="2">  1       -2 0.23346731E+00 0.33378151E+04</pdfrwt>
<totfact> 0.55858096E-01</totfact>
</mgrwt>
</event>
<event>
 6    1  0.2003386E-005  0.2185793E+04  0.7818608E-02  0.8524365E-01
         -4   -1    0    0    0  501 -0.00000000000E+00  0.00000000000E+00  0.19333127796E+04  0.19333127796E+04  0.00000000000E+00 0.  1.
          4   -1    0    0  501    0  0.00000000000E+00 -0.00000000000E+00 -0.61781117787E+03  0.61781117787E+03  0.00000000000E+00 0. -1.
         23    2    1    2    0    0  0.41541312030E+03 -0.25336134059E+03  0.17988145766E+04  0.18653022159E+04  0.82815737483E+02 0.  0.
         11    1    3    3    0    0  0.21324695356E+03 -0.17712770870E+03  0.97852569106E+03  0.10170354057E+04  0.00000000000E+00 0. -1.
        -11    1    3    3    0    0  0.20216616673E+03 -0.76233631894E+02  0.82028888554E+03  0.84826681024E+03  0.00000000000E+00 0.  1.
         22    1    1    2    0    0 -0.41541312030E+03  0.25336134059E+03 -0.48331297490E+03  0.68582174151E+03  0.00000000000E+00 0. -1.
<mgrwt>
<rscale>  0 0.21857925E+04</rscale>
<asrwt>0</asrwt>
<pdfrwt beam="1">  1        4 0.95047875E-01 0.21857925E+04</pdfrwt>
<pdfrwt beam="2">  1       -4 0.29743273E+00 0.21857925E+04</pdfrwt>
<totfact> 0.54646371E-02</totfact>
</mgrwt>
</event>
<event>
 6    1  0.2003386E-005  0.1745156E+04  0.7818608E-02  0.8736021E-01
          4   -1    0    0  501    0  0.00000000000E+00  0.00000000000E+00  0.20691423580E+04  0.20691423580E+04  0.00000000000E+00 0. -1.
         -4   -1    0    0    0  501 -0.00000000000E+00 -0.00000000000E+00 -0.36797495509E+03  0.36797495509E+03  0.00000000000E+00 0.  1.
         23    2    1    2    0    0 -0.30094203538E+03  0.42123531860E+03 -0.12394604518E+03  0.54000255623E+03  0.90745998931E+02 0.  0.
         11    1    3    3    0    0 -0.18653600304E+03  0.27572534904E+03 -0.12302139591E+03  0.35490056690E+03  0.00000000000E+00 0.  1.
        -11    1    3    3    0    0 -0.11440603234E+03  0.14550996956E+03 -0.92464926938E+00  0.18510198933E+03  0.00000000000E+00 0. -1.
         22    1    1    2    0    0  0.30094203538E+03 -0.42123531860E+03  0.18251134481E+04  0.18971147568E+04  0.00000000000E+00 0. -1.
<mgrwt>
<rscale>  0 0.17451562E+04</rscale>
<asrwt>0</asrwt>
<pdfrwt beam="1">  1        4 0.31832959E+00 0.17451562E+04</pdfrwt>
<pdfrwt beam="2">  1       -4 0.56611533E-01 0.17451562E+04</pdfrwt>
<totfact> 0.13408429E-01</totfact>
</mgrwt>
</event>
<event>
 6    1  0.2003386E-005  0.2690279E+04  0.7818608E-02  0.8338166E-01
          2   -1    0    0  501    0  0.00000000000E+00  0.00000000000E+00  0.75683261289E+03  0.75683261289E+03  0.00000000000E+00 0. -1.
         -2   -1    0    0    0  501 -0.00000000000E+00 -0.00000000000E+00 -0.23907531944E+04  0.23907531944E+04  0.00000000000E+00 0.  1.
         23    2    1    2    0    0  0.91518732834E+03  0.70684074282E+03 -0.17737663251E+02  0.11603165988E+04  0.93959050408E+02 0.  0.
         13    1    3    3    0    0  0.33215478756E+03  0.20132059087E+03  0.14704651250E+01  0.38840564552E+03  0.00000000000E+00 0. -1.
        -13    1    3    3    0    0  0.58303254078E+03  0.50552015195E+03 -0.19208128376E+02  0.77191095331E+03  0.00000000000E+00 0.  1.
         22    1    1    2    0    0 -0.91518732834E+03 -0.70684074282E+03 -0.16161829183E+04  0.19872692085E+04  0.00000000000E+00 0.  1.
<mgrwt>
<rscale>  0 0.26902788E+04</rscale>
<asrwt>0</asrwt>
<pdfrwt beam="1">  1        2 0.11643579E+00 0.26902788E+04</pdfrwt>
<pdfrwt beam="2">  1       -2 0.36780818E+00 0.26902788E+04</pdfrwt>
<totfact> 0.39018546E-01</totfact>
</mgrwt>
</event>
<event>
 6    1  0.2003386E-005  0.2619538E+04  0.7818608E-02  0.8361595E-01
         -2   -1    0    0    0  501 -0.00000000000E+00  0.00000000000E+00  0.52287887607E+03  0.52287887607E+03  0.00000000000E+00 0.  1.
          2   -1    0    0  501    0  0.00000000000E+00 -0.00000000000E+00 -0.32808643860E+04  0.32808643860E+04  0.00000000000E+00 0. -1.
         23    2    1    2    0    0  0.28092903808E+02 -0.12356494795E+04 -0.20037571446E+04  0.23558208627E+04  0.85031731057E+02 0.  0.
         11    1    3    3    0    0  0.19021294312E+02 -0.26580465518E+03 -0.37240156100E+03  0.45792668298E+03  0.00000000000E+00 0.  1.
        -11    1    3    3    0    0  0.90716094961E+01 -0.96984482434E+03 -0.16313555836E+04  0.18978941798E+04  0.00000000000E+00 0. -1.
         22    1    1    2    0    0 -0.28092903808E+02  0.12356494795E+04 -0.75422836536E+03  0.14479223994E+04  0.00000000000E+00 0.  1.
<mgrwt>
<rscale>  0 0.26195379E+04</rscale>
<asrwt>0</asrwt>
<pdfrwt beam="1">  1        2 0.50474837E+00 0.26195379E+04</pdfrwt>
<pdfrwt beam="2">  1       -2 0.80442904E-01 0.26195379E+04</pdfrwt>
<totfact> 0.13832140E+00</totfact>
</mgrwt>
</event>
<event>
 6    1  0.2003386E-005  0.3013789E+04  0.7818608E-02  0.8239804E-01
          2   -1    0    0  501    0  0.00000000000E+00  0.00000000000E+00  0.27173424609E+04  0.27173424609E+04  0.00000000000E+00 0. -1.
         -2   -1    0    0    0  501 -0.00000000000E+00 -0.00000000000E+00 -0.83564391314E+03  0.83564391314E+03  0.00000000000E+00 0.  1.
         23    2    1    2    0    0  0.13672596228E+04 -0.54626233998E+03  0.13143999715E+04  0.19751305204E+04  0.75444464870E+02 0.  0.
         13    1    3    3    0    0  0.77643290891E+03 -0.28737929760E+03  0.77996811391E+03  0.11374467818E+04  0.00000000000E+00 0.  1.
        -13    1    3    3    0    0  0.59082671392E+03 -0.25888304238E+03  0.53443185756E+03  0.83768373859E+03  0.00000000000E+00 0. -1.
         22    1    1    2    0    0 -0.13672596228E+04  0.54626233998E+03  0.56729857634E+03  0.15778558537E+04  0.00000000000E+00 0. -1.
<mgrwt>
<rscale>  0 0.30137888E+04</rscale>
<asrwt>0</asrwt>
<pdfrwt beam="1">  1        2 0.41805268E+00 0.30137888E+04</pdfrwt>
<pdfrwt beam="2">  1       -2 0.12856060E+00 0.30137888E+04</pdfrwt>
<totfact> 0.99003311E-01</totfact>
</mgrwt>
</event>
<event>
 6    1  0.2003386E-005  0.2427530E+04  0.7818608E-02  0.8429268E-01
         -2   -1    0    0    0  501 -0.00000000000E+00  0.00000000000E+00  0.12935442250E+04  0.12935442250E+04  0.00000000000E+00 0.  1.
          2   -1    0    0  501    0  0.00000000000E+00 -0.00000000000E+00 -0.11389064177E+04  0.11389064177E+04  0.00000000000E+00 0. -1.
         23    2    1    2    0    0  0.10631803343E+04 -0.34603462680E+03  0.54747558296E+03  0.12473709390E+04  0.78181578719E+02 0.  0.
         11    1    3    3    0    0  0.59597619530E+03 -0.15547789231E+03  0.31556440362E+03  0.69205627892E+03  0.00000000000E+00 0.  1.
        -11    1    3    3    0    0  0.46720413900E+03 -0.19055673449E+03  0.23191117934E+03  0.55531466004E+03  0.00000000000E+00 0. -1.
         22    1    1    2    0    0 -0.10631803343E+04  0.34603462680E+03 -0.39283777570E+03  0.11850797037E+04  0.00000000000E+00 0.  1.
<mgrwt>
<rscale>  0 0.24275303E+04</rscale>
<asrwt>0</asrwt>
<pdfrwt beam="1">  1        2 0.17521637E+00 0.24275303E+04</pdfrwt>
<pdfrwt beam="2">  1       -2 0.19900680E+00 0.24275303E+04</pdfrwt>
<totfact> 0.24977108E+00</totfact>
</mgrwt>
</event>
<event>
 6    1  0.2003386E-005  0.2081844E+04  0.7818608E-02  0.8569284E-01
          2   -1    0    0  501    0  0.00000000000E+00  0.00000000000E+00  0.42526578982E+04  0.42526578982E+04  0.00000000000E+00 0. -1.
         -2   -1    0    0    0  501 -0.00000000000E+00 -0.00000000000E+00 -0.25478629090E+03  0.25478629090E+03  0.00000000000E+00 0.  1.
         23    2    1    2    0    0 -0.63211439192E+03 -0.46754473357E+03  0.34731297445E+04  0.35621819478E+04  0.91341800450E+02 0.  0.
         13    1    3    3    0    0 -0.38951713770E+03 -0.31312036077E+03  0.20235467017E+04  0.20843486308E+04  0.00000000000E+00 0. -1.
        -13    1    3    3    0    0 -0.24259725422E+03 -0.15442437280E+03  0.14495830428E+04  0.14778333170E+04  0.00000000000E+00 0.  1.
         22    1    1    2    0    0  0.63211439192E+03  0.46754473357E+03  0.52474186287E+03  0.94526224139E+03  0.00000000000E+00 0.  1.
<mgrwt>
<rscale>  0 0.20818443E+04</rscale>
<asrwt>0</asrwt>
<pdfrwt beam="1">  1        2 0.65425501E+00 0.20818443E+04</pdfrwt>
<pdfrwt beam="2">  1       -2 0.39197894E-01 0.20818443E+04</pdfrwt>
<totfact> 0.12013520E+00</totfact>
</mgrwt>
</event>
<event>
 6    1  0.2003386E-005  0.3769142E+04  0.7818608E-02  0.8052810E-01
         -2   -1    0    0    0  501 -0.00000000000E+00  0.00000000000E+00  0.11758252887E+04  0.11758252887E+04  0.00000000000E+00 0.  1.
          2   -1    0    0  501    0  0.00000000000E+00 -0.00000000000E+00 -0.30205231621E+04  0.30205231621E+04  0.00000000000E+00 0. -1.
         23    2    1    2    0    0  0.18034173961E+04 -0.53622627059E+03 -0.82669714723E+03  0.20571480402E+04  0.92611922498E+02 0.  0.
         13    1    3    3    0    0  0.33941748896E+03 -0.13426750164E+03 -0.17984138727E+03  0.40690898047E+03  0.00000000000E+00 0. -1.
        -13    1    3    3    0    0  0.14639999072E+04 -0.40195876895E+03 -0.64685575996E+03  0.16502390597E+04  0.00000000000E+00 0.  1.
         22    1    1    2    0    0 -0.18034173961E+04  0.53622627059E+03 -0.10180007262E+04  0.21392004105E+04  0.00000000000E+00 0.  1.
<mgrwt>
<rscale>  0 0.37691418E+04</rscale>
<asrwt>0</asrwt>
<pdfrwt beam="1">  1        2 0.46469586E+00 0.37691418E+04</pdfrwt>
<pdfrwt beam="2">  1       -2 0.18089620E+00 0.37691418E+04</pdfrwt>
<totfact> 0.24270666E-01</totfact>
</mgrwt>
</event>
<event>
 6    1  0.2003386E-005  0.2723916E+04  0.7818608E-02  0.8327286E-01
          2   -1    0    0  501    0  0.00000000000E+00  0.00000000000E+00  0.17849399365E+04  0.17849399365E+04  0.00000000000E+00 0. -1.
         -2   -1    0    0    0  501 -0.00000000000E+00 -0.00000000000E+00 -0.10392115257E+04  0.10392115257E+04  0.00000000000E+00 0.  1.
         23    2    1    2    0    0 -0.52030642149E+03 -0.12540629338E+04  0.28415388751E+03  0.13901208996E+04  0.91104717133E+02 0.  0.
         11    1    3    3    0    0 -0.39558970490E+03 -0.84302099651E+03  0.19503435794E+03  0.95142735716E+03  0.00000000000E+00 0. -1.
        -11    1    3    3    0    0 -0.12471671659E+03 -0.41104193727E+03  0.89119529571E+02  0.43869354240E+03  0.00000000000E+00 0.  1.
         22    1    1    2    0    0  0.52030642149E+03  0.12540629338E+04  0.46157452331E+03  0.14340305627E+04  0.00000000000E+00 0. -1.
<mgrwt>
<rscale>  0 0.27239164E+04</rscale>
<asrwt>0</asrwt>
<pdfrwt beam="1">  1        2 0.27460614E+00 0.27239164E+04</pdfrwt>
<pdfrwt beam="2">  1       -2 0.15987870E+00 0.27239164E+04</pdfrwt>
<totfact> 0.19444083E+00</totfact>
</mgrwt>
</event>
<event>
 6    1  0.2003386E-005  0.2407340E+04  0.7818608E-02  0.8436761E-01
         -1   -1    0    0    0  501 -0.00000000000E+00  0.00000000000E+00  0.51650246580E+03  0.51650246580E+03  0.00000000000E+00 0.  1.
          1   -1    0    0  501    0  0.00000000000E+00 -0.00000000000E+00 -0.28050622809E+04  0.28050622809E+04  0.00000000000E+00 0. -1.
         23    2    1    2    0    0  0.37241044956E+03 -0.72698447070E+03  0.70647197883E+02  0.82495630850E+03  0.91465407526E+02 0.  0.
         13    1    3    3    0    0  0.17983671371E+03 -0.29693067200E+03 -0.80004706364E+01  0.34723633897E+03  0.00000000000E+00 0. -1.
        -13    1    3    3    0    0  0.19257373585E+03 -0.43005379871E+03  0.78647668520E+02  0.47771996953E+03  0.00000000000E+00 0.  1.
         22    1    1    2    0    0 -0.37241044956E+03  0.72698447070E+03 -0.23592070130E+04  0.24966084382E+04  0.00000000000E+00 0. -1.
<mgrwt>
<rscale>  0 0.24073401E+04</rscale>
<asrwt>0</asrwt>
<pdfrwt beam="1">  1        1 0.43154804E+00 0.24073401E+04</pdfrwt>
<pdfrwt beam="2">  1       -1 0.79461918E-01 0.24073401E+04</pdfrwt>
<totfact> 0.11712773E+00</totfact>
</mgrwt>
</event>
<event>
 6    1  0.2003386E-005  0.1287108E+04  0.7818608E-02  0.9039851E-01
          2   -1    0    0  501    0  0.00000000000E+00  0.00000000000E+00  0.61609411600E+03  0.61609411600E+03  0.00000000000E+00 0. -1.
         -2   -1    0    0    0  501 -0.00000000000E+00 -0.00000000000E+00 -0.67223797321E+03  0.67223797321E+03  0.00000000000E+00 0.  1.
         23    2    1    2    0    0 -0.58817207444E+03  0.22171848484E+03 -0.15093340887E+03  0.65265093110E+03  0.89815746313E+02 0.  0.
         13    1    3    3    0    0 -0.53839315183E+03  0.17561256855E+03 -0.12450388927E+03  0.57983461315E+03  0.00000000000E+00 0.  1.
        -13    1    3    3    0    0 -0.49778922614E+02  0.46105916292E+02 -0.26429519597E+02  0.72816317951E+02  0.00000000000E+00 0. -1.
         22    1    1    2    0    0  0.58817207444E+03 -0.22171848484E+03  0.94789551656E+02  0.63568115811E+03  0.00000000000E+00 0. -1.
<mgrwt>
<rscale>  0 0.12871082E+04</rscale>
<asrwt>0</asrwt>
<pdfrwt beam="1">  1        2 0.94783710E-01 0.12871082E+04</pdfrwt>
<pdfrwt beam="2">  1       -2 0.10342123E+00 0.12871082E+04</pdfrwt>
<totfact> 0.35921122E+01</totfact>
</mgrwt>
</event>
<event>
 6    1  0.2003386E-005  0.5708462E+03  0.7818608E-02  0.9967808E-01
         -1   -1    0    0    0  501 -0.00000000000E+00  0.00000000000E+00  0.12514382341E+03  0.12514382341E+03  0.00000000000E+00 0.  1.
          1   -1    0    0  501    0  0.00000000000E+00 -0.00000000000E+00 -0.65098179927E+03  0.65098179927E+03  0.00000000000E+00 0. -1.
         23    2    1    2    0    0  0.20971933006E+02 -0.13117186440E+03  0.63590394167E+02  0.17191400133E+03  0.88683739424E+02 0.  0.
         11    1    3    3    0    0 -0.54325088995E+01 -0.57064431562E+02  0.72851908972E+02  0.92699849748E+02  0.00000000000E+00 0. -1.
        -11    1    3    3    0    0  0.26404441906E+02 -0.74107432835E+02 -0.92615148049E+01  0.79214151578E+02  0.00000000000E+00 0.  1.
         22    1    1    2    0    0 -0.20971933006E+02  0.13117186440E+03 -0.58942837002E+03  0.60421162135E+03  0.00000000000E+00 0. -1.
<mgrwt>
<rscale>  0 0.57084622E+03</rscale>
<asrwt>0</asrwt>
<pdfrwt beam="1">  1        1 0.10015105E+00 0.57084622E+03</pdfrwt>
<pdfrwt beam="2">  1       -1 0.19252896E-01 0.57084622E+03</pdfrwt>
<totfact> 0.66832402E+02</totfact>
</mgrwt>
</event>
<event>
 6    1  0.2003386E-005  0.2408069E+04  0.7818608E-02  0.8436489E-01
         -2   -1    0    0    0  501 -0.00000000000E+00  0.00000000000E+00  0.90108172289E+03  0.90108172289E+03  0.00000000000E+00 0.  1.
          2   -1    0    0  501    0  0.00000000000E+00 -0.00000000000E+00 -0.16088429691E+04  0.16088429691E+04  0.00000000000E+00 0. -1.
         23    2    1    2    0    0  0.29933233335E+03  0.11077188221E+04 -0.72867033495E+03  0.13622844937E+04  0.90651807301E+02 0.  0.
         11    1    3    3    0    0  0.14822840415E+03  0.61577947952E+03 -0.35266864601E+03  0.72493530820E+03  0.00000000000E+00 0. -1.
        -11    1    3    3    0    0  0.15110392920E+03  0.49193934260E+03 -0.37600168894E+03  0.63734918554E+03  0.00000000000E+00 0.  1.
         22    1    1    2    0    0 -0.29933233335E+03 -0.11077188221E+04  0.20909088732E+02  0.11476401983E+04  0.00000000000E+00 0. -1.
<mgrwt>
<rscale>  0 0.24080689E+04</rscale>
<asrwt>0</asrwt>
<pdfrwt beam="1">  1        2 0.24751430E+00 0.24080689E+04</pdfrwt>
<pdfrwt beam="2">  1       -2 0.13862796E+00 0.24080689E+04</pdfrwt>
<totfact> 0.36513493E+00</totfact>
</mgrwt>
</event>
<event>
 6    1  0.2003386E-005  0.1148978E+04  0.7818608E-02  0.9158727E-01
          2   -1    0    0  501    0  0.00000000000E+00  0.00000000000E+00  0.13606255339E+04  0.13606255339E+04  0.00000000000E+00 0. -1.
         -2   -1    0    0    0  501 -0.00000000000E+00 -0.00000000000E+00 -0.24256315501E+03  0.24256315501E+03  0.00000000000E+00 0.  1.
         23    2    1    2    0    0  0.51142375919E+03 -0.25179539329E+03  0.52539733110E+03  0.78087059935E+03  0.93602114591E+02 0.  0.
         11    1    3    3    0    0  0.17927532195E+03 -0.43169884011E+02  0.14641835762E+03  0.23546043276E+03  0.00000000000E+00 0.  1.
        -11    1    3    3    0    0  0.33214843724E+03 -0.20862550927E+03  0.37897897348E+03  0.54541016659E+03  0.00000000000E+00 0. -1.
         22    1    1    2    0    0 -0.51142375919E+03  0.25179539329E+03  0.59266504775E+03  0.82231808953E+03  0.00000000000E+00 0. -1.
<mgrwt>
<rscale>  0 0.11489780E+04</rscale>
<asrwt>0</asrwt>
<pdfrwt beam="1">  1        2 0.20932700E+00 0.11489780E+04</pdfrwt>
<pdfrwt beam="2">  1       -2 0.37317409E-01 0.11489780E+04</pdfrwt>
<totfact> 0.10210392E+02</totfact>
</mgrwt>
</event>
<event>
 6    1  0.2003386E-005  0.1489536E+04  0.7818608E-02  0.8891442E-01
         -2   -1    0    0    0  501 -0.00000000000E+00  0.00000000000E+00  0.70353396343E+03  0.70353396343E+03  0.00000000000E+00 0.  1.
          2   -1    0    0  501    0  0.00000000000E+00 -0.00000000000E+00 -0.78841825614E+03  0.78841825614E+03  0.00000000000E+00 0. -1.
         23    2    1    2    0    0  0.48331879370E+03  0.55662735553E+03 -0.12713314204E+03  0.75356476400E+03  0.90917261664E+02 0.  0.
         13    1    3    3    0    0  0.31969640168E+03  0.30443710434E+03 -0.91464051735E+02  0.45083634781E+03  0.00000000000E+00 0. -1.
        -13    1    3    3    0    0  0.16362239202E+03  0.25219025119E+03 -0.35669090303E+02  0.30272841619E+03  0.00000000000E+00 0.  1.
         22    1    1    2    0    0 -0.48331879370E+03 -0.55662735553E+03  0.42248849325E+02  0.73838745557E+03  0.00000000000E+00 0.  1.
<mgrwt>
<rscale>  0 0.14895355E+04</rscale>
<asrwt>0</asrwt>
<pdfrwt beam="1">  1        2 0.12129512E+00 0.14895355E+04</pdfrwt>
<pdfrwt beam="2">  1       -2 0.10823599E+00 0.14895355E+04</pdfrwt>
<totfact> 0.23205057E+01</totfact>
</mgrwt>
</event>
<event>
 6    1  0.2507750E-005  0.2854591E+04  0.7818608E-02  0.8286518E-01
         -1   -1    0    0    0  501 -0.00000000000E+00  0.00000000000E+00  0.11022816827E+04  0.11022816827E+04  0.00000000000E+00 0.  1.
          1   -1    0    0  501    0  0.00000000000E+00 -0.00000000000E+00 -0.18481410158E+04  0.18481410158E+04  0.00000000000E+00 0. -1.
         23    2    1    2    0    0 -0.12010147901E+04 -0.25023561929E+02 -0.11672443646E+04  0.16773837951E+04  0.89968243552E+02 0.  0.
         11    1    3    3    0    0 -0.65490342417E+03  0.16763217502E+02 -0.58975442967E+03  0.88147024214E+03  0.00000000000E+00 0. -1.
        -11    1    3    3    0    0 -0.54611136596E+03 -0.41786779431E+02 -0.57748993488E+03  0.79591355300E+03  0.00000000000E+00 0.  1.
         22    1    1    2    0    0  0.12010147901E+04  0.25023561929E+02  0.42138503144E+03  0.12730389034E+04  0.00000000000E+00 0.  1.
<mgrwt>
<rscale>  0 0.28545907E+04</rscale>
<asrwt>0</asrwt>
<pdfrwt beam="1">  1        1 0.28432939E+00 0.28545907E+04</pdfrwt>
<pdfrwt beam="2">  1       -1 0.16958180E+00 0.28545907E+04</pdfrwt>
<totfact> 0.80683771E-01</totfact>
</mgrwt>
</event>
<event>
 6    1  0.2003386E-005  0.1749155E+04  0.7818608E-02  0.8733816E-01
          2   -1    0    0  501    0  0.00000000000E+00  0.00000000000E+00  0.33398681624E+04  0.33398681624E+04  0.00000000000E+00 0.  1.
         -2   -1    0    0    0  501 -0.00000000000E+00 -0.00000000000E+00 -0.22901669089E+03  0.22901669089E+03  0.00000000000E+00 0. -1.
         23    2    1    2    0    0  0.62730871140E+03 -0.59512067545E+03  0.13271038645E+04  0.15866032479E+04  0.91762526080E+02 0.  0.
         13    1    3    3    0    0  0.12952234643E+03 -0.99005884817E+02  0.19594901782E+03  0.25490041397E+03  0.00000000000E+00 0. -1.
        -13    1    3    3    0    0  0.49778636496E+03 -0.49611479063E+03  0.11311548467E+04  0.13317028339E+04  0.00000000000E+00 0.  1.
         22    1    1    2    0    0 -0.62730871140E+03  0.59512067545E+03  0.17837476070E+04  0.19822816054E+04  0.00000000000E+00 0.  1.
<mgrwt>
<rscale>  0 0.17491547E+04</rscale>
<asrwt>0</asrwt>
<pdfrwt beam="1">  1        2 0.51382584E+00 0.17491547E+04</pdfrwt>
<pdfrwt beam="2">  1       -2 0.35233339E-01 0.17491547E+04</pdfrwt>
<totfact> 0.75645027E+00</totfact>
</mgrwt>
</event>
<event>
 6    1  0.2003386E-005  0.1240342E+04  0.7818608E-02  0.9078260E-01
          2   -1    0    0  501    0  0.00000000000E+00  0.00000000000E+00  0.12426190897E+04  0.12426190897E+04  0.00000000000E+00 0. -1.
         -2   -1    0    0    0  501 -0.00000000000E+00 -0.00000000000E+00 -0.30951735844E+03  0.30951735844E+03  0.00000000000E+00 0.  1.
         23    2    1    2    0    0 -0.58453425127E+03  0.19001284631E+03  0.52811845280E+03  0.81606808956E+03  0.96295659037E+02 0.  0.
         13    1    3    3    0    0 -0.76714680353E+02  0.42629397776E+02  0.40027887314E+02  0.96460559294E+02  0.00000000000E+00 0.  1.
        -13    1    3    3    0    0 -0.50781957091E+03  0.14738344853E+03  0.48809056548E+03  0.71960753027E+03  0.00000000000E+00 0. -1.
         22    1    1    2    0    0  0.58453425127E+03 -0.19001284631E+03  0.40498327848E+03  0.73606835859E+03  0.00000000000E+00 0. -1.
<mgrwt>
<rscale>  0 0.12403422E+04</rscale>
<asrwt>0</asrwt>
<pdfrwt beam="1">  1        2 0.19117216E+00 0.12403422E+04</pdfrwt>
<pdfrwt beam="2">  1       -2 0.47618056E-01 0.12403422E+04</pdfrwt>
<totfact> 0.73455869E+01</totfact>
</mgrwt>
</event>
<event>
 6    1  0.2003386E-005  0.1030541E+04  0.7818608E-02  0.9275668E-01
          2   -1    0    0  501    0  0.00000000000E+00  0.00000000000E+00  0.17632070983E+03  0.17632070983E+03  0.00000000000E+00 0. -1.
         -2   -1    0    0    0  501 -0.00000000000E+00 -0.00000000000E+00 -0.15057989553E+04  0.15057989553E+04  0.00000000000E+00 0.  1.
         23    2    1    2    0    0  0.69471167990E+02  0.35301270007E+03 -0.75928080510E+02  0.37796007916E+03  0.87433051181E+02 0.  0.
         13    1    3    3    0    0  0.52806713790E+02  0.20564400764E+03 -0.86534794260E+02  0.22927336853E+03  0.00000000000E+00 0. -1.
        -13    1    3    3    0    0  0.16664454201E+02  0.14736869243E+03  0.10606713750E+02  0.14868671063E+03  0.00000000000E+00 0.  1.
         22    1    1    2    0    0 -0.69471167990E+02 -0.35301270007E+03 -0.12535501650E+04  0.13041595860E+04  0.00000000000E+00 0.  1.
<mgrwt>
<rscale>  0 0.10305407E+04</rscale>
<asrwt>0</asrwt>
<pdfrwt beam="1">  1        2 0.27126263E-01 0.10305407E+04</pdfrwt>
<pdfrwt beam="2">  1       -2 0.23166138E+00 0.10305407E+04</pdfrwt>
<totfact> 0.16679768E+01</totfact>
</mgrwt>
</event>
<event>
 6    1  0.2003386E-005  0.3344855E+04  0.7818608E-02  0.8151575E-01
          2   -1    0    0  501    0  0.00000000000E+00  0.00000000000E+00  0.13132847870E+04  0.13132847870E+04  0.00000000000E+00 0. -1.
         -2   -1    0    0    0  501 -0.00000000000E+00 -0.00000000000E+00 -0.21297846710E+04  0.21297846710E+04  0.00000000000E+00 0.  1.
         23    2    1    2    0    0 -0.12137291790E+04  0.94609677527E+03  0.26224306288E+03  0.15637280910E+04  0.90755112840E+02 0.  0.
         11    1    3    3    0    0 -0.10815767977E+04  0.80506673498E+03  0.22908735067E+03  0.13676336612E+04  0.00000000000E+00 0. -1.
        -11    1    3    3    0    0 -0.13215238136E+03  0.14103004029E+03  0.33155712213E+02  0.19609442985E+03  0.00000000000E+00 0.  1.
         22    1    1    2    0    0  0.12137291790E+04 -0.94609677527E+03 -0.10787429469E+04  0.18793413670E+04  0.00000000000E+00 0.  1.
<mgrwt>
<rscale>  0 0.33448550E+04</rscale>
<asrwt>0</asrwt>
<pdfrwt beam="1">  1        2 0.20204382E+00 0.33448550E+04</pdfrwt>
<pdfrwt beam="2">  1       -2 0.32765918E+00 0.33448550E+04</pdfrwt>
<totfact> 0.29000333E-01</totfact>
</mgrwt>
</event>
<event>
 6    1  0.2003386E-005  0.6239163E+03  0.7818608E-02  0.9856993E-01
         -2   -1    0    0    0  501 -0.00000000000E+00  0.00000000000E+00  0.31491684763E+03  0.31491684763E+03  0.00000000000E+00 0.  1.
          2   -1    0    0  501    0  0.00000000000E+00 -0.00000000000E+00 -0.30902726180E+03  0.30902726180E+03  0.00000000000E+00 0. -1.
         23    2    1    2    0    0 -0.19027686309E+03 -0.23775353758E+03 -0.17363025248E+02  0.31853829222E+03  0.91832127868E+02 0.  0.
         11    1    3    3    0    0 -0.64971123901E+02 -0.14246316659E+03 -0.34035688535E+02  0.16023554184E+03  0.00000000000E+00 0. -1.
        -11    1    3    3    0    0 -0.12530573919E+03 -0.95290370987E+02  0.16672663286E+02  0.15830275038E+03  0.00000000000E+00 0.  1.
         22    1    1    2    0    0  0.19027686309E+03  0.23775353758E+03  0.23252611078E+02  0.30540581720E+03  0.00000000000E+00 0.  1.
<mgrwt>
<rscale>  0 0.62391631E+03</rscale>
<asrwt>0</asrwt>
<pdfrwt beam="1">  1        2 0.47542655E-01 0.62391631E+03</pdfrwt>
<pdfrwt beam="2">  1       -2 0.48448746E-01 0.62391631E+03</pdfrwt>
<totfact> 0.43247781E+02</totfact>
</mgrwt>
</event>
<event>
 6    1  0.2003386E-005  0.1714707E+04  0.7818608E-02  0.8753021E-01
          2   -1    0    0  501    0  0.00000000000E+00  0.00000000000E+00  0.14298188822E+04  0.14298188822E+04  0.00000000000E+00 0. -1.
         -2   -1    0    0    0  501 -0.00000000000E+00 -0.00000000000E+00 -0.51408943113E+03  0.51408943113E+03  0.00000000000E+00 0.  1.
         23    2    1    2    0    0  0.75450663591E+03  0.17778532717E+03  0.86787958876E+03  0.11672632879E+04  0.91655422325E+02 0.  0.
         11    1    3    3    0    0  0.21464248831E+03  0.65281124338E+02  0.19478346691E+03  0.29710877127E+03  0.00000000000E+00 0. -1.
        -11    1    3    3    0    0  0.53986414759E+03  0.11250420283E+03  0.67309612185E+03  0.87015451660E+03  0.00000000000E+00 0.  1.
         22    1    1    2    0    0 -0.75450663591E+03 -0.17778532717E+03  0.47849862274E+02  0.77664502542E+03  0.00000000000E+00 0.  1.
<mgrwt>
<rscale>  0 0.17147067E+04</rscale>
<asrwt>0</asrwt>
<pdfrwt beam="1">  1        2 0.21997213E+00 0.17147067E+04</pdfrwt>
<pdfrwt beam="2">  1       -2 0.79090682E-01 0.17147067E+04</pdfrwt>
<totfact> 0.18755971E+01</totfact>
</mgrwt>
</event>
<event>
 6    1  0.2003386E-005  0.2666312E+04  0.7818608E-02  0.8346019E-01
          2   -1    0    0  501    0  0.00000000000E+00  0.00000000000E+00  0.17644600709E+04  0.17644600709E+04  0.00000000000E+00 0. -1.
         -2   -1    0    0    0  501 -0.00000000000E+00 -0.00000000000E+00 -0.10072795808E+04  0.10072795808E+04  0.00000000000E+00 0.  1.
         23    2    1    2    0    0  0.55044385145E+03 -0.62894264116E+03 -0.69667233493E+03  0.10947646023E+04  0.12083009826E+03 0.  0.
         13    1    3    3    0    0  0.24781828434E+03 -0.25878180982E+03 -0.37406536009E+03  0.51798341746E+03  0.00000000000E+00 0.  1.
        -13    1    3    3    0    0  0.30262556711E+03 -0.37016083134E+03 -0.32260697484E+03  0.57678118481E+03  0.00000000000E+00 0. -1.
         22    1    1    2    0    0 -0.55044385145E+03  0.62894264116E+03  0.14538528251E+04  0.16769750494E+04  0.00000000000E+00 0. -1.
<mgrwt>
<rscale>  0 0.26663118E+04</rscale>
<asrwt>0</asrwt>
<pdfrwt beam="1">  1        2 0.27145540E+00 0.26663118E+04</pdfrwt>
<pdfrwt beam="2">  1       -2 0.15496609E+00 0.26663118E+04</pdfrwt>
<totfact> 0.21824227E+00</totfact>
</mgrwt>
</event>
<event>
 6    1  0.2003386E-005  0.4099144E+04  0.7818608E-02  0.7984839E-01
          2   -1    0    0  501    0  0.00000000000E+00  0.00000000000E+00  0.29214212712E+04  0.29214212712E+04  0.00000000000E+00 0. -1.
         -2   -1    0    0    0  501 -0.00000000000E+00 -0.00000000000E+00 -0.14379115961E+04  0.14379115961E+04  0.00000000000E+00 0.  1.
         23    2    1    2    0    0  0.89475489852E+03 -0.12404216868E+04  0.21914946521E+04  0.26739619832E+04  0.90507390163E+02 0.  0.
         11    1    3    3    0    0  0.58057976221E+03 -0.74493544043E+03  0.13978369240E+04  0.16869942907E+04  0.00000000000E+00 0.  1.
        -11    1    3    3    0    0  0.31417513631E+03 -0.49548624637E+03  0.79365772816E+03  0.98696769252E+03  0.00000000000E+00 0. -1.
         22    1    1    2    0    0 -0.89475489852E+03  0.12404216868E+04 -0.70798497701E+03  0.16853708842E+04  0.00000000000E+00 0.  1.
<mgrwt>
<rscale>  0 0.40991441E+04</rscale>
<asrwt>0</asrwt>
<pdfrwt beam="1">  1        2 0.44944942E+00 0.40991441E+04</pdfrwt>
<pdfrwt beam="2">  1       -2 0.22121717E+00 0.40991441E+04</pdfrwt>
<totfact> 0.14802124E-01</totfact>
</mgrwt>
</event>
<event>
 6    1  0.2003386E-005  0.1166680E+04  0.7818608E-02  0.9142532E-01
          2   -1    0    0  501    0  0.00000000000E+00  0.00000000000E+00  0.13088254332E+04  0.13088254332E+04  0.00000000000E+00 0. -1.
         -2   -1    0    0    0  501 -0.00000000000E+00 -0.00000000000E+00 -0.25999297632E+03  0.25999297632E+03  0.00000000000E+00 0.  1.
         23    2    1    2    0    0  0.53593544008E+03 -0.16704976230E+03  0.33231347400E+03  0.65858114823E+03  0.90357427939E+02 0.  0.
         13    1    3    3    0    0  0.30823721700E+03 -0.56148934030E+02  0.15611123613E+03  0.35004800068E+03  0.00000000000E+00 0.  1.
        -13    1    3    3    0    0  0.22769822309E+03 -0.11090082827E+03  0.17620223787E+03  0.30853314755E+03  0.00000000000E+00 0. -1.
         22    1    1    2    0    0 -0.53593544008E+03  0.16704976230E+03  0.71651898292E+03  0.91023726132E+03  0.00000000000E+00 0.  1.
<mgrwt>
<rscale>  0 0.11666798E+04</rscale>
<asrwt>0</asrwt>
<pdfrwt beam="1">  1        2 0.20135775E+00 0.11666798E+04</pdfrwt>
<pdfrwt beam="2">  1       -2 0.39998920E-01 0.11666798E+04</pdfrwt>
<totfact> 0.95480631E+01</totfact>
</mgrwt>
</event>
<event>
 6    1  0.2003386E-005  0.6480672E+03  0.7818608E-02  0.9810413E-01
          2   -1    0    0  501    0  0.00000000000E+00  0.00000000000E+00  0.45167591568E+02  0.45167591568E+02  0.00000000000E+00 0. -1.
         -2   -1    0    0    0  501 -0.00000000000E+00 -0.00000000000E+00 -0.23246261462E+04  0.23246261462E+04  0.00000000000E+00 0.  1.
         23    2    1    2    0    0 -0.19819563139E+03 -0.93707286292E+02 -0.20028656227E+04  0.20168543466E+04  0.90378035316E+02 0.  0.
         13    1    3    3    0    0 -0.13960128648E+03 -0.37589394999E+02 -0.15544026248E+04  0.15611114636E+04  0.00000000000E+00 0.  1.
        -13    1    3    3    0    0 -0.58594344907E+02 -0.56117891293E+02 -0.44846299787E+03  0.45574288304E+03  0.00000000000E+00 0. -1.
         22    1    1    2    0    0  0.19819563139E+03  0.93707286292E+02 -0.27659293198E+03  0.35293939116E+03  0.00000000000E+00 0. -1.
<mgrwt>
<rscale>  0 0.64806717E+03</rscale>
<asrwt>0</asrwt>
<pdfrwt beam="1">  1        2 0.69488578E-02 0.64806717E+03</pdfrwt>
<pdfrwt beam="2">  1       -2 0.35763492E+00 0.64806717E+03</pdfrwt>
<totfact> 0.15860946E+01</totfact>
</mgrwt>
</event>
<event>
 6    1  0.2003386E-005  0.3041377E+04  0.7818608E-02  0.8232013E-01
         -2   -1    0    0    0  501 -0.00000000000E+00  0.00000000000E+00  0.17336850699E+04  0.17336850699E+04  0.00000000000E+00 0. -1.
          2   -1    0    0  501    0  0.00000000000E+00 -0.00000000000E+00 -0.13338605841E+04  0.13338605841E+04  0.00000000000E+00 0.  1.
         23    2    1    2    0    0  0.43547599572E+03 -0.16940343073E+03  0.16581963991E+04  0.17252205304E+04  0.91835262456E+02 0.  0.
         13    1    3    3    0    0  0.12882258621E+03 -0.95398263067E+02  0.52387090248E+03  0.54784743294E+03  0.00000000000E+00 0.  1.
        -13    1    3    3    0    0  0.30665340952E+03 -0.74005167660E+02  0.11343254966E+04  0.11773730975E+04  0.00000000000E+00 0. -1.
         22    1    1    2    0    0 -0.43547599572E+03  0.16940343073E+03 -0.12583719133E+04  0.13423251236E+04  0.00000000000E+00 0.  1.
<mgrwt>
<rscale>  0 0.30413774E+04</rscale>
<asrwt>0</asrwt>
<pdfrwt beam="1">  1        2 0.20520932E+00 0.30413774E+04</pdfrwt>
<pdfrwt beam="2">  1       -2 0.26672078E+00 0.30413774E+04</pdfrwt>
<totfact> 0.68405989E-01</totfact>
</mgrwt>
</event>
<event>
 6    1  0.2003386E-005  0.2786308E+04  0.7818608E-02  0.8307532E-01
          2   -1    0    0  501    0  0.00000000000E+00  0.00000000000E+00  0.10603056099E+04  0.10603056099E+04  0.00000000000E+00 0. -1.
         -2   -1    0    0    0  501 -0.00000000000E+00 -0.00000000000E+00 -0.18304888181E+04  0.18304888181E+04  0.00000000000E+00 0.  1.
         23    2    1    2    0    0 -0.52118275054E+03 -0.82423978462E+02  0.95057620121E+03  0.10909505135E+04  0.90292507399E+02 0.  0.
         13    1    3    3    0    0 -0.29447621747E+03 -0.28071694181E+02  0.61370990324E+03  0.68128122534E+03  0.00000000000E+00 0.  1.
        -13    1    3    3    0    0 -0.22670653307E+03 -0.54352284282E+02  0.33686629797E+03  0.40966928815E+03  0.00000000000E+00 0. -1.
         22    1    1    2    0    0  0.52118275054E+03  0.82423978462E+02 -0.17207594094E+04  0.17998439145E+04  0.00000000000E+00 0.  1.
<mgrwt>
<rscale>  0 0.27863076E+04</rscale>
<asrwt>0</asrwt>
<pdfrwt beam="1">  1        2 0.16312394E+00 0.27863076E+04</pdfrwt>
<pdfrwt beam="2">  1       -2 0.28161366E+00 0.27863076E+04</pdfrwt>
<totfact> 0.82705205E-01</totfact>
</mgrwt>
</event>
<event>
 6    1  0.2003386E-005  0.1805945E+04  0.7818608E-02  0.8703144E-01
         -2   -1    0    0    0  501 -0.00000000000E+00  0.00000000000E+00  0.40046269778E+03  0.40046269778E+03  0.00000000000E+00 0.  1.
          2   -1    0    0  501    0  0.00000000000E+00 -0.00000000000E+00 -0.20360428868E+04  0.20360428868E+04  0.00000000000E+00 0. -1.
         23    2    1    2    0    0 -0.21398775502E+03 -0.81478701043E+03 -0.38905876733E+03  0.93201753664E+03  0.87300243439E+02 0.  0.
         11    1    3    3    0    0 -0.41541820197E+02 -0.20044561564E+03 -0.55937972152E+02  0.21221033053E+03  0.00000000000E+00 0. -1.
        -11    1    3    3    0    0 -0.17244593483E+03 -0.61434139478E+03 -0.33312079518E+03  0.71980720611E+03  0.00000000000E+00 0.  1.
         22    1    1    2    0    0  0.21398775502E+03  0.81478701043E+03 -0.12465214217E+04  0.15044880480E+04  0.00000000000E+00 0. -1.
<mgrwt>
<rscale>  0 0.18059449E+04</rscale>
<asrwt>0</asrwt>
<pdfrwt beam="1">  1        2 0.31323737E+00 0.18059449E+04</pdfrwt>
<pdfrwt beam="2">  1       -2 0.61609645E-01 0.18059449E+04</pdfrwt>
<totfact> 0.14739114E+01</totfact>
</mgrwt>
</event>
<event>
 6    1  0.2003386E-005  0.3208525E+04  0.7818608E-02  0.8186569E-01
         -2   -1    0    0    0  501 -0.00000000000E+00  0.00000000000E+00  0.11652277183E+04  0.11652277183E+04  0.00000000000E+00 0.  1.
          2   -1    0    0  501    0  0.00000000000E+00 -0.00000000000E+00 -0.22087175617E+04  0.22087175617E+04  0.00000000000E+00 0. -1.
         23    2    1    2    0    0 -0.48173673729E+03  0.11017319165E+04  0.59241922069E+03  0.13436541762E+04  0.92533843814E+02 0.  0.
         11    1    3    3    0    0 -0.13013986539E+03  0.25125705012E+03  0.10148775559E+03  0.30060980413E+03  0.00000000000E+00 0. -1.
        -11    1    3    3    0    0 -0.35159687190E+03  0.85047486638E+03  0.49093146509E+03  0.10430443721E+04  0.00000000000E+00 0.  1.
         22    1    1    2    0    0  0.48173673729E+03 -0.11017319165E+04 -0.16359090642E+04  0.20302911038E+04  0.00000000000E+00 0. -1.
<mgrwt>
<rscale>  0 0.32085255E+04</rscale>
<asrwt>0</asrwt>
<pdfrwt beam="1">  1        2 0.33980270E+00 0.32085255E+04</pdfrwt>
<pdfrwt beam="2">  1       -2 0.17926580E+00 0.32085255E+04</pdfrwt>
<totfact> 0.78821901E-01</totfact>
</mgrwt>
</event>
<event>
 6    1  0.2003386E-005  0.1398862E+04  0.7818608E-02  0.8954642E-01
          2   -1    0    0  501    0  0.00000000000E+00  0.00000000000E+00  0.84095859660E+03  0.84095859660E+03  0.00000000000E+00 0. -1.
         -2   -1    0    0    0  501 -0.00000000000E+00 -0.00000000000E+00 -0.58172193036E+03  0.58172193036E+03  0.00000000000E+00 0.  1.
         23    2    1    2    0    0  0.17884509417E+03 -0.56085569674E+03  0.50879588350E+03  0.78328668652E+03  0.90111608171E+02 0.  0.
         11    1    3    3    0    0  0.38705634533E+02 -0.26755850512E+03  0.22268593890E+03  0.35024949277E+03  0.00000000000E+00 0.  1.
        -11    1    3    3    0    0  0.14013945964E+03 -0.29329719162E+03  0.28610994460E+03  0.43303719374E+03  0.00000000000E+00 0. -1.
         22    1    1    2    0    0 -0.17884509417E+03  0.56085569674E+03 -0.24955921726E+03  0.63939384044E+03  0.00000000000E+00 0.  1.
<mgrwt>
<rscale>  0 0.13988625E+04</rscale>
<asrwt>0</asrwt>
<pdfrwt beam="1">  1        2 0.12937825E+00 0.13988625E+04</pdfrwt>
<pdfrwt beam="2">  1       -2 0.89495681E-01 0.13988625E+04</pdfrwt>
<totfact> 0.33572371E+01</totfact>
</mgrwt>
</event>
<event>
 6    1  0.2003386E-005  0.1382638E+04  0.7818608E-02  0.8966483E-01
          2   -1    0    0  501    0  0.00000000000E+00  0.00000000000E+00  0.61657454362E+03  0.61657454362E+03  0.00000000000E+00 0. -1.
         -2   -1    0    0    0  501 -0.00000000000E+00 -0.00000000000E+00 -0.77512447068E+03  0.77512447068E+03  0.00000000000E+00 0.  1.
         23    2    1    2    0    0 -0.60364752783E+03 -0.32432077921E+03 -0.14251683517E+03  0.70625655447E+03  0.94408509926E+02 0.  0.
         13    1    3    3    0    0 -0.36201256660E+03 -0.24509299294E+03 -0.99403819501E+02  0.44833558067E+03  0.00000000000E+00 0. -1.
        -13    1    3    3    0    0 -0.24163496123E+03 -0.79227786264E+02 -0.43113015669E+02  0.25792097380E+03  0.00000000000E+00 0.  1.
         22    1    1    2    0    0  0.60364752783E+03  0.32432077921E+03 -0.16033091890E+02  0.68544245982E+03  0.00000000000E+00 0. -1.
<mgrwt>
<rscale>  0 0.13826381E+04</rscale>
<asrwt>0</asrwt>
<pdfrwt beam="1">  1        2 0.94857622E-01 0.13826381E+04</pdfrwt>
<pdfrwt beam="2">  1       -2 0.11924992E+00 0.13826381E+04</pdfrwt>
<totfact> 0.25213277E+01</totfact>
</mgrwt>
</event>
<event>
 6    1  0.2003386E-005  0.6787673E+04  0.7818608E-02  0.7599738E-01
         -2   -1    0    0    0  501 -0.00000000000E+00  0.00000000000E+00  0.25565901546E+04  0.25565901546E+04  0.00000000000E+00 0.  1.
          2   -1    0    0  501    0  0.00000000000E+00 -0.00000000000E+00 -0.45052687008E+04  0.45052687008E+04  0.00000000000E+00 0. -1.
         23    2    1    2    0    0  0.19831076881E+04 -0.21149466369E+04  0.85973454274E+03  0.30254124656E+04  0.90894023204E+02 0.  0.
         11    1    3    3    0    0  0.10985940998E+04 -0.11975878146E+04  0.52509203662E+03  0.17078779865E+04  0.00000000000E+00 0. -1.
        -11    1    3    3    0    0  0.88451358835E+03 -0.91735882222E+03  0.33464250612E+03  0.13175344791E+04  0.00000000000E+00 0.  1.
         22    1    1    2    0    0 -0.19831076881E+04  0.21149466369E+04 -0.28084130890E+04  0.40364463898E+04  0.00000000000E+00 0. -1.
<mgrwt>
<rscale>  0 0.67876728E+04</rscale>
<asrwt>0</asrwt>
<pdfrwt beam="1">  1        2 0.69311825E+00 0.67876728E+04</pdfrwt>
<pdfrwt beam="2">  1       -2 0.39332157E+00 0.67876728E+04</pdfrwt>
<totfact> 0.62502619E-04</totfact>
</mgrwt>
</event>
<event>
 6    1  0.2003386E-005  0.2379201E+04  0.7818608E-02  0.8447332E-01
          1   -1    0    0  501    0  0.00000000000E+00  0.00000000000E+00  0.30165209922E+04  0.30165209922E+04  0.00000000000E+00 0. -1.
         -1   -1    0    0    0  501 -0.00000000000E+00 -0.00000000000E+00 -0.46913282720E+03  0.46913282720E+03  0.00000000000E+00 0.  1.
         23    2    1    2    0    0  0.89272138254E+03 -0.36379944292E+03  0.25757830552E+03  0.10011959924E+04  0.82129959391E+02 0.  0.
         13    1    3    3    0    0  0.62065993189E+03 -0.28384696173E+03  0.15691907531E+03  0.70029382757E+03  0.00000000000E+00 0. -1.
        -13    1    3    3    0    0  0.27206145064E+03 -0.79952481186E+02  0.10065923021E+03  0.30090216483E+03  0.00000000000E+00 0.  1.
         22    1    1    2    0    0 -0.89272138254E+03  0.36379944292E+03  0.22898098595E+04  0.24844578270E+04  0.00000000000E+00 0. -1.
<mgrwt>
<rscale>  0 0.23792007E+04</rscale>
<asrwt>0</asrwt>
<pdfrwt beam="1">  1        1 0.46408014E+00 0.23792007E+04</pdfrwt>
<pdfrwt beam="2">  1       -1 0.72174283E-01 0.23792007E+04</pdfrwt>
<totfact> 0.10112052E+00</totfact>
</mgrwt>
</event>
<event>
 6    1  0.2003386E-005  0.2148431E+04  0.7818608E-02  0.8540204E-01
         -2   -1    0    0    0  501 -0.00000000000E+00  0.00000000000E+00  0.44124707712E+03  0.44124707712E+03  0.00000000000E+00 0. -1.
          2   -1    0    0  501    0  0.00000000000E+00 -0.00000000000E+00 -0.26151770169E+04  0.26151770169E+04  0.00000000000E+00 0.  1.
         23    2    1    2    0    0 -0.52763948924E+03  0.81463147926E+03 -0.17373278524E+04  0.19921641350E+04  0.91553244986E+02 0.  0.
         13    1    3    3    0    0 -0.41119403686E+03  0.69216111899E+03 -0.14042452728E+04  0.16186637504E+04  0.00000000000E+00 0. -1.
        -13    1    3    3    0    0 -0.11644545238E+03  0.12247036027E+03 -0.33308257959E+03  0.37350038467E+03  0.00000000000E+00 0.  1.
         22    1    1    2    0    0  0.52763948924E+03 -0.81463147926E+03 -0.43660208742E+03  0.10642599590E+04  0.00000000000E+00 0.  1.
<mgrwt>
<rscale>  0 0.21484313E+04</rscale>
<asrwt>0</asrwt>
<pdfrwt beam="1">  1        2 0.40233492E+00 0.21484313E+04</pdfrwt>
<pdfrwt beam="2">  1       -2 0.67884166E-01 0.21484313E+04</pdfrwt>
<totfact> 0.54412169E+00</totfact>
</mgrwt>
</event>
<event>
 6    1  0.2003386E-005  0.2236620E+04  0.7818608E-02  0.8503339E-01
          4   -1    0    0  501    0  0.00000000000E+00  0.00000000000E+00  0.77798454702E+03  0.77798454702E+03  0.00000000000E+00 0. -1.
         -4   -1    0    0    0  501 -0.00000000000E+00 -0.00000000000E+00 -0.16075093766E+04  0.16075093766E+04  0.00000000000E+00 0.  1.
         23    2    1    2    0    0 -0.63469561050E+03 -0.85994842703E+03 -0.71300668249E+02  0.10750536564E+04  0.91141448984E+02 0.  0.
         11    1    3    3    0    0 -0.41501828500E+03 -0.55002285244E+03 -0.89006206864E+02  0.69475709420E+03  0.00000000000E+00 0. -1.
        -11    1    3    3    0    0 -0.21967732550E+03 -0.30992557459E+03  0.17705538615E+02  0.38029656220E+03  0.00000000000E+00 0.  1.
         22    1    1    2    0    0  0.63469561050E+03  0.85994842703E+03 -0.75822416134E+03  0.13104402672E+04  0.00000000000E+00 0.  1.
<mgrwt>
<rscale>  0 0.22366202E+04</rscale>
<asrwt>0</asrwt>
<pdfrwt beam="1">  1        4 0.11968993E+00 0.22366202E+04</pdfrwt>
<pdfrwt beam="2">  1       -4 0.24730913E+00 0.22366202E+04</pdfrwt>
<totfact> 0.63701528E-02</totfact>
</mgrwt>
</event>
<event>
 6    1  0.2003386E-005  0.2795195E+04  0.7818608E-02  0.8304762E-01
          2   -1    0    0  501    0  0.00000000000E+00  0.00000000000E+00  0.10894660544E+04  0.10894660544E+04  0.00000000000E+00 0. -1.
         -2   -1    0    0    0  501 -0.00000000000E+00 -0.00000000000E+00 -0.17928767168E+04  0.17928767168E+04  0.00000000000E+00 0.  1.
         23    2    1    2    0    0  0.92218892965E+03  0.25164985091E+03 -0.14013260837E+04  0.16987693664E+04  0.91337275658E+02 0.  0.
         13    1    3    3    0    0  0.56720595800E+03  0.13260713004E+03 -0.92116223117E+03  0.10898839873E+04  0.00000000000E+00 0. -1.
        -13    1    3    3    0    0  0.35498297165E+03  0.11904272087E+03 -0.48016385252E+03  0.60888537905E+03  0.00000000000E+00 0.  1.
         22    1    1    2    0    0 -0.92218892965E+03 -0.25164985091E+03  0.69791542131E+03  0.11835734049E+04  0.00000000000E+00 0. -1.
<mgrwt>
<rscale>  0 0.27951947E+04</rscale>
<asrwt>0</asrwt>
<pdfrwt beam="1">  1        2 0.16761016E+00 0.27951947E+04</pdfrwt>
<pdfrwt beam="2">  1       -2 0.27582718E+00 0.27951947E+04</pdfrwt>
<totfact> 0.85966143E-01</totfact>
</mgrwt>
</event>
<event>
 6    1  0.2003386E-005  0.3336004E+04  0.7818608E-02  0.8153794E-01
         -1   -1    0    0    0  501 -0.00000000000E+00  0.00000000000E+00  0.14255473676E+04  0.14255473676E+04  0.00000000000E+00 0.  1.
          1   -1    0    0  501    0  0.00000000000E+00 -0.00000000000E+00 -0.19516925378E+04  0.19516925378E+04  0.00000000000E+00 0. -1.
         23    2    1    2    0    0  0.13599828210E+04  0.90420071062E+03  0.74061300727E+02  0.16373031232E+04  0.90245457134E+02 0.  0.
         11    1    3    3    0    0  0.75937805649E+03  0.49173317979E+03  0.84559859956E+02  0.90862914476E+03  0.00000000000E+00 0.  1.
        -11    1    3    3    0    0  0.60060476451E+03  0.41246753083E+03 -0.10498559229E+02  0.72867397846E+03  0.00000000000E+00 0. -1.
         22    1    1    2    0    0 -0.13599828210E+04 -0.90420071062E+03 -0.60020647094E+03  0.17399367823E+04  0.00000000000E+00 0. -1.
<mgrwt>
<rscale>  0 0.33360037E+04</rscale>
<asrwt>0</asrwt>
<pdfrwt beam="1">  1        1 0.30026039E+00 0.33360037E+04</pdfrwt>
<pdfrwt beam="2">  1       -1 0.21931498E+00 0.33360037E+04</pdfrwt>
<totfact> 0.29565914E-01</totfact>
</mgrwt>
</event>
<event>
 6    1  0.2003386E-005  0.3216804E+04  0.7818608E-02  0.8184393E-01
         -1   -1    0    0    0  501 -0.00000000000E+00  0.00000000000E+00  0.11359553588E+04  0.11359553588E+04  0.00000000000E+00 0.  1.
          1   -1    0    0  501    0  0.00000000000E+00 -0.00000000000E+00 -0.22773396593E+04  0.22773396593E+04  0.00000000000E+00 0. -1.
         23    2    1    2    0    0  0.15673624296E+04 -0.26938715339E+03 -0.81695365286E+03  0.17901962321E+04  0.90525436166E+02 0.  0.
         13    1    3    3    0    0  0.11393139276E+04 -0.15875841863E+03 -0.60977671280E+03  0.13019478102E+04  0.00000000000E+00 0.  1.
        -13    1    3    3    0    0  0.42804850199E+03 -0.11062873476E+03 -0.20717694007E+03  0.48824842192E+03  0.00000000000E+00 0. -1.
         22    1    1    2    0    0 -0.15673624296E+04  0.26938715339E+03 -0.32443064764E+03  0.16230987860E+04  0.00000000000E+00 0.  1.
<mgrwt>
<rscale>  0 0.32168035E+04</rscale>
<asrwt>0</asrwt>
<pdfrwt beam="1">  1        1 0.35035995E+00 0.32168035E+04</pdfrwt>
<pdfrwt beam="2">  1       -1 0.17476236E+00 0.32168035E+04</pdfrwt>
<totfact> 0.36591431E-01</totfact>
</mgrwt>
</event>
<event>
 6    1  0.2003386E-005  0.9844299E+03  0.7818608E-02  0.9325789E-01
          2   -1    0    0  501    0  0.00000000000E+00  0.00000000000E+00  0.13660256901E+04  0.13660256901E+04  0.00000000000E+00 0. -1.
         -2   -1    0    0    0  501 -0.00000000000E+00 -0.00000000000E+00 -0.17735798851E+03  0.17735798851E+03  0.00000000000E+00 0.  1.
         23    2    1    2    0    0 -0.25621779160E+03  0.39284115291E+03  0.81386385382E+03  0.94300908517E+03  0.83186741803E+02 0.  0.
         11    1    3    3    0    0 -0.21490168300E+02  0.14536885290E+02  0.85550740295E+02  0.89398420191E+02  0.00000000000E+00 0. -1.
        -11    1    3    3    0    0 -0.23472762330E+03  0.37830426762E+03  0.72831311353E+03  0.85361066498E+03  0.00000000000E+00 0.  1.
         22    1    1    2    0    0  0.25621779160E+03 -0.39284115291E+03  0.37480384780E+03  0.60037459346E+03  0.00000000000E+00 0.  1.
<mgrwt>
<rscale>  0 0.98442992E+03</rscale>
<asrwt>0</asrwt>
<pdfrwt beam="1">  1        2 0.21015779E+00 0.98442992E+03</pdfrwt>
<pdfrwt beam="2">  1       -2 0.27285845E-01 0.98442992E+03</pdfrwt>
<totfact> 0.18465498E+02</totfact>
</mgrwt>
</event>
<event>
 6    1  0.2003386E-005  0.6105322E+04  0.7818608E-02  0.7677479E-01
          2   -1    0    0  501    0  0.00000000000E+00  0.00000000000E+00  0.32838610314E+04  0.32838610314E+04  0.00000000000E+00 0. -1.
         -2   -1    0    0    0  501 -0.00000000000E+00 -0.00000000000E+00 -0.28377385755E+04  0.28377385755E+04  0.00000000000E+00 0.  1.
         23    2    1    2    0    0  0.24619851794E+03  0.30344478139E+04  0.43907980848E+03  0.30771724286E+04  0.87817035943E+02 0.  0.
         11    1    3    3    0    0  0.19074023550E+03  0.20489341302E+04  0.26329303700E+03  0.20745689024E+04  0.00000000000E+00 0. -1.
        -11    1    3    3    0    0  0.55458282439E+02  0.98551368365E+03  0.17578677148E+03  0.10026035262E+04  0.00000000000E+00 0.  1.
         22    1    1    2    0    0 -0.24619851794E+03 -0.30344478139E+04  0.70426474216E+01  0.30444271783E+04  0.00000000000E+00 0. -1.
<mgrwt>
<rscale>  0 0.61053220E+04</rscale>
<asrwt>0</asrwt>
<pdfrwt beam="1">  1        2 0.50520939E+00 0.61053220E+04</pdfrwt>
<pdfrwt beam="2">  1       -2 0.43657517E+00 0.61053220E+04</pdfrwt>
<totfact> 0.32548161E-03</totfact>
</mgrwt>
</event>
<event>
 6    1  0.2003386E-005  0.2275097E+04  0.7818608E-02  0.8487805E-01
         -1   -1    0    0    0  501 -0.00000000000E+00  0.00000000000E+00  0.14729634666E+04  0.14729634666E+04  0.00000000000E+00 0.  1.
          1   -1    0    0  501    0  0.00000000000E+00 -0.00000000000E+00 -0.87851245313E+03  0.87851245313E+03  0.00000000000E+00 0. -1.
         23    2    1    2    0    0 -0.38328438379E+03  0.60427778310E+03  0.12091045381E+04  0.14081533272E+04  0.94358098999E+02 0.  0.
         11    1    3    3    0    0 -0.18170386772E+03  0.23568240631E+03  0.42895627146E+03  0.52207851423E+03  0.00000000000E+00 0.  1.
        -11    1    3    3    0    0 -0.20158051607E+03  0.36859537679E+03  0.78014826668E+03  0.88607481301E+03  0.00000000000E+00 0. -1.
         22    1    1    2    0    0  0.38328438379E+03 -0.60427778310E+03 -0.61465352471E+03  0.94332259246E+03  0.00000000000E+00 0. -1.
<mgrwt>
<rscale>  0 0.22750971E+04</rscale>
<asrwt>0</asrwt>
<pdfrwt beam="1">  1        1 0.13515576E+00 0.22750971E+04</pdfrwt>
<pdfrwt beam="2">  1       -1 0.22660976E+00 0.22750971E+04</pdfrwt>
<totfact> 0.17069172E+00</totfact>
</mgrwt>
</event>
<event>
 6    1  0.2003386E-005  0.6826517E+03  0.7818608E-02  0.9747369E-01
         -2   -1    0    0    0  501 -0.00000000000E+00  0.00000000000E+00  0.44047344787E+02  0.44047344787E+02  0.00000000000E+00 0.  1.
          2   -1    0    0  501    0  0.00000000000E+00 -0.00000000000E+00 -0.26449569469E+04  0.26449569469E+04  0.00000000000E+00 0. -1.
         23    2    1    2    0    0 -0.26234509823E+03  0.15932346727E+03 -0.18558307804E+04  0.18831808815E+04  0.89740900878E+02 0.  0.
         13    1    3    3    0    0 -0.22610831180E+03  0.12149565473E+03 -0.16868297967E+04  0.17062476156E+04  0.00000000000E+00 0. -1.
        -13    1    3    3    0    0 -0.36236786435E+02  0.37827812541E+02 -0.16900098367E+03  0.17693326587E+03  0.00000000000E+00 0.  1.
         22    1    1    2    0    0  0.26234509823E+03 -0.15932346727E+03 -0.74507882170E+03  0.80582341015E+03  0.00000000000E+00 0.  1.
<mgrwt>
<rscale>  0 0.68265168E+03</rscale>
<asrwt>0</asrwt>
<pdfrwt beam="1">  1        2 0.40691659E+00 0.68265168E+03</pdfrwt>
<pdfrwt beam="2">  1       -2 0.67765123E-02 0.68265168E+03</pdfrwt>
<totfact> 0.38500665E+02</totfact>
</mgrwt>
</event>
<event>
 6    1  0.2003386E-005  0.3734068E+04  0.7818608E-02  0.8060454E-01
          2   -1    0    0  501    0  0.00000000000E+00  0.00000000000E+00  0.16252065232E+04  0.16252065232E+04  0.00000000000E+00 0. -1.
         -2   -1    0    0    0  501 -0.00000000000E+00 -0.00000000000E+00 -0.21448452970E+04  0.21448452970E+04  0.00000000000E+00 0.  1.
         23    2    1    2    0    0  0.11534732645E+04  0.30019773400E+03  0.11894500669E+04  0.16864002378E+04  0.92385327529E+02 0.  0.
         13    1    3    3    0    0  0.69942456141E+03  0.16705778226E+03  0.77714665195E+03  0.10588011798E+04  0.00000000000E+00 0. -1.
        -13    1    3    3    0    0  0.45404870313E+03  0.13313995174E+03  0.41230341498E+03  0.62759905797E+03  0.00000000000E+00 0.  1.
         22    1    1    2    0    0 -0.11534732645E+04 -0.30019773400E+03 -0.17090888407E+04  0.20836515824E+04  0.00000000000E+00 0.  1.
<mgrwt>
<rscale>  0 0.37340683E+04</rscale>
<asrwt>0</asrwt>
<pdfrwt beam="1">  1        2 0.25003177E+00 0.37340683E+04</pdfrwt>
<pdfrwt beam="2">  1       -2 0.32997620E+00 0.37340683E+04</pdfrwt>
<totfact> 0.18068160E-01</totfact>
</mgrwt>
</event>
<event>
 6    1  0.2003386E-005  0.1683430E+04  0.7818608E-02  0.8770872E-01
          2   -1    0    0  501    0  0.00000000000E+00  0.00000000000E+00  0.12352108346E+04  0.12352108346E+04  0.00000000000E+00 0.  1.
         -2   -1    0    0    0  501 -0.00000000000E+00 -0.00000000000E+00 -0.57357318872E+03  0.57357318872E+03  0.00000000000E+00 0. -1.
         23    2    1    2    0    0  0.72702551591E+03  0.18955509201E+03 -0.70194186544E+02  0.75993939011E+03  0.89907836869E+02 0.  0.
         13    1    3    3    0    0  0.65245104930E+03  0.16952287973E+03 -0.90328593121E+02  0.68013942190E+03  0.00000000000E+00 0.  1.
        -13    1    3    3    0    0  0.74574466612E+02  0.20032212280E+02  0.20134406577E+02  0.79799968218E+02  0.00000000000E+00 0. -1.
         22    1    1    2    0    0 -0.72702551591E+03 -0.18955509201E+03  0.73183183246E+03  0.10488446333E+04  0.00000000000E+00 0.  1.
<mgrwt>
<rscale>  0 0.16834296E+04</rscale>
<asrwt>0</asrwt>
<pdfrwt beam="1">  1        2 0.19003244E+00 0.16834296E+04</pdfrwt>
<pdfrwt beam="2">  1       -2 0.88242029E-01 0.16834296E+04</pdfrwt>
<totfact> 0.19020270E+01</totfact>
</mgrwt>
</event>
<event>
 6    1  0.2003386E-005  0.2689712E+04  0.7818608E-02  0.8338351E-01
          4   -1    0    0  501    0  0.00000000000E+00  0.00000000000E+00  0.17929151847E+04  0.17929151847E+04  0.00000000000E+00 0. -1.
         -4   -1    0    0    0  501 -0.00000000000E+00 -0.00000000000E+00 -0.10087690584E+04  0.10087690584E+04  0.00000000000E+00 0.  1.
         23    2    1    2    0    0 -0.13095118977E+04  0.11428796451E+03  0.68072437160E+03  0.14831323069E+04  0.91720339803E+02 0.  0.
         11    1    3    3    0    0 -0.72327921459E+03  0.22211425224E+02  0.39708036491E+03  0.82540837521E+03  0.00000000000E+00 0.  1.
        -11    1    3    3    0    0 -0.58623268311E+03  0.92076539287E+02  0.28364400669E+03  0.65772393172E+03  0.00000000000E+00 0. -1.
         22    1    1    2    0    0  0.13095118977E+04 -0.11428796451E+03  0.10342175475E+03  0.13185519362E+04  0.00000000000E+00 0.  1.
<mgrwt>
<rscale>  0 0.26897118E+04</rscale>
<asrwt>0</asrwt>
<pdfrwt beam="1">  1        4 0.27583311E+00 0.26897118E+04</pdfrwt>
<pdfrwt beam="2">  1       -4 0.15519524E+00 0.26897118E+04</pdfrwt>
<totfact> 0.20756574E-02</totfact>
</mgrwt>
</event>
<event>
 6    1  0.2003386E-005  0.3848965E+04  0.7818608E-02  0.8035728E-01
          1   -1    0    0  501    0  0.00000000000E+00  0.00000000000E+00  0.18126551912E+04  0.18126551912E+04  0.00000000000E+00 0. -1.
         -1   -1    0    0    0  501 -0.00000000000E+00 -0.00000000000E+00 -0.20432089655E+04  0.20432089655E+04  0.00000000000E+00 0.  1.
         23    2    1    2    0    0 -0.14183525985E+04  0.11882697539E+04  0.41068832632E+03  0.18975739501E+04  0.91721824871E+02 0.  0.
         13    1    3    3    0    0 -0.25705529387E+03  0.18381459017E+03  0.45045727253E+02  0.31920893661E+03  0.00000000000E+00 0. -1.
        -13    1    3    3    0    0 -0.11612973046E+04  0.10044551637E+04  0.36564259906E+03  0.15783650135E+04  0.00000000000E+00 0.  1.
         22    1    1    2    0    0  0.14183525985E+04 -0.11882697539E+04 -0.64124210057E+03  0.19582902066E+04  0.00000000000E+00 0.  1.
<mgrwt>
<rscale>  0 0.38489652E+04</rscale>
<asrwt>0</asrwt>
<pdfrwt beam="1">  1        1 0.27887003E+00 0.38489652E+04</pdfrwt>
<pdfrwt beam="2">  1       -1 0.31433984E+00 0.38489652E+04</pdfrwt>
<totfact> 0.84323773E-02</totfact>
</mgrwt>
</event>
<event>
 6    1  0.2003386E-005  0.4362044E+04  0.7818608E-02  0.7935244E-01
          2   -1    0    0  501    0  0.00000000000E+00  0.00000000000E+00  0.27390268929E+04  0.27390268929E+04  0.00000000000E+00 0. -1.
         -2   -1    0    0    0  501 -0.00000000000E+00 -0.00000000000E+00 -0.17366963435E+04  0.17366963435E+04  0.00000000000E+00 0.  1.
         23    2    1    2    0    0  0.18397837112E+03 -0.13684249103E+04 -0.12299483962E+04  0.18509367562E+04  0.82213391968E+02 0.  0.
         13    1    3    3    0    0  0.12473921361E+03 -0.70836060689E+03 -0.60149427796E+03  0.93761931892E+03  0.00000000000E+00 0. -1.
        -13    1    3    3    0    0  0.59239157508E+02 -0.66006430339E+03 -0.62845411829E+03  0.91331743725E+03  0.00000000000E+00 0.  1.
         22    1    1    2    0    0 -0.18397837112E+03  0.13684249103E+04  0.22322789456E+04  0.26247864803E+04  0.00000000000E+00 0. -1.
<mgrwt>
<rscale>  0 0.43620445E+04</rscale>
<asrwt>0</asrwt>
<pdfrwt beam="1">  1        2 0.42138875E+00 0.43620445E+04</pdfrwt>
<pdfrwt beam="2">  1       -2 0.26718405E+00 0.43620445E+04</pdfrwt>
<totfact> 0.97214346E-02</totfact>
</mgrwt>
</event>
<event>
 6    1  0.2003386E-005  0.1403524E+04  0.7818608E-02  0.8951271E-01
          2   -1    0    0  501    0  0.00000000000E+00  0.00000000000E+00  0.18741878037E+04  0.18741878037E+04  0.00000000000E+00 0. -1.
         -2   -1    0    0    0  501 -0.00000000000E+00 -0.00000000000E+00 -0.26276460539E+03  0.26276460539E+03  0.00000000000E+00 0.  1.
         23    2    1    2    0    0  0.15618552970E+03 -0.67284537794E+02  0.18411195121E+04  0.18511526098E+04  0.90132116197E+02 0.  0.
         13    1    3    3    0    0  0.56489838637E+02 -0.67389660776E+02  0.10716069295E+04  0.10752087609E+04  0.00000000000E+00 0. -1.
        -13    1    3    3    0    0  0.99695691066E+02  0.10512298222E+00  0.76951258258E+03  0.77594384889E+03  0.00000000000E+00 0.  1.
         22    1    1    2    0    0 -0.15618552970E+03  0.67284537794E+02 -0.22969631376E+03  0.28579979928E+03  0.00000000000E+00 0.  1.
<mgrwt>
<rscale>  0 0.14035244E+04</rscale>
<asrwt>0</asrwt>
<pdfrwt beam="1">  1        2 0.28833658E+00 0.14035244E+04</pdfrwt>
<pdfrwt beam="2">  1       -2 0.40425325E-01 0.14035244E+04</pdfrwt>
<totfact> 0.44246992E+01</totfact>
</mgrwt>
</event>
<event>
 6    1  0.2003386E-005  0.3594349E+04  0.7818608E-02  0.8091787E-01
          2   -1    0    0  501    0  0.00000000000E+00  0.00000000000E+00  0.34842637883E+04  0.34842637883E+04  0.00000000000E+00 0. -1.
         -2   -1    0    0    0  501 -0.00000000000E+00 -0.00000000000E+00 -0.92697822381E+03  0.92697822381E+03  0.00000000000E+00 0.  1.
         23    2    1    2    0    0  0.13938220118E+04  0.45313357847E+03  0.25534712867E+04  0.29456075456E+04  0.91205045788E+02 0.  0.
         13    1    3    3    0    0  0.61733105128E+03  0.19902988135E+03  0.12214301789E+04  0.13829686195E+04  0.00000000000E+00 0. -1.
        -13    1    3    3    0    0  0.77649096050E+03  0.25410369713E+03  0.13320411078E+04  0.15626389262E+04  0.00000000000E+00 0.  1.
         22    1    1    2    0    0 -0.13938220118E+04 -0.45313357847E+03  0.38142777267E+01  0.14656344664E+04  0.00000000000E+00 0.  1.
<mgrwt>
<rscale>  0 0.35943493E+04</rscale>
<asrwt>0</asrwt>
<pdfrwt beam="1">  1        2 0.53604058E+00 0.35943493E+04</pdfrwt>
<pdfrwt beam="2">  1       -2 0.14261204E+00 0.35943493E+04</pdfrwt>
<totfact> 0.23232541E-01</totfact>
</mgrwt>
</event>
<event>
 6    1  0.2176932E-005  0.1704926E+04  0.7818608E-02  0.8758560E-01
         -2   -1    0    0    0  501 -0.00000000000E+00  0.00000000000E+00  0.83250253748E+03  0.83250253748E+03  0.00000000000E+00 0. -1.
          2   -1    0    0  501    0  0.00000000000E+00 -0.00000000000E+00 -0.87290223226E+03  0.87290223226E+03  0.00000000000E+00 0.  1.
         23    2    1    2    0    0 -0.68380246392E+03 -0.62204688159E+02  0.48094267777E+03  0.84328348923E+03  0.91465572893E+02 0.  0.
         13    1    3    3    0    0 -0.20572129972E+03  0.86594732401E+01  0.18335105067E+03  0.27570608883E+03  0.00000000000E+00 0. -1.
        -13    1    3    3    0    0 -0.47808116420E+03 -0.70864161399E+02  0.29759162710E+03  0.56757740041E+03  0.00000000000E+00 0.  1.
         22    1    1    2    0    0  0.68380246392E+03  0.62204688159E+02 -0.52134237255E+03  0.86212128051E+03  0.00000000000E+00 0.  1.
<mgrwt>
<rscale>  0 0.17049262E+04</rscale>
<asrwt>0</asrwt>
<pdfrwt beam="1">  1        2 0.13429265E+00 0.17049262E+04</pdfrwt>
<pdfrwt beam="2">  1       -2 0.12807731E+00 0.17049262E+04</pdfrwt>
<totfact> 0.13124667E+01</totfact>
</mgrwt>
</event>
<event>
 6    1  0.2003386E-005  0.2089148E+04  0.7818608E-02  0.8566039E-01
          2   -1    0    0  501    0  0.00000000000E+00  0.00000000000E+00  0.18868361600E+04  0.18868361600E+04  0.00000000000E+00 0. -1.
         -2   -1    0    0    0  501 -0.00000000000E+00 -0.00000000000E+00 -0.57828800415E+03  0.57828800415E+03  0.00000000000E+00 0.  1.
         23    2    1    2    0    0  0.18212080751E+03  0.32949443546E+03  0.18027281404E+04  0.18438766863E+04  0.91202602167E+02 0.  0.
         11    1    3    3    0    0  0.39805404124E+02  0.30957043855E+02  0.37314480106E+03  0.37653665335E+03  0.00000000000E+00 0.  1.
        -11    1    3    3    0    0  0.14231540338E+03  0.29853739161E+03  0.14295833394E+04  0.14673400330E+04  0.00000000000E+00 0. -1.
         22    1    1    2    0    0 -0.18212080751E+03 -0.32949443546E+03 -0.49417998457E+03  0.62124747780E+03  0.00000000000E+00 0.  1.
<mgrwt>
<rscale>  0 0.20891479E+04</rscale>
<asrwt>0</asrwt>
<pdfrwt beam="1">  1        2 0.29028248E+00 0.20891479E+04</pdfrwt>
<pdfrwt beam="2">  1       -2 0.88967386E-01 0.20891479E+04</pdfrwt>
<totfact> 0.77300086E+00</totfact>
</mgrwt>
</event>
<event>
 6    1  0.2003386E-005  0.2590896E+04  0.7818608E-02  0.8371300E-01
         -2   -1    0    0    0  501 -0.00000000000E+00  0.00000000000E+00  0.97065171554E+03  0.97065171554E+03  0.00000000000E+00 0.  1.
          2   -1    0    0  501    0  0.00000000000E+00 -0.00000000000E+00 -0.17289262980E+04  0.17289262980E+04  0.00000000000E+00 0. -1.
         23    2    1    2    0    0 -0.77861963441E+03 -0.66068724367E+03 -0.12074140265E+04  0.15840142954E+04  0.92176394006E+02 0.  0.
         13    1    3    3    0    0 -0.92871424609E+02 -0.82465750445E+02 -0.10391710872E+03  0.16193970171E+03  0.00000000000E+00 0.  1.
        -13    1    3    3    0    0 -0.68574820980E+03 -0.57822149323E+03 -0.11034969178E+04  0.14220745937E+04  0.00000000000E+00 0. -1.
         22    1    1    2    0    0  0.77861963441E+03  0.66068724367E+03  0.44913944403E+03  0.11155637181E+04  0.00000000000E+00 0.  1.
<mgrwt>
<rscale>  0 0.25908958E+04</rscale>
<asrwt>0</asrwt>
<pdfrwt beam="1">  1        2 0.26598866E+00 0.25908958E+04</pdfrwt>
<pdfrwt beam="2">  1       -2 0.14933104E+00 0.25908958E+04</pdfrwt>
<totfact> 0.25367300E+00</totfact>
</mgrwt>
</event>
<event>
 6    1  0.2003386E-005  0.3987420E+04  0.7818608E-02  0.8007089E-01
          2   -1    0    0  501    0  0.00000000000E+00  0.00000000000E+00  0.28194218785E+04  0.28194218785E+04  0.00000000000E+00 0. -1.
         -2   -1    0    0    0  501 -0.00000000000E+00 -0.00000000000E+00 -0.14098208003E+04  0.14098208003E+04  0.00000000000E+00 0.  1.
         23    2    1    2    0    0 -0.16238760237E+04 -0.60080778065E+03 -0.34097851340E+03  0.17670338664E+04  0.90548378917E+02 0.  0.
         13    1    3    3    0    0 -0.11546548002E+04 -0.41452146331E+03 -0.20123136643E+03  0.12432014374E+04  0.00000000000E+00 0. -1.
        -13    1    3    3    0    0 -0.46922122348E+03 -0.18628631734E+03 -0.13974714696E+03  0.52383242901E+03  0.00000000000E+00 0.  1.
         22    1    1    2    0    0  0.16238760237E+04  0.60080778065E+03  0.17505795915E+04  0.24622088124E+04  0.00000000000E+00 0. -1.
<mgrwt>
<rscale>  0 0.39874200E+04</rscale>
<asrwt>0</asrwt>
<pdfrwt beam="1">  1        2 0.43375721E+00 0.39874200E+04</pdfrwt>
<pdfrwt beam="2">  1       -2 0.21689551E+00 0.39874200E+04</pdfrwt>
<totfact> 0.18375749E-01</totfact>
</mgrwt>
</event>
<event>
 6    1  0.2003386E-005  0.1773235E+04  0.7818608E-02  0.8720664E-01
         -2   -1    0    0    0  501 -0.00000000000E+00  0.00000000000E+00  0.38963919903E+03  0.38963919903E+03  0.00000000000E+00 0.  1.
          2   -1    0    0  501    0  0.00000000000E+00 -0.00000000000E+00 -0.20174839199E+04  0.20174839199E+04  0.00000000000E+00 0. -1.
         23    2    1    2    0    0 -0.74452795896E+03  0.14556845676E+03 -0.19787826805E+03  0.78838406847E+03  0.82955248023E+02 0.  0.
         13    1    3    3    0    0 -0.99893664925E+02 -0.87835247652E+01 -0.27512428749E+02  0.10398475049E+03  0.00000000000E+00 0.  1.
        -13    1    3    3    0    0 -0.64463429403E+03  0.15435198152E+03 -0.17036583930E+03  0.68439931797E+03  0.00000000000E+00 0. -1.
         22    1    1    2    0    0  0.74452795896E+03 -0.14556845676E+03 -0.14299664528E+04  0.16187390504E+04  0.00000000000E+00 0.  1.
<mgrwt>
<rscale>  0 0.17732353E+04</rscale>
<asrwt>0</asrwt>
<pdfrwt beam="1">  1        2 0.31038215E+00 0.17732353E+04</pdfrwt>
<pdfrwt beam="2">  1       -2 0.59944491E-01 0.17732353E+04</pdfrwt>
<totfact> 0.16040133E+01</totfact>
</mgrwt>
</event>
<event>
 6    1  0.2003386E-005  0.1503007E+04  0.7818608E-02  0.8882456E-01
         -2   -1    0    0    0  501 -0.00000000000E+00  0.00000000000E+00  0.16584737210E+03  0.16584737210E+03  0.00000000000E+00 0. -1.
          2   -1    0    0  501    0  0.00000000000E+00 -0.00000000000E+00 -0.34052830676E+04  0.34052830676E+04  0.00000000000E+00 0.  1.
         23    2    1    2    0    0 -0.17873135719E+02 -0.10385016692E+03 -0.33870152438E+04  0.33897908985E+04  0.87782504508E+02 0.  0.
         13    1    3    3    0    0 -0.29393739558E+02  0.24732473377E+01 -0.60032048781E+03  0.60104475454E+03  0.00000000000E+00 0.  1.
        -13    1    3    3    0    0  0.11520603839E+02 -0.10632341426E+03 -0.27866947559E+04  0.27887461440E+04  0.00000000000E+00 0. -1.
         22    1    1    2    0    0  0.17873135719E+02  0.10385016692E+03  0.14757954823E+03  0.18133954121E+03  0.00000000000E+00 0. -1.
<mgrwt>
<rscale>  0 0.15030067E+04</rscale>
<asrwt>0</asrwt>
<pdfrwt beam="1">  1        2 0.52388965E+00 0.15030067E+04</pdfrwt>
<pdfrwt beam="2">  1       -2 0.25514983E-01 0.15030067E+04</pdfrwt>
<totfact> 0.12786494E+01</totfact>
</mgrwt>
</event>
<event>
 6    1  0.2003386E-005  0.3946057E+04  0.7818608E-02  0.8015518E-01
         -2   -1    0    0    0  501 -0.00000000000E+00  0.00000000000E+00  0.92121130859E+03  0.92121130859E+03  0.00000000000E+00 0.  1.
          2   -1    0    0  501    0  0.00000000000E+00 -0.00000000000E+00 -0.42257849212E+04  0.42257849212E+04  0.00000000000E+00 0. -1.
         23    2    1    2    0    0  0.13598691844E+03  0.18392570742E+04 -0.25636708258E+04  0.31594610813E+04  0.91799752456E+02 0.  0.
         13    1    3    3    0    0  0.47229074404E+02  0.24135031490E+03 -0.35986262763E+03  0.43586886874E+03  0.00000000000E+00 0. -1.
        -13    1    3    3    0    0  0.88757844031E+02  0.15979067593E+04 -0.22038081982E+04  0.27235922126E+04  0.00000000000E+00 0.  1.
         22    1    1    2    0    0 -0.13598691844E+03 -0.18392570742E+04 -0.74090278685E+03  0.19875351485E+04  0.00000000000E+00 0. -1.
<mgrwt>
<rscale>  0 0.39460567E+04</rscale>
<asrwt>0</asrwt>
<pdfrwt beam="1">  1        2 0.65012074E+00 0.39460567E+04</pdfrwt>
<pdfrwt beam="2">  1       -2 0.14172482E+00 0.39460567E+04</pdfrwt>
<totfact> 0.60561243E-02</totfact>
</mgrwt>
</event>
<event>
 6    1  0.2003386E-005  0.3980975E+04  0.7818608E-02  0.8008396E-01
          2   -1    0    0  501    0  0.00000000000E+00  0.00000000000E+00  0.23696117421E+04  0.23696117421E+04  0.00000000000E+00 0. -1.
         -2   -1    0    0    0  501 -0.00000000000E+00 -0.00000000000E+00 -0.16720208014E+04  0.16720208014E+04  0.00000000000E+00 0.  1.
         23    2    1    2    0    0 -0.17548988261E+04 -0.91106978624E+03  0.57526869080E+03  0.20605518339E+04  0.72261666567E+02 0.  0.
         13    1    3    3    0    0 -0.11305405510E+04 -0.60727726040E+03  0.34260927008E+03  0.13282653050E+04  0.00000000000E+00 0. -1.
        -13    1    3    3    0    0 -0.62435827506E+03 -0.30379252584E+03  0.23265942071E+03  0.73228652892E+03  0.00000000000E+00 0.  1.
         22    1    1    2    0    0  0.17548988261E+04  0.91106978624E+03  0.12232224984E+03  0.19810807096E+04  0.00000000000E+00 0. -1.
<mgrwt>
<rscale>  0 0.39809748E+04</rscale>
<asrwt>0</asrwt>
<pdfrwt beam="1">  1        2 0.36455565E+00 0.39809748E+04</pdfrwt>
<pdfrwt beam="2">  1       -2 0.25723397E+00 0.39809748E+04</pdfrwt>
<totfact> 0.18967577E-01</totfact>
</mgrwt>
</event>
<event>
 6    1  0.2003386E-005  0.1901690E+04  0.7818608E-02  0.8654016E-01
         -2   -1    0    0    0  501 -0.00000000000E+00  0.00000000000E+00  0.84594736465E+03  0.84594736465E+03  0.00000000000E+00 0.  1.
          2   -1    0    0  501    0  0.00000000000E+00 -0.00000000000E+00 -0.10687500680E+04  0.10687500680E+04  0.00000000000E+00 0. -1.
         23    2    1    2    0    0  0.10411783124E+03 -0.55999682158E+03 -0.87549518263E+03  0.10484154719E+04  0.90808721744E+02 0.  0.
         11    1    3    3    0    0  0.10047812511E+03 -0.32335722074E+03 -0.55223210520E+03  0.64777777350E+03  0.00000000000E+00 0.  1.
        -11    1    3    3    0    0  0.36397061342E+01 -0.23663960084E+03 -0.32326307743E+03  0.40063769840E+03  0.00000000000E+00 0. -1.
         22    1    1    2    0    0 -0.10411783124E+03  0.55999682158E+03  0.65269247930E+03  0.86628196074E+03  0.00000000000E+00 0.  1.
<mgrwt>
<rscale>  0 0.19016901E+04</rscale>
<asrwt>0</asrwt>
<pdfrwt beam="1">  1        2 0.16442309E+00 0.19016901E+04</pdfrwt>
<pdfrwt beam="2">  1       -2 0.13014575E+00 0.19016901E+04</pdfrwt>
<totfact> 0.92399013E+00</totfact>
</mgrwt>
</event>
<event>
 6    1  0.2003386E-005  0.1522899E+04  0.7818608E-02  0.8869366E-01
         -2   -1    0    0    0  501 -0.00000000000E+00  0.00000000000E+00  0.65397065173E+03  0.65397065173E+03  0.00000000000E+00 0.  1.
          2   -1    0    0  501    0  0.00000000000E+00 -0.00000000000E+00 -0.88659254167E+03  0.88659254167E+03  0.00000000000E+00 0. -1.
         23    2    1    2    0    0  0.51730755135E+03 -0.31505954340E+03  0.34517338891E+03  0.70347478540E+03  0.94140781327E+02 0.  0.
         13    1    3    3    0    0  0.33952537973E+03 -0.15365683560E+03  0.21807618655E+03  0.43179292462E+03  0.00000000000E+00 0. -1.
        -13    1    3    3    0    0  0.17778217161E+03 -0.16140270780E+03  0.12709720236E+03  0.27168186078E+03  0.00000000000E+00 0.  1.
         22    1    1    2    0    0 -0.51730755135E+03  0.31505954340E+03 -0.57779527885E+03  0.83708840801E+03  0.00000000000E+00 0. -1.
<mgrwt>
<rscale>  0 0.15228992E+04</rscale>
<asrwt>0</asrwt>
<pdfrwt beam="1">  1        2 0.13639885E+00 0.15228992E+04</pdfrwt>
<pdfrwt beam="2">  1       -2 0.10061087E+00 0.15228992E+04</pdfrwt>
<totfact> 0.23518672E+01</totfact>
</mgrwt>
</event>
<event>
 6    1  0.2003386E-005  0.2129607E+04  0.7818608E-02  0.8548312E-01
         -2   -1    0    0    0  501 -0.00000000000E+00  0.00000000000E+00  0.62291095737E+03  0.62291095737E+03  0.00000000000E+00 0.  1.
          2   -1    0    0  501    0  0.00000000000E+00 -0.00000000000E+00 -0.18201751012E+04  0.18201751012E+04  0.00000000000E+00 0. -1.
         23    2    1    2    0    0 -0.79848257033E+03 -0.50847723200E+03 -0.11540319026E+04  0.14954613769E+04  0.92149807766E+02 0.  0.
         13    1    3    3    0    0 -0.38814665138E+03 -0.22512796592E+03 -0.61300461031E+03  0.75968090425E+03  0.00000000000E+00 0. -1.
        -13    1    3    3    0    0 -0.41033591895E+03 -0.28334926607E+03 -0.54102729224E+03  0.73578047264E+03  0.00000000000E+00 0.  1.
         22    1    1    2    0    0  0.79848257033E+03  0.50847723200E+03 -0.43232241231E+02  0.94762468164E+03  0.00000000000E+00 0.  1.
<mgrwt>
<rscale>  0 0.21296075E+04</rscale>
<asrwt>0</asrwt>
<pdfrwt beam="1">  1        2 0.28002694E+00 0.21296075E+04</pdfrwt>
<pdfrwt beam="2">  1       -2 0.95832454E-01 0.21296075E+04</pdfrwt>
<totfact> 0.70592543E+00</totfact>
</mgrwt>
</event>
<event>
 6    1  0.2003386E-005  0.3355827E+04  0.7818608E-02  0.8148834E-01
         -1   -1    0    0    0  501 -0.00000000000E+00  0.00000000000E+00  0.19970828741E+04  0.19970828741E+04  0.00000000000E+00 0. -1.
          1   -1    0    0  501    0  0.00000000000E+00 -0.00000000000E+00 -0.14097528355E+04  0.14097528355E+04  0.00000000000E+00 0.  1.
         23    2    1    2    0    0  0.45850910309E+03  0.12034415425E+04 -0.79652053391E+03  0.15164535919E+04  0.81758127501E+02 0.  0.
         13    1    3    3    0    0  0.99091968636E+02  0.30871476508E+03 -0.16463453577E+03  0.36363244464E+03  0.00000000000E+00 0. -1.
        -13    1    3    3    0    0  0.35941713446E+03  0.89472677745E+03 -0.63188599814E+03  0.11528211472E+04  0.00000000000E+00 0.  1.
         22    1    1    2    0    0 -0.45850910309E+03 -0.12034415425E+04  0.13838505725E+04  0.18903821177E+04  0.00000000000E+00 0. -1.
<mgrwt>
<rscale>  0 0.33558267E+04</rscale>
<asrwt>0</asrwt>
<pdfrwt beam="1">  1        1 0.21688505E+00 0.33558267E+04</pdfrwt>
<pdfrwt beam="2">  1       -1 0.30724352E+00 0.33558267E+04</pdfrwt>
<totfact> 0.18503014E-01</totfact>
</mgrwt>
</event>
<event>
 6    1  0.2003386E-005  0.3617203E+04  0.7818608E-02  0.8086562E-01
          2   -1    0    0  501    0  0.00000000000E+00  0.00000000000E+00  0.13406766674E+04  0.13406766674E+04  0.00000000000E+00 0. -1.
         -2   -1    0    0    0  501 -0.00000000000E+00 -0.00000000000E+00 -0.24398423295E+04  0.24398423295E+04  0.00000000000E+00 0.  1.
         23    2    1    2    0    0  0.13351596243E+04  0.16795961300E+03  0.71123838270E+03  0.15247653624E+04  0.90486016863E+02 0.  0.
         11    1    3    3    0    0  0.11690723405E+04  0.12875236642E+03  0.59319740714E+03  0.13172662878E+04  0.00000000000E+00 0.  1.
        -11    1    3    3    0    0  0.16608728385E+03  0.39207246573E+02  0.11804097556E+03  0.20749907458E+03  0.00000000000E+00 0. -1.
         22    1    1    2    0    0 -0.13351596243E+04 -0.16795961300E+03 -0.18104040448E+04  0.22557536345E+04  0.00000000000E+00 0.  1.
<mgrwt>
<rscale>  0 0.36172032E+04</rscale>
<asrwt>0</asrwt>
<pdfrwt beam="1">  1        2 0.20625795E+00 0.36172032E+04</pdfrwt>
<pdfrwt beam="2">  1       -2 0.37536035E+00 0.36172032E+04</pdfrwt>
<totfact> 0.13657870E-01</totfact>
</mgrwt>
</event>
<event>
 6    1  0.2003386E-005  0.3603230E+04  0.7818608E-02  0.8089752E-01
         -1   -1    0    0    0  501 -0.00000000000E+00  0.00000000000E+00  0.15473198115E+04  0.15473198115E+04  0.00000000000E+00 0.  1.
          1   -1    0    0  501    0  0.00000000000E+00 -0.00000000000E+00 -0.20977025598E+04  0.20977025598E+04  0.00000000000E+00 0. -1.
         23    2    1    2    0    0 -0.17127783767E+04  0.39349388836E+03 -0.67125076935E+03  0.18834729719E+04  0.91900122134E+02 0.  0.
         13    1    3    3    0    0 -0.24004803779E+03  0.25759879691E+02 -0.77967941885E+02  0.25370382696E+03  0.00000000000E+00 0.  1.
        -13    1    3    3    0    0 -0.14727303390E+04  0.36773400867E+03 -0.59328282746E+03  0.16297691449E+04  0.00000000000E+00 0. -1.
         22    1    1    2    0    0  0.17127783767E+04 -0.39349388836E+03  0.12086802114E+03  0.17615493994E+04  0.00000000000E+00 0.  1.
<mgrwt>
<rscale>  0 0.36032301E+04</rscale>
<asrwt>0</asrwt>
<pdfrwt beam="1">  1        1 0.32272347E+00 0.36032301E+04</pdfrwt>
<pdfrwt beam="2">  1       -1 0.23804920E+00 0.36032301E+04</pdfrwt>
<totfact> 0.17276347E-01</totfact>
</mgrwt>
</event>
<event>
 6    1  0.2003386E-005  0.1785767E+04  0.7818608E-02  0.8713905E-01
         -2   -1    0    0    0  501 -0.00000000000E+00  0.00000000000E+00  0.38271037108E+03  0.38271037108E+03  0.00000000000E+00 0.  1.
          2   -1    0    0  501    0  0.00000000000E+00 -0.00000000000E+00 -0.20831435689E+04  0.20831435689E+04  0.00000000000E+00 0. -1.
         23    2    1    2    0    0  0.23077505497E+03  0.51847846063E+03 -0.18000968373E+04  0.18896509539E+04  0.91406037436E+02 0.  0.
         13    1    3    3    0    0  0.17809967592E+03  0.34589024551E+03 -0.11039663398E+04  0.11705132361E+04  0.00000000000E+00 0. -1.
        -13    1    3    3    0    0  0.52675379053E+02  0.17258821512E+03 -0.69613049750E+03  0.71913771776E+03  0.00000000000E+00 0.  1.
         22    1    1    2    0    0 -0.23077505497E+03 -0.51847846063E+03  0.99663639507E+02  0.57620298609E+03  0.00000000000E+00 0.  1.
<mgrwt>
<rscale>  0 0.17857667E+04</rscale>
<asrwt>0</asrwt>
<pdfrwt beam="1">  1        2 0.32048363E+00 0.17857667E+04</pdfrwt>
<pdfrwt beam="2">  1       -2 0.58878518E-01 0.17857667E+04</pdfrwt>
<totfact> 0.15298355E+01</totfact>
</mgrwt>
</event>
<event>
 6    1  0.2087282E-005  0.2608527E+04  0.7818608E-02  0.8365311E-01
         -2   -1    0    0    0  501 -0.00000000000E+00  0.00000000000E+00  0.10686383358E+04  0.10686383358E+04  0.00000000000E+00 0.  1.
          2   -1    0    0  501    0  0.00000000000E+00 -0.00000000000E+00 -0.15918417933E+04  0.15918417933E+04  0.00000000000E+00 0. -1.
         23    2    1    2    0    0 -0.37707479846E+03 -0.12361627327E+04 -0.95383362032E+02  0.12991154683E+04  0.91210246390E+02 0.  0.
         13    1    3    3    0    0 -0.31742841812E+03 -0.92131136395E+03 -0.53373942028E+02  0.97592223444E+03  0.00000000000E+00 0.  1.
        -13    1    3    3    0    0 -0.59646380337E+02 -0.31485136872E+03 -0.42009420004E+02  0.32319323390E+03  0.00000000000E+00 0. -1.
         22    1    1    2    0    0  0.37707479846E+03  0.12361627327E+04 -0.42782009548E+03  0.13613646607E+04  0.00000000000E+00 0. -1.
<mgrwt>
<rscale>  0 0.26085269E+04</rscale>
<asrwt>0</asrwt>
<pdfrwt beam="1">  1        2 0.24489874E+00 0.26085269E+04</pdfrwt>
<pdfrwt beam="2">  1       -2 0.16440590E+00 0.26085269E+04</pdfrwt>
<totfact> 0.23297685E+00</totfact>
</mgrwt>
</event>
<event>
 6    1  0.2003386E-005  0.4412869E+04  0.7818608E-02  0.7926071E-01
          2   -1    0    0  501    0  0.00000000000E+00  0.00000000000E+00  0.18905192835E+04  0.18905192835E+04  0.00000000000E+00 0. -1.
         -2   -1    0    0    0  501 -0.00000000000E+00 -0.00000000000E+00 -0.25751404289E+04  0.25751404289E+04  0.00000000000E+00 0.  1.
         23    2    1    2    0    0 -0.50765358785E+03  0.71245357821E+03  0.17063160068E+04  0.19197055234E+04  0.91938650411E+02 0.  0.
         13    1    3    3    0    0 -0.18816231949E+03  0.21550330865E+03  0.62974161249E+03  0.69168000767E+03  0.00000000000E+00 0.  1.
        -13    1    3    3    0    0 -0.31949126836E+03  0.49695026956E+03  0.10765743943E+04  0.12280255158E+04  0.00000000000E+00 0. -1.
         22    1    1    2    0    0  0.50765358785E+03 -0.71245357821E+03 -0.23909371521E+04  0.25459541889E+04  0.00000000000E+00 0.  1.
<mgrwt>
<rscale>  0 0.44128687E+04</rscale>
<asrwt>0</asrwt>
<pdfrwt beam="1">  1        2 0.29084912E+00 0.44128687E+04</pdfrwt>
<pdfrwt beam="2">  1       -2 0.39617545E+00 0.44128687E+04</pdfrwt>
<totfact> 0.46109446E-02</totfact>
</mgrwt>
</event>
<event>
 6    1  0.2003386E-005  0.3734792E+04  0.7818608E-02  0.8060295E-01
          2   -1    0    0  501    0  0.00000000000E+00  0.00000000000E+00  0.28095151857E+04  0.28095151857E+04  0.00000000000E+00 0. -1.
         -2   -1    0    0    0  501 -0.00000000000E+00 -0.00000000000E+00 -0.12411993768E+04  0.12411993768E+04  0.00000000000E+00 0.  1.
         23    2    1    2    0    0  0.82901496181E+03  0.10048953974E+04 -0.66481934895E+03  0.14653764415E+04  0.90899845804E+02 0.  0.
         11    1    3    3    0    0  0.38787166469E+03  0.48221020294E+03 -0.36607851918E+03  0.71901640474E+03  0.00000000000E+00 0.  1.
        -11    1    3    3    0    0  0.44114329712E+03  0.52268519449E+03 -0.29874082976E+03  0.74636003678E+03  0.00000000000E+00 0. -1.
         22    1    1    2    0    0 -0.82901496181E+03 -0.10048953974E+04  0.22331351578E+04  0.25853381210E+04  0.00000000000E+00 0. -1.
<mgrwt>
<rscale>  0 0.37347924E+04</rscale>
<asrwt>0</asrwt>
<pdfrwt beam="1">  1        2 0.43223310E+00 0.37347924E+04</pdfrwt>
<pdfrwt beam="2">  1       -2 0.19095375E+00 0.37347924E+04</pdfrwt>
<totfact> 0.28084461E-01</totfact>
</mgrwt>
</event>
<event>
 6    1  0.2003386E-005  0.2126878E+04  0.7818608E-02  0.8549495E-01
          1   -1    0    0  501    0  0.00000000000E+00  0.00000000000E+00  0.31583076416E+04  0.31583076416E+04  0.00000000000E+00 0. -1.
         -1   -1    0    0    0  501 -0.00000000000E+00 -0.00000000000E+00 -0.35807245181E+03  0.35807245181E+03  0.00000000000E+00 0.  1.
         23    2    1    2    0    0 -0.27598379456E+03  0.29201745510E+03  0.30270613501E+04  0.30549785806E+04  0.91391804667E+02 0.  0.
         11    1    3    3    0    0 -0.79087049545E+02  0.14846072070E+03  0.11927828773E+04  0.12045855467E+04  0.00000000000E+00 0. -1.
        -11    1    3    3    0    0 -0.19689674501E+03  0.14355673440E+03  0.18342784728E+04  0.18503930339E+04  0.00000000000E+00 0.  1.
         22    1    1    2    0    0  0.27598379456E+03 -0.29201745510E+03 -0.22682616034E+03  0.46140151274E+03  0.00000000000E+00 0.  1.
<mgrwt>
<rscale>  0 0.21268784E+04</rscale>
<asrwt>0</asrwt>
<pdfrwt beam="1">  1        1 0.48589346E+00 0.21268784E+04</pdfrwt>
<pdfrwt beam="2">  1       -1 0.55088072E-01 0.21268784E+04</pdfrwt>
<totfact> 0.13983311E+00</totfact>
</mgrwt>
</event>
<event>
 6    1  0.2003386E-005  0.1942570E+04  0.7818608E-02  0.8633952E-01
          2   -1    0    0  501    0  0.00000000000E+00  0.00000000000E+00  0.94780005991E+03  0.94780005991E+03  0.00000000000E+00 0. -1.
         -2   -1    0    0    0  501 -0.00000000000E+00 -0.00000000000E+00 -0.99535166138E+03  0.99535166138E+03  0.00000000000E+00 0.  1.
         23    2    1    2    0    0 -0.23786985422E+03 -0.88397626757E+03 -0.34221051303E+03  0.98147610897E+03  0.90505293024E+02 0.  0.
         13    1    3    3    0    0 -0.92415790173E+02 -0.42880424406E+03 -0.12180761179E+03  0.45524812167E+03  0.00000000000E+00 0. -1.
        -13    1    3    3    0    0 -0.14545406405E+03 -0.45517202352E+03 -0.22040290124E+03  0.52622798729E+03  0.00000000000E+00 0.  1.
         22    1    1    2    0    0  0.23786985422E+03  0.88397626757E+03  0.29465891155E+03  0.96167561232E+03  0.00000000000E+00 0. -1.
<mgrwt>
<rscale>  0 0.19425698E+04</rscale>
<asrwt>0</asrwt>
<pdfrwt beam="1">  1        2 0.14581539E+00 0.19425698E+04</pdfrwt>
<pdfrwt beam="2">  1       -2 0.15313102E+00 0.19425698E+04</pdfrwt>
<totfact> 0.72089862E+00</totfact>
</mgrwt>
</event>
<event>
 6    1  0.2003386E-005  0.1907257E+04  0.7818608E-02  0.8651253E-01
         -2   -1    0    0    0  501 -0.00000000000E+00  0.00000000000E+00  0.45535575512E+03  0.45535575512E+03  0.00000000000E+00 0.  1.
          2   -1    0    0  501    0  0.00000000000E+00 -0.00000000000E+00 -0.19971357466E+04  0.19971357466E+04  0.00000000000E+00 0. -1.
         23    2    1    2    0    0  0.75389432890E+03 -0.47200894310E+03 -0.33833376165E+03  0.95601833806E+03  0.91390518706E+02 0.  0.
         13    1    3    3    0    0  0.15134323108E+03 -0.79573323116E+02 -0.10199553783E+03  0.19909740602E+03  0.00000000000E+00 0.  1.
        -13    1    3    3    0    0  0.60255109783E+03 -0.39243561999E+03 -0.23633822382E+03  0.75692093204E+03  0.00000000000E+00 0. -1.
         22    1    1    2    0    0 -0.75389432890E+03  0.47200894310E+03 -0.12034462299E+04  0.14964731637E+04  0.00000000000E+00 0.  1.
<mgrwt>
<rscale>  0 0.19072569E+04</rscale>
<asrwt>0</asrwt>
<pdfrwt beam="1">  1        2 0.30725165E+00 0.19072569E+04</pdfrwt>
<pdfrwt beam="2">  1       -2 0.70054732E-01 0.19072569E+04</pdfrwt>
<totfact> 0.11647301E+01</totfact>
</mgrwt>
</event>
<event>
 6    1  0.2003386E-005  0.2538258E+04  0.7818608E-02  0.8389481E-01
          2   -1    0    0  501    0  0.00000000000E+00  0.00000000000E+00  0.11028473476E+04  0.11028473476E+04  0.00000000000E+00 0. -1.
         -2   -1    0    0    0  501 -0.00000000000E+00 -0.00000000000E+00 -0.14604823035E+04  0.14604823035E+04  0.00000000000E+00 0.  1.
         23    2    1    2    0    0  0.12036538409E+04  0.18042136263E+03  0.17836382458E+03  0.12334314861E+04  0.90582228979E+02 0.  0.
         11    1    3    3    0    0  0.89040570159E+03  0.10192051465E+03  0.10578591459E+03  0.90244155737E+03  0.00000000000E+00 0. -1.
        -11    1    3    3    0    0  0.31324813929E+03  0.78500847976E+02  0.72577909982E+02  0.33098992873E+03  0.00000000000E+00 0.  1.
         22    1    1    2    0    0 -0.12036538409E+04 -0.18042136263E+03 -0.53599878049E+03  0.13298981651E+04  0.00000000000E+00 0.  1.
<mgrwt>
<rscale>  0 0.25382585E+04</rscale>
<asrwt>0</asrwt>
<pdfrwt beam="1">  1        2 0.16966882E+00 0.25382585E+04</pdfrwt>
<pdfrwt beam="2">  1       -2 0.22468959E+00 0.25382585E+04</pdfrwt>
<totfact> 0.17807565E+00</totfact>
</mgrwt>
</event>
<event>
 6    1  0.2003386E-005  0.5122370E+04  0.7818608E-02  0.7809903E-01
         -2   -1    0    0    0  501 -0.00000000000E+00  0.00000000000E+00  0.23000103042E+04  0.23000103042E+04  0.00000000000E+00 0.  1.
          2   -1    0    0  501    0  0.00000000000E+00 -0.00000000000E+00 -0.28520169778E+04  0.28520169778E+04  0.00000000000E+00 0. -1.
         23    2    1    2    0    0  0.64763228478E+03  0.18254877041E+04  0.14080061400E+04  0.23963997376E+04  0.91746813467E+02 0.  0.
         11    1    3    3    0    0  0.45804592496E+03  0.11663494339E+04  0.89313253587E+03  0.15387861444E+04  0.00000000000E+00 0.  1.
        -11    1    3    3    0    0  0.18958635982E+03  0.65913827016E+03  0.51487360412E+03  0.85761359320E+03  0.00000000000E+00 0. -1.
         22    1    1    2    0    0 -0.64763228478E+03 -0.18254877041E+04 -0.19600128136E+04  0.27556275444E+04  0.00000000000E+00 0. -1.
<mgrwt>
<rscale>  0 0.51223699E+04</rscale>
<asrwt>0</asrwt>
<pdfrwt beam="1">  1        2 0.43877184E+00 0.51223699E+04</pdfrwt>
<pdfrwt beam="2">  1       -2 0.35384774E+00 0.51223699E+04</pdfrwt>
<totfact> 0.22801785E-02</totfact>
</mgrwt>
</event>
<event>
 6    1  0.2003386E-005  0.3479094E+04  0.7818608E-02  0.8118762E-01
          2   -1    0    0  501    0  0.00000000000E+00  0.00000000000E+00  0.17474718659E+04  0.17474718659E+04  0.00000000000E+00 0. -1.
         -2   -1    0    0    0  501 -0.00000000000E+00 -0.00000000000E+00 -0.17316577958E+04  0.17316577958E+04  0.00000000000E+00 0.  1.
         23    2    1    2    0    0 -0.95240605341E+03 -0.14367370337E+04 -0.21694959157E+03  0.17397419772E+04  0.91347837926E+02 0.  0.
         13    1    3    3    0    0 -0.15784792682E+03 -0.27669474522E+03 -0.68754289552E+02  0.32588817464E+03  0.00000000000E+00 0. -1.
        -13    1    3    3    0    0 -0.79455812659E+03 -0.11600422885E+04 -0.14819530202E+03  0.14138538026E+04  0.00000000000E+00 0.  1.
         22    1    1    2    0    0  0.95240605341E+03  0.14367370337E+04  0.23276366170E+03  0.17393876844E+04  0.00000000000E+00 0. -1.
<mgrwt>
<rscale>  0 0.34790937E+04</rscale>
<asrwt>0</asrwt>
<pdfrwt beam="1">  1        2 0.26884183E+00 0.34790937E+04</pdfrwt>
<pdfrwt beam="2">  1       -2 0.26640889E+00 0.34790937E+04</pdfrwt>
<totfact> 0.38724808E-01</totfact>
</mgrwt>
</event>
<event>
 6    1  0.2003386E-005  0.1809381E+04  0.7818608E-02  0.8701327E-01
          2   -1    0    0  501    0  0.00000000000E+00  0.00000000000E+00  0.92433117928E+03  0.92433117928E+03  0.00000000000E+00 0.  1.
         -2   -1    0    0    0  501 -0.00000000000E+00 -0.00000000000E+00 -0.88546718322E+03  0.88546718322E+03  0.00000000000E+00 0. -1.
         23    2    1    2    0    0 -0.28932620163E+03  0.63288970202E+03 -0.55491313723E+03  0.89501406558E+03  0.94141180400E+02 0.  0.
         13    1    3    3    0    0 -0.87991589725E+02  0.23650082684E+03 -0.25483729179E+03  0.35863241104E+03  0.00000000000E+00 0.  1.
        -13    1    3    3    0    0 -0.20133461191E+03  0.39638887518E+03 -0.30007584544E+03  0.53638165455E+03  0.00000000000E+00 0. -1.
         22    1    1    2    0    0  0.28932620163E+03 -0.63288970202E+03  0.59377713329E+03  0.91478429692E+03  0.00000000000E+00 0. -1.
<mgrwt>
<rscale>  0 0.18093810E+04</rscale>
<asrwt>0</asrwt>
<pdfrwt beam="1">  1        2 0.14220480E+00 0.18093810E+04</pdfrwt>
<pdfrwt beam="2">  1       -2 0.13622572E+00 0.18093810E+04</pdfrwt>
<totfact> 0.10267171E+01</totfact>
</mgrwt>
</event>
<event>
 6    1  0.2003386E-005  0.4170145E+04  0.7818608E-02  0.7971076E-01
          2   -1    0    0  501    0  0.00000000000E+00  0.00000000000E+00  0.11151550847E+04  0.11151550847E+04  0.00000000000E+00 0. -1.
         -2   -1    0    0    0  501 -0.00000000000E+00 -0.00000000000E+00 -0.38985855442E+04  0.38985855442E+04  0.00000000000E+00 0.  1.
         23    2    1    2    0    0  0.92889582677E+03  0.19129249360E+03  0.83878736342E+03  0.12694246391E+04  0.91838979611E+02 0.  0.
         11    1    3    3    0    0  0.64797903922E+03  0.12461411400E+03  0.52686758062E+03  0.84439028902E+03  0.00000000000E+00 0.  1.
        -11    1    3    3    0    0  0.28091678755E+03  0.66678379601E+02  0.31191978280E+03  0.42503435007E+03  0.00000000000E+00 0. -1.
         22    1    1    2    0    0 -0.92889582677E+03 -0.19129249360E+03 -0.36222178229E+04  0.37443159898E+04  0.00000000000E+00 0.  1.
<mgrwt>
<rscale>  0 0.41701451E+04</rscale>
<asrwt>0</asrwt>
<pdfrwt beam="1">  1        2 0.17156232E+00 0.41701451E+04</pdfrwt>
<pdfrwt beam="2">  1       -2 0.59978239E+00 0.41701451E+04</pdfrwt>
<totfact> 0.84461164E-03</totfact>
</mgrwt>
</event>
<event>
 6    1  0.2003386E-005  0.4197812E+04  0.7818608E-02  0.7965789E-01
          2   -1    0    0  501    0  0.00000000000E+00  0.00000000000E+00  0.35446196401E+04  0.35446196401E+04  0.00000000000E+00 0. -1.
         -2   -1    0    0    0  501 -0.00000000000E+00 -0.00000000000E+00 -0.12428433301E+04  0.12428433301E+04  0.00000000000E+00 0.  1.
         23    2    1    2    0    0  0.24346851356E+03  0.19359092519E+04  0.20304816305E+04  0.28175334406E+04  0.92830430079E+02 0.  0.
         11    1    3    3    0    0  0.15665168142E+03  0.13046623761E+04  0.14285323595E+04  0.19409761377E+04  0.00000000000E+00 0. -1.
        -11    1    3    3    0    0  0.86816832139E+02  0.63124687572E+03  0.60194927093E+03  0.87655730287E+03  0.00000000000E+00 0.  1.
         22    1    1    2    0    0 -0.24346851356E+03 -0.19359092519E+04  0.27129467956E+03  0.19699295296E+04  0.00000000000E+00 0.  1.
<mgrwt>
<rscale>  0 0.41978122E+04</rscale>
<asrwt>0</asrwt>
<pdfrwt beam="1">  1        2 0.54532610E+00 0.41978122E+04</pdfrwt>
<pdfrwt beam="2">  1       -2 0.19120667E+00 0.41978122E+04</pdfrwt>
<totfact> 0.89144915E-02</totfact>
</mgrwt>
</event>
<event>
 6    1  0.2003386E-005  0.2081577E+04  0.7818608E-02  0.8569402E-01
          2   -1    0    0  501    0  0.00000000000E+00  0.00000000000E+00  0.17242260040E+04  0.17242260040E+04  0.00000000000E+00 0. -1.
         -2   -1    0    0    0  501 -0.00000000000E+00 -0.00000000000E+00 -0.62824776798E+03  0.62824776798E+03  0.00000000000E+00 0.  1.
         23    2    1    2    0    0 -0.26219300901E+03  0.95702408408E+03  0.89639980714E+03  0.13403118182E+04  0.90900408324E+02 0.  0.
         13    1    3    3    0    0 -0.14336507335E+03  0.67327528191E+03  0.63798733434E+03  0.93855260282E+03  0.00000000000E+00 0. -1.
        -13    1    3    3    0    0 -0.11882793567E+03  0.28374880218E+03  0.25841247280E+03  0.40175921536E+03  0.00000000000E+00 0.  1.
         22    1    1    2    0    0  0.26219300901E+03 -0.95702408408E+03  0.19957842892E+03  0.10121619538E+04  0.00000000000E+00 0.  1.
<mgrwt>
<rscale>  0 0.20815774E+04</rscale>
<asrwt>0</asrwt>
<pdfrwt beam="1">  1        2 0.26526554E+00 0.20815774E+04</pdfrwt>
<pdfrwt beam="2">  1       -2 0.96653504E-01 0.20815774E+04</pdfrwt>
<totfact> 0.78538707E+00</totfact>
</mgrwt>
</event>
<event>
 6    1  0.2003386E-005  0.1665380E+04  0.7818608E-02  0.8781360E-01
          1   -1    0    0  501    0  0.00000000000E+00  0.00000000000E+00  0.15354413954E+04  0.15354413954E+04  0.00000000000E+00 0. -1.
         -1   -1    0    0    0  501 -0.00000000000E+00 -0.00000000000E+00 -0.45157844902E+03  0.45157844902E+03  0.00000000000E+00 0.  1.
         23    2    1    2    0    0 -0.26174586203E+02  0.71220667228E+03  0.10524588988E+04  0.12736407957E+04  0.81041284457E+02 0.  0.
         13    1    3    3    0    0  0.25540675365E+02  0.30774660576E+03  0.48201935603E+03  0.57245345579E+03  0.00000000000E+00 0.  1.
        -13    1    3    3    0    0 -0.51715261568E+02  0.40446006652E+03  0.57043954276E+03  0.70118733990E+03  0.00000000000E+00 0. -1.
         22    1    1    2    0    0  0.26174586203E+02 -0.71220667228E+03  0.31404047622E+02  0.71337904876E+03  0.00000000000E+00 0.  1.
<mgrwt>
<rscale>  0 0.16653795E+04</rscale>
<asrwt>0</asrwt>
<pdfrwt beam="1">  1        1 0.23622175E+00 0.16653795E+04</pdfrwt>
<pdfrwt beam="2">  1       -1 0.69473608E-01 0.16653795E+04</pdfrwt>
<totfact> 0.12362946E+01</totfact>
</mgrwt>
</event>
<event>
 6    1  0.2003386E-005  0.1126313E+04  0.7818608E-02  0.9179918E-01
         -2   -1    0    0    0  501 -0.00000000000E+00  0.00000000000E+00  0.34354506760E+03  0.34354506760E+03  0.00000000000E+00 0.  1.
          2   -1    0    0  501    0  0.00000000000E+00 -0.00000000000E+00 -0.92315514951E+03  0.92315514951E+03  0.00000000000E+00 0. -1.
         23    2    1    2    0    0 -0.28038964124E+03 -0.29716587183E+03  0.13832596847E+03  0.44065053414E+03  0.90071712484E+02 0.  0.
         13    1    3    3    0    0 -0.77350235472E+02 -0.71565963830E+02  0.78235173451E+02  0.13124590840E+03  0.00000000000E+00 0. -1.
        -13    1    3    3    0    0 -0.20303940576E+03 -0.22559990800E+03  0.60090795020E+02  0.30940462574E+03  0.00000000000E+00 0.  1.
         22    1    1    2    0    0  0.28038964124E+03  0.29716587183E+03 -0.71793605038E+03  0.82604968297E+03  0.00000000000E+00 0. -1.
<mgrwt>
<rscale>  0 0.11263133E+04</rscale>
<asrwt>0</asrwt>
<pdfrwt beam="1">  1        2 0.14202387E+00 0.11263133E+04</pdfrwt>
<pdfrwt beam="2">  1       -2 0.52853088E-01 0.11263133E+04</pdfrwt>
<totfact> 0.94682933E+01</totfact>
</mgrwt>
</event>
<event>
 6    1  0.2003386E-005  0.2625232E+04  0.7818608E-02  0.8359681E-01
          2   -1    0    0  501    0  0.00000000000E+00  0.00000000000E+00  0.25609933176E+04  0.25609933176E+04  0.00000000000E+00 0. -1.
         -2   -1    0    0    0  501 -0.00000000000E+00 -0.00000000000E+00 -0.67277050076E+03  0.67277050076E+03  0.00000000000E+00 0.  1.
         23    2    1    2    0    0 -0.91624695410E+03  0.61281054396E+03  0.70930458560E+02  0.11082999257E+04  0.90842454821E+02 0.  0.
         13    1    3    3    0    0 -0.21188423811E+03  0.17737520791E+03  0.43716616503E+02  0.27976425308E+03  0.00000000000E+00 0. -1.
        -13    1    3    3    0    0 -0.70436271598E+03  0.43543533604E+03  0.27213842057E+02  0.82853567258E+03  0.00000000000E+00 0.  1.
         22    1    1    2    0    0  0.91624695410E+03 -0.61281054396E+03  0.18172923583E+04  0.21254638927E+04  0.00000000000E+00 0. -1.
<mgrwt>
<rscale>  0 0.26252320E+04</rscale>
<asrwt>0</asrwt>
<pdfrwt beam="1">  1        2 0.39399897E+00 0.26252320E+04</pdfrwt>
<pdfrwt beam="2">  1       -2 0.10350316E+00 0.26252320E+04</pdfrwt>
<totfact> 0.21538488E+00</totfact>
</mgrwt>
</event>
<event>
 6    1  0.2003386E-005  0.4605516E+04  0.7818608E-02  0.7892420E-01
          2   -1    0    0  501    0  0.00000000000E+00  0.00000000000E+00  0.31313142476E+04  0.31313142476E+04  0.00000000000E+00 0. -1.
         -2   -1    0    0    0  501 -0.00000000000E+00 -0.00000000000E+00 -0.16934405726E+04  0.16934405726E+04  0.00000000000E+00 0.  1.
         23    2    1    2    0    0 -0.16068206067E+04  0.13835657324E+04  0.16577327645E+04  0.26929798281E+04  0.89083322153E+02 0.  0.
         11    1    3    3    0    0 -0.76471500165E+03  0.65711208576E+03  0.73189030558E+03  0.12458927508E+04  0.00000000000E+00 0.  1.
        -11    1    3    3    0    0 -0.84210560503E+03  0.72645364660E+03  0.92584245890E+03  0.14470870773E+04  0.00000000000E+00 0. -1.
         22    1    1    2    0    0  0.16068206067E+04 -0.13835657324E+04 -0.21985908951E+03  0.21317749921E+04  0.00000000000E+00 0.  1.
<mgrwt>
<rscale>  0 0.46055161E+04</rscale>
<asrwt>0</asrwt>
<pdfrwt beam="1">  1        2 0.48174065E+00 0.46055161E+04</pdfrwt>
<pdfrwt beam="2">  1       -2 0.26052932E+00 0.46055161E+04</pdfrwt>
<totfact> 0.59729763E-02</totfact>
</mgrwt>
</event>
<event>
 6    1  0.2003386E-005  0.2083200E+04  0.7818608E-02  0.8568680E-01
          1   -1    0    0  501    0  0.00000000000E+00  0.00000000000E+00  0.13136329798E+04  0.13136329798E+04  0.00000000000E+00 0. -1.
         -1   -1    0    0    0  501 -0.00000000000E+00 -0.00000000000E+00 -0.82590094693E+03  0.82590094693E+03  0.00000000000E+00 0.  1.
         23    2    1    2    0    0  0.66258467548E+03 -0.34412851191E+03  0.98732778624E+03  0.12411805432E+04  0.90940081193E+02 0.  0.
         13    1    3    3    0    0  0.40701718547E+03 -0.18749528119E+03  0.65519494228E+03  0.79378705087E+03  0.00000000000E+00 0.  1.
        -13    1    3    3    0    0  0.25556749001E+03 -0.15663323072E+03  0.33213284396E+03  0.44739349230E+03  0.00000000000E+00 0. -1.
         22    1    1    2    0    0 -0.66258467548E+03  0.34412851191E+03 -0.49959575339E+03  0.89835338353E+03  0.00000000000E+00 0.  1.
<mgrwt>
<rscale>  0 0.20832002E+04</rscale>
<asrwt>0</asrwt>
<pdfrwt beam="1">  1        1 0.20209738E+00 0.20832002E+04</pdfrwt>
<pdfrwt beam="2">  1       -1 0.12706168E+00 0.20832002E+04</pdfrwt>
<totfact> 0.43765055E+00</totfact>
</mgrwt>
</event>
<event>
 6    1  0.2003386E-005  0.3193604E+04  0.7818608E-02  0.8190508E-01
         -2   -1    0    0    0  501 -0.00000000000E+00  0.00000000000E+00  0.15923355036E+04  0.15923355036E+04  0.00000000000E+00 0. -1.
          2   -1    0    0  501    0  0.00000000000E+00 -0.00000000000E+00 -0.16012811960E+04  0.16012811960E+04  0.00000000000E+00 0.  1.
         23    2    1    2    0    0 -0.89155626673E+03  0.32416656744E+03 -0.12872769642E+04  0.16017349889E+04  0.92284625577E+02 0.  0.
         11    1    3    3    0    0 -0.69243940082E+03  0.29092340821E+03 -0.10276316592E+04  0.12728454659E+04  0.00000000000E+00 0. -1.
        -11    1    3    3    0    0 -0.19911686592E+03  0.33243159229E+02 -0.25964530500E+03  0.32888952300E+03  0.00000000000E+00 0.  1.
         22    1    1    2    0    0  0.89155626673E+03 -0.32416656744E+03  0.12783312718E+04  0.15918817106E+04  0.00000000000E+00 0. -1.
<mgrwt>
<rscale>  0 0.31936042E+04</rscale>
<asrwt>0</asrwt>
<pdfrwt beam="1">  1        2 0.24635095E+00 0.31936042E+04</pdfrwt>
<pdfrwt beam="2">  1       -2 0.24497469E+00 0.31936042E+04</pdfrwt>
<totfact> 0.64735797E-01</totfact>
</mgrwt>
</event>
<event>
 6    1  0.2003386E-005  0.2365117E+04  0.7818608E-02  0.8452680E-01
          2   -1    0    0  501    0  0.00000000000E+00  0.00000000000E+00  0.49395127829E+04  0.49395127829E+04  0.00000000000E+00 0. -1.
         -2   -1    0    0    0  501 -0.00000000000E+00 -0.00000000000E+00 -0.28311382080E+03  0.28311382080E+03  0.00000000000E+00 0.  1.
         23    2    1    2    0    0 -0.73215982761E+03  0.60480916446E+03  0.78203138419E+03  0.12335695388E+04  0.90931746470E+02 0.  0.
         13    1    3    3    0    0 -0.22230971014E+03  0.19060745782E+03  0.29636195723E+03  0.41663319586E+03  0.00000000000E+00 0. -1.
        -13    1    3    3    0    0 -0.50985011747E+03  0.41420170663E+03  0.48566942697E+03  0.81693634290E+03  0.00000000000E+00 0.  1.
         22    1    1    2    0    0  0.73215982761E+03 -0.60480916446E+03  0.38743675780E+04  0.39890570650E+04  0.00000000000E+00 0. -1.
<mgrwt>
<rscale>  0 0.23651168E+04</rscale>
<asrwt>0</asrwt>
<pdfrwt beam="1">  1        2 0.75992498E+00 0.23651168E+04</pdfrwt>
<pdfrwt beam="2">  1       -2 0.43555976E-01 0.23651168E+04</pdfrwt>
<totfact> 0.18631532E-01</totfact>
</mgrwt>
</event>
<event>
 6    1  0.2003386E-005  0.2952798E+04  0.7818608E-02  0.8257340E-01
          2   -1    0    0  501    0  0.00000000000E+00  0.00000000000E+00  0.36867590148E+04  0.36867590148E+04  0.00000000000E+00 0. -1.
         -2   -1    0    0    0  501 -0.00000000000E+00 -0.00000000000E+00 -0.59123840695E+03  0.59123840695E+03  0.00000000000E+00 0.  1.
         23    2    1    2    0    0 -0.52018406518E+03 -0.11358276238E+04  0.26852840834E+04  0.29630868322E+04  0.91853764929E+02 0.  0.
         11    1    3    3    0    0 -0.37106937325E+03 -0.85096784803E+03  0.20777640165E+04  0.22757289088E+04  0.00000000000E+00 0. -1.
        -11    1    3    3    0    0 -0.14911469192E+03 -0.28485977574E+03  0.60752006685E+03  0.68735792336E+03  0.00000000000E+00 0.  1.
         22    1    1    2    0    0  0.52018406518E+03  0.11358276238E+04  0.41023652452E+03  0.13149105896E+04  0.00000000000E+00 0.  1.
<mgrwt>
<rscale>  0 0.29527977E+04</rscale>
<asrwt>0</asrwt>
<pdfrwt beam="1">  1        2 0.56719368E+00 0.29527977E+04</pdfrwt>
<pdfrwt beam="2">  1       -2 0.90959758E-01 0.29527977E+04</pdfrwt>
<totfact> 0.52870562E-01</totfact>
</mgrwt>
</event>
<event>
 6    1  0.2003386E-005  0.4191218E+03  0.7818608E-02  0.1037353E+00
          2   -1    0    0  501    0  0.00000000000E+00  0.00000000000E+00  0.65086195333E+03  0.65086195333E+03  0.00000000000E+00 0. -1.
         -2   -1    0    0    0  501 -0.00000000000E+00 -0.00000000000E+00 -0.67473238154E+02  0.67473238154E+02  0.00000000000E+00 0.  1.
         23    2    1    2    0    0 -0.10803714515E+03  0.11497560181E+03  0.94706571871E+02  0.20481630095E+03  0.89938693767E+02 0.  0.
         13    1    3    3    0    0 -0.42181377004E+02  0.85817828360E+02  0.13995051018E+02  0.96642794265E+02  0.00000000000E+00 0. -1.
        -13    1    3    3    0    0 -0.65855768149E+02  0.29157773451E+02  0.80711520853E+02  0.10817350669E+03  0.00000000000E+00 0.  1.
         22    1    1    2    0    0  0.10803714515E+03 -0.11497560181E+03  0.48868214330E+03  0.51351889053E+03  0.00000000000E+00 0. -1.
<mgrwt>
<rscale>  0 0.41912177E+03</rscale>
<asrwt>0</asrwt>
<pdfrwt beam="1">  1        2 0.10013260E+00 0.41912177E+03</pdfrwt>
<pdfrwt beam="2">  1       -2 0.10380499E-01 0.41912177E+03</pdfrwt>
<totfact> 0.28794203E+03</totfact>
</mgrwt>
</event>
<event>
 6    1  0.2003386E-005  0.2128126E+04  0.7818608E-02  0.8548954E-01
          2   -1    0    0  501    0  0.00000000000E+00  0.00000000000E+00  0.11368997578E+04  0.11368997578E+04  0.00000000000E+00 0. -1.
         -2   -1    0    0    0  501 -0.00000000000E+00 -0.00000000000E+00 -0.99589219990E+03  0.99589219990E+03  0.00000000000E+00 0.  1.
         23    2    1    2    0    0 -0.13096148833E+03  0.91209586085E+03  0.60002508974E+03  0.11033421701E+04  0.90906903413E+02 0.  0.
         13    1    3    3    0    0 -0.64565608935E+02  0.70808269917E+03  0.44787778383E+03  0.84032394704E+03  0.00000000000E+00 0.  1.
        -13    1    3    3    0    0 -0.66395879398E+02  0.20401316168E+03  0.15214730591E+03  0.26301822301E+03  0.00000000000E+00 0. -1.
         22    1    1    2    0    0  0.13096148833E+03 -0.91209586085E+03 -0.45901753182E+03  0.10294497877E+04  0.00000000000E+00 0. -1.
<mgrwt>
<rscale>  0 0.21281256E+04</rscale>
<asrwt>0</asrwt>
<pdfrwt beam="1">  1        2 0.17490766E+00 0.21281256E+04</pdfrwt>
<pdfrwt beam="2">  1       -2 0.15321418E+00 0.21281256E+04</pdfrwt>
<totfact> 0.53840240E+00</totfact>
</mgrwt>
</event>
<event>
 6    1  0.2003386E-005  0.1859937E+04  0.7818608E-02  0.8675060E-01
          2   -1    0    0  501    0  0.00000000000E+00  0.00000000000E+00  0.18186623900E+04  0.18186623900E+04  0.00000000000E+00 0. -1.
         -2   -1    0    0    0  501 -0.00000000000E+00 -0.00000000000E+00 -0.47553687690E+03  0.47553687690E+03  0.00000000000E+00 0.  1.
         23    2    1    2    0    0 -0.26608224078E+03 -0.65180830992E+03  0.14183614163E+04  0.15861637644E+04  0.92263473288E+02 0.  0.
         13    1    3    3    0    0 -0.14306836728E+03 -0.32205588263E+03  0.80985252413E+03  0.88320420068E+03  0.00000000000E+00 0. -1.
        -13    1    3    3    0    0 -0.12301387351E+03 -0.32975242729E+03  0.60850889212E+03  0.70295956368E+03  0.00000000000E+00 0.  1.
         22    1    1    2    0    0  0.26608224078E+03  0.65180830992E+03 -0.75235903146E+02  0.70803550254E+03  0.00000000000E+00 0.  1.
<mgrwt>
<rscale>  0 0.18599366E+04</rscale>
<asrwt>0</asrwt>
<pdfrwt beam="1">  1        2 0.27979421E+00 0.18599366E+04</pdfrwt>
<pdfrwt beam="2">  1       -2 0.73159520E-01 0.18599366E+04</pdfrwt>
<totfact> 0.13353881E+01</totfact>
</mgrwt>
</event>
<event>
 6    1  0.2003386E-005  0.1433027E+04  0.7818608E-02  0.8930253E-01
          2   -1    0    0  501    0  0.00000000000E+00  0.00000000000E+00  0.10563913761E+04  0.10563913761E+04  0.00000000000E+00 0. -1.
         -2   -1    0    0    0  501 -0.00000000000E+00 -0.00000000000E+00 -0.48598587657E+03  0.48598587657E+03  0.00000000000E+00 0.  1.
         23    2    1    2    0    0 -0.68575987855E+03  0.19594522545E+02  0.49766532655E+03  0.85249198027E+03  0.91767329855E+02 0.  0.
         11    1    3    3    0    0 -0.48309922908E+03 -0.92018788315E+01  0.30507180681E+03  0.57143533932E+03  0.00000000000E+00 0. -1.
        -11    1    3    3    0    0 -0.20266064947E+03  0.28796401377E+02  0.19259351974E+03  0.28105664095E+03  0.00000000000E+00 0.  1.
         22    1    1    2    0    0  0.68575987855E+03 -0.19594522545E+02  0.72740173013E+02  0.68988527243E+03  0.00000000000E+00 0.  1.
<mgrwt>
<rscale>  0 0.14330266E+04</rscale>
<asrwt>0</asrwt>
<pdfrwt beam="1">  1        2 0.16252175E+00 0.14330266E+04</pdfrwt>
<pdfrwt beam="2">  1       -2 0.74767058E-01 0.14330266E+04</pdfrwt>
<totfact> 0.36216237E+01</totfact>
</mgrwt>
</event>
<event>
 6    1  0.2003386E-005  0.2209107E+04  0.7818608E-02  0.8514647E-01
          2   -1    0    0  501    0  0.00000000000E+00  0.00000000000E+00  0.10489805783E+04  0.10489805783E+04  0.00000000000E+00 0. -1.
         -2   -1    0    0    0  501 -0.00000000000E+00 -0.00000000000E+00 -0.11630702043E+04  0.11630702043E+04  0.00000000000E+00 0.  1.
         23    2    1    2    0    0 -0.83722293655E+03  0.69425045414E+03 -0.23969113896E+03  0.11171984279E+04  0.88059903202E+02 0.  0.
         13    1    3    3    0    0 -0.58749833324E+03  0.52514286927E+03 -0.14614504603E+03  0.80142853654E+03  0.00000000000E+00 0.  1.
        -13    1    3    3    0    0 -0.24972460331E+03  0.16910758487E+03 -0.93546092925E+02  0.31576989131E+03  0.00000000000E+00 0. -1.
         22    1    1    2    0    0  0.83722293655E+03 -0.69425045414E+03  0.12560151303E+03  0.10948523547E+04  0.00000000000E+00 0.  1.
<mgrwt>
<rscale>  0 0.22091067E+04</rscale>
<asrwt>0</asrwt>
<pdfrwt beam="1">  1        2 0.16138163E+00 0.22091067E+04</pdfrwt>
<pdfrwt beam="2">  1       -2 0.17893388E+00 0.22091067E+04</pdfrwt>
<totfact> 0.39485877E+00</totfact>
</mgrwt>
</event>
<event>
 6    1  0.2003386E-005  0.3132567E+04  0.7818608E-02  0.8206857E-01
          2   -1    0    0  501    0  0.00000000000E+00  0.00000000000E+00  0.16854992743E+04  0.16854992743E+04  0.00000000000E+00 0. -1.
         -2   -1    0    0    0  501 -0.00000000000E+00 -0.00000000000E+00 -0.14554996573E+04  0.14554996573E+04  0.00000000000E+00 0.  1.
         23    2    1    2    0    0  0.60880838175E+03 -0.12815692473E+04  0.77671121705E+03  0.16204855463E+04  0.98110702332E+02 0.  0.
         11    1    3    3    0    0  0.34070391429E+03 -0.82539325038E+03  0.47671289195E+03  0.10122293991E+04  0.00000000000E+00 0.  1.
        -11    1    3    3    0    0  0.26810446746E+03 -0.45617599689E+03  0.29999832510E+03  0.60825614726E+03  0.00000000000E+00 0. -1.
         22    1    1    2    0    0 -0.60880838175E+03  0.12815692473E+04 -0.54671160004E+03  0.15205133853E+04  0.00000000000E+00 0.  1.
<mgrwt>
<rscale>  0 0.31325668E+04</rscale>
<asrwt>0</asrwt>
<pdfrwt beam="1">  1        2 0.25930758E+00 0.31325668E+04</pdfrwt>
<pdfrwt beam="2">  1       -2 0.22392302E+00 0.31325668E+04</pdfrwt>
<totfact> 0.78978949E-01</totfact>
</mgrwt>
</event>
<event>
 6    1  0.2003386E-005  0.3198421E+04  0.7818608E-02  0.8189234E-01
          2   -1    0    0  501    0  0.00000000000E+00  0.00000000000E+00  0.20021451695E+04  0.20021451695E+04  0.00000000000E+00 0. -1.
         -2   -1    0    0    0  501 -0.00000000000E+00 -0.00000000000E+00 -0.12773671719E+04  0.12773671719E+04  0.00000000000E+00 0.  1.
         23    2    1    2    0    0 -0.84292832675E+03  0.87815456198E+03  0.14240947954E+04  0.18756862901E+04  0.92029743281E+02 0.  0.
         13    1    3    3    0    0 -0.44198211335E+03  0.51895600603E+03  0.82808901596E+03  0.10725646568E+04  0.00000000000E+00 0. -1.
        -13    1    3    3    0    0 -0.40094621340E+03  0.35919855596E+03  0.59600577947E+03  0.80312163326E+03  0.00000000000E+00 0.  1.
         22    1    1    2    0    0  0.84292832675E+03 -0.87815456198E+03 -0.69931679775E+03  0.14038260513E+04  0.00000000000E+00 0.  1.
<mgrwt>
<rscale>  0 0.31984212E+04</rscale>
<asrwt>0</asrwt>
<pdfrwt beam="1">  1        2 0.30802233E+00 0.31984212E+04</pdfrwt>
<pdfrwt beam="2">  1       -2 0.19651803E+00 0.31984212E+04</pdfrwt>
<totfact> 0.78690886E-01</totfact>
</mgrwt>
</event>
<event>
 6    1  0.2003386E-005  0.3344487E+04  0.7818608E-02  0.8151667E-01
         -2   -1    0    0    0  501 -0.00000000000E+00  0.00000000000E+00  0.22234667097E+04  0.22234667097E+04  0.00000000000E+00 0.  1.
          2   -1    0    0  501    0  0.00000000000E+00 -0.00000000000E+00 -0.12576747442E+04  0.12576747442E+04  0.00000000000E+00 0. -1.
         23    2    1    2    0    0 -0.10751479841E+04  0.11529291859E+04  0.10600544338E+04  0.19018776038E+04  0.90742062089E+02 0.  0.
         11    1    3    3    0    0 -0.85233066795E+03  0.85776220935E+03  0.80929695840E+03  0.14550550306E+04  0.00000000000E+00 0. -1.
        -11    1    3    3    0    0 -0.22281731614E+03  0.29516697655E+03  0.25075747541E+03  0.44682257316E+03  0.00000000000E+00 0.  1.
         22    1    1    2    0    0  0.10751479841E+04 -0.11529291859E+04 -0.94262468367E+02  0.15792638501E+04  0.00000000000E+00 0. -1.
<mgrwt>
<rscale>  0 0.33444868E+04</rscale>
<asrwt>0</asrwt>
<pdfrwt beam="1">  1        2 0.19348842E+00 0.33444868E+04</pdfrwt>
<pdfrwt beam="2">  1       -2 0.34207180E+00 0.33444868E+04</pdfrwt>
<totfact> 0.25411526E-01</totfact>
</mgrwt>
</event>
<event>
 6    1  0.2003386E-005  0.3570118E+04  0.7818608E-02  0.8097371E-01
         -2   -1    0    0    0  501 -0.00000000000E+00  0.00000000000E+00  0.18713874629E+04  0.18713874629E+04  0.00000000000E+00 0.  1.
          2   -1    0    0  501    0  0.00000000000E+00 -0.00000000000E+00 -0.17027130710E+04  0.17027130710E+04  0.00000000000E+00 0. -1.
         23    2    1    2    0    0  0.15554014213E+04 -0.79572953889E+03  0.44476035062E+03  0.18052923088E+04  0.93858777428E+02 0.  0.
         13    1    3    3    0    0  0.44384441227E+03 -0.26241599118E+03  0.16120462536E+03  0.54022860528E+03  0.00000000000E+00 0. -1.
        -13    1    3    3    0    0  0.11115570091E+04 -0.53331354772E+03  0.28355572526E+03  0.12650637035E+04  0.00000000000E+00 0.  1.
         22    1    1    2    0    0 -0.15554014213E+04  0.79572953889E+03 -0.27608595876E+03  0.17688082251E+04  0.00000000000E+00 0. -1.
<mgrwt>
<rscale>  0 0.35701181E+04</rscale>
<asrwt>0</asrwt>
<pdfrwt beam="1">  1        2 0.26195586E+00 0.35701181E+04</pdfrwt>
<pdfrwt beam="2">  1       -2 0.28790576E+00 0.35701181E+04</pdfrwt>
<totfact> 0.30088351E-01</totfact>
</mgrwt>
</event>
<event>
 6    1  0.2003386E-005  0.1932505E+04  0.7818608E-02  0.8638844E-01
          1   -1    0    0  501    0  0.00000000000E+00  0.00000000000E+00  0.86994562695E+03  0.86994562695E+03  0.00000000000E+00 0. -1.
         -1   -1    0    0    0  501 -0.00000000000E+00 -0.00000000000E+00 -0.10732204280E+04  0.10732204280E+04  0.00000000000E+00 0.  1.
         23    2    1    2    0    0 -0.36013217144E+03 -0.29827302832E+03 -0.94975582185E+03  0.10623165248E+04  0.88421136824E+02 0.  0.
         13    1    3    3    0    0 -0.61326696198E+02 -0.99544681386E+02 -0.24397062488E+03  0.27053978092E+03  0.00000000000E+00 0. -1.
        -13    1    3    3    0    0 -0.29880547524E+03 -0.19872834693E+03 -0.70578519697E+03  0.79177674390E+03  0.00000000000E+00 0.  1.
         22    1    1    2    0    0  0.36013217144E+03  0.29827302832E+03  0.74648102080E+03  0.88084953014E+03  0.00000000000E+00 0. -1.
<mgrwt>
<rscale>  0 0.19325045E+04</rscale>
<asrwt>0</asrwt>
<pdfrwt beam="1">  1        1 0.13383779E+00 0.19325045E+04</pdfrwt>
<pdfrwt beam="2">  1       -1 0.16511083E+00 0.19325045E+04</pdfrwt>
<totfact> 0.48091119E+00</totfact>
</mgrwt>
</event>
<event>
 6    1  0.2003386E-005  0.1897776E+04  0.7818608E-02  0.8655964E-01
         -2   -1    0    0    0  501 -0.00000000000E+00  0.00000000000E+00  0.63053982822E+03  0.63053982822E+03  0.00000000000E+00 0.  1.
          2   -1    0    0  501    0  0.00000000000E+00 -0.00000000000E+00 -0.14279647300E+04  0.14279647300E+04  0.00000000000E+00 0. -1.
         23    2    1    2    0    0 -0.41377413538E+03  0.84853784700E+03 -0.47729700696E+03  0.10616558325E+04  0.89861899300E+02 0.  0.
         11    1    3    3    0    0 -0.23420942999E+03  0.38290539384E+03 -0.21055459881E+03  0.49578607968E+03  0.00000000000E+00 0. -1.
        -11    1    3    3    0    0 -0.17956470540E+03  0.46563245316E+03 -0.26674240815E+03  0.56586975282E+03  0.00000000000E+00 0.  1.
         22    1    1    2    0    0  0.41377413538E+03 -0.84853784700E+03 -0.32012789484E+03  0.99684872572E+03  0.00000000000E+00 0.  1.
<mgrwt>
<rscale>  0 0.18977762E+04</rscale>
<asrwt>0</asrwt>
<pdfrwt beam="1">  1        2 0.21968688E+00 0.18977762E+04</pdfrwt>
<pdfrwt beam="2">  1       -2 0.97006128E-01 0.18977762E+04</pdfrwt>
<totfact> 0.11595732E+01</totfact>
</mgrwt>
</event>
<event>
 6    1  0.2003386E-005  0.1702097E+04  0.7818608E-02  0.8760169E-01
          2   -1    0    0  501    0  0.00000000000E+00  0.00000000000E+00  0.74933083360E+03  0.74933083360E+03  0.00000000000E+00 0. -1.
         -2   -1    0    0    0  501 -0.00000000000E+00 -0.00000000000E+00 -0.96657431171E+03  0.96657431171E+03  0.00000000000E+00 0.  1.
         23    2    1    2    0    0  0.54839564485E+01 -0.73936932918E+03 -0.52914710300E+03  0.91342090874E+03  0.87430093200E+02 0.  0.
         11    1    3    3    0    0  0.72981829360E+01 -0.21104990172E+03 -0.10463049805E+03  0.23567533942E+03  0.00000000000E+00 0.  1.
        -11    1    3    3    0    0 -0.18142264876E+01 -0.52831942747E+03 -0.42451660495E+03  0.67774556932E+03  0.00000000000E+00 0. -1.
         22    1    1    2    0    0 -0.54839564485E+01  0.73936932918E+03  0.31190362489E+03  0.80248423656E+03  0.00000000000E+00 0. -1.
<mgrwt>
<rscale>  0 0.17020975E+04</rscale>
<asrwt>0</asrwt>
<pdfrwt beam="1">  1        2 0.11528167E+00 0.17020975E+04</pdfrwt>
<pdfrwt beam="2">  1       -2 0.14870374E+00 0.17020975E+04</pdfrwt>
<totfact> 0.10945928E+01</totfact>
</mgrwt>
</event>
<event>
 6    1  0.2003386E-005  0.2262821E+04  0.7818608E-02  0.8492726E-01
         -2   -1    0    0    0  501 -0.00000000000E+00  0.00000000000E+00  0.78441075053E+03  0.78441075053E+03  0.00000000000E+00 0.  1.
          2   -1    0    0  501    0  0.00000000000E+00 -0.00000000000E+00 -0.16319125993E+04  0.16319125993E+04  0.00000000000E+00 0. -1.
         23    2    1    2    0    0 -0.16441601590E+03  0.10828540378E+04 -0.71932572732E+03  0.13135837561E+04  0.92017872051E+02 0.  0.
         13    1    3    3    0    0 -0.10800472335E+03  0.51672127252E+03 -0.38868908220E+03  0.65554946141E+03  0.00000000000E+00 0.  1.
        -13    1    3    3    0    0 -0.56411292551E+02  0.56613276531E+03 -0.33063664512E+03  0.65803429468E+03  0.00000000000E+00 0. -1.
         22    1    1    2    0    0  0.16441601590E+03 -0.10828540378E+04 -0.12817612147E+03  0.11027395938E+04  0.00000000000E+00 0.  1.
<mgrwt>
<rscale>  0 0.22628211E+04</rscale>
<asrwt>0</asrwt>
<pdfrwt beam="1">  1        2 0.25106348E+00 0.22628211E+04</pdfrwt>
<pdfrwt beam="2">  1       -2 0.12067858E+00 0.22628211E+04</pdfrwt>
<totfact> 0.50967914E+00</totfact>
</mgrwt>
</event>
<event>
 6    1  0.2003386E-005  0.2093049E+04  0.7818608E-02  0.8564312E-01
         -2   -1    0    0    0  501 -0.00000000000E+00  0.00000000000E+00  0.49643720051E+03  0.49643720051E+03  0.00000000000E+00 0.  1.
          2   -1    0    0  501    0  0.00000000000E+00 -0.00000000000E+00 -0.22061466009E+04  0.22061466009E+04  0.00000000000E+00 0. -1.
         23    2    1    2    0    0 -0.23161422659E+03 -0.92814283220E+03 -0.13979082586E+04  0.16964455311E+04  0.93196962042E+02 0.  0.
         11    1    3    3    0    0 -0.11712117019E+03 -0.64751799909E+03 -0.95112955868E+03  0.11565657634E+04  0.00000000000E+00 0.  1.
        -11    1    3    3    0    0 -0.11449305639E+03 -0.28062483311E+03 -0.44677869989E+03  0.53987976772E+03  0.00000000000E+00 0. -1.
         22    1    1    2    0    0  0.23161422659E+03  0.92814283220E+03 -0.31180114182E+03  0.10061382703E+04  0.00000000000E+00 0.  1.
<mgrwt>
<rscale>  0 0.20930487E+04</rscale>
<asrwt>0</asrwt>
<pdfrwt beam="1">  1        2 0.33940718E+00 0.20930487E+04</pdfrwt>
<pdfrwt beam="2">  1       -2 0.76374952E-01 0.20930487E+04</pdfrwt>
<totfact> 0.72436921E+00</totfact>
</mgrwt>
</event>
<event>
 6    1  0.2003386E-005  0.1753732E+04  0.7818608E-02  0.8731299E-01
          2   -1    0    0  501    0  0.00000000000E+00  0.00000000000E+00  0.15798571335E+04  0.15798571335E+04  0.00000000000E+00 0. -1.
         -2   -1    0    0    0  501 -0.00000000000E+00 -0.00000000000E+00 -0.48668554718E+03  0.48668554718E+03  0.00000000000E+00 0.  1.
         23    2    1    2    0    0  0.31080056876E+03 -0.75904627746E+03  0.19077244522E+03  0.84708687797E+03  0.91726812386E+02 0.  0.
         11    1    3    3    0    0  0.89389448057E+02 -0.16026224893E+03  0.10931666807E+02  0.18383134443E+03  0.00000000000E+00 0.  1.
        -11    1    3    3    0    0  0.22141112070E+03 -0.59878402853E+03  0.17984077841E+03  0.66325553354E+03  0.00000000000E+00 0. -1.
         22    1    1    2    0    0 -0.31080056876E+03  0.75904627746E+03  0.90239914106E+03  0.12194558027E+04  0.00000000000E+00 0. -1.
<mgrwt>
<rscale>  0 0.17537316E+04</rscale>
<asrwt>0</asrwt>
<pdfrwt beam="1">  1        2 0.24305494E+00 0.17537316E+04</pdfrwt>
<pdfrwt beam="2">  1       -2 0.74874700E-01 0.17537316E+04</pdfrwt>
<totfact> 0.17380868E+01</totfact>
</mgrwt>
</event>
<event>
 6    1  0.2003386E-005  0.7998861E+03  0.7818608E-02  0.9560182E-01
          2   -1    0    0  501    0  0.00000000000E+00  0.00000000000E+00  0.14269816227E+04  0.14269816227E+04  0.00000000000E+00 0. -1.
         -2   -1    0    0    0  501 -0.00000000000E+00 -0.00000000000E+00 -0.11209286535E+03  0.11209286535E+03  0.00000000000E+00 0.  1.
         23    2    1    2    0    0  0.19538788724E+03 -0.16152042534E+03  0.12481161351E+04  0.12769221328E+04  0.92037884964E+02 0.  0.
         13    1    3    3    0    0  0.26294449848E+02 -0.53771402163E+01  0.30294028065E+03  0.30412682449E+03  0.00000000000E+00 0. -1.
        -13    1    3    3    0    0  0.16909343739E+03 -0.15614328512E+03  0.94517585441E+03  0.97279530829E+03  0.00000000000E+00 0.  1.
         22    1    1    2    0    0 -0.19538788724E+03  0.16152042534E+03  0.66772622245E+02  0.26215235525E+03  0.00000000000E+00 0.  1.
<mgrwt>
<rscale>  0 0.79988614E+03</rscale>
<asrwt>0</asrwt>
<pdfrwt beam="1">  1        2 0.21953562E+00 0.79988614E+03</pdfrwt>
<pdfrwt beam="2">  1       -2 0.17245057E-01 0.79988614E+03</pdfrwt>
<totfact> 0.38894397E+02</totfact>
</mgrwt>
</event>
<event>
 6    1  0.2003386E-005  0.2924787E+04  0.7818608E-02  0.8265541E-01
          2   -1    0    0  501    0  0.00000000000E+00  0.00000000000E+00  0.87342553444E+03  0.87342553444E+03  0.00000000000E+00 0. -1.
         -2   -1    0    0    0  501 -0.00000000000E+00 -0.00000000000E+00 -0.24485144642E+04  0.24485144642E+04  0.00000000000E+00 0.  1.
         23    2    1    2    0    0  0.11882594779E+04  0.82178058104E+03 -0.10339229413E+04  0.17791682925E+04  0.95703993840E+02 0.  0.
         13    1    3    3    0    0  0.27830536204E+03  0.15376212859E+03 -0.25664437619E+03  0.40861106514E+03  0.00000000000E+00 0. -1.
        -13    1    3    3    0    0  0.90995411583E+03  0.66801845246E+03 -0.77727856516E+03  0.13705572274E+04  0.00000000000E+00 0.  1.
         22    1    1    2    0    0 -0.11882594779E+04 -0.82178058104E+03 -0.54116598842E+03  0.15427717061E+04  0.00000000000E+00 0. -1.
<mgrwt>
<rscale>  0 0.29247872E+04</rscale>
<asrwt>0</asrwt>
<pdfrwt beam="1">  1        2 0.13437316E+00 0.29247872E+04</pdfrwt>
<pdfrwt beam="2">  1       -2 0.37669453E+00 0.29247872E+04</pdfrwt>
<totfact> 0.27681009E-01</totfact>
</mgrwt>
</event>
<event>
 6    1  0.2003386E-005  0.1017347E+04  0.7818608E-02  0.9289721E-01
         -2   -1    0    0    0  501 -0.00000000000E+00  0.00000000000E+00  0.17213165844E+03  0.17213165844E+03  0.00000000000E+00 0.  1.
          2   -1    0    0  501    0  0.00000000000E+00 -0.00000000000E+00 -0.15032019698E+04  0.15032019698E+04  0.00000000000E+00 0. -1.
         23    2    1    2    0    0 -0.31680362250E+03 -0.17673943099E+03 -0.12478727801E+04  0.13031465908E+04  0.96970098046E+02 0.  0.
         13    1    3    3    0    0 -0.21937197819E+03 -0.68375103050E+02 -0.76344515134E+03  0.79727518376E+03  0.00000000000E+00 0.  1.
        -13    1    3    3    0    0 -0.97431644303E+02 -0.10836432794E+03 -0.48442762879E+03  0.50587140700E+03  0.00000000000E+00 0. -1.
         22    1    1    2    0    0  0.31680362250E+03  0.17673943099E+03 -0.83197531273E+02  0.37218703753E+03  0.00000000000E+00 0.  1.
<mgrwt>
<rscale>  0 0.10173468E+04</rscale>
<asrwt>0</asrwt>
<pdfrwt beam="1">  1        2 0.23126185E+00 0.10173468E+04</pdfrwt>
<pdfrwt beam="2">  1       -2 0.26481793E-01 0.10173468E+04</pdfrwt>
<totfact> 0.16272478E+02</totfact>
</mgrwt>
</event>
<event>
 6    1  0.2003386E-005  0.2671570E+04  0.7818608E-02  0.8344289E-01
          1   -1    0    0  501    0  0.00000000000E+00  0.00000000000E+00  0.11510126699E+04  0.11510126699E+04  0.00000000000E+00 0. -1.
         -1   -1    0    0    0  501 -0.00000000000E+00 -0.00000000000E+00 -0.15502191470E+04  0.15502191470E+04  0.00000000000E+00 0.  1.
         23    2    1    2    0    0 -0.87269197889E+03 -0.71058372837E+03 -0.92457102836E+03  0.14592461339E+04  0.89706006954E+02 0.  0.
         13    1    3    3    0    0 -0.42483182625E+03 -0.37950614051E+03 -0.42028508354E+03  0.70791704508E+03  0.00000000000E+00 0. -1.
        -13    1    3    3    0    0 -0.44786015265E+03 -0.33107758787E+03 -0.50428594481E+03  0.75132908879E+03  0.00000000000E+00 0.  1.
         22    1    1    2    0    0  0.87269197889E+03  0.71058372837E+03  0.52536455121E+03  0.12419856830E+04  0.00000000000E+00 0. -1.
<mgrwt>
<rscale>  0 0.26715702E+04</rscale>
<asrwt>0</asrwt>
<pdfrwt beam="1">  1        1 0.17707887E+00 0.26715702E+04</pdfrwt>
<pdfrwt beam="2">  1       -1 0.23849525E+00 0.26715702E+04</pdfrwt>
<totfact> 0.84301749E-01</totfact>
</mgrwt>
</event>
<event>
 6    1  0.2003386E-005  0.2253884E+04  0.7818608E-02  0.8496329E-01
          2   -1    0    0  501    0  0.00000000000E+00  0.00000000000E+00  0.16230095867E+04  0.16230095867E+04  0.00000000000E+00 0. -1.
         -2   -1    0    0    0  501 -0.00000000000E+00 -0.00000000000E+00 -0.78249566053E+03  0.78249566053E+03  0.00000000000E+00 0.  1.
         23    2    1    2    0    0 -0.48031496002E+03 -0.10171829629E+04  0.44067245230E+03  0.12116724093E+04  0.92704781317E+02 0.  0.
         13    1    3    3    0    0 -0.25494502805E+03 -0.43277218311E+03  0.19026336900E+03  0.53711160794E+03  0.00000000000E+00 0.  1.
        -13    1    3    3    0    0 -0.22536993197E+03 -0.58441077975E+03  0.25040908330E+03  0.67456080135E+03  0.00000000000E+00 0. -1.
         22    1    1    2    0    0  0.48031496002E+03  0.10171829629E+04  0.39984147391E+03  0.11938328380E+04  0.00000000000E+00 0.  1.
<mgrwt>
<rscale>  0 0.22538837E+04</rscale>
<asrwt>0</asrwt>
<pdfrwt beam="1">  1        2 0.24969378E+00 0.22538837E+04</pdfrwt>
<pdfrwt beam="2">  1       -2 0.12038395E+00 0.22538837E+04</pdfrwt>
<totfact> 0.51907879E+00</totfact>
</mgrwt>
</event>
<event>
 6    1  0.2003386E-005  0.1671243E+04  0.7818608E-02  0.8777938E-01
          2   -1    0    0  501    0  0.00000000000E+00  0.00000000000E+00  0.14013702012E+04  0.14013702012E+04  0.00000000000E+00 0. -1.
         -2   -1    0    0    0  501 -0.00000000000E+00 -0.00000000000E+00 -0.49827157705E+03  0.49827157705E+03  0.00000000000E+00 0.  1.
         23    2    1    2    0    0 -0.32486394734E+03 -0.45904212204E+03 -0.24581778103E+03  0.62047597188E+03  0.91147112495E+02 0.  0.
         13    1    3    3    0    0 -0.24135277090E+03 -0.39660748171E+03 -0.18506027849E+03  0.49979591959E+03  0.00000000000E+00 0.  1.
        -13    1    3    3    0    0 -0.83511176440E+02 -0.62434640333E+02 -0.60757502547E+02  0.12068005229E+03  0.00000000000E+00 0. -1.
         22    1    1    2    0    0  0.32486394734E+03  0.45904212204E+03  0.11489164052E+04  0.12791658064E+04  0.00000000000E+00 0. -1.
<mgrwt>
<rscale>  0 0.16712426E+04</rscale>
<asrwt>0</asrwt>
<pdfrwt beam="1">  1        2 0.21559541E+00 0.16712426E+04</pdfrwt>
<pdfrwt beam="2">  1       -2 0.76657167E-01 0.16712426E+04</pdfrwt>
<totfact> 0.20953096E+01</totfact>
</mgrwt>
</event>
<event>
 6    1  0.2003386E-005  0.1081338E+04  0.7818608E-02  0.9223574E-01
         -2   -1    0    0    0  501 -0.00000000000E+00  0.00000000000E+00  0.11340719285E+04  0.11340719285E+04  0.00000000000E+00 0.  1.
          2   -1    0    0  501    0  0.00000000000E+00 -0.00000000000E+00 -0.25776405350E+03  0.25776405350E+03  0.00000000000E+00 0. -1.
         23    2    1    2    0    0 -0.31642144602E+03  0.39483854171E+03  0.21016339759E+03  0.55531433236E+03  0.90472915964E+02 0.  0.
         13    1    3    3    0    0 -0.66758240899E+02  0.56552940016E+02  0.53862967656E+01  0.87657914333E+02  0.00000000000E+00 0. -1.
        -13    1    3    3    0    0 -0.24966320512E+03  0.33828560169E+03  0.20477710083E+03  0.46765641803E+03  0.00000000000E+00 0.  1.
         22    1    1    2    0    0  0.31642144602E+03 -0.39483854171E+03  0.66614447736E+03  0.83652164959E+03  0.00000000000E+00 0.  1.
<mgrwt>
<rscale>  0 0.10813380E+04</rscale>
<asrwt>0</asrwt>
<pdfrwt beam="1">  1        2 0.39656009E-01 0.10813380E+04</pdfrwt>
<pdfrwt beam="2">  1       -2 0.17447260E+00 0.10813380E+04</pdfrwt>
<totfact> 0.25593855E+01</totfact>
</mgrwt>
</event>
<event>
 6    1  0.2003386E-005  0.3541942E+04  0.7818608E-02  0.8103922E-01
         -2   -1    0    0    0  501 -0.00000000000E+00  0.00000000000E+00  0.76546325826E+03  0.76546325826E+03  0.00000000000E+00 0.  1.
          2   -1    0    0  501    0  0.00000000000E+00 -0.00000000000E+00 -0.40973071416E+04  0.40973071416E+04  0.00000000000E+00 0. -1.
         23    2    1    2    0    0  0.15597263089E+04  0.20239347394E+03 -0.27811002791E+04  0.31963287434E+04  0.91046122603E+02 0.  0.
         13    1    3    3    0    0  0.71581302605E+03  0.53685494869E+02 -0.13151983691E+04  0.14983381363E+04  0.00000000000E+00 0.  1.
        -13    1    3    3    0    0  0.84391328280E+03  0.14870797907E+03 -0.14659019100E+04  0.16979906071E+04  0.00000000000E+00 0. -1.
         22    1    1    2    0    0 -0.15597263089E+04 -0.20239347394E+03 -0.55074360420E+03  0.16664416565E+04  0.00000000000E+00 0.  1.
<mgrwt>
<rscale>  0 0.35419419E+04</rscale>
<asrwt>0</asrwt>
<pdfrwt beam="1">  1        2 0.63035495E+00 0.35419419E+04</pdfrwt>
<pdfrwt beam="2">  1       -2 0.11776358E+00 0.35419419E+04</pdfrwt>
<totfact> 0.12919722E-01</totfact>
</mgrwt>
</event>
<event>
 6    1  0.2003386E-005  0.1955032E+04  0.7818608E-02  0.8627938E-01
          2   -1    0    0  501    0  0.00000000000E+00  0.00000000000E+00  0.17566400011E+04  0.17566400011E+04  0.00000000000E+00 0. -1.
         -2   -1    0    0    0  501 -0.00000000000E+00 -0.00000000000E+00 -0.54395769508E+03  0.54395769508E+03  0.00000000000E+00 0.  1.
         23    2    1    2    0    0 -0.67848044954E+03 -0.31804163508E+03 -0.12718613751E+03  0.76543202173E+03  0.90684421239E+02 0.  0.
         13    1    3    3    0    0 -0.32138699033E+03 -0.17466858669E+03 -0.10233138989E+03  0.37982946975E+03  0.00000000000E+00 0.  1.
        -13    1    3    3    0    0 -0.35709345921E+03 -0.14337304839E+03 -0.24854747625E+02  0.38560255198E+03  0.00000000000E+00 0. -1.
         22    1    1    2    0    0  0.67848044954E+03  0.31804163508E+03  0.13398684436E+04  0.15351656745E+04  0.00000000000E+00 0.  1.
<mgrwt>
<rscale>  0 0.19550323E+04</rscale>
<asrwt>0</asrwt>
<pdfrwt beam="1">  1        2 0.27025230E+00 0.19550323E+04</pdfrwt>
<pdfrwt beam="2">  1       -2 0.83685800E-01 0.19550323E+04</pdfrwt>
<totfact> 0.10616499E+01</totfact>
</mgrwt>
</event>
<event>
 6    1  0.2003386E-005  0.3467316E+04  0.7818608E-02  0.8121580E-01
          2   -1    0    0  501    0  0.00000000000E+00  0.00000000000E+00  0.32454912683E+04  0.32454912683E+04  0.00000000000E+00 0. -1.
         -2   -1    0    0    0  501 -0.00000000000E+00 -0.00000000000E+00 -0.92607561347E+03  0.92607561347E+03  0.00000000000E+00 0.  1.
         23    2    1    2    0    0 -0.11074683923E+04 -0.13018688383E+04  0.15009412960E+04  0.22765077829E+04  0.91182232893E+02 0.  0.
         13    1    3    3    0    0 -0.23763194883E+03 -0.31988592912E+03  0.38783826075E+03  0.55607055960E+03  0.00000000000E+00 0.  1.
        -13    1    3    3    0    0 -0.86983644348E+03 -0.98198290916E+03  0.11131030352E+04  0.17204372233E+04  0.00000000000E+00 0. -1.
         22    1    1    2    0    0  0.11074683923E+04  0.13018688383E+04  0.81847435885E+03  0.18950590989E+04  0.00000000000E+00 0.  1.
<mgrwt>
<rscale>  0 0.34673161E+04</rscale>
<asrwt>0</asrwt>
<pdfrwt beam="1">  1        2 0.49930634E+00 0.34673161E+04</pdfrwt>
<pdfrwt beam="2">  1       -2 0.14247317E+00 0.34673161E+04</pdfrwt>
<totfact> 0.34186226E-01</totfact>
</mgrwt>
</event>
<event>
 6    1  0.2003386E-005  0.1679905E+04  0.7818608E-02  0.8772909E-01
         -2   -1    0    0    0  501 -0.00000000000E+00  0.00000000000E+00  0.22438402789E+03  0.22438402789E+03  0.00000000000E+00 0. -1.
          2   -1    0    0  501    0  0.00000000000E+00 -0.00000000000E+00 -0.31442546758E+04  0.31442546758E+04  0.00000000000E+00 0.  1.
         23    2    1    2    0    0 -0.55087260586E+03 -0.41217553032E+03 -0.24219148749E+04  0.25193394351E+04  0.89723088889E+02 0.  0.
         13    1    3    3    0    0 -0.33689138310E+03 -0.30504455313E+03 -0.15716730917E+04  0.16360636572E+04  0.00000000000E+00 0.  1.
        -13    1    3    3    0    0 -0.21398122276E+03 -0.10713097719E+03 -0.85024178320E+03  0.88327577792E+03  0.00000000000E+00 0. -1.
         22    1    1    2    0    0  0.55087260586E+03  0.41217553032E+03 -0.49795577307E+03  0.84929926858E+03  0.00000000000E+00 0. -1.
<mgrwt>
<rscale>  0 0.16799054E+04</rscale>
<asrwt>0</asrwt>
<pdfrwt beam="1">  1        2 0.48373148E+00 0.16799054E+04</pdfrwt>
<pdfrwt beam="2">  1       -2 0.34520620E-01 0.16799054E+04</pdfrwt>
<totfact> 0.10633345E+01</totfact>
</mgrwt>
</event>
<event>
 6    1  0.2003386E-005  0.3386558E+04  0.7818608E-02  0.8141213E-01
          2   -1    0    0  501    0  0.00000000000E+00  0.00000000000E+00  0.20761956800E+04  0.20761956800E+04  0.00000000000E+00 0. -1.
         -2   -1    0    0    0  501 -0.00000000000E+00 -0.00000000000E+00 -0.13809840467E+04  0.13809840467E+04  0.00000000000E+00 0.  1.
         23    2    1    2    0    0 -0.10882698021E+04  0.10892386586E+04 -0.36845223371E+03  0.15857757513E+04  0.90308732728E+02 0.  0.
         13    1    3    3    0    0 -0.51429933420E+03  0.56940394818E+03 -0.20742610234E+03  0.79482718204E+03  0.00000000000E+00 0. -1.
        -13    1    3    3    0    0 -0.57397046794E+03  0.51983471038E+03 -0.16102613137E+03  0.79094856922E+03  0.00000000000E+00 0.  1.
         22    1    1    2    0    0  0.10882698021E+04 -0.10892386586E+04  0.10636638670E+04  0.18714039755E+04  0.00000000000E+00 0. -1.
<mgrwt>
<rscale>  0 0.33865576E+04</rscale>
<asrwt>0</asrwt>
<pdfrwt beam="1">  1        2 0.31941472E+00 0.33865576E+04</pdfrwt>
<pdfrwt beam="2">  1       -2 0.21245908E+00 0.33865576E+04</pdfrwt>
<totfact> 0.55482365E-01</totfact>
</mgrwt>
</event>
<event>
 6    1  0.2003386E-005  0.4393721E+04  0.7818608E-02  0.7929512E-01
         -2   -1    0    0    0  501 -0.00000000000E+00  0.00000000000E+00  0.12029128355E+04  0.12029128355E+04  0.00000000000E+00 0.  1.
          2   -1    0    0  501    0  0.00000000000E+00 -0.00000000000E+00 -0.40120905951E+04  0.40120905951E+04  0.00000000000E+00 0. -1.
         23    2    1    2    0    0 -0.77404099086E+03 -0.11250832281E+04 -0.34462574457E+04  0.37080786640E+04  0.90582951740E+02 0.  0.
         11    1    3    3    0    0 -0.24297674067E+03 -0.42892008179E+03 -0.12228490039E+04  0.13184725327E+04  0.00000000000E+00 0. -1.
        -11    1    3    3    0    0 -0.53106425019E+03 -0.69616314627E+03 -0.22234084418E+04  0.23896061314E+04  0.00000000000E+00 0.  1.
         22    1    1    2    0    0  0.77404099086E+03  0.11250832281E+04  0.63707968611E+03  0.15069247666E+04  0.00000000000E+00 0.  1.
<mgrwt>
<rscale>  0 0.43937206E+04</rscale>
<asrwt>0</asrwt>
<pdfrwt beam="1">  1        2 0.61724469E+00 0.43937206E+04</pdfrwt>
<pdfrwt beam="2">  1       -2 0.18506352E+00 0.43937206E+04</pdfrwt>
<totfact> 0.42607700E-02</totfact>
</mgrwt>
</event>
<event>
 6    1  0.2003386E-005  0.6899406E+04  0.7818608E-02  0.7587900E-01
          2   -1    0    0  501    0  0.00000000000E+00  0.00000000000E+00  0.45191403493E+04  0.45191403493E+04  0.00000000000E+00 0. -1.
         -2   -1    0    0    0  501 -0.00000000000E+00 -0.00000000000E+00 -0.26333438834E+04  0.26333438834E+04  0.00000000000E+00 0.  1.
         23    2    1    2    0    0  0.16916348659E+04 -0.13499933345E+04 -0.18410299819E+04  0.28428037463E+04  0.89617091579E+02 0.  0.
         11    1    3    3    0    0  0.11549020390E+04 -0.86901842137E+03 -0.12159949738E+04  0.18888185494E+04  0.00000000000E+00 0.  1.
        -11    1    3    3    0    0  0.53673282690E+03 -0.48097491312E+03 -0.62503500810E+03  0.95398519688E+03  0.00000000000E+00 0. -1.
         22    1    1    2    0    0 -0.16916348659E+04  0.13499933345E+04  0.37268264479E+04  0.43096804864E+04  0.00000000000E+00 0. -1.
<mgrwt>
<rscale>  0 0.68994059E+04</rscale>
<asrwt>0</asrwt>
<pdfrwt beam="1">  1        2 0.69525236E+00 0.68994059E+04</pdfrwt>
<pdfrwt beam="2">  1       -2 0.40512983E+00 0.68994059E+04</pdfrwt>
<totfact> 0.50285869E-04</totfact>
</mgrwt>
</event>
<event>
 6    1  0.2003386E-005  0.1836675E+04  0.7818608E-02  0.8687036E-01
         -2   -1    0    0    0  501 -0.00000000000E+00  0.00000000000E+00  0.25949807839E+03  0.25949807839E+03  0.00000000000E+00 0.  1.
          2   -1    0    0  501    0  0.00000000000E+00 -0.00000000000E+00 -0.32499029206E+04  0.32499029206E+04  0.00000000000E+00 0. -1.
         23    2    1    2    0    0  0.73169738454E+03 -0.52399788349E+03 -0.18258242384E+04  0.20375984215E+04  0.90655023008E+02 0.  0.
         11    1    3    3    0    0  0.14412089512E+03 -0.61434211136E+02 -0.30771413793E+03  0.34530129654E+03  0.00000000000E+00 0. -1.
        -11    1    3    3    0    0  0.58757648941E+03 -0.46256367236E+03 -0.15181101005E+04  0.16922971249E+04  0.00000000000E+00 0.  1.
         22    1    1    2    0    0 -0.73169738454E+03  0.52399788349E+03 -0.11645806038E+04  0.14718025775E+04  0.00000000000E+00 0.  1.
<mgrwt>
<rscale>  0 0.18366748E+04</rscale>
<asrwt>0</asrwt>
<pdfrwt beam="1">  1        2 0.49998508E+00 0.18366748E+04</pdfrwt>
<pdfrwt beam="2">  1       -2 0.39922780E-01 0.18366748E+04</pdfrwt>
<totfact> 0.67562238E+00</totfact>
</mgrwt>
</event>
<event>
 6    1  0.2003386E-005  0.1696733E+04  0.7818608E-02  0.8763230E-01
          1   -1    0    0  501    0  0.00000000000E+00  0.00000000000E+00  0.12565382340E+04  0.12565382340E+04  0.00000000000E+00 0. -1.
         -1   -1    0    0    0  501 -0.00000000000E+00 -0.00000000000E+00 -0.57278444479E+03  0.57278444479E+03  0.00000000000E+00 0.  1.
         23    2    1    2    0    0 -0.26379623990E+03 -0.33818872056E+03  0.11289403782E+04  0.12111389149E+04  0.91602546843E+02 0.  0.
         11    1    3    3    0    0 -0.90951888962E+02 -0.18636463493E+03  0.57909106572E+03  0.61510201240E+03  0.00000000000E+00 0. -1.
        -11    1    3    3    0    0 -0.17284435094E+03 -0.15182408563E+03  0.54984931252E+03  0.59603690247E+03  0.00000000000E+00 0.  1.
         22    1    1    2    0    0  0.26379623990E+03  0.33818872056E+03 -0.44518658905E+03  0.61818376391E+03  0.00000000000E+00 0.  1.
<mgrwt>
<rscale>  0 0.16967328E+04</rscale>
<asrwt>0</asrwt>
<pdfrwt beam="1">  1        1 0.19331357E+00 0.16967328E+04</pdfrwt>
<pdfrwt beam="2">  1       -1 0.88120684E-01 0.16967328E+04</pdfrwt>
<totfact> 0.11709378E+01</totfact>
</mgrwt>
</event>
<event>
 6    1  0.2003386E-005  0.2421469E+04  0.7818608E-02  0.8431509E-01
         -2   -1    0    0    0  501 -0.00000000000E+00  0.00000000000E+00  0.46337332207E+03  0.46337332207E+03  0.00000000000E+00 0.  1.
          2   -1    0    0  501    0  0.00000000000E+00 -0.00000000000E+00 -0.31634928310E+04  0.31634928310E+04  0.00000000000E+00 0. -1.
         23    2    1    2    0    0 -0.22637468619E+03 -0.64791313119E+03 -0.28427588035E+04  0.29258790686E+04  0.91944467583E+02 0.  0.
         13    1    3    3    0    0 -0.66704584819E+02 -0.32058960559E+03 -0.12756029946E+04  0.13169624887E+04  0.00000000000E+00 0.  1.
        -13    1    3    3    0    0 -0.15967010137E+03 -0.32732352560E+03 -0.15671558090E+04  0.16089165800E+04  0.00000000000E+00 0. -1.
         22    1    1    2    0    0  0.22637468619E+03  0.64791313119E+03  0.14263929463E+03  0.70098708440E+03  0.00000000000E+00 0.  1.
<mgrwt>
<rscale>  0 0.24214691E+04</rscale>
<asrwt>0</asrwt>
<pdfrwt beam="1">  1        2 0.48669121E+00 0.24214691E+04</pdfrwt>
<pdfrwt beam="2">  1       -2 0.71288202E-01 0.24214691E+04</pdfrwt>
<totfact> 0.21976321E+00</totfact>
</mgrwt>
</event>
<event>
 6    1  0.2003386E-005  0.3350850E+04  0.7818608E-02  0.8150076E-01
         -2   -1    0    0    0  501 -0.00000000000E+00  0.00000000000E+00  0.12591965899E+04  0.12591965899E+04  0.00000000000E+00 0.  1.
          2   -1    0    0  501    0  0.00000000000E+00 -0.00000000000E+00 -0.22292383347E+04  0.22292383347E+04  0.00000000000E+00 0. -1.
         23    2    1    2    0    0 -0.16525501065E+04  0.26366088523E+03 -0.43352719883E+03  0.17310827188E+04  0.90899012919E+02 0.  0.
         11    1    3    3    0    0 -0.10640151364E+04  0.16830114492E+03 -0.32383453015E+03  0.11248654536E+04  0.00000000000E+00 0.  1.
        -11    1    3    3    0    0 -0.58853497011E+03  0.95359740311E+02 -0.10969266868E+03  0.60621726524E+03  0.00000000000E+00 0. -1.
         22    1    1    2    0    0  0.16525501065E+04 -0.26366088523E+03 -0.53651454596E+03  0.17573522057E+04  0.00000000000E+00 0.  1.
<mgrwt>
<rscale>  0 0.33508502E+04</rscale>
<asrwt>0</asrwt>
<pdfrwt beam="1">  1        2 0.34295974E+00 0.33508502E+04</pdfrwt>
<pdfrwt beam="2">  1       -2 0.19372255E+00 0.33508502E+04</pdfrwt>
<totfact> 0.60521349E-01</totfact>
</mgrwt>
</event>
<event>
 6    1  0.2003386E-005  0.8480606E+03  0.7818608E-02  0.9492944E-01
          2   -1    0    0  501    0  0.00000000000E+00  0.00000000000E+00  0.54058630933E+03  0.54058630933E+03  0.00000000000E+00 0.  1.
         -2   -1    0    0    0  501 -0.00000000000E+00 -0.00000000000E+00 -0.33260498487E+03  0.33260498487E+03  0.00000000000E+00 0. -1.
         23    2    1    2    0    0  0.23792337068E+03  0.33525984310E+03  0.21341874893E+02  0.42170377849E+03  0.91498133606E+02 0.  0.
         13    1    3    3    0    0  0.17529365382E+03  0.19202982240E+03  0.44137475489E+02  0.26372605958E+03  0.00000000000E+00 0.  1.
        -13    1    3    3    0    0  0.62629716868E+02  0.14323002070E+03 -0.22795600596E+02  0.15797771890E+03  0.00000000000E+00 0. -1.
         22    1    1    2    0    0 -0.23792337068E+03 -0.33525984310E+03  0.18663944957E+03  0.45148751572E+03  0.00000000000E+00 0.  1.
<mgrwt>
<rscale>  0 0.84806061E+03</rscale>
<asrwt>0</asrwt>
<pdfrwt beam="1">  1        2 0.83167124E-01 0.84806061E+03</pdfrwt>
<pdfrwt beam="2">  1       -2 0.51169998E-01 0.84806061E+03</pdfrwt>
<totfact> 0.20392054E+02</totfact>
</mgrwt>
</event>
<event>
 6    1  0.2003386E-005  0.3032305E+04  0.7818608E-02  0.8234566E-01
          2   -1    0    0  501    0  0.00000000000E+00  0.00000000000E+00  0.31627351154E+04  0.31627351154E+04  0.00000000000E+00 0. -1.
         -2   -1    0    0    0  501 -0.00000000000E+00 -0.00000000000E+00 -0.72681340481E+03  0.72681340481E+03  0.00000000000E+00 0.  1.
         23    2    1    2    0    0  0.98735929279E+03  0.11331858637E+04  0.14610558038E+04  0.20980820508E+04  0.90970629952E+02 0.  0.
         11    1    3    3    0    0  0.71730817034E+03  0.85019360994E+03  0.11297761922E+04  0.15854823966E+04  0.00000000000E+00 0.  1.
        -11    1    3    3    0    0  0.27005112245E+03  0.28299225372E+03  0.33127961165E+03  0.51259965421E+03  0.00000000000E+00 0. -1.
         22    1    1    2    0    0 -0.98735929279E+03 -0.11331858637E+04  0.97486590674E+03  0.17914664693E+04  0.00000000000E+00 0.  1.
<mgrwt>
<rscale>  0 0.30323049E+04</rscale>
<asrwt>0</asrwt>
<pdfrwt beam="1">  1        2 0.48657462E+00 0.30323049E+04</pdfrwt>
<pdfrwt beam="2">  1       -2 0.11181745E+00 0.30323049E+04</pdfrwt>
<totfact> 0.73860726E-01</totfact>
</mgrwt>
</event>
<event>
 6    1  0.2003386E-005  0.3252110E+04  0.7818608E-02  0.8175189E-01
         -1   -1    0    0    0  501 -0.00000000000E+00  0.00000000000E+00  0.20851362847E+04  0.20851362847E+04  0.00000000000E+00 0.  1.
          1   -1    0    0  501    0  0.00000000000E+00 -0.00000000000E+00 -0.12680485856E+04  0.12680485856E+04  0.00000000000E+00 0. -1.
         23    2    1    2    0    0 -0.40290185402E+03 -0.13433450448E+04 -0.43730858789E+03  0.14715855883E+04  0.86136690017E+02 0.  0.
         13    1    3    3    0    0 -0.24454185800E+03 -0.66743549513E+03 -0.22857604511E+03  0.74667119194E+03  0.00000000000E+00 0.  1.
        -13    1    3    3    0    0 -0.15835999602E+03 -0.67590954967E+03 -0.20873254278E+03  0.72491439638E+03  0.00000000000E+00 0. -1.
         22    1    1    2    0    0  0.40290185402E+03  0.13433450448E+04  0.12543962870E+04  0.18815992820E+04  0.00000000000E+00 0.  1.
<mgrwt>
<rscale>  0 0.32521095E+04</rscale>
<asrwt>0</asrwt>
<pdfrwt beam="1">  1        1 0.19508440E+00 0.32521095E+04</pdfrwt>
<pdfrwt beam="2">  1       -1 0.32079020E+00 0.32521095E+04</pdfrwt>
<totfact> 0.19207450E-01</totfact>
</mgrwt>
</event>
<event>
 6    1  0.2003386E-005  0.1709998E+04  0.7818608E-02  0.8755683E-01
         -1   -1    0    0    0  501 -0.00000000000E+00  0.00000000000E+00  0.39031638553E+03  0.39031638553E+03  0.00000000000E+00 0.  1.
          1   -1    0    0  501    0  0.00000000000E+00 -0.00000000000E+00 -0.18728982735E+04  0.18728982735E+04  0.00000000000E+00 0. -1.
         23    2    1    2    0    0  0.59039431705E+03 -0.38024573827E+03 -0.10710040909E+03  0.71883725379E+03  0.11001921983E+03 0.  0.
         11    1    3    3    0    0  0.19297277180E+03 -0.15172053495E+03 -0.85322348763E+02  0.25987980795E+03  0.00000000000E+00 0. -1.
        -11    1    3    3    0    0  0.39742154525E+03 -0.22852520332E+03 -0.21778060332E+02  0.45895744584E+03  0.00000000000E+00 0.  1.
         22    1    1    2    0    0 -0.59039431705E+03  0.38024573827E+03 -0.13754814789E+04  0.15443774052E+04  0.00000000000E+00 0. -1.
<mgrwt>
<rscale>  0 0.17099975E+04</rscale>
<asrwt>0</asrwt>
<pdfrwt beam="1">  1        1 0.28813820E+00 0.17099975E+04</pdfrwt>
<pdfrwt beam="2">  1       -1 0.60048673E-01 0.17099975E+04</pdfrwt>
<totfact> 0.97194734E+00</totfact>
</mgrwt>
</event>
<event>
 6    1  0.2003386E-005  0.2554230E+04  0.7818608E-02  0.8383917E-01
          2   -1    0    0  501    0  0.00000000000E+00  0.00000000000E+00  0.13773386289E+04  0.13773386289E+04  0.00000000000E+00 0. -1.
         -2   -1    0    0    0  501 -0.00000000000E+00 -0.00000000000E+00 -0.11841839315E+04  0.11841839315E+04  0.00000000000E+00 0.  1.
         23    2    1    2    0    0  0.43735298110E+03  0.85062751961E+03  0.94278855571E+03  0.13462877152E+04  0.93784563017E+02 0.  0.
         13    1    3    3    0    0  0.13414119090E+03  0.32383131978E+03  0.29676353760E+03  0.45927026903E+03  0.00000000000E+00 0.  1.
        -13    1    3    3    0    0  0.30321179020E+03  0.52679619982E+03  0.64602501812E+03  0.88701744622E+03  0.00000000000E+00 0. -1.
         22    1    1    2    0    0 -0.43735298110E+03 -0.85062751961E+03 -0.74963385837E+03  0.12152348451E+04  0.00000000000E+00 0.  1.
<mgrwt>
<rscale>  0 0.25542296E+04</rscale>
<asrwt>0</asrwt>
<pdfrwt beam="1">  1        2 0.21189825E+00 0.25542296E+04</pdfrwt>
<pdfrwt beam="2">  1       -2 0.18218214E+00 0.25542296E+04</pdfrwt>
<totfact> 0.23191716E+00</totfact>
</mgrwt>
</event>
<event>
 6    1  0.2003386E-005  0.3463785E+04  0.7818608E-02  0.8122427E-01
          2   -1    0    0  501    0  0.00000000000E+00  0.00000000000E+00  0.24352976276E+04  0.24352976276E+04  0.00000000000E+00 0. -1.
         -2   -1    0    0    0  501 -0.00000000000E+00 -0.00000000000E+00 -0.12316568423E+04  0.12316568423E+04  0.00000000000E+00 0.  1.
         23    2    1    2    0    0  0.14674301812E+04 -0.36419538210E+03 -0.29005296052E+03  0.15416049412E+04  0.80158978685E+02 0.  0.
         11    1    3    3    0    0  0.29989181848E+03 -0.85792429892E+02 -0.28964343895E+02  0.31326406917E+03  0.00000000000E+00 0.  1.
        -11    1    3    3    0    0  0.11675383627E+04 -0.27840295221E+03 -0.26108861662E+03  0.12283408720E+04  0.00000000000E+00 0. -1.
         22    1    1    2    0    0 -0.14674301812E+04  0.36419538210E+03  0.14936937458E+04  0.21253495287E+04  0.00000000000E+00 0. -1.
<mgrwt>
<rscale>  0 0.34637846E+04</rscale>
<asrwt>0</asrwt>
<pdfrwt beam="1">  1        2 0.37466117E+00 0.34637846E+04</pdfrwt>
<pdfrwt beam="2">  1       -2 0.18948567E+00 0.34637846E+04</pdfrwt>
<totfact> 0.48850296E-01</totfact>
</mgrwt>
</event>
<event>
 6    1  0.2003386E-005  0.1230230E+04  0.7818608E-02  0.9086800E-01
          2   -1    0    0  501    0  0.00000000000E+00  0.00000000000E+00  0.24163647071E+04  0.24163647071E+04  0.00000000000E+00 0. -1.
         -2   -1    0    0    0  501 -0.00000000000E+00 -0.00000000000E+00 -0.15658500057E+03  0.15658500057E+03  0.00000000000E+00 0.  1.
         23    2    1    2    0    0  0.36994426044E+03  0.14651806795E+03  0.16670918991E+03  0.44239332784E+03  0.97946936919E+02 0.  0.
         13    1    3    3    0    0  0.30966387896E+03  0.15441165323E+03  0.12190673476E+03  0.36687317777E+03  0.00000000000E+00 0. -1.
        -13    1    3    3    0    0  0.60280381476E+02 -0.78935852800E+01  0.44802455152E+02  0.75520150074E+02  0.00000000000E+00 0.  1.
         22    1    1    2    0    0 -0.36994426044E+03 -0.14651806795E+03  0.20930705166E+04  0.21305563798E+04  0.00000000000E+00 0. -1.
<mgrwt>
<rscale>  0 0.12302300E+04</rscale>
<asrwt>0</asrwt>
<pdfrwt beam="1">  1        2 0.37174839E+00 0.12302300E+04</pdfrwt>
<pdfrwt beam="2">  1       -2 0.24090002E-01 0.12302300E+04</pdfrwt>
<totfact> 0.59066826E+01</totfact>
</mgrwt>
</event>
<event>
 6    1  0.2003386E-005  0.4070591E+04  0.7818608E-02  0.7990456E-01
          2   -1    0    0  501    0  0.00000000000E+00  0.00000000000E+00  0.47564833604E+04  0.47564833604E+04  0.00000000000E+00 0. -1.
         -2   -1    0    0    0  501 -0.00000000000E+00 -0.00000000000E+00 -0.87090139772E+03  0.87090139772E+03  0.00000000000E+00 0.  1.
         23    2    1    2    0    0 -0.16465808488E+04  0.11411306241E+04  0.24299655838E+04  0.31510514535E+04  0.10480902232E+03 0.  0.
         11    1    3    3    0    0 -0.14504866343E+04  0.10343417885E+04  0.21937356781E+04  0.28259955126E+04  0.00000000000E+00 0.  1.
        -11    1    3    3    0    0 -0.19609421457E+03  0.10678883556E+03  0.23622990570E+03  0.32505594093E+03  0.00000000000E+00 0. -1.
         22    1    1    2    0    0  0.16465808488E+04 -0.11411306241E+04  0.14556163788E+04  0.24763333046E+04  0.00000000000E+00 0. -1.
<mgrwt>
<rscale>  0 0.40705911E+04</rscale>
<asrwt>0</asrwt>
<pdfrwt beam="1">  1        2 0.73176666E+00 0.40705911E+04</pdfrwt>
<pdfrwt beam="2">  1       -2 0.13398483E+00 0.40705911E+04</pdfrwt>
<totfact> 0.20803873E-02</totfact>
</mgrwt>
</event>
<event>
 6    1  0.2003386E-005  0.1079020E+04  0.7818608E-02  0.9225885E-01
          2   -1    0    0  501    0  0.00000000000E+00  0.00000000000E+00  0.61300944520E+03  0.61300944520E+03  0.00000000000E+00 0.  1.
         -2   -1    0    0    0  501 -0.00000000000E+00 -0.00000000000E+00 -0.47482323637E+03  0.47482323637E+03  0.00000000000E+00 0. -1.
         23    2    1    2    0    0 -0.91635273487E+02 -0.52373113356E+03  0.36217298037E+01  0.53938129573E+03  0.90706899670E+02 0.  0.
         11    1    3    3    0    0 -0.19403717498E+02 -0.12606118958E+02 -0.92619712537E+00  0.23157640835E+02  0.00000000000E+00 0. -1.
        -11    1    3    3    0    0 -0.72231555989E+02 -0.51112501461E+03  0.45479269290E+01  0.51622365490E+03  0.00000000000E+00 0.  1.
         22    1    1    2    0    0  0.91635273487E+02  0.52373113356E+03  0.13456447902E+03  0.54845138584E+03  0.00000000000E+00 0. -1.
<mgrwt>
<rscale>  0 0.10790202E+04</rscale>
<asrwt>0</asrwt>
<pdfrwt beam="1">  1        2 0.94309146E-01 0.10790202E+04</pdfrwt>
<pdfrwt beam="2">  1       -2 0.73049729E-01 0.10790202E+04</pdfrwt>
<totfact> 0.81360837E+01</totfact>
</mgrwt>
</event>
<event>
 6    1  0.2003386E-005  0.1064212E+04  0.7818608E-02  0.9240792E-01
         -2   -1    0    0    0  501 -0.00000000000E+00  0.00000000000E+00  0.14881078831E+03  0.14881078831E+03  0.00000000000E+00 0.  1.
          2   -1    0    0  501    0  0.00000000000E+00 -0.00000000000E+00 -0.19026648424E+04  0.19026648424E+04  0.00000000000E+00 0. -1.
         23    2    1    2    0    0  0.15467963962E+03  0.24781863209E+03 -0.17316144263E+04  0.17585004332E+04  0.92170424184E+02 0.  0.
         13    1    3    3    0    0  0.97338672919E+02  0.92141913463E+02 -0.95530780542E+03  0.96466468400E+03  0.00000000000E+00 0. -1.
        -13    1    3    3    0    0  0.57340966697E+02  0.15567671863E+03 -0.77630662083E+03  0.79383574921E+03  0.00000000000E+00 0.  1.
         22    1    1    2    0    0 -0.15467963962E+03 -0.24781863209E+03 -0.22239627871E+02  0.29297519753E+03  0.00000000000E+00 0.  1.
<mgrwt>
<rscale>  0 0.10642125E+04</rscale>
<asrwt>0</asrwt>
<pdfrwt beam="1">  1        2 0.29271766E+00 0.10642125E+04</pdfrwt>
<pdfrwt beam="2">  1       -2 0.22893968E-01 0.10642125E+04</pdfrwt>
<totfact> 0.12680656E+02</totfact>
</mgrwt>
</event>
<event>
 6    1  0.2003386E-005  0.8373975E+03  0.7818608E-02  0.9507409E-01
          2   -1    0    0  501    0  0.00000000000E+00  0.00000000000E+00  0.11227854394E+04  0.11227854394E+04  0.00000000000E+00 0. -1.
         -2   -1    0    0    0  501 -0.00000000000E+00 -0.00000000000E+00 -0.15613727172E+03  0.15613727172E+03  0.00000000000E+00 0.  1.
         23    2    1    2    0    0  0.35339342635E+03 -0.11777793072E+02  0.16146691851E+03  0.39952378331E+03  0.92314990453E+02 0.  0.
         13    1    3    3    0    0  0.25668950797E+03  0.31443899099E+02  0.10157955757E+03  0.27784281313E+03  0.00000000000E+00 0.  1.
        -13    1    3    3    0    0  0.96703918386E+02 -0.43221692171E+02  0.59887360941E+02  0.12168097019E+03  0.00000000000E+00 0. -1.
         22    1    1    2    0    0 -0.35339342635E+03  0.11777793072E+02  0.80518124916E+03  0.87939892779E+03  0.00000000000E+00 0. -1.
<mgrwt>
<rscale>  0 0.83739753E+03</rscale>
<asrwt>0</asrwt>
<pdfrwt beam="1">  1        2 0.17273622E+00 0.83739753E+03</pdfrwt>
<pdfrwt beam="2">  1       -2 0.24021119E-01 0.83739753E+03</pdfrwt>
<totfact> 0.32628410E+02</totfact>
</mgrwt>
</event>
<event>
 6    1  0.2003386E-005  0.1113059E+04  0.7818608E-02  0.9192556E-01
          1   -1    0    0  501    0  0.00000000000E+00  0.00000000000E+00  0.89949555108E+03  0.89949555108E+03  0.00000000000E+00 0. -1.
         -1   -1    0    0    0  501 -0.00000000000E+00 -0.00000000000E+00 -0.34433191145E+03  0.34433191145E+03  0.00000000000E+00 0.  1.
         23    2    1    2    0    0  0.23297255351E+03  0.30621854204E+02 -0.27989429385E+03  0.37633932952E+03  0.89869719995E+02 0.  0.
         11    1    3    3    0    0  0.92047556810E+02 -0.28773486255E+02 -0.13302639188E+03  0.16430668630E+03  0.00000000000E+00 0. -1.
        -11    1    3    3    0    0  0.14092499670E+03  0.59395340460E+02 -0.14686790196E+03  0.21203264322E+03  0.00000000000E+00 0.  1.
         22    1    1    2    0    0 -0.23297255351E+03 -0.30621854204E+02  0.83505793348E+03  0.86748813301E+03  0.00000000000E+00 0. -1.
<mgrwt>
<rscale>  0 0.11130589E+04</rscale>
<asrwt>0</asrwt>
<pdfrwt beam="1">  1        1 0.13838393E+00 0.11130589E+04</pdfrwt>
<pdfrwt beam="2">  1       -1 0.52974140E-01 0.11130589E+04</pdfrwt>
<totfact> 0.65141131E+01</totfact>
</mgrwt>
</event>
<event>
 6    1  0.2003386E-005  0.1227687E+04  0.7818608E-02  0.9088962E-01
         -2   -1    0    0    0  501 -0.00000000000E+00  0.00000000000E+00  0.23872743043E+03  0.23872743043E+03  0.00000000000E+00 0.  1.
          2   -1    0    0  501    0  0.00000000000E+00 -0.00000000000E+00 -0.15783844818E+04  0.15783844818E+04  0.00000000000E+00 0. -1.
         23    2    1    2    0    0 -0.26995974114E+02  0.35824989630E+03 -0.14040753428E+04  0.14521167244E+04  0.90242130558E+02 0.  0.
         11    1    3    3    0    0 -0.36344288679E+02  0.55062631068E+02 -0.21026358856E+03  0.22037145308E+03  0.00000000000E+00 0. -1.
        -11    1    3    3    0    0  0.93483145646E+01  0.30318726523E+03 -0.11938117543E+04  0.12317452713E+04  0.00000000000E+00 0.  1.
         22    1    1    2    0    0  0.26995974114E+02 -0.35824989630E+03  0.64418291508E+02  0.36499518778E+03  0.00000000000E+00 0.  1.
<mgrwt>
<rscale>  0 0.12276867E+04</rscale>
<asrwt>0</asrwt>
<pdfrwt beam="1">  1        2 0.24282838E+00 0.12276867E+04</pdfrwt>
<pdfrwt beam="2">  1       -2 0.36727297E-01 0.12276867E+04</pdfrwt>
<totfact> 0.78836955E+01</totfact>
</mgrwt>
</event>
<event>
 6    1  0.2003386E-005  0.4791056E+04  0.7818608E-02  0.7861573E-01
          2   -1    0    0  501    0  0.00000000000E+00  0.00000000000E+00  0.21396184019E+04  0.21396184019E+04  0.00000000000E+00 0.  1.
         -2   -1    0    0    0  501 -0.00000000000E+00 -0.00000000000E+00 -0.26820457426E+04  0.26820457426E+04  0.00000000000E+00 0. -1.
         23    2    1    2    0    0  0.14622717862E+04 -0.16735267436E+04 -0.11682134568E+04  0.25128681810E+04  0.10417905808E+03 0.  0.
         11    1    3    3    0    0  0.46366412454E+03 -0.48246498249E+03 -0.39224089658E+03  0.77563509504E+03  0.00000000000E+00 0. -1.
        -11    1    3    3    0    0  0.99860766169E+03 -0.11910617611E+04 -0.77597256020E+03  0.17372330859E+04  0.00000000000E+00 0.  1.
         22    1    1    2    0    0 -0.14622717862E+04  0.16735267436E+04  0.62578611600E+03  0.23087959635E+04  0.00000000000E+00 0.  1.
<mgrwt>
<rscale>  0 0.47910560E+04</rscale>
<asrwt>0</asrwt>
<pdfrwt beam="1">  1        2 0.32917206E+00 0.47910560E+04</pdfrwt>
<pdfrwt beam="2">  1       -2 0.41262242E+00 0.47910560E+04</pdfrwt>
<totfact> 0.25365669E-02</totfact>
</mgrwt>
</event>
<event>
 6    1  0.2003386E-005  0.9602696E+03  0.7818608E-02  0.9353227E-01
          2   -1    0    0  501    0  0.00000000000E+00  0.00000000000E+00  0.95031753343E+03  0.95031753343E+03  0.00000000000E+00 0. -1.
         -2   -1    0    0    0  501 -0.00000000000E+00 -0.00000000000E+00 -0.24258146821E+03  0.24258146821E+03  0.00000000000E+00 0.  1.
         23    2    1    2    0    0 -0.11359712854E+03  0.34626360412E+03  0.73713468192E+03  0.82729392807E+03  0.90801503214E+02 0.  0.
         11    1    3    3    0    0 -0.25652284448E+02  0.21869013015E+03  0.41315982218E+03  0.46817139104E+03  0.00000000000E+00 0.  1.
        -11    1    3    3    0    0 -0.87944844088E+02  0.12757347397E+03  0.32397485973E+03  0.35912253703E+03  0.00000000000E+00 0. -1.
         22    1    1    2    0    0  0.11359712854E+03 -0.34626360412E+03 -0.29398616697E+02  0.36560507356E+03  0.00000000000E+00 0.  1.
<mgrwt>
<rscale>  0 0.96026959E+03</rscale>
<asrwt>0</asrwt>
<pdfrwt beam="1">  1        2 0.14620270E+00 0.96026959E+03</pdfrwt>
<pdfrwt beam="2">  1       -2 0.37320226E-01 0.96026959E+03</pdfrwt>
<totfact> 0.18357142E+02</totfact>
</mgrwt>
</event>
<event>
 6    1  0.2003386E-005  0.1223842E+04  0.7818608E-02  0.9092240E-01
          2   -1    0    0  501    0  0.00000000000E+00  0.00000000000E+00  0.13252140183E+04  0.13252140183E+04  0.00000000000E+00 0.  1.
         -2   -1    0    0    0  501 -0.00000000000E+00 -0.00000000000E+00 -0.28255596931E+03  0.28255596931E+03  0.00000000000E+00 0. -1.
         23    2    1    2    0    0 -0.45347032310E+03  0.31375709604E+03  0.18681069565E+03  0.58965725248E+03  0.93373390960E+02 0.  0.
         13    1    3    3    0    0 -0.23079698128E+03  0.15417085867E+03  0.45009871104E+02  0.28117928218E+03  0.00000000000E+00 0.  1.
        -13    1    3    3    0    0 -0.22267334183E+03  0.15958623737E+03  0.14180082455E+03  0.30847797030E+03  0.00000000000E+00 0. -1.
         22    1    1    2    0    0  0.45347032310E+03 -0.31375709604E+03  0.85584735338E+03  0.10181127352E+04  0.00000000000E+00 0. -1.
<mgrwt>
<rscale>  0 0.12238417E+04</rscale>
<asrwt>0</asrwt>
<pdfrwt beam="1">  1        2 0.20387908E+00 0.12238417E+04</pdfrwt>
<pdfrwt beam="2">  1       -2 0.43470150E-01 0.12238417E+04</pdfrwt>
<totfact> 0.78971109E+01</totfact>
</mgrwt>
</event>
<event>
 6    1  0.2003386E-005  0.1902535E+04  0.7818608E-02  0.8653595E-01
          2   -1    0    0  501    0  0.00000000000E+00  0.00000000000E+00  0.22838966202E+04  0.22838966202E+04  0.00000000000E+00 0. -1.
         -2   -1    0    0    0  501 -0.00000000000E+00 -0.00000000000E+00 -0.39621328821E+03  0.39621328821E+03  0.00000000000E+00 0.  1.
         23    2    1    2    0    0  0.48424721225E+03  0.68244491021E+03  0.31685184464E+03  0.90029587888E+03  0.99554809200E+02 0.  0.
         13    1    3    3    0    0  0.27632981490E+03  0.32108368303E+03  0.19197197659E+03  0.46508723688E+03  0.00000000000E+00 0. -1.
        -13    1    3    3    0    0  0.20791739736E+03  0.36136122718E+03  0.12487986804E+03  0.43520864201E+03  0.00000000000E+00 0.  1.
         22    1    1    2    0    0 -0.48424721225E+03 -0.68244491021E+03  0.15708314874E+04  0.17798140296E+04  0.00000000000E+00 0. -1.
<mgrwt>
<rscale>  0 0.19025354E+04</rscale>
<asrwt>0</asrwt>
<pdfrwt beam="1">  1        2 0.35136870E+00 0.19025354E+04</pdfrwt>
<pdfrwt beam="2">  1       -2 0.60955892E-01 0.19025354E+04</pdfrwt>
<totfact> 0.10861326E+01</totfact>
</mgrwt>
</event>
<event>
 6    1  0.2003386E-005  0.3862062E+04  0.7818608E-02  0.8032966E-01
          2   -1    0    0  501    0  0.00000000000E+00  0.00000000000E+00  0.20296601381E+04  0.20296601381E+04  0.00000000000E+00 0. -1.
         -2   -1    0    0    0  501 -0.00000000000E+00 -0.00000000000E+00 -0.18371947683E+04  0.18371947683E+04  0.00000000000E+00 0.  1.
         23    2    1    2    0    0 -0.15768287070E+04  0.10998159268E+04 -0.73982941999E+02  0.19259843422E+04  0.89209678010E+02 0.  0.
         13    1    3    3    0    0 -0.13049649784E+04  0.87726981559E+03 -0.39027762839E+02  0.15729142031E+04  0.00000000000E+00 0. -1.
        -13    1    3    3    0    0 -0.27186372858E+03  0.22254611119E+03 -0.34955179160E+02  0.35307013903E+03  0.00000000000E+00 0.  1.
         22    1    1    2    0    0  0.15768287070E+04 -0.10998159268E+04  0.26644831178E+03  0.19408705642E+04  0.00000000000E+00 0. -1.
<mgrwt>
<rscale>  0 0.38620621E+04</rscale>
<asrwt>0</asrwt>
<pdfrwt beam="1">  1        2 0.31225540E+00 0.38620621E+04</pdfrwt>
<pdfrwt beam="2">  1       -2 0.28264535E+00 0.38620621E+04</pdfrwt>
<totfact> 0.20821006E-01</totfact>
</mgrwt>
</event>
<event>
 6    1  0.2003386E-005  0.2824592E+04  0.7818608E-02  0.8295674E-01
         -2   -1    0    0    0  501 -0.00000000000E+00  0.00000000000E+00  0.10491304504E+04  0.10491304504E+04  0.00000000000E+00 0.  1.
          2   -1    0    0  501    0  0.00000000000E+00 -0.00000000000E+00 -0.19011738073E+04  0.19011738073E+04  0.00000000000E+00 0. -1.
         23    2    1    2    0    0  0.66588019062E+03 -0.85944650320E+03 -0.13655590126E+04  0.17479137018E+04  0.91685178689E+02 0.  0.
         13    1    3    3    0    0  0.28576012760E+03 -0.38477465394E+03 -0.53120085433E+03  0.71546120264E+03  0.00000000000E+00 0.  1.
        -13    1    3    3    0    0  0.38012006302E+03 -0.47467184926E+03 -0.83435815830E+03  0.10324524992E+04  0.00000000000E+00 0. -1.
         22    1    1    2    0    0 -0.66588019062E+03  0.85944650320E+03  0.51351565576E+03  0.12023905559E+04  0.00000000000E+00 0.  1.
<mgrwt>
<rscale>  0 0.28245915E+04</rscale>
<asrwt>0</asrwt>
<pdfrwt beam="1">  1        2 0.29248828E+00 0.28245915E+04</pdfrwt>
<pdfrwt beam="2">  1       -2 0.16140468E+00 0.28245915E+04</pdfrwt>
<totfact> 0.16196151E+00</totfact>
</mgrwt>
</event>
<event>
 6    1  0.2003386E-005  0.2925887E+04  0.7818608E-02  0.8265217E-01
         -2   -1    0    0    0  501 -0.00000000000E+00  0.00000000000E+00  0.13623395184E+04  0.13623395184E+04  0.00000000000E+00 0.  1.
          2   -1    0    0  501    0  0.00000000000E+00 -0.00000000000E+00 -0.15709764969E+04  0.15709764969E+04  0.00000000000E+00 0. -1.
         23    2    1    2    0    0  0.49830679173E+03 -0.12579224329E+04 -0.65804147561E+03  0.15076081533E+04  0.95839732801E+02 0.  0.
         13    1    3    3    0    0  0.24020561554E+03 -0.68846339649E+03 -0.31307565945E+03  0.79353446969E+03  0.00000000000E+00 0. -1.
        -13    1    3    3    0    0  0.25810117619E+03 -0.56945903639E+03 -0.34496581617E+03  0.71407368359E+03  0.00000000000E+00 0.  1.
         22    1    1    2    0    0 -0.49830679173E+03  0.12579224329E+04  0.44940449714E+03  0.14257078620E+04  0.00000000000E+00 0.  1.
<mgrwt>
<rscale>  0 0.29258868E+04</rscale>
<asrwt>0</asrwt>
<pdfrwt beam="1">  1        2 0.24168869E+00 0.29258868E+04</pdfrwt>
<pdfrwt beam="2">  1       -2 0.20959069E+00 0.29258868E+04</pdfrwt>
<totfact> 0.11488415E+00</totfact>
</mgrwt>
</event>
<event>
 6    1  0.2003386E-005  0.4898071E+04  0.7818608E-02  0.7844426E-01
         -2   -1    0    0    0  501 -0.00000000000E+00  0.00000000000E+00  0.15141886490E+04  0.15141886490E+04  0.00000000000E+00 0.  1.
          2   -1    0    0  501    0  0.00000000000E+00 -0.00000000000E+00 -0.39610489211E+04  0.39610489211E+04  0.00000000000E+00 0. -1.
         23    2    1    2    0    0  0.15016389734E+04  0.16581912841E+04 -0.23355906908E+04  0.32353940798E+04  0.90956229681E+02 0.  0.
         13    1    3    3    0    0  0.92077208263E+03  0.97367980513E+03 -0.13493825427E+04  0.19017641383E+04  0.00000000000E+00 0.  1.
        -13    1    3    3    0    0  0.58086689079E+03  0.68451147896E+03 -0.98620814809E+03  0.13336299415E+04  0.00000000000E+00 0. -1.
         22    1    1    2    0    0 -0.15016389734E+04 -0.16581912841E+04 -0.11126958127E+03  0.22398434903E+04  0.00000000000E+00 0. -1.
<mgrwt>
<rscale>  0 0.48980712E+04</rscale>
<asrwt>0</asrwt>
<pdfrwt beam="1">  1        2 0.60939215E+00 0.48980712E+04</pdfrwt>
<pdfrwt beam="2">  1       -2 0.23295210E+00 0.48980712E+04</pdfrwt>
<totfact> 0.22020469E-02</totfact>
</mgrwt>
</event>
<event>
 6    1  0.2003386E-005  0.2434136E+04  0.7818608E-02  0.8426833E-01
          2   -1    0    0  501    0  0.00000000000E+00  0.00000000000E+00  0.22817719857E+04  0.22817719857E+04  0.00000000000E+00 0. -1.
         -2   -1    0    0    0  501 -0.00000000000E+00 -0.00000000000E+00 -0.64916858989E+03  0.64916858989E+03  0.00000000000E+00 0.  1.
         23    2    1    2    0    0 -0.97900251758E+03 -0.45865628447E+03  0.14867056749E+04  0.18400246019E+04  0.81149584793E+02 0.  0.
         13    1    3    3    0    0 -0.56438185108E+03 -0.26991671440E+03  0.92710601273E+03  0.11184397460E+04  0.00000000000E+00 0.  1.
        -13    1    3    3    0    0 -0.41462066650E+03 -0.18873957007E+03  0.55959966216E+03  0.72158485592E+03  0.00000000000E+00 0. -1.
         22    1    1    2    0    0  0.97900251758E+03  0.45865628447E+03  0.14589772093E+03  0.10909159737E+04  0.00000000000E+00 0.  1.
<mgrwt>
<rscale>  0 0.24341362E+04</rscale>
<asrwt>0</asrwt>
<pdfrwt beam="1">  1        2 0.35104184E+00 0.24341362E+04</pdfrwt>
<pdfrwt beam="2">  1       -2 0.99872092E-01 0.24341362E+04</pdfrwt>
<totfact> 0.34489183E+00</totfact>
</mgrwt>
</event>
<event>
 6    1  0.2003386E-005  0.1386033E+04  0.7818608E-02  0.8963991E-01
         -2   -1    0    0    0  501 -0.00000000000E+00  0.00000000000E+00  0.47872656532E+03  0.47872656532E+03  0.00000000000E+00 0.  1.
          2   -1    0    0  501    0  0.00000000000E+00 -0.00000000000E+00 -0.10032280750E+04  0.10032280750E+04  0.00000000000E+00 0. -1.
         23    2    1    2    0    0  0.19956628143E+03 -0.57747217095E+03  0.81380708143E+02  0.62149309511E+03  0.79561540364E+02 0.  0.
         11    1    3    3    0    0  0.55130656219E+02 -0.25162285121E+03  0.59634175549E+02  0.26440439368E+03  0.00000000000E+00 0.  1.
        -11    1    3    3    0    0  0.14443562522E+03 -0.32584931974E+03  0.21746532594E+02  0.35708870142E+03  0.00000000000E+00 0. -1.
         22    1    1    2    0    0 -0.19956628143E+03  0.57747217095E+03 -0.60588221782E+03  0.86046154521E+03  0.00000000000E+00 0. -1.
<mgrwt>
<rscale>  0 0.13860331E+04</rscale>
<asrwt>0</asrwt>
<pdfrwt beam="1">  1        2 0.15434278E+00 0.13860331E+04</pdfrwt>
<pdfrwt beam="2">  1       -2 0.73650241E-01 0.13860331E+04</pdfrwt>
<totfact> 0.40610844E+01</totfact>
</mgrwt>
</event>
<event>
 6    1  0.2003386E-005  0.1006312E+04  0.7818608E-02  0.9301649E-01
         -2   -1    0    0    0  501 -0.00000000000E+00  0.00000000000E+00  0.82958916888E+03  0.82958916888E+03  0.00000000000E+00 0.  1.
          2   -1    0    0  501    0  0.00000000000E+00 -0.00000000000E+00 -0.30517043104E+03  0.30517043104E+03  0.00000000000E+00 0. -1.
         23    2    1    2    0    0  0.20731163233E+03 -0.13162303086E+03 -0.22552119939E+03  0.34563816149E+03  0.91121853294E+02 0.  0.
         13    1    3    3    0    0  0.34596211922E+02 -0.65255703769E+02 -0.41684898521E+02  0.84810586123E+02  0.00000000000E+00 0.  1.
        -13    1    3    3    0    0  0.17271542041E+03 -0.66367327093E+02 -0.18383630087E+03  0.26082757536E+03  0.00000000000E+00 0. -1.
         22    1    1    2    0    0 -0.20731163233E+03  0.13162303086E+03  0.74993993723E+03  0.78912143844E+03  0.00000000000E+00 0.  1.
<mgrwt>
<rscale>  0 0.10063122E+04</rscale>
<asrwt>0</asrwt>
<pdfrwt beam="1">  1        2 0.46949297E-01 0.10063122E+04</pdfrwt>
<pdfrwt beam="2">  1       -2 0.12762910E+00 0.10063122E+04</pdfrwt>
<totfact> 0.48885311E+01</totfact>
</mgrwt>
</event>
<event>
 6    1  0.2003386E-005  0.7454669E+03  0.7818608E-02  0.9642489E-01
          2   -1    0    0  501    0  0.00000000000E+00  0.00000000000E+00  0.18500293091E+04  0.18500293091E+04  0.00000000000E+00 0. -1.
         -2   -1    0    0    0  501 -0.00000000000E+00 -0.00000000000E+00 -0.75096227534E+02  0.75096227534E+02  0.00000000000E+00 0.  1.
         23    2    1    2    0    0  0.18995891450E+03  0.14934027641E+03  0.16140001402E+04  0.16348044748E+04  0.95928675509E+02 0.  0.
         13    1    3    3    0    0  0.14447794395E+03  0.55368433892E+02  0.10277151785E+04  0.10392968911E+04  0.00000000000E+00 0.  1.
        -13    1    3    3    0    0  0.45480970547E+02  0.93971842517E+02  0.58628496168E+03  0.59550758363E+03  0.00000000000E+00 0. -1.
         22    1    1    2    0    0 -0.18995891450E+03 -0.14934027641E+03  0.16093294140E+03  0.29032106190E+03  0.00000000000E+00 0.  1.
<mgrwt>
<rscale>  0 0.74546689E+03</rscale>
<asrwt>0</asrwt>
<pdfrwt beam="1">  1        2 0.28461986E+00 0.74546689E+03</pdfrwt>
<pdfrwt beam="2">  1       -2 0.11553267E-01 0.74546689E+03</pdfrwt>
<totfact> 0.44742483E+02</totfact>
</mgrwt>
</event>
<event>
 6    1  0.2003386E-005  0.2218829E+04  0.7818608E-02  0.8510632E-01
          2   -1    0    0  501    0  0.00000000000E+00  0.00000000000E+00  0.16356426884E+04  0.16356426884E+04  0.00000000000E+00 0. -1.
         -2   -1    0    0    0  501 -0.00000000000E+00 -0.00000000000E+00 -0.75248741598E+03  0.75248741598E+03  0.00000000000E+00 0.  1.
         23    2    1    2    0    0 -0.58412937134E+03  0.30256250598E+03 -0.51671980475E+03  0.84139113992E+03  0.90490337751E+02 0.  0.
         13    1    3    3    0    0 -0.52606782612E+03  0.28243784142E+03 -0.49695173378E+03  0.77683944135E+03  0.00000000000E+00 0.  1.
        -13    1    3    3    0    0 -0.58061545222E+02  0.20124664570E+02 -0.19768070968E+02  0.64551698563E+02  0.00000000000E+00 0. -1.
         22    1    1    2    0    0  0.58412937134E+03 -0.30256250598E+03  0.13998750772E+04  0.15467389644E+04  0.00000000000E+00 0. -1.
<mgrwt>
<rscale>  0 0.22188290E+04</rscale>
<asrwt>0</asrwt>
<pdfrwt beam="1">  1        2 0.25163734E+00 0.22188290E+04</pdfrwt>
<pdfrwt beam="2">  1       -2 0.11576730E+00 0.22188290E+04</pdfrwt>
<totfact> 0.56401988E+00</totfact>
</mgrwt>
</event>
<event>
 6    1  0.2003386E-005  0.4999749E+03  0.7818608E-02  0.1013785E+00
         -2   -1    0    0    0  501 -0.00000000000E+00  0.00000000000E+00  0.21450210360E+03  0.21450210360E+03  0.00000000000E+00 0.  1.
          2   -1    0    0  501    0  0.00000000000E+00 -0.00000000000E+00 -0.29134313421E+03  0.29134313421E+03  0.00000000000E+00 0. -1.
         23    2    1    2    0    0 -0.12331628542E+03  0.12369492929E+03 -0.20843117357E+03  0.28715983019E+03  0.92248968425E+02 0.  0.
         11    1    3    3    0    0 -0.38347812060E+02  0.51344433337E+02 -0.14562460398E+03  0.15910163672E+03  0.00000000000E+00 0. -1.
        -11    1    3    3    0    0 -0.84968473359E+02  0.72350495950E+02 -0.62806569598E+02  0.12805819347E+03  0.00000000000E+00 0.  1.
         22    1    1    2    0    0  0.12331628542E+03 -0.12369492929E+03  0.13159014296E+03  0.21868540762E+03  0.00000000000E+00 0.  1.
<mgrwt>
<rscale>  0 0.49997486E+03</rscale>
<asrwt>0</asrwt>
<pdfrwt beam="1">  1        2 0.44822020E-01 0.49997486E+03</pdfrwt>
<pdfrwt beam="2">  1       -2 0.33000324E-01 0.49997486E+03</pdfrwt>
<totfact> 0.97379183E+02</totfact>
</mgrwt>
</event>
<event>
 6    1  0.2003386E-005  0.3182355E+04  0.7818608E-02  0.8193493E-01
         -2   -1    0    0    0  501 -0.00000000000E+00  0.00000000000E+00  0.12320230571E+04  0.12320230571E+04  0.00000000000E+00 0.  1.
          2   -1    0    0  501    0  0.00000000000E+00 -0.00000000000E+00 -0.20550317029E+04  0.20550317029E+04  0.00000000000E+00 0. -1.
         23    2    1    2    0    0 -0.10430007189E+04 -0.38271315182E+03  0.76288132362E+03  0.13507265721E+04  0.90302283378E+02 0.  0.
         13    1    3    3    0    0 -0.76975935427E+03 -0.27533590334E+03  0.60776857499E+03  0.10186863913E+04  0.00000000000E+00 0. -1.
        -13    1    3    3    0    0 -0.27324136464E+03 -0.10737724848E+03  0.15511274863E+03  0.33204018074E+03  0.00000000000E+00 0.  1.
         22    1    1    2    0    0  0.10430007189E+04  0.38271315182E+03 -0.15858899695E+04  0.19363281879E+04  0.00000000000E+00 0. -1.
<mgrwt>
<rscale>  0 0.31823554E+04</rscale>
<asrwt>0</asrwt>
<pdfrwt beam="1">  1        2 0.31615872E+00 0.31823554E+04</pdfrwt>
<pdfrwt beam="2">  1       -2 0.18954201E+00 0.31823554E+04</pdfrwt>
<totfact> 0.81960239E-01</totfact>
</mgrwt>
</event>
<event>
 6    1  0.2003386E-005  0.3713008E+04  0.7818608E-02  0.8065085E-01
          1   -1    0    0  501    0  0.00000000000E+00  0.00000000000E+00  0.25795663884E+04  0.25795663884E+04  0.00000000000E+00 0.  1.
         -1   -1    0    0    0  501 -0.00000000000E+00 -0.00000000000E+00 -0.13361189999E+04  0.13361189999E+04  0.00000000000E+00 0. -1.
         23    2    1    2    0    0  0.65212151034E+03  0.14902330279E+03 -0.12031409853E+04  0.13792971926E+04  0.86267642378E+02 0.  0.
         13    1    3    3    0    0  0.24778043713E+03  0.37552893609E+02 -0.37553119379E+03  0.45147429866E+03  0.00000000000E+00 0. -1.
        -13    1    3    3    0    0  0.40434107321E+03  0.11147040918E+03 -0.82760979147E+03  0.92782289395E+03  0.00000000000E+00 0.  1.
         22    1    1    2    0    0 -0.65212151034E+03 -0.14902330279E+03  0.24465883737E+04  0.25363881957E+04  0.00000000000E+00 0.  1.
<mgrwt>
<rscale>  0 0.37130083E+04</rscale>
<asrwt>0</asrwt>
<pdfrwt beam="1">  1        1 0.39685636E+00 0.37130083E+04</pdfrwt>
<pdfrwt beam="2">  1       -1 0.20555677E+00 0.37130083E+04</pdfrwt>
<totfact> 0.13171420E-01</totfact>
</mgrwt>
</event>
<event>
 6    1  0.2003386E-005  0.3358549E+04  0.7818608E-02  0.8148155E-01
          1   -1    0    0  501    0  0.00000000000E+00  0.00000000000E+00  0.24703014894E+04  0.24703014894E+04  0.00000000000E+00 0. -1.
         -1   -1    0    0    0  501 -0.00000000000E+00 -0.00000000000E+00 -0.11415459848E+04  0.11415459848E+04  0.00000000000E+00 0.  1.
         23    2    1    2    0    0  0.14197947889E+03  0.37393490479E+03 -0.10877276441E+04  0.11624850482E+04  0.90744553918E+02 0.  0.
         11    1    3    3    0    0  0.62758660886E+01  0.91679117900E+02 -0.33076080840E+03  0.34328874075E+03  0.00000000000E+00 0. -1.
        -11    1    3    3    0    0  0.13570361280E+03  0.28225578689E+03 -0.75696683575E+03  0.81919630748E+03  0.00000000000E+00 0.  1.
         22    1    1    2    0    0 -0.14197947889E+03 -0.37393490479E+03  0.24164831488E+04  0.24493624260E+04  0.00000000000E+00 0. -1.
<mgrwt>
<rscale>  0 0.33585489E+04</rscale>
<asrwt>0</asrwt>
<pdfrwt beam="1">  1        1 0.38004638E+00 0.33585489E+04</pdfrwt>
<pdfrwt beam="2">  1       -1 0.17562246E+00 0.33585489E+04</pdfrwt>
<totfact> 0.26245293E-01</totfact>
</mgrwt>
</event>
<event>
 6    1  0.2003386E-005  0.4040834E+04  0.7818608E-02  0.7996359E-01
         -2   -1    0    0    0  501 -0.00000000000E+00  0.00000000000E+00  0.23946877816E+04  0.23946877816E+04  0.00000000000E+00 0. -1.
          2   -1    0    0  501    0  0.00000000000E+00 -0.00000000000E+00 -0.17046421678E+04  0.17046421678E+04  0.00000000000E+00 0.  1.
         23    2    1    2    0    0 -0.10698650793E+04  0.30650426370E+03  0.20546475226E+04  0.23384510435E+04  0.90668015543E+02 0.  0.
         11    1    3    3    0    0 -0.31582275091E+03  0.12942686822E+03  0.59022982780E+03  0.68181124502E+03  0.00000000000E+00 0.  1.
        -11    1    3    3    0    0 -0.75404232839E+03  0.17707739548E+03  0.14644176948E+04  0.16566397985E+04  0.00000000000E+00 0. -1.
         22    1    1    2    0    0  0.10698650793E+04 -0.30650426370E+03 -0.13646019089E+04  0.17608789059E+04  0.00000000000E+00 0.  1.
<mgrwt>
<rscale>  0 0.40408345E+04</rscale>
<asrwt>0</asrwt>
<pdfrwt beam="1">  1        2 0.26225264E+00 0.40408345E+04</pdfrwt>
<pdfrwt beam="2">  1       -2 0.36841350E+00 0.40408345E+04</pdfrwt>
<totfact> 0.91068107E-02</totfact>
</mgrwt>
</event>
<event>
 6    1  0.2003386E-005  0.2256524E+04  0.7818608E-02  0.8495263E-01
          2   -1    0    0  501    0  0.00000000000E+00  0.00000000000E+00  0.27506074944E+04  0.27506074944E+04  0.00000000000E+00 0. -1.
         -2   -1    0    0    0  501 -0.00000000000E+00 -0.00000000000E+00 -0.46279781986E+03  0.46279781986E+03  0.00000000000E+00 0.  1.
         23    2    1    2    0    0 -0.60725232521E+03 -0.80108308777E+02  0.24919638533E+04  0.25677648134E+04  0.91430645328E+02 0.  0.
         13    1    3    3    0    0 -0.42873862239E+03 -0.61906947421E+02  0.15794992031E+04  0.16378238638E+04  0.00000000000E+00 0. -1.
        -13    1    3    3    0    0 -0.17851370282E+03 -0.18201361356E+02  0.91246465026E+03  0.92994094953E+03  0.00000000000E+00 0.  1.
         22    1    1    2    0    0  0.60725232521E+03  0.80108308777E+02 -0.20415417882E+03  0.64564050085E+03  0.00000000000E+00 0.  1.
<mgrwt>
<rscale>  0 0.22565240E+04</rscale>
<asrwt>0</asrwt>
<pdfrwt beam="1">  1        2 0.42317037E+00 0.22565240E+04</pdfrwt>
<pdfrwt beam="2">  1       -2 0.71199666E-01 0.22565240E+04</pdfrwt>
<totfact> 0.40371911E+00</totfact>
</mgrwt>
</event>
<event>
 6    1  0.2003386E-005  0.4071255E+04  0.7818608E-02  0.7990324E-01
          1   -1    0    0  501    0  0.00000000000E+00  0.00000000000E+00  0.14154678133E+04  0.14154678133E+04  0.00000000000E+00 0. -1.
         -1   -1    0    0    0  501 -0.00000000000E+00 -0.00000000000E+00 -0.29274976864E+04  0.29274976864E+04  0.00000000000E+00 0.  1.
         23    2    1    2    0    0  0.19629074637E+04  0.53450688946E+03 -0.78831283842E+03  0.21836902342E+04  0.91447155032E+02 0.  0.
         11    1    3    3    0    0  0.51370744605E+03  0.18048040820E+03 -0.22169899406E+03  0.58789366542E+03  0.00000000000E+00 0. -1.
        -11    1    3    3    0    0  0.14492000176E+04  0.35402648127E+03 -0.56661384436E+03  0.15957965688E+04  0.00000000000E+00 0.  1.
         22    1    1    2    0    0 -0.19629074637E+04 -0.53450688946E+03 -0.72371703473E+03  0.21592752655E+04  0.00000000000E+00 0. -1.
<mgrwt>
<rscale>  0 0.40712547E+04</rscale>
<asrwt>0</asrwt>
<pdfrwt beam="1">  1        1 0.21776428E+00 0.40712547E+04</pdfrwt>
<pdfrwt beam="2">  1       -1 0.45038425E+00 0.40712547E+04</pdfrwt>
<totfact> 0.18752232E-02</totfact>
</mgrwt>
</event>
<event>
 6    1  0.2003386E-005  0.2871943E+04  0.7818608E-02  0.8281275E-01
          2   -1    0    0  501    0  0.00000000000E+00  0.00000000000E+00  0.24646392419E+04  0.24646392419E+04  0.00000000000E+00 0. -1.
         -2   -1    0    0    0  501 -0.00000000000E+00 -0.00000000000E+00 -0.83663932712E+03  0.83663932712E+03  0.00000000000E+00 0.  1.
         23    2    1    2    0    0  0.68713988321E+03 -0.51978220627E+03 -0.50463460169E+03  0.10011775404E+04  0.73250427343E+02 0.  0.
         11    1    3    3    0    0  0.23587841269E+03 -0.22170589488E+03 -0.19831276715E+03  0.37963150951E+03  0.00000000000E+00 0.  1.
        -11    1    3    3    0    0  0.45126147052E+03 -0.29807631139E+03 -0.30632183454E+03  0.62154603088E+03  0.00000000000E+00 0. -1.
         22    1    1    2    0    0 -0.68713988321E+03  0.51978220627E+03  0.21326345165E+04  0.23001010287E+04  0.00000000000E+00 0. -1.
<mgrwt>
<rscale>  0 0.28719430E+04</rscale>
<asrwt>0</asrwt>
<pdfrwt beam="1">  1        2 0.37917526E+00 0.28719430E+04</pdfrwt>
<pdfrwt beam="2">  1       -2 0.12871374E+00 0.28719430E+04</pdfrwt>
<totfact> 0.14056105E+00</totfact>
</mgrwt>
</event>
<event>
 6    1  0.2003386E-005  0.4794760E+04  0.7818608E-02  0.7860972E-01
          2   -1    0    0  501    0  0.00000000000E+00  0.00000000000E+00  0.30689545241E+04  0.30689545241E+04  0.00000000000E+00 0. -1.
         -2   -1    0    0    0  501 -0.00000000000E+00 -0.00000000000E+00 -0.18727650444E+04  0.18727650444E+04  0.00000000000E+00 0.  1.
         23    2    1    2    0    0  0.15691637062E+04  0.18466503212E+03  0.24554956008E+04  0.29212671890E+04  0.89260479129E+02 0.  0.
         13    1    3    3    0    0  0.51399525355E+03  0.26897909303E+02  0.84613709350E+03  0.99038507621E+03  0.00000000000E+00 0. -1.
        -13    1    3    3    0    0  0.10551684527E+04  0.15776712281E+03  0.16093585073E+04  0.19308821128E+04  0.00000000000E+00 0.  1.
         22    1    1    2    0    0 -0.15691637062E+04 -0.18466503212E+03 -0.12593061211E+04  0.20204523795E+04  0.00000000000E+00 0.  1.
<mgrwt>
<rscale>  0 0.47947600E+04</rscale>
<asrwt>0</asrwt>
<pdfrwt beam="1">  1        2 0.47214685E+00 0.47947600E+04</pdfrwt>
<pdfrwt beam="2">  1       -2 0.28811770E+00 0.47947600E+04</pdfrwt>
<totfact> 0.43760720E-02</totfact>
</mgrwt>
</event>
<event>
 6    1  0.2003386E-005  0.2582578E+04  0.7818608E-02  0.8374143E-01
          2   -1    0    0  501    0  0.00000000000E+00  0.00000000000E+00  0.20236234415E+04  0.20236234415E+04  0.00000000000E+00 0. -1.
         -2   -1    0    0    0  501 -0.00000000000E+00 -0.00000000000E+00 -0.82398073671E+03  0.82398073671E+03  0.00000000000E+00 0.  1.
         23    2    1    2    0    0  0.67644923427E+03  0.86676734442E+03  0.13438907365E+04  0.17386962963E+04  0.90295642612E+02 0.  0.
         13    1    3    3    0    0  0.13349550001E+03  0.14850972561E+03  0.19595686587E+03  0.27977719780E+03  0.00000000000E+00 0. -1.
        -13    1    3    3    0    0  0.54295373426E+03  0.71825761880E+03  0.11479338707E+04  0.14589190985E+04  0.00000000000E+00 0.  1.
         22    1    1    2    0    0 -0.67644923427E+03 -0.86676734442E+03 -0.14424803176E+03  0.11089078819E+04  0.00000000000E+00 0.  1.
<mgrwt>
<rscale>  0 0.25825776E+04</rscale>
<asrwt>0</asrwt>
<pdfrwt beam="1">  1        2 0.31132668E+00 0.25825776E+04</pdfrwt>
<pdfrwt beam="2">  1       -2 0.12676627E+00 0.25825776E+04</pdfrwt>
<totfact> 0.26576399E+00</totfact>
</mgrwt>
</event>
<event>
 6    1  0.2003386E-005  0.2721162E+04  0.7818608E-02  0.8328171E-01
          2   -1    0    0  501    0  0.00000000000E+00  0.00000000000E+00  0.27114087019E+04  0.27114087019E+04  0.00000000000E+00 0.  1.
         -2   -1    0    0    0  501 -0.00000000000E+00 -0.00000000000E+00 -0.68273757595E+03  0.68273757595E+03  0.00000000000E+00 0. -1.
         23    2    1    2    0    0  0.11305057329E+04  0.58262538417E+03  0.16117214012E+04  0.20557357940E+04  0.10444246758E+03 0.  0.
         11    1    3    3    0    0  0.50214356963E+03  0.23643664733E+03  0.78066065324E+03  0.95785255037E+03  0.00000000000E+00 0.  1.
        -11    1    3    3    0    0  0.62836216328E+03  0.34618873684E+03  0.83106074800E+03  0.10978832436E+04  0.00000000000E+00 0. -1.
         22    1    1    2    0    0 -0.11305057329E+04 -0.58262538417E+03  0.41694972472E+03  0.13384104839E+04  0.00000000000E+00 0. -1.
<mgrwt>
<rscale>  0 0.27211620E+04</rscale>
<asrwt>0</asrwt>
<pdfrwt beam="1">  1        2 0.41713980E+00 0.27211620E+04</pdfrwt>
<pdfrwt beam="2">  1       -2 0.10503655E+00 0.27211620E+04</pdfrwt>
<totfact> 0.16810170E+00</totfact>
</mgrwt>
</event>
<event>
 6    1  0.2003386E-005  0.3226346E+04  0.7818608E-02  0.8181894E-01
          2   -1    0    0  501    0  0.00000000000E+00  0.00000000000E+00  0.12687259935E+04  0.12687259935E+04  0.00000000000E+00 0.  1.
         -2   -1    0    0    0  501 -0.00000000000E+00 -0.00000000000E+00 -0.20511334886E+04  0.20511334886E+04  0.00000000000E+00 0. -1.
         23    2    1    2    0    0 -0.61002432168E+03  0.46881205638E+02 -0.19259317417E+04  0.20229496075E+04  0.93725772068E+02 0.  0.
         11    1    3    3    0    0 -0.40115342641E+03  0.71167516620E+02 -0.13303128926E+04  0.13913020086E+04  0.00000000000E+00 0.  1.
        -11    1    3    3    0    0 -0.20887089527E+03 -0.24286310982E+02 -0.59561884907E+03  0.63164759887E+03  0.00000000000E+00 0. -1.
         22    1    1    2    0    0  0.61002432168E+03 -0.46881205638E+02  0.11435242466E+04  0.12969098747E+04  0.00000000000E+00 0.  1.
<mgrwt>
<rscale>  0 0.32263455E+04</rscale>
<asrwt>0</asrwt>
<pdfrwt beam="1">  1        2 0.19518862E+00 0.32263455E+04</pdfrwt>
<pdfrwt beam="2">  1       -2 0.31555899E+00 0.32263455E+04</pdfrwt>
<totfact> 0.36945653E-01</totfact>
</mgrwt>
</event>
<event>
 6    1  0.2003386E-005  0.1899232E+04  0.7818608E-02  0.8655239E-01
         -2   -1    0    0    0  501 -0.00000000000E+00  0.00000000000E+00  0.10482092318E+04  0.10482092318E+04  0.00000000000E+00 0. -1.
          2   -1    0    0  501    0  0.00000000000E+00 -0.00000000000E+00 -0.86029590524E+03  0.86029590524E+03  0.00000000000E+00 0.  1.
         23    2    1    2    0    0  0.44381312721E+03  0.45328419895E+02 -0.74568375770E+03  0.87379345097E+03  0.91901963656E+02 0.  0.
         11    1    3    3    0    0  0.18710882068E+03  0.50483113698E+02 -0.38538317164E+03  0.43136810791E+03  0.00000000000E+00 0. -1.
        -11    1    3    3    0    0  0.25670430653E+03 -0.51546938033E+01 -0.36030058607E+03  0.44242534306E+03  0.00000000000E+00 0.  1.
         22    1    1    2    0    0 -0.44381312721E+03 -0.45328419895E+02  0.93359708427E+03  0.10347116861E+04  0.00000000000E+00 0. -1.
<mgrwt>
<rscale>  0 0.18992315E+04</rscale>
<asrwt>0</asrwt>
<pdfrwt beam="1">  1        2 0.13235322E+00 0.18992315E+04</pdfrwt>
<pdfrwt beam="2">  1       -2 0.16126296E+00 0.18992315E+04</pdfrwt>
<totfact> 0.72064204E+00</totfact>
</mgrwt>
</event>
<event>
 6    1  0.2376858E-005  0.3980368E+04  0.7818608E-02  0.8008519E-01
         -2   -1    0    0    0  501 -0.00000000000E+00  0.00000000000E+00  0.22524787020E+04  0.22524787020E+04  0.00000000000E+00 0.  1.
          2   -1    0    0  501    0  0.00000000000E+00 -0.00000000000E+00 -0.17584325894E+04  0.17584325894E+04  0.00000000000E+00 0. -1.
         23    2    1    2    0    0 -0.22616584385E+03 -0.16798047301E+04 -0.80162828144E+03  0.18774476625E+04  0.96472294710E+02 0.  0.
         13    1    3    3    0    0 -0.10664548265E+03 -0.93281772617E+03 -0.39502020204E+03  0.10186084278E+04  0.00000000000E+00 0. -1.
        -13    1    3    3    0    0 -0.11952036120E+03 -0.74698700395E+03 -0.40660807941E+03  0.85883923470E+03  0.00000000000E+00 0.  1.
         22    1    1    2    0    0  0.22616584385E+03  0.16798047301E+04  0.12956743940E+04  0.21334636288E+04  0.00000000000E+00 0.  1.
<mgrwt>
<rscale>  0 0.39803678E+04</rscale>
<asrwt>0</asrwt>
<pdfrwt beam="1">  1        2 0.27052809E+00 0.39803678E+04</pdfrwt>
<pdfrwt beam="2">  1       -2 0.34653518E+00 0.39803678E+04</pdfrwt>
<totfact> 0.11760295E-01</totfact>
</mgrwt>
</event>
<event>
 6    1  0.2003386E-005  0.1198217E+04  0.7818608E-02  0.9114418E-01
          1   -1    0    0  501    0  0.00000000000E+00  0.00000000000E+00  0.19596839869E+04  0.19596839869E+04  0.00000000000E+00 0. -1.
         -1   -1    0    0    0  501 -0.00000000000E+00 -0.00000000000E+00 -0.18315764540E+03  0.18315764540E+03  0.00000000000E+00 0.  1.
         23    2    1    2    0    0 -0.45156669805E+03  0.24481966735E+03  0.35286968473E+03  0.62935313592E+03  0.87858994869E+02 0.  0.
         13    1    3    3    0    0 -0.39371182272E+03  0.20999689908E+03  0.33908517690E+03  0.56043416578E+03  0.00000000000E+00 0. -1.
        -13    1    3    3    0    0 -0.57854875327E+02  0.34822768280E+02  0.13784507827E+02  0.68918970144E+02  0.00000000000E+00 0.  1.
         22    1    1    2    0    0  0.45156669805E+03 -0.24481966735E+03  0.14236566567E+04  0.15134884964E+04  0.00000000000E+00 0. -1.
<mgrwt>
<rscale>  0 0.11982172E+04</rscale>
<asrwt>0</asrwt>
<pdfrwt beam="1">  1        1 0.30148983E+00 0.11982172E+04</pdfrwt>
<pdfrwt beam="2">  1       -1 0.28178101E-01 0.11982172E+04</pdfrwt>
<totfact> 0.35832184E+01</totfact>
</mgrwt>
</event>
<event>
 6    1  0.2003386E-005  0.2023665E+04  0.7818608E-02  0.8595636E-01
         -1   -1    0    0    0  501 -0.00000000000E+00  0.00000000000E+00  0.33572797795E+03  0.33572797795E+03  0.00000000000E+00 0.  1.
          1   -1    0    0  501    0  0.00000000000E+00 -0.00000000000E+00 -0.30495075581E+04  0.30495075581E+04  0.00000000000E+00 0. -1.
         23    2    1    2    0    0 -0.84597637031E+02  0.98432940076E+03 -0.10121251782E+04  0.14175747845E+04  0.95182792542E+02 0.  0.
         11    1    3    3    0    0 -0.89958507371E+02  0.84036852693E+03 -0.90323881986E+03  0.12369931931E+04  0.00000000000E+00 0.  1.
        -11    1    3    3    0    0  0.53608703395E+01  0.14396087383E+03 -0.10888635830E+03  0.18058159139E+03  0.00000000000E+00 0. -1.
         22    1    1    2    0    0  0.84597637031E+02 -0.98432940076E+03 -0.17016544020E+04  0.19676607516E+04  0.00000000000E+00 0. -1.
<mgrwt>
<rscale>  0 0.20236650E+04</rscale>
<asrwt>0</asrwt>
<pdfrwt beam="1">  1        1 0.46915503E+00 0.20236650E+04</pdfrwt>
<pdfrwt beam="2">  1       -1 0.51650456E-01 0.20236650E+04</pdfrwt>
<totfact> 0.19238755E+00</totfact>
</mgrwt>
</event>
<event>
 6    1  0.2003386E-005  0.1088207E+04  0.7818608E-02  0.9216763E-01
          1   -1    0    0  501    0  0.00000000000E+00  0.00000000000E+00  0.28286464030E+03  0.28286464030E+03  0.00000000000E+00 0. -1.
         -1   -1    0    0    0  501 -0.00000000000E+00 -0.00000000000E+00 -0.10466090780E+04  0.10466090780E+04  0.00000000000E+00 0.  1.
         23    2    1    2    0    0 -0.46350346853E+02  0.28213676014E+03  0.17553736149E+03  0.34763880123E+03  0.91048694465E+02 0.  0.
         11    1    3    3    0    0  0.24135546125E+02  0.87882017749E+02  0.73986671933E+02  0.11738739819E+03  0.00000000000E+00 0.  1.
        -11    1    3    3    0    0 -0.70485892978E+02  0.19425474239E+03  0.10155068956E+03  0.23025140304E+03  0.00000000000E+00 0. -1.
         22    1    1    2    0    0  0.46350346853E+02 -0.28213676014E+03 -0.93928179919E+03  0.98183491707E+03  0.00000000000E+00 0.  1.
<mgrwt>
<rscale>  0 0.10882072E+04</rscale>
<asrwt>0</asrwt>
<pdfrwt beam="1">  1        1 0.43517637E-01 0.10882072E+04</pdfrwt>
<pdfrwt beam="2">  1       -1 0.16101678E+00 0.10882072E+04</pdfrwt>
<totfact> 0.27109966E+01</totfact>
</mgrwt>
</event>
<event>
 6    1  0.2003386E-005  0.2250923E+04  0.7818608E-02  0.8497527E-01
         -2   -1    0    0    0  501 -0.00000000000E+00  0.00000000000E+00  0.86332763871E+03  0.86332763871E+03  0.00000000000E+00 0.  1.
          2   -1    0    0  501    0  0.00000000000E+00 -0.00000000000E+00 -0.14671869452E+04  0.14671869452E+04  0.00000000000E+00 0. -1.
         23    2    1    2    0    0 -0.68455550181E+03 -0.83783767291E+03  0.10493902716E+02  0.10863208422E+04  0.96925997512E+02 0.  0.
         13    1    3    3    0    0 -0.39063755960E+03 -0.43745157534E+03  0.46557864548E+02  0.58832747555E+03  0.00000000000E+00 0.  1.
        -13    1    3    3    0    0 -0.29391794221E+03 -0.40038609757E+03 -0.36063961833E+02  0.49799336665E+03  0.00000000000E+00 0. -1.
         22    1    1    2    0    0  0.68455550181E+03  0.83783767291E+03 -0.61435320917E+03  0.12441937417E+04  0.00000000000E+00 0. -1.
<mgrwt>
<rscale>  0 0.22509225E+04</rscale>
<asrwt>0</asrwt>
<pdfrwt beam="1">  1        2 0.22572107E+00 0.22509225E+04</pdfrwt>
<pdfrwt beam="2">  1       -2 0.13281964E+00 0.22509225E+04</pdfrwt>
<totfact> 0.49605160E+00</totfact>
</mgrwt>
</event>
<event>
 6    1  0.2003386E-005  0.1311733E+04  0.7818608E-02  0.9020312E-01
          2   -1    0    0  501    0  0.00000000000E+00  0.00000000000E+00  0.11594500890E+04  0.11594500890E+04  0.00000000000E+00 0. -1.
         -2   -1    0    0    0  501 -0.00000000000E+00 -0.00000000000E+00 -0.37100430606E+03  0.37100430606E+03  0.00000000000E+00 0.  1.
         23    2    1    2    0    0  0.16561132799E+03  0.55865016825E+03  0.73928387323E+03  0.94570315243E+03  0.91086139691E+02 0.  0.
         13    1    3    3    0    0  0.15241244415E+03  0.37653412014E+03  0.48471409969E+03  0.63242015717E+03  0.00000000000E+00 0. -1.
        -13    1    3    3    0    0  0.13198883845E+02  0.18211604811E+03  0.25456977354E+03  0.31328299526E+03  0.00000000000E+00 0.  1.
         22    1    1    2    0    0 -0.16561132799E+03 -0.55865016825E+03  0.49161909745E+02  0.58475124268E+03  0.00000000000E+00 0.  1.
<mgrwt>
<rscale>  0 0.13117332E+04</rscale>
<asrwt>0</asrwt>
<pdfrwt beam="1">  1        2 0.17837693E+00 0.13117332E+04</pdfrwt>
<pdfrwt beam="2">  1       -2 0.57077586E-01 0.13117332E+04</pdfrwt>
<totfact> 0.56457242E+01</totfact>
</mgrwt>
</event>
<event>
 6    1  0.2003386E-005  0.1237454E+04  0.7818608E-02  0.9080691E-01
         -2   -1    0    0    0  501 -0.00000000000E+00  0.00000000000E+00  0.13033417313E+03  0.13033417313E+03  0.00000000000E+00 0.  1.
          2   -1    0    0  501    0  0.00000000000E+00 -0.00000000000E+00 -0.29372407460E+04  0.29372407460E+04  0.00000000000E+00 0. -1.
         23    2    1    2    0    0  0.25991933995E+03  0.53876615002E+03 -0.17693389005E+04  0.18699215042E+04  0.90660130094E+02 0.  0.
         11    1    3    3    0    0  0.32661036352E+02  0.15285375520E+03 -0.41535467539E+03  0.44379107713E+03  0.00000000000E+00 0. -1.
        -11    1    3    3    0    0  0.22725830360E+03  0.38591239482E+03 -0.13539842251E+04  0.14261304271E+04  0.00000000000E+00 0.  1.
         22    1    1    2    0    0 -0.25991933995E+03 -0.53876615002E+03 -0.10375676724E+04  0.11976534150E+04  0.00000000000E+00 0.  1.
<mgrwt>
<rscale>  0 0.12374536E+04</rscale>
<asrwt>0</asrwt>
<pdfrwt beam="1">  1        2 0.45188321E+00 0.12374536E+04</pdfrwt>
<pdfrwt beam="2">  1       -2 0.20051410E-01 0.12374536E+04</pdfrwt>
<totfact> 0.40395328E+01</totfact>
</mgrwt>
</event>
<event>
 6    1  0.2003386E-005  0.1804888E+04  0.7818608E-02  0.8703705E-01
          2   -1    0    0  501    0  0.00000000000E+00  0.00000000000E+00  0.13252379496E+04  0.13252379496E+04  0.00000000000E+00 0. -1.
         -2   -1    0    0    0  501 -0.00000000000E+00 -0.00000000000E+00 -0.61453476393E+03  0.61453476393E+03  0.00000000000E+00 0.  1.
         23    2    1    2    0    0  0.25929392418E+03  0.77206591374E+03 -0.55969030395E+02  0.82124448360E+03  0.89391583493E+02 0.  0.
         11    1    3    3    0    0  0.18424595951E+03  0.46425000528E+03 -0.68583189797E+02  0.50416098115E+03  0.00000000000E+00 0. -1.
        -11    1    3    3    0    0  0.75047964671E+02  0.30781590847E+03  0.12614159403E+02  0.31708350245E+03  0.00000000000E+00 0.  1.
         22    1    1    2    0    0 -0.25929392418E+03 -0.77206591374E+03  0.76667221607E+03  0.11185282299E+04  0.00000000000E+00 0. -1.
<mgrwt>
<rscale>  0 0.18048876E+04</rscale>
<asrwt>0</asrwt>
<pdfrwt beam="1">  1        2 0.20388276E+00 0.18048876E+04</pdfrwt>
<pdfrwt beam="2">  1       -2 0.94543810E-01 0.18048876E+04</pdfrwt>
<totfact> 0.14217100E+01</totfact>
</mgrwt>
</event>
<event>
 6    1  0.2003386E-005  0.5181176E+04  0.7818608E-02  0.7801151E-01
         -2   -1    0    0    0  501 -0.00000000000E+00  0.00000000000E+00  0.24861939911E+04  0.24861939911E+04  0.00000000000E+00 0.  1.
          2   -1    0    0  501    0  0.00000000000E+00 -0.00000000000E+00 -0.26993652037E+04  0.26993652037E+04  0.00000000000E+00 0. -1.
         23    2    1    2    0    0  0.67377834993E+03 -0.57744755255E+03  0.23284104107E+04  0.24935227744E+04  0.93476439226E+02 0.  0.
         13    1    3    3    0    0  0.55218928278E+03 -0.44467853541E+03  0.19376677024E+04  0.20633003002E+04  0.00000000000E+00 0.  1.
        -13    1    3    3    0    0  0.12158906715E+03 -0.13276901714E+03  0.39074270830E+03  0.43022247414E+03  0.00000000000E+00 0. -1.
         22    1    1    2    0    0 -0.67377834993E+03  0.57744755255E+03 -0.25415816234E+04  0.26920364204E+04  0.00000000000E+00 0. -1.
<mgrwt>
<rscale>  0 0.51811758E+04</rscale>
<asrwt>0</asrwt>
<pdfrwt beam="1">  1        2 0.41528696E+00 0.51811758E+04</pdfrwt>
<pdfrwt beam="2">  1       -2 0.38249138E+00 0.51811758E+04</pdfrwt>
<totfact> 0.18409545E-02</totfact>
</mgrwt>
</event>
<event>
 6    1  0.2003386E-005  0.3858523E+04  0.7818608E-02  0.8033711E-01
         -1   -1    0    0    0  501 -0.00000000000E+00  0.00000000000E+00  0.20082044810E+04  0.20082044810E+04  0.00000000000E+00 0. -1.
          1   -1    0    0  501    0  0.00000000000E+00 -0.00000000000E+00 -0.18534215394E+04  0.18534215394E+04  0.00000000000E+00 0.  1.
         23    2    1    2    0    0 -0.17110273196E+04  0.49549022571E+03 -0.66122063829E+03  0.19022927424E+04  0.91541757089E+02 0.  0.
         13    1    3    3    0    0 -0.60265514594E+03  0.13587169613E+03 -0.20487346546E+03  0.65086671415E+03  0.00000000000E+00 0. -1.
        -13    1    3    3    0    0 -0.11083721736E+04  0.35961852959E+03 -0.45634717283E+03  0.12514260283E+04  0.00000000000E+00 0.  1.
         22    1    1    2    0    0  0.17110273196E+04 -0.49549022571E+03  0.81600357986E+03  0.19593332780E+04  0.00000000000E+00 0. -1.
<mgrwt>
<rscale>  0 0.38585227E+04</rscale>
<asrwt>0</asrwt>
<pdfrwt beam="1">  1        1 0.28514178E+00 0.38585227E+04</pdfrwt>
<pdfrwt beam="2">  1       -1 0.30895453E+00 0.38585227E+04</pdfrwt>
<totfact> 0.85697708E-02</totfact>
</mgrwt>
</event>
<event>
 6    1  0.2003386E-005  0.2613441E+04  0.7818608E-02  0.8363650E-01
          1   -1    0    0  501    0  0.00000000000E+00  0.00000000000E+00  0.95100214640E+03  0.95100214640E+03  0.00000000000E+00 0. -1.
         -1   -1    0    0    0  501 -0.00000000000E+00 -0.00000000000E+00 -0.17954942630E+04  0.17954942630E+04  0.00000000000E+00 0.  1.
         23    2    1    2    0    0 -0.10685457817E+04  0.36290806395E+03  0.26649431706E+03  0.11628982261E+04  0.88434792826E+02 0.  0.
         13    1    3    3    0    0 -0.89779641599E+03  0.26980889641E+03  0.22235745364E+03  0.96347188975E+03  0.00000000000E+00 0. -1.
        -13    1    3    3    0    0 -0.17074936575E+03  0.93099167532E+02  0.44136863417E+02  0.19942633631E+03  0.00000000000E+00 0.  1.
         22    1    1    2    0    0  0.10685457817E+04 -0.36290806395E+03 -0.11109864337E+04  0.15835981834E+04  0.00000000000E+00 0.  1.
<mgrwt>
<rscale>  0 0.26134413E+04</rscale>
<asrwt>0</asrwt>
<pdfrwt beam="1">  1        1 0.14630803E+00 0.26134413E+04</pdfrwt>
<pdfrwt beam="2">  1       -1 0.27622988E+00 0.26134413E+04</pdfrwt>
<totfact> 0.68519669E-01</totfact>
</mgrwt>
</event>
<event>
 6    1  0.2003386E-005  0.1648924E+04  0.7818608E-02  0.8791043E-01
         -2   -1    0    0    0  501 -0.00000000000E+00  0.00000000000E+00  0.49303386474E+03  0.49303386474E+03  0.00000000000E+00 0.  1.
          2   -1    0    0  501    0  0.00000000000E+00 -0.00000000000E+00 -0.13786828027E+04  0.13786828027E+04  0.00000000000E+00 0. -1.
         23    2    1    2    0    0 -0.13655583455E+03  0.80631122298E+03 -0.35137282009E+03  0.89486649756E+03  0.92400787412E+02 0.  0.
         13    1    3    3    0    0 -0.97440427016E+02  0.35348270636E+03 -0.12744750191E+03  0.38818491245E+03  0.00000000000E+00 0.  1.
        -13    1    3    3    0    0 -0.39115407537E+02  0.45282851661E+03 -0.22392531818E+03  0.50668158511E+03  0.00000000000E+00 0. -1.
         22    1    1    2    0    0  0.13655583455E+03 -0.80631122298E+03 -0.53427611784E+03  0.97685016985E+03  0.00000000000E+00 0. -1.
<mgrwt>
<rscale>  0 0.16489237E+04</rscale>
<asrwt>0</asrwt>
<pdfrwt beam="1">  1        2 0.21210504E+00 0.16489237E+04</pdfrwt>
<pdfrwt beam="2">  1       -2 0.75851366E-01 0.16489237E+04</pdfrwt>
<totfact> 0.22143559E+01</totfact>
</mgrwt>
</event>
<event>
 6    1  0.2003386E-005  0.2687339E+04  0.7818608E-02  0.8339125E-01
          2   -1    0    0  501    0  0.00000000000E+00  0.00000000000E+00  0.23528397810E+04  0.23528397810E+04  0.00000000000E+00 0. -1.
         -2   -1    0    0    0  501 -0.00000000000E+00 -0.00000000000E+00 -0.76734812382E+03  0.76734812382E+03  0.00000000000E+00 0.  1.
         23    2    1    2    0    0 -0.14313150234E+03  0.88725528281E+03 -0.36308492842E+03  0.97434092198E+03  0.99000015965E+02 0.  0.
         13    1    3    3    0    0 -0.47435592517E+02  0.14785784142E+03 -0.95039186955E+02  0.18205637523E+03  0.00000000000E+00 0. -1.
        -13    1    3    3    0    0 -0.95695909826E+02  0.73939744139E+03 -0.26804574146E+03  0.79228454674E+03  0.00000000000E+00 0.  1.
         22    1    1    2    0    0  0.14313150234E+03 -0.88725528281E+03  0.19485765856E+04  0.21458469829E+04  0.00000000000E+00 0. -1.
<mgrwt>
<rscale>  0 0.26873386E+04</rscale>
<asrwt>0</asrwt>
<pdfrwt beam="1">  1        2 0.36197535E+00 0.26873386E+04</pdfrwt>
<pdfrwt beam="2">  1       -2 0.11805356E+00 0.26873386E+04</pdfrwt>
<totfact> 0.20539952E+00</totfact>
</mgrwt>
</event>
<event>
 6    1  0.2003386E-005  0.1653654E+04  0.7818608E-02  0.8788248E-01
          2   -1    0    0  501    0  0.00000000000E+00  0.00000000000E+00  0.18854303001E+04  0.18854303001E+04  0.00000000000E+00 0. -1.
         -2   -1    0    0    0  501 -0.00000000000E+00 -0.00000000000E+00 -0.36259252254E+03  0.36259252254E+03  0.00000000000E+00 0.  1.
         23    2    1    2    0    0 -0.31676643925E+03  0.19223624565E+03  0.17647746982E+04  0.18054968632E+04  0.89963527232E+02 0.  0.
         11    1    3    3    0    0 -0.96893347931E+02  0.99658567074E+02  0.77587862357E+03  0.78823079702E+03  0.00000000000E+00 0.  1.
        -11    1    3    3    0    0 -0.21987309132E+03  0.92577678576E+02  0.98889607465E+03  0.10172660661E+04  0.00000000000E+00 0. -1.
         22    1    1    2    0    0  0.31676643925E+03 -0.19223624565E+03 -0.24193692070E+03  0.44252595943E+03  0.00000000000E+00 0.  1.
<mgrwt>
<rscale>  0 0.16536540E+04</rscale>
<asrwt>0</asrwt>
<pdfrwt beam="1">  1        2 0.29006620E+00 0.16536540E+04</pdfrwt>
<pdfrwt beam="2">  1       -2 0.55783466E-01 0.16536540E+04</pdfrwt>
<totfact> 0.22301636E+01</totfact>
</mgrwt>
</event>
<event>
 6    1  0.2003386E-005  0.4416031E+04  0.7818608E-02  0.7925504E-01
          2   -1    0    0  501    0  0.00000000000E+00  0.00000000000E+00  0.47616020271E+04  0.47616020271E+04  0.00000000000E+00 0. -1.
         -2   -1    0    0    0  501 -0.00000000000E+00 -0.00000000000E+00 -0.10238848134E+04  0.10238848134E+04  0.00000000000E+00 0.  1.
         23    2    1    2    0    0 -0.20045993679E+04 -0.33309753830E+03  0.74132731600E+03  0.21650276134E+04  0.91683049541E+02 0.  0.
         11    1    3    3    0    0 -0.12765316351E+04 -0.24818034185E+03  0.50161697808E+03  0.13938242681E+04  0.00000000000E+00 0. -1.
        -11    1    3    3    0    0 -0.72806773280E+03 -0.84917196452E+02  0.23971033792E+03  0.77120334536E+03  0.00000000000E+00 0.  1.
         22    1    1    2    0    0  0.20045993679E+04  0.33309753830E+03  0.29963898977E+04  0.36204592271E+04  0.00000000000E+00 0. -1.
<mgrwt>
<rscale>  0 0.44160308E+04</rscale>
<asrwt>0</asrwt>
<pdfrwt beam="1">  1        2 0.73255415E+00 0.44160308E+04</pdfrwt>
<pdfrwt beam="2">  1       -2 0.15752074E+00 0.44160308E+04</pdfrwt>
<totfact> 0.13028626E-02</totfact>
</mgrwt>
</event>
<event>
 6    1  0.2003386E-005  0.6210384E+03  0.7818608E-02  0.9862694E-01
         -2   -1    0    0    0  501 -0.00000000000E+00  0.00000000000E+00  0.79307859853E+02  0.79307859853E+02  0.00000000000E+00 0.  1.
          2   -1    0    0  501    0  0.00000000000E+00 -0.00000000000E+00 -0.12157959008E+04  0.12157959008E+04  0.00000000000E+00 0. -1.
         23    2    1    2    0    0 -0.15964346307E+03  0.25529967251E+03 -0.66513306644E+03  0.73578321742E+03  0.91164625196E+02 0.  0.
         13    1    3    3    0    0 -0.77846588977E+01  0.88446356070E+02 -0.17615916980E+03  0.19726989613E+03  0.00000000000E+00 0.  1.
        -13    1    3    3    0    0 -0.15185880417E+03  0.16685331644E+03 -0.48897389664E+03  0.53851332129E+03  0.00000000000E+00 0. -1.
         22    1    1    2    0    0  0.15964346307E+03 -0.25529967251E+03 -0.47135497451E+03  0.55932054323E+03  0.00000000000E+00 0.  1.
<mgrwt>
<rscale>  0 0.62103839E+03</rscale>
<asrwt>0</asrwt>
<pdfrwt beam="1">  1        2 0.18704551E+00 0.62103839E+03</pdfrwt>
<pdfrwt beam="2">  1       -2 0.12201210E-01 0.62103839E+03</pdfrwt>
<totfact> 0.92841472E+02</totfact>
</mgrwt>
</event>
<event>
 6    1  0.2003386E-005  0.1796475E+04  0.7818608E-02  0.8708176E-01
          1   -1    0    0  501    0  0.00000000000E+00  0.00000000000E+00  0.20144915410E+04  0.20144915410E+04  0.00000000000E+00 0. -1.
         -1   -1    0    0    0  501 -0.00000000000E+00 -0.00000000000E+00 -0.40051308892E+03  0.40051308892E+03  0.00000000000E+00 0.  1.
         23    2    1    2    0    0 -0.10602749878E+03 -0.56271408417E+03 -0.11726933423E+03  0.59151679925E+03  0.90835323640E+02 0.  0.
         13    1    3    3    0    0 -0.93816196197E+02 -0.40242056398E+03 -0.12149688213E+03  0.43070324047E+03  0.00000000000E+00 0.  1.
        -13    1    3    3    0    0 -0.12211302583E+02 -0.16029352019E+03  0.42275479038E+01  0.16081355878E+03  0.00000000000E+00 0. -1.
         22    1    1    2    0    0  0.10602749878E+03  0.56271408417E+03  0.17312477863E+04  0.18234878306E+04  0.00000000000E+00 0. -1.
<mgrwt>
<rscale>  0 0.17964746E+04</rscale>
<asrwt>0</asrwt>
<pdfrwt beam="1">  1        1 0.30992177E+00 0.17964746E+04</pdfrwt>
<pdfrwt beam="2">  1       -1 0.61617400E-01 0.17964746E+04</pdfrwt>
<totfact> 0.73468252E+00</totfact>
</mgrwt>
</event>
<event>
 6    1  0.2003386E-005  0.7904295E+04  0.7818608E-02  0.7490744E-01
         -2   -1    0    0    0  501 -0.00000000000E+00  0.00000000000E+00  0.42055940626E+04  0.42055940626E+04  0.00000000000E+00 0.  1.
          2   -1    0    0  501    0  0.00000000000E+00 -0.00000000000E+00 -0.37139750811E+04  0.37139750811E+04  0.00000000000E+00 0. -1.
         23    2    1    2    0    0 -0.68539158942E+03 -0.31893597743E+04  0.24805552119E+04  0.40988827224E+04  0.76863589981E+02 0.  0.
         13    1    3    3    0    0 -0.43015582273E+03 -0.18434872922E+04  0.14620877537E+04  0.23918988331E+04  0.00000000000E+00 0. -1.
        -13    1    3    3    0    0 -0.25523576668E+03 -0.13458724822E+04  0.10184674582E+04  0.17069838893E+04  0.00000000000E+00 0.  1.
         22    1    1    2    0    0  0.68539158942E+03  0.31893597743E+04 -0.19889362305E+04  0.38206864213E+04  0.00000000000E+00 0. -1.
<mgrwt>
<rscale>  0 0.79042954E+04</rscale>
<asrwt>0</asrwt>
<pdfrwt beam="1">  1        2 0.57138079E+00 0.79042954E+04</pdfrwt>
<pdfrwt beam="2">  1       -2 0.64701446E+00 0.79042954E+04</pdfrwt>
<totfact> 0.11804664E-04</totfact>
</mgrwt>
</event>
<event>
 6    1  0.2003386E-005  0.2886444E+04  0.7818608E-02  0.8276922E-01
          2   -1    0    0  501    0  0.00000000000E+00  0.00000000000E+00  0.24781149752E+04  0.24781149752E+04  0.00000000000E+00 0. -1.
         -2   -1    0    0    0  501 -0.00000000000E+00 -0.00000000000E+00 -0.84051372717E+03  0.84051372717E+03  0.00000000000E+00 0.  1.
         23    2    1    2    0    0  0.26961874403E+03 -0.54450033165E+03 -0.68338476557E+03  0.91943072103E+03  0.95724786038E+02 0.  0.
         13    1    3    3    0    0  0.15644881111E+03 -0.33001886353E+03 -0.33956633454E+03  0.49869226616E+03  0.00000000000E+00 0. -1.
        -13    1    3    3    0    0  0.11316993292E+03 -0.21448146813E+03 -0.34381843103E+03  0.42073845487E+03  0.00000000000E+00 0.  1.
         22    1    1    2    0    0 -0.26961874403E+03  0.54450033165E+03  0.23209860136E+04  0.23991979813E+04  0.00000000000E+00 0. -1.
<mgrwt>
<rscale>  0 0.28864439E+04</rscale>
<asrwt>0</asrwt>
<pdfrwt beam="1">  1        2 0.38124845E+00 0.28864439E+04</pdfrwt>
<pdfrwt beam="2">  1       -2 0.12930981E+00 0.28864439E+04</pdfrwt>
<totfact> 0.13629465E+00</totfact>
</mgrwt>
</event>
<event>
 6    1  0.2003386E-005  0.1054103E+04  0.7818608E-02  0.9251118E-01
         -2   -1    0    0    0  501 -0.00000000000E+00  0.00000000000E+00  0.16566860048E+03  0.16566860048E+03  0.00000000000E+00 0.  1.
          2   -1    0    0  501    0  0.00000000000E+00 -0.00000000000E+00 -0.16767407523E+04  0.16767407523E+04  0.00000000000E+00 0. -1.
         23    2    1    2    0    0  0.43890672292E+03 -0.70189471857E+02 -0.12428705333E+04  0.13232775954E+04  0.93652327414E+02 0.  0.
         11    1    3    3    0    0  0.11978724541E+03  0.16390549558E+02 -0.27247813355E+03  0.29809724511E+03  0.00000000000E+00 0. -1.
        -11    1    3    3    0    0  0.31911947751E+03 -0.86580021415E+02 -0.97039239976E+03  0.10251803503E+04  0.00000000000E+00 0.  1.
         22    1    1    2    0    0 -0.43890672292E+03  0.70189471857E+02 -0.26820161849E+03  0.51913175741E+03  0.00000000000E+00 0. -1.
<mgrwt>
<rscale>  0 0.10541030E+04</rscale>
<asrwt>0</asrwt>
<pdfrwt beam="1">  1        2 0.25796013E+00 0.10541030E+04</pdfrwt>
<pdfrwt beam="2">  1       -2 0.25487476E-01 0.10541030E+04</pdfrwt>
<totfact> 0.13931253E+02</totfact>
</mgrwt>
</event>
<event>
 6    1  0.2003386E-005  0.3065541E+04  0.7818608E-02  0.8225259E-01
         -2   -1    0    0    0  501 -0.00000000000E+00  0.00000000000E+00  0.88840599430E+03  0.88840599430E+03  0.00000000000E+00 0.  1.
          2   -1    0    0  501    0  0.00000000000E+00 -0.00000000000E+00 -0.26444957252E+04  0.26444957252E+04  0.00000000000E+00 0. -1.
         23    2    1    2    0    0 -0.29642009903E+03 -0.93114962304E+03 -0.22377158459E+04  0.24434669072E+04  0.90850558104E+02 0.  0.
         11    1    3    3    0    0 -0.98840205474E+01 -0.13324917719E+03 -0.30582172210E+03  0.33373636720E+03  0.00000000000E+00 0. -1.
        -11    1    3    3    0    0 -0.28653607848E+03 -0.79790044585E+03 -0.19318941238E+04  0.21097305400E+04  0.00000000000E+00 0.  1.
         22    1    1    2    0    0  0.29642009903E+03  0.93114962304E+03  0.48162611501E+03  0.10894348123E+04  0.00000000000E+00 0.  1.
<mgrwt>
<rscale>  0 0.30655413E+04</rscale>
<asrwt>0</asrwt>
<pdfrwt beam="1">  1        2 0.40684549E+00 0.30655413E+04</pdfrwt>
<pdfrwt beam="2">  1       -2 0.13667785E+00 0.30655413E+04</pdfrwt>
<totfact> 0.93202926E-01</totfact>
</mgrwt>
</event>
<event>
 6    1  0.2003386E-005  0.1470159E+04  0.7818608E-02  0.8904543E-01
          2   -1    0    0  501    0  0.00000000000E+00  0.00000000000E+00  0.68554905182E+03  0.68554905182E+03  0.00000000000E+00 0.  1.
         -2   -1    0    0    0  501 -0.00000000000E+00 -0.00000000000E+00 -0.78818800092E+03  0.78818800092E+03  0.00000000000E+00 0. -1.
         23    2    1    2    0    0 -0.91147684093E+02  0.62066749664E+03  0.32702085481E+03  0.71337951263E+03  0.91824004828E+02 0.  0.
         13    1    3    3    0    0 -0.67950741458E+02  0.17497956249E+03  0.95214419082E+02  0.21047787569E+03  0.00000000000E+00 0.  1.
        -13    1    3    3    0    0 -0.23196942635E+02  0.44568793415E+03  0.23180643573E+03  0.50290163694E+03  0.00000000000E+00 0. -1.
         22    1    1    2    0    0  0.91147684093E+02 -0.62066749664E+03 -0.42965980391E+03  0.76035754010E+03  0.00000000000E+00 0. -1.
<mgrwt>
<rscale>  0 0.14701585E+04</rscale>
<asrwt>0</asrwt>
<pdfrwt beam="1">  1        2 0.10546909E+00 0.14701585E+04</pdfrwt>
<pdfrwt beam="2">  1       -2 0.12125969E+00 0.14701585E+04</pdfrwt>
<totfact> 0.21072049E+01</totfact>
</mgrwt>
</event>
<event>
 6    1  0.2003386E-005  0.3292395E+04  0.7818608E-02  0.8164833E-01
          1   -1    0    0  501    0  0.00000000000E+00  0.00000000000E+00  0.17400802825E+04  0.17400802825E+04  0.00000000000E+00 0. -1.
         -1   -1    0    0    0  501 -0.00000000000E+00 -0.00000000000E+00 -0.15573797466E+04  0.15573797466E+04  0.00000000000E+00 0.  1.
         23    2    1    2    0    0 -0.12588402460E+03 -0.12960715037E+04 -0.91521204576E+03  0.15942101451E+04  0.90800703895E+02 0.  0.
         13    1    3    3    0    0 -0.28875819696E+02 -0.75651522729E+03 -0.53828833292E+03  0.92892595585E+03  0.00000000000E+00 0.  1.
        -13    1    3    3    0    0 -0.97008204902E+02 -0.53955627637E+03 -0.37692371284E+03  0.66528418927E+03  0.00000000000E+00 0. -1.
         22    1    1    2    0    0  0.12588402460E+03  0.12960715037E+04  0.10979125816E+04  0.17032498839E+04  0.00000000000E+00 0. -1.
<mgrwt>
<rscale>  0 0.32923947E+04</rscale>
<asrwt>0</asrwt>
<pdfrwt beam="1">  1        1 0.26770466E+00 0.32923947E+04</pdfrwt>
<pdfrwt beam="2">  1       -1 0.23959688E+00 0.32923947E+04</pdfrwt>
<totfact> 0.30305590E-01</totfact>
</mgrwt>
</event>
<event>
 6    1  0.2003386E-005  0.9610424E+03  0.7818608E-02  0.9352336E-01
         -2   -1    0    0    0  501 -0.00000000000E+00  0.00000000000E+00  0.81352418949E+02  0.81352418949E+02  0.00000000000E+00 0.  1.
          2   -1    0    0  501    0  0.00000000000E+00 -0.00000000000E+00 -0.28382763537E+04  0.28382763537E+04  0.00000000000E+00 0. -1.
         23    2    1    2    0    0 -0.43128828230E+03  0.97686321073E+02 -0.19312004057E+04  0.19829476389E+04  0.83630928055E+02 0.  0.
         11    1    3    3    0    0 -0.21101779311E+03  0.83973505645E+02 -0.88046170781E+03  0.90928151723E+03  0.00000000000E+00 0. -1.
        -11    1    3    3    0    0 -0.22027048919E+03  0.13712815428E+02 -0.10507386979E+04  0.10736661217E+04  0.00000000000E+00 0.  1.
         22    1    1    2    0    0  0.43128828230E+03 -0.97686321073E+02 -0.82572352910E+03  0.93668113373E+03  0.00000000000E+00 0.  1.
<mgrwt>
<rscale>  0 0.96104245E+03</rscale>
<asrwt>0</asrwt>
<pdfrwt beam="1">  1        2 0.43665789E+00 0.96104245E+03</pdfrwt>
<pdfrwt beam="2">  1       -2 0.12515757E-01 0.96104245E+03</pdfrwt>
<totfact> 0.10668700E+02</totfact>
</mgrwt>
</event>
<event>
 6    1  0.2003386E-005  0.3126288E+04  0.7818608E-02  0.8208560E-01
          2   -1    0    0  501    0  0.00000000000E+00  0.00000000000E+00  0.33381226717E+04  0.33381226717E+04  0.00000000000E+00 0. -1.
         -2   -1    0    0    0  501 -0.00000000000E+00 -0.00000000000E+00 -0.73197390315E+03  0.73197390315E+03  0.00000000000E+00 0.  1.
         23    2    1    2    0    0 -0.66133609506E+03 -0.14098291723E+04  0.11501527070E+04  0.19382175312E+04  0.94086253427E+02 0.  0.
         13    1    3    3    0    0 -0.13678882811E+03 -0.28668627645E+03  0.18876713991E+03  0.36950404289E+03  0.00000000000E+00 0. -1.
        -13    1    3    3    0    0 -0.52454726696E+03 -0.11231428958E+04  0.96138556710E+03  0.15687134883E+04  0.00000000000E+00 0.  1.
         22    1    1    2    0    0  0.66133609506E+03  0.14098291723E+04  0.14559960615E+04  0.21318790437E+04  0.00000000000E+00 0.  1.
<mgrwt>
<rscale>  0 0.31262877E+04</rscale>
<asrwt>0</asrwt>
<pdfrwt beam="1">  1        2 0.51355733E+00 0.31262877E+04</pdfrwt>
<pdfrwt beam="2">  1       -2 0.11261137E+00 0.31262877E+04</pdfrwt>
<totfact> 0.55161004E-01</totfact>
</mgrwt>
</event>
<event>
 6    1  0.2003386E-005  0.3844690E+04  0.7818608E-02  0.8036632E-01
          2   -1    0    0  501    0  0.00000000000E+00  0.00000000000E+00  0.24890147071E+04  0.24890147071E+04  0.00000000000E+00 0.  1.
         -2   -1    0    0    0  501 -0.00000000000E+00 -0.00000000000E+00 -0.14846879678E+04  0.14846879678E+04  0.00000000000E+00 0. -1.
         23    2    1    2    0    0  0.28080758290E+03  0.17208002120E+04 -0.33131568654E+03  0.17773541238E+04  0.95975667706E+02 0.  0.
         13    1    3    3    0    0  0.73025171824E+02  0.69295512778E+03 -0.10641573214E+03  0.70487147260E+03  0.00000000000E+00 0.  1.
        -13    1    3    3    0    0  0.20778241108E+03  0.10278450842E+04 -0.22489995440E+03  0.10724826512E+04  0.00000000000E+00 0. -1.
         22    1    1    2    0    0 -0.28080758290E+03 -0.17208002120E+04  0.13356424258E+04  0.21963485511E+04  0.00000000000E+00 0.  1.
<mgrwt>
<rscale>  0 0.38446899E+04</rscale>
<asrwt>0</asrwt>
<pdfrwt beam="1">  1        2 0.38292534E+00 0.38446899E+04</pdfrwt>
<pdfrwt beam="2">  1       -2 0.22841353E+00 0.38446899E+04</pdfrwt>
<totfact> 0.24687067E-01</totfact>
</mgrwt>
</event>
<event>
 6    1  0.2003386E-005  0.2592047E+04  0.7818608E-02  0.8370908E-01
         -2   -1    0    0    0  501 -0.00000000000E+00  0.00000000000E+00  0.76331817924E+03  0.76331817924E+03  0.00000000000E+00 0.  1.
          2   -1    0    0  501    0  0.00000000000E+00 -0.00000000000E+00 -0.22004946094E+04  0.22004946094E+04  0.00000000000E+00 0. -1.
         23    2    1    2    0    0 -0.10481596252E+04  0.59301991645E+03 -0.17622737832E+03  0.12201661121E+04  0.86244020934E+02 0.  0.
         11    1    3    3    0    0 -0.34308775815E+03  0.23793000081E+03 -0.45731667504E+02  0.42001342894E+03  0.00000000000E+00 0. -1.
        -11    1    3    3    0    0 -0.70507186703E+03  0.35508991564E+03 -0.13049571081E+03  0.80015268318E+03  0.00000000000E+00 0.  1.
         22    1    1    2    0    0  0.10481596252E+04 -0.59301991645E+03 -0.12609490518E+04  0.17436466765E+04  0.00000000000E+00 0. -1.
<mgrwt>
<rscale>  0 0.25920475E+04</rscale>
<asrwt>0</asrwt>
<pdfrwt beam="1">  1        2 0.33853762E+00 0.25920475E+04</pdfrwt>
<pdfrwt beam="2">  1       -2 0.11743357E+00 0.25920475E+04</pdfrwt>
<totfact> 0.25584961E+00</totfact>
</mgrwt>
</event>
<event>
 6    1  0.2003386E-005  0.2189289E+04  0.7818608E-02  0.8522899E-01
         -2   -1    0    0    0  501 -0.00000000000E+00  0.00000000000E+00  0.39372185774E+03  0.39372185774E+03  0.00000000000E+00 0.  1.
          2   -1    0    0  501    0  0.00000000000E+00 -0.00000000000E+00 -0.30433837927E+04  0.30433837927E+04  0.00000000000E+00 0. -1.
         23    2    1    2    0    0 -0.60147672391E+03 -0.66571913957E+03 -0.23035907361E+04  0.24754812451E+04  0.12853362698E+03 0.  0.
         13    1    3    3    0    0 -0.31764618171E+03 -0.28114978259E+03 -0.12024118544E+04  0.12750445344E+04  0.00000000000E+00 0. -1.
        -13    1    3    3    0    0 -0.28383054220E+03 -0.38456935698E+03 -0.11011788817E+04  0.12004367107E+04  0.00000000000E+00 0.  1.
         22    1    1    2    0    0  0.60147672391E+03  0.66571913957E+03 -0.34607119882E+03  0.96162440529E+03  0.00000000000E+00 0.  1.
<mgrwt>
<rscale>  0 0.21892891E+04</rscale>
<asrwt>0</asrwt>
<pdfrwt beam="1">  1        2 0.46821288E+00 0.21892891E+04</pdfrwt>
<pdfrwt beam="2">  1       -2 0.60572594E-01 0.21892891E+04</pdfrwt>
<totfact> 0.38021585E+00</totfact>
</mgrwt>
</event>
<event>
 6    1  0.2003386E-005  0.7309381E+03  0.7818608E-02  0.9665739E-01
         -2   -1    0    0    0  501 -0.00000000000E+00  0.00000000000E+00  0.37758404675E+03  0.37758404675E+03  0.00000000000E+00 0.  1.
          2   -1    0    0  501    0  0.00000000000E+00 -0.00000000000E+00 -0.35374280935E+03  0.35374280935E+03  0.00000000000E+00 0. -1.
         23    2    1    2    0    0 -0.24259763729E+03 -0.14958018176E+03 -0.20721950711E+03  0.36442508172E+03  0.92940150976E+02 0.  0.
         13    1    3    3    0    0 -0.21318655360E+03 -0.15594353902E+03 -0.16119428710E+03  0.30943576424E+03  0.00000000000E+00 0. -1.
        -13    1    3    3    0    0 -0.29411083687E+02  0.63633572592E+01 -0.46025220010E+02  0.54989317474E+02  0.00000000000E+00 0.  1.
         22    1    1    2    0    0  0.24259763729E+03  0.14958018176E+03  0.23106074451E+03  0.36690177439E+03  0.00000000000E+00 0.  1.
<mgrwt>
<rscale>  0 0.73093814E+03</rscale>
<asrwt>0</asrwt>
<pdfrwt beam="1">  1        2 0.54421970E-01 0.73093814E+03</pdfrwt>
<pdfrwt beam="2">  1       -2 0.58089854E-01 0.73093814E+03</pdfrwt>
<totfact> 0.25554692E+02</totfact>
</mgrwt>
</event>
<event>
 6    1  0.2003386E-005  0.5230283E+04  0.7818608E-02  0.7793934E-01
          2   -1    0    0  501    0  0.00000000000E+00  0.00000000000E+00  0.16571425067E+04  0.16571425067E+04  0.00000000000E+00 0. -1.
         -2   -1    0    0    0  501 -0.00000000000E+00 -0.00000000000E+00 -0.41269621252E+04  0.41269621252E+04  0.00000000000E+00 0.  1.
         23    2    1    2    0    0  0.18048297348E+04  0.18704193129E+04 -0.15451985294E+04  0.30253362589E+04  0.95614887680E+02 0.  0.
         11    1    3    3    0    0  0.13015116535E+04  0.12959884691E+04 -0.11185579996E+04  0.21505094035E+04  0.00000000000E+00 0.  1.
        -11    1    3    3    0    0  0.50331808132E+03  0.57443084380E+03 -0.42664052975E+03  0.87482685539E+03  0.00000000000E+00 0. -1.
         22    1    1    2    0    0 -0.18048297348E+04 -0.18704193129E+04 -0.92462108914E+03  0.27587683730E+04  0.00000000000E+00 0. -1.
<mgrwt>
<rscale>  0 0.52302827E+04</rscale>
<asrwt>0</asrwt>
<pdfrwt beam="1">  1        2 0.25494500E+00 0.52302827E+04</pdfrwt>
<pdfrwt beam="2">  1       -2 0.63491725E+00 0.52302827E+04</pdfrwt>
<totfact> 0.28367849E-03</totfact>
</mgrwt>
</event>
<event>
 6    1  0.2003386E-005  0.1731584E+04  0.7818608E-02  0.8743553E-01
         -2   -1    0    0    0  501 -0.00000000000E+00  0.00000000000E+00  0.82076338438E+03  0.82076338438E+03  0.00000000000E+00 0.  1.
          2   -1    0    0  501    0  0.00000000000E+00 -0.00000000000E+00 -0.91329120977E+03  0.91329120977E+03  0.00000000000E+00 0. -1.
         23    2    1    2    0    0 -0.37872025825E+03  0.77124136798E+03 -0.12971065231E+03  0.87404014990E+03  0.94228703801E+02 0.  0.
         11    1    3    3    0    0 -0.12798854988E+01  0.51864806763E+02 -0.10952588425E+02  0.53024102827E+02  0.00000000000E+00 0. -1.
        -11    1    3    3    0    0 -0.37744037275E+03  0.71937656122E+03 -0.11875806388E+03  0.82101604707E+03  0.00000000000E+00 0.  1.
         22    1    1    2    0    0  0.37872025825E+03 -0.77124136798E+03  0.37182826920E+02  0.86001444425E+03  0.00000000000E+00 0.  1.
<mgrwt>
<rscale>  0 0.17315842E+04</rscale>
<asrwt>0</asrwt>
<pdfrwt beam="1">  1        2 0.14050634E+00 0.17315842E+04</pdfrwt>
<pdfrwt beam="2">  1       -2 0.12627129E+00 0.17315842E+04</pdfrwt>
<totfact> 0.12742961E+01</totfact>
</mgrwt>
</event>
<event>
 6    1  0.2003386E-005  0.3411067E+04  0.7818608E-02  0.8135195E-01
          1   -1    0    0  501    0  0.00000000000E+00  0.00000000000E+00  0.30004095948E+04  0.30004095948E+04  0.00000000000E+00 0.  1.
         -1   -1    0    0    0  501 -0.00000000000E+00 -0.00000000000E+00 -0.96948264063E+03  0.96948264063E+03  0.00000000000E+00 0. -1.
         23    2    1    2    0    0  0.86163868673E+03  0.13901225184E+04  0.45844229447E+03  0.17010665816E+04  0.92716421511E+02 0.  0.
         11    1    3    3    0    0  0.23824599479E+03  0.34135592892E+03  0.15158684420E+03  0.44301647325E+03  0.00000000000E+00 0.  1.
        -11    1    3    3    0    0  0.62339269194E+03  0.10487665895E+04  0.30685545027E+03  0.12580501083E+04  0.00000000000E+00 0. -1.
         22    1    1    2    0    0 -0.86163868673E+03 -0.13901225184E+04  0.15724846597E+04  0.22688256539E+04  0.00000000000E+00 0.  1.
<mgrwt>
<rscale>  0 0.34110673E+04</rscale>
<asrwt>0</asrwt>
<pdfrwt beam="1">  1        1 0.46160147E+00 0.34110673E+04</pdfrwt>
<pdfrwt beam="2">  1       -1 0.14915118E+00 0.34110673E+04</pdfrwt>
<totfact> 0.17380176E-01</totfact>
</mgrwt>
</event>
<event>
 6    1  0.2003386E-005  0.1400127E+04  0.7818608E-02  0.8953726E-01
          2   -1    0    0  501    0  0.00000000000E+00  0.00000000000E+00  0.10314275605E+04  0.10314275605E+04  0.00000000000E+00 0. -1.
         -2   -1    0    0    0  501 -0.00000000000E+00 -0.00000000000E+00 -0.47515621703E+03  0.47515621703E+03  0.00000000000E+00 0.  1.
         23    2    1    2    0    0 -0.31021003632E+03  0.47855595053E+03  0.71062183708E+03  0.91576219765E+03  0.91602089994E+02 0.  0.
         13    1    3    3    0    0 -0.20414362500E+03  0.24781800134E+03  0.35339426709E+03  0.47746820777E+03  0.00000000000E+00 0.  1.
        -13    1    3    3    0    0 -0.10606641131E+03  0.23073794919E+03  0.35722756999E+03  0.43829398988E+03  0.00000000000E+00 0. -1.
         22    1    1    2    0    0  0.31021003632E+03 -0.47855595053E+03 -0.15435049357E+03  0.59082157991E+03  0.00000000000E+00 0.  1.
<mgrwt>
<rscale>  0 0.14001274E+04</rscale>
<asrwt>0</asrwt>
<pdfrwt beam="1">  1        2 0.15868116E+00 0.14001274E+04</pdfrwt>
<pdfrwt beam="2">  1       -2 0.73100957E-01 0.14001274E+04</pdfrwt>
<totfact> 0.39569781E+01</totfact>
</mgrwt>
</event>
<event>
 6    1  0.2003386E-005  0.3824608E+04  0.7818608E-02  0.8040895E-01
         -2   -1    0    0    0  501 -0.00000000000E+00  0.00000000000E+00  0.18232809768E+04  0.18232809768E+04  0.00000000000E+00 0.  1.
          2   -1    0    0  501    0  0.00000000000E+00 -0.00000000000E+00 -0.20056734227E+04  0.20056734227E+04  0.00000000000E+00 0. -1.
         23    2    1    2    0    0 -0.52687957271E+03  0.16697603063E+03 -0.19230571296E+04  0.20026475743E+04  0.83459594208E+02 0.  0.
         13    1    3    3    0    0 -0.37768290575E+03  0.80682166560E+02 -0.13646013836E+04  0.14181998890E+04  0.00000000000E+00 0.  1.
        -13    1    3    3    0    0 -0.14919666697E+03  0.86293864067E+02 -0.55845574608E+03  0.58444768521E+03  0.00000000000E+00 0. -1.
         22    1    1    2    0    0  0.52687957271E+03 -0.16697603063E+03  0.17406646838E+04  0.18263068253E+04  0.00000000000E+00 0.  1.
<mgrwt>
<rscale>  0 0.38246078E+04</rscale>
<asrwt>0</asrwt>
<pdfrwt beam="1">  1        2 0.30856514E+00 0.38246078E+04</pdfrwt>
<pdfrwt beam="2">  1       -2 0.28050476E+00 0.38246078E+04</pdfrwt>
<totfact> 0.22194771E-01</totfact>
</mgrwt>
</event>
<event>
 6    1  0.2003386E-005  0.1790626E+04  0.7818608E-02  0.8711300E-01
          2   -1    0    0  501    0  0.00000000000E+00  0.00000000000E+00  0.25435255086E+04  0.25435255086E+04  0.00000000000E+00 0. -1.
         -2   -1    0    0    0  501 -0.00000000000E+00 -0.00000000000E+00 -0.31514735206E+03  0.31514735206E+03  0.00000000000E+00 0.  1.
         23    2    1    2    0    0 -0.73671733385E+02  0.87069493012E+03  0.82339589796E+03  0.12041299230E+04  0.91710855627E+02 0.  0.
         11    1    3    3    0    0 -0.17128133637E+02  0.66173041498E+03  0.61006137703E+03  0.90019742214E+03  0.00000000000E+00 0. -1.
        -11    1    3    3    0    0 -0.56543599748E+02  0.20896451514E+03  0.21333452093E+03  0.30393250086E+03  0.00000000000E+00 0.  1.
         22    1    1    2    0    0  0.73671733385E+02 -0.87069493012E+03  0.14049822586E+04  0.16545429377E+04  0.00000000000E+00 0. -1.
<mgrwt>
<rscale>  0 0.17906260E+04</rscale>
<asrwt>0</asrwt>
<pdfrwt beam="1">  1        2 0.39131160E+00 0.17906260E+04</pdfrwt>
<pdfrwt beam="2">  1       -2 0.48484210E-01 0.17906260E+04</pdfrwt>
<totfact> 0.12518441E+01</totfact>
</mgrwt>
</event>
<event>
 6    1  0.2003386E-005  0.2531062E+04  0.7818608E-02  0.8392002E-01
          2   -1    0    0  501    0  0.00000000000E+00  0.00000000000E+00  0.12608541736E+04  0.12608541736E+04  0.00000000000E+00 0. -1.
         -2   -1    0    0    0  501 -0.00000000000E+00 -0.00000000000E+00 -0.12702256321E+04  0.12702256321E+04  0.00000000000E+00 0.  1.
         23    2    1    2    0    0  0.29990045530E+03 -0.70124811467E+03 -0.10121704628E+04  0.12712008257E+04  0.98859962107E+02 0.  0.
         13    1    3    3    0    0 -0.77355646710E+01 -0.23989988684E+02 -0.34065124281E+02  0.42376776778E+02  0.00000000000E+00 0. -1.
        -13    1    3    3    0    0  0.30763601997E+03 -0.67725812598E+03 -0.97810533847E+03  0.12288240489E+04  0.00000000000E+00 0.  1.
         22    1    1    2    0    0 -0.29990045530E+03  0.70124811467E+03  0.10027990043E+04  0.12598789801E+04  0.00000000000E+00 0. -1.
<mgrwt>
<rscale>  0 0.25310625E+04</rscale>
<asrwt>0</asrwt>
<pdfrwt beam="1">  1        2 0.19397757E+00 0.25310625E+04</pdfrwt>
<pdfrwt beam="2">  1       -2 0.19541933E+00 0.25310625E+04</pdfrwt>
<totfact> 0.22110156E+00</totfact>
</mgrwt>
</event>
<event>
 6    1  0.2003386E-005  0.4769291E+04  0.7818608E-02  0.7865116E-01
         -2   -1    0    0    0  501 -0.00000000000E+00  0.00000000000E+00  0.24256860634E+04  0.24256860634E+04  0.00000000000E+00 0.  1.
          2   -1    0    0  501    0  0.00000000000E+00 -0.00000000000E+00 -0.23442992906E+04  0.23442992906E+04  0.00000000000E+00 0. -1.
         23    2    1    2    0    0 -0.11018271423E+04 -0.80834814819E+02  0.21533611900E+04  0.24218722170E+04  0.89125204452E+02 0.  0.
         13    1    3    3    0    0 -0.49225972062E+03 -0.26954545494E+02  0.86676419287E+03  0.99715913780E+03  0.00000000000E+00 0. -1.
        -13    1    3    3    0    0 -0.60956742168E+03 -0.53880269325E+02  0.12865969971E+04  0.14247130792E+04  0.00000000000E+00 0.  1.
         22    1    1    2    0    0  0.11018271423E+04  0.80834814819E+02 -0.20719744171E+04  0.23481131370E+04  0.00000000000E+00 0. -1.
<mgrwt>
<rscale>  0 0.47692910E+04</rscale>
<asrwt>0</asrwt>
<pdfrwt beam="1">  1        2 0.36066143E+00 0.47692910E+04</pdfrwt>
<pdfrwt beam="2">  1       -2 0.37318247E+00 0.47692910E+04</pdfrwt>
<totfact> 0.35142249E-02</totfact>
</mgrwt>
</event>
<event>
 6    1  0.2003386E-005  0.3430724E+04  0.7818608E-02  0.8130406E-01
          2   -1    0    0  501    0  0.00000000000E+00  0.00000000000E+00  0.26735685409E+04  0.26735685409E+04  0.00000000000E+00 0. -1.
         -2   -1    0    0    0  501 -0.00000000000E+00 -0.00000000000E+00 -0.11005767175E+04  0.11005767175E+04  0.00000000000E+00 0.  1.
         23    2    1    2    0    0  0.11543342052E+04  0.48605382697E+03  0.20739710192E+04  0.24251767879E+04  0.10672808514E+03 0.  0.
         13    1    3    3    0    0  0.34014749607E+03  0.96919124845E+02  0.54236857989E+03  0.64750082030E+03  0.00000000000E+00 0. -1.
        -13    1    3    3    0    0  0.81418670912E+03  0.38913470213E+03  0.15316024393E+04  0.17776759676E+04  0.00000000000E+00 0.  1.
         22    1    1    2    0    0 -0.11543342052E+04 -0.48605382697E+03 -0.50097919578E+03  0.13489684706E+04  0.00000000000E+00 0.  1.
<mgrwt>
<rscale>  0 0.34307243E+04</rscale>
<asrwt>0</asrwt>
<pdfrwt beam="1">  1        2 0.41131823E+00 0.34307243E+04</pdfrwt>
<pdfrwt beam="2">  1       -2 0.16931950E+00 0.34307243E+04</pdfrwt>
<totfact> 0.49025429E-01</totfact>
</mgrwt>
</event>
<event>
 6    1  0.2003386E-005  0.5161803E+03  0.7818608E-02  0.1009640E+00
          2   -1    0    0  501    0  0.00000000000E+00  0.00000000000E+00  0.12452594611E+04  0.12452594611E+04  0.00000000000E+00 0. -1.
         -2   -1    0    0    0  501 -0.00000000000E+00 -0.00000000000E+00 -0.53491274862E+02  0.53491274862E+02  0.00000000000E+00 0.  1.
         23    2    1    2    0    0 -0.23744626463E+03  0.40287730161E+02  0.44374510908E+03  0.51291210510E+03  0.90361916413E+02 0.  0.
         11    1    3    3    0    0 -0.94531036474E+02 -0.31707201236E+01  0.25649900795E+03  0.27338235386E+03  0.00000000000E+00 0. -1.
        -11    1    3    3    0    0 -0.14291522816E+03  0.43458450285E+02  0.18724610112E+03  0.23952975124E+03  0.00000000000E+00 0.  1.
         22    1    1    2    0    0  0.23744626463E+03 -0.40287730161E+02  0.74802307713E+03  0.78583863084E+03  0.00000000000E+00 0. -1.
<mgrwt>
<rscale>  0 0.51618026E+03</rscale>
<asrwt>0</asrwt>
<pdfrwt beam="1">  1        2 0.19157836E+00 0.51618026E+03</pdfrwt>
<pdfrwt beam="2">  1       -2 0.82294278E-02 0.51618026E+03</pdfrwt>
<totfact> 0.16951102E+03</totfact>
</mgrwt>
</event>
<event>
 6    1  0.2003386E-005  0.2371549E+04  0.7818608E-02  0.8450233E-01
         -1   -1    0    0    0  501 -0.00000000000E+00  0.00000000000E+00  0.39992587280E+03  0.39992587280E+03  0.00000000000E+00 0.  1.
          1   -1    0    0  501    0  0.00000000000E+00 -0.00000000000E+00 -0.35158049127E+04  0.35158049127E+04  0.00000000000E+00 0. -1.
         23    2    1    2    0    0  0.11230898760E+04  0.30067580667E+03 -0.19302473630E+04  0.22551708548E+04  0.90575335373E+02 0.  0.
         13    1    3    3    0    0  0.27448445113E+03  0.51858700938E+02 -0.40249386749E+03  0.48993096671E+03  0.00000000000E+00 0. -1.
        -13    1    3    3    0    0  0.84860542492E+03  0.24881710573E+03 -0.15277534955E+04  0.17652398881E+04  0.00000000000E+00 0.  1.
         22    1    1    2    0    0 -0.11230898760E+04 -0.30067580667E+03 -0.11856316769E+04  0.16605599308E+04  0.00000000000E+00 0.  1.
<mgrwt>
<rscale>  0 0.23715492E+04</rscale>
<asrwt>0</asrwt>
<pdfrwt beam="1">  1        1 0.54089309E+00 0.23715492E+04</pdfrwt>
<pdfrwt beam="2">  1       -1 0.61527055E-01 0.23715492E+04</pdfrwt>
<totfact> 0.58539234E-01</totfact>
</mgrwt>
</event>
<event>
 6    1  0.2003386E-005  0.1154570E+04  0.7818608E-02  0.9153578E-01
          2   -1    0    0  501    0  0.00000000000E+00  0.00000000000E+00  0.49986183475E+03  0.49986183475E+03  0.00000000000E+00 0. -1.
         -2   -1    0    0    0  501 -0.00000000000E+00 -0.00000000000E+00 -0.66670019596E+03  0.66670019596E+03  0.00000000000E+00 0.  1.
         23    2    1    2    0    0 -0.73305738854E+02  0.38203698304E+03 -0.50998166988E+03  0.64783925501E+03  0.91040699502E+02 0.  0.
         13    1    3    3    0    0 -0.56840837424E+02  0.15404960375E+03 -0.27304571116E+03  0.31861594687E+03  0.00000000000E+00 0.  1.
        -13    1    3    3    0    0 -0.16464901430E+02  0.22798737928E+03 -0.23693595872E+03  0.32922330814E+03  0.00000000000E+00 0. -1.
         22    1    1    2    0    0  0.73305738854E+02 -0.38203698304E+03  0.34314330866E+03  0.51872277570E+03  0.00000000000E+00 0. -1.
<mgrwt>
<rscale>  0 0.11545700E+04</rscale>
<asrwt>0</asrwt>
<pdfrwt beam="1">  1        2 0.76901820E-01 0.11545700E+04</pdfrwt>
<pdfrwt beam="2">  1       -2 0.10256926E+00 0.11545700E+04</pdfrwt>
<totfact> 0.47405401E+01</totfact>
</mgrwt>
</event>
<event>
 6    1  0.2003386E-005  0.2873797E+04  0.7818608E-02  0.8280717E-01
          2   -1    0    0  501    0  0.00000000000E+00  0.00000000000E+00  0.14183146192E+04  0.14183146192E+04  0.00000000000E+00 0. -1.
         -2   -1    0    0    0  501 -0.00000000000E+00 -0.00000000000E+00 -0.14557254782E+04  0.14557254782E+04  0.00000000000E+00 0.  1.
         23    2    1    2    0    0 -0.95442722628E+03  0.99989397882E+03 -0.40558967900E+03  0.14435594290E+04  0.92959873842E+02 0.  0.
         13    1    3    3    0    0 -0.90802024030E+03  0.92999892334E+03 -0.36319927246E+03  0.13495601008E+04  0.00000000000E+00 0. -1.
        -13    1    3    3    0    0 -0.46406985976E+02  0.69895055477E+02 -0.42390406536E+02  0.93999328156E+02  0.00000000000E+00 0.  1.
         22    1    1    2    0    0  0.95442722628E+03 -0.99989397882E+03  0.36817882004E+03  0.14304806684E+04  0.00000000000E+00 0.  1.
<mgrwt>
<rscale>  0 0.28737966E+04</rscale>
<asrwt>0</asrwt>
<pdfrwt beam="1">  1        2 0.21820225E+00 0.28737966E+04</pdfrwt>
<pdfrwt beam="2">  1       -2 0.22395777E+00 0.28737966E+04</pdfrwt>
<totfact> 0.11399905E+00</totfact>
</mgrwt>
</event>
<event>
 6    1  0.2003386E-005  0.1306257E+04  0.7818608E-02  0.9024618E-01
          2   -1    0    0  501    0  0.00000000000E+00  0.00000000000E+00  0.44326725585E+03  0.44326725585E+03  0.00000000000E+00 0. -1.
         -2   -1    0    0    0  501 -0.00000000000E+00 -0.00000000000E+00 -0.96234653160E+03  0.96234653160E+03  0.00000000000E+00 0.  1.
         23    2    1    2    0    0  0.16554416374E+03 -0.51973860836E+02  0.41242328032E+03  0.45808903088E+03  0.98216320953E+02 0.  0.
         11    1    3    3    0    0  0.78064896496E+02 -0.26582931665E+02  0.85816830875E+02  0.11901810275E+03  0.00000000000E+00 0. -1.
        -11    1    3    3    0    0  0.87479267243E+02 -0.25390929171E+02  0.32660644945E+03  0.33907092813E+03  0.00000000000E+00 0.  1.
         22    1    1    2    0    0 -0.16554416374E+03  0.51973860836E+02 -0.93150255607E+03  0.94752475658E+03  0.00000000000E+00 0.  1.
<mgrwt>
<rscale>  0 0.13062568E+04</rscale>
<asrwt>0</asrwt>
<pdfrwt beam="1">  1        2 0.68194964E-01 0.13062568E+04</pdfrwt>
<pdfrwt beam="2">  1       -2 0.14805331E+00 0.13062568E+04</pdfrwt>
<totfact> 0.21482134E+01</totfact>
</mgrwt>
</event>
<event>
 6    1  0.2003386E-005  0.6161505E+04  0.7818608E-02  0.7670693E-01
         -2   -1    0    0    0  501 -0.00000000000E+00  0.00000000000E+00  0.33271783376E+04  0.33271783376E+04  0.00000000000E+00 0.  1.
          2   -1    0    0  501    0  0.00000000000E+00 -0.00000000000E+00 -0.28525779521E+04  0.28525779521E+04  0.00000000000E+00 0. -1.
         23    2    1    2    0    0 -0.17604365122E+04 -0.68020865324E+03 -0.22039759959E+04  0.29030823729E+04  0.92501610639E+02 0.  0.
         11    1    3    3    0    0 -0.30611689574E+03 -0.93116678290E+02 -0.41367436171E+03  0.52297681322E+03  0.00000000000E+00 0.  1.
        -11    1    3    3    0    0 -0.14543196165E+04 -0.58709197495E+03 -0.17903016342E+04  0.23801055597E+04  0.00000000000E+00 0. -1.
         22    1    1    2    0    0  0.17604365122E+04  0.68020865324E+03  0.26785763815E+04  0.32766739167E+04  0.00000000000E+00 0.  1.
<mgrwt>
<rscale>  0 0.61615049E+04</rscale>
<asrwt>0</asrwt>
<pdfrwt beam="1">  1        2 0.43885815E+00 0.61615049E+04</pdfrwt>
<pdfrwt beam="2">  1       -2 0.51187359E+00 0.61615049E+04</pdfrwt>
<totfact> 0.20210784E-03</totfact>
</mgrwt>
</event>
<event>
 6    1  0.2003386E-005  0.2696886E+04  0.7818608E-02  0.8336016E-01
          2   -1    0    0  501    0  0.00000000000E+00  0.00000000000E+00  0.14818259838E+04  0.14818259838E+04  0.00000000000E+00 0. -1.
         -2   -1    0    0    0  501 -0.00000000000E+00 -0.00000000000E+00 -0.12270660016E+04  0.12270660016E+04  0.00000000000E+00 0.  1.
         23    2    1    2    0    0 -0.11282461908E+04 -0.72914025322E+03  0.22523340537E+03  0.13652191105E+04  0.92239670470E+02 0.  0.
         11    1    3    3    0    0 -0.22850685538E+03 -0.12893974874E+03  0.10737761440E+02  0.26259501382E+03  0.00000000000E+00 0.  1.
        -11    1    3    3    0    0 -0.89973933543E+03 -0.60020050448E+03  0.21449564393E+03  0.11026240967E+04  0.00000000000E+00 0. -1.
         22    1    1    2    0    0  0.11282461908E+04  0.72914025322E+03  0.29526576830E+02  0.13436728749E+04  0.00000000000E+00 0. -1.
<mgrwt>
<rscale>  0 0.26968858E+04</rscale>
<asrwt>0</asrwt>
<pdfrwt beam="1">  1        2 0.22797323E+00 0.26968858E+04</pdfrwt>
<pdfrwt beam="2">  1       -2 0.18877939E+00 0.26968858E+04</pdfrwt>
<totfact> 0.18019118E+00</totfact>
</mgrwt>
</event>
<event>
 6    1  0.2003386E-005  0.1166753E+04  0.7818608E-02  0.9142466E-01
         -1   -1    0    0    0  501 -0.00000000000E+00  0.00000000000E+00  0.71550324655E+03  0.71550324655E+03  0.00000000000E+00 0.  1.
          1   -1    0    0  501    0  0.00000000000E+00 -0.00000000000E+00 -0.47564863868E+03  0.47564863868E+03  0.00000000000E+00 0. -1.
         23    2    1    2    0    0  0.45271010774E+03  0.61681164414E+02 -0.24367397469E+03  0.52590689438E+03  0.91924142236E+02 0.  0.
         13    1    3    3    0    0  0.27309576017E+03  0.68579873302E+02 -0.11173531251E+03  0.30293443730E+03  0.00000000000E+00 0.  1.
        -13    1    3    3    0    0  0.17961434757E+03 -0.68987088880E+01 -0.13193866218E+03  0.22297245708E+03  0.00000000000E+00 0. -1.
         22    1    1    2    0    0 -0.45271010774E+03 -0.61681164414E+02  0.48352858256E+03  0.66524499084E+03  0.00000000000E+00 0.  1.
<mgrwt>
<rscale>  0 0.11667530E+04</rscale>
<asrwt>0</asrwt>
<pdfrwt beam="1">  1        1 0.73176714E-01 0.11667530E+04</pdfrwt>
<pdfrwt beam="2">  1       -1 0.11007742E+00 0.11667530E+04</pdfrwt>
<totfact> 0.35902382E+01</totfact>
</mgrwt>
</event>
<event>
 6    1  0.4686023E-005  0.3333717E+04  0.7818608E-02  0.8154369E-01
          2   -1    0    0  501    0  0.00000000000E+00  0.00000000000E+00  0.19453290255E+04  0.19453290255E+04  0.00000000000E+00 0. -1.
         -2   -1    0    0    0  501 -0.00000000000E+00 -0.00000000000E+00 -0.14282503282E+04  0.14282503282E+04  0.00000000000E+00 0.  1.
         23    2    1    2    0    0  0.24774246838E+03  0.79774593677E+03  0.17172815437E+04  0.19112997010E+04  0.78966680450E+02 0.  0.
         13    1    3    3    0    0  0.54946144705E+02  0.30152950790E+03  0.60726257927E+03  0.68022567074E+03  0.00000000000E+00 0.  1.
        -13    1    3    3    0    0  0.19279632368E+03  0.49621642886E+03  0.11100189644E+04  0.12310740303E+04  0.00000000000E+00 0. -1.
         22    1    1    2    0    0 -0.24774246838E+03 -0.79774593677E+03 -0.12002028464E+04  0.14622796527E+04  0.00000000000E+00 0.  1.
<mgrwt>
<rscale>  0 0.33337167E+04</rscale>
<asrwt>0</asrwt>
<pdfrwt beam="1">  1        2 0.29928139E+00 0.33337167E+04</pdfrwt>
<pdfrwt beam="2">  1       -2 0.21973082E+00 0.33337167E+04</pdfrwt>
<totfact> 0.59226339E-01</totfact>
</mgrwt>
</event>
<event>
 6    1  0.2003386E-005  0.1389528E+04  0.7818608E-02  0.8961434E-01
          2   -1    0    0  501    0  0.00000000000E+00  0.00000000000E+00  0.99950572626E+03  0.99950572626E+03  0.00000000000E+00 0. -1.
         -2   -1    0    0    0  501 -0.00000000000E+00 -0.00000000000E+00 -0.48293545064E+03  0.48293545064E+03  0.00000000000E+00 0.  1.
         23    2    1    2    0    0  0.66019593617E+03 -0.67582412783E+02  0.46774322340E+03  0.81700136919E+03  0.91002514139E+02 0.  0.
         13    1    3    3    0    0  0.32613084949E+03 -0.48697181660E+02  0.17989888695E+03  0.37562794892E+03  0.00000000000E+00 0. -1.
        -13    1    3    3    0    0  0.33406508668E+03 -0.18885231124E+02  0.28784433645E+03  0.44137342027E+03  0.00000000000E+00 0.  1.
         22    1    1    2    0    0 -0.66019593617E+03  0.67582412783E+02  0.48827052219E+02  0.66543980771E+03  0.00000000000E+00 0.  1.
<mgrwt>
<rscale>  0 0.13895276E+04</rscale>
<asrwt>0</asrwt>
<pdfrwt beam="1">  1        2 0.15377011E+00 0.13895276E+04</pdfrwt>
<pdfrwt beam="2">  1       -2 0.74297762E-01 0.13895276E+04</pdfrwt>
<totfact> 0.40042156E+01</totfact>
</mgrwt>
</event>
<event>
 6    1  0.2003386E-005  0.6291062E+03  0.7818608E-02  0.9846795E-01
         -2   -1    0    0    0  501 -0.00000000000E+00  0.00000000000E+00  0.30255138013E+03  0.30255138013E+03  0.00000000000E+00 0.  1.
          2   -1    0    0  501    0  0.00000000000E+00 -0.00000000000E+00 -0.32703088311E+03  0.32703088311E+03  0.00000000000E+00 0. -1.
         23    2    1    2    0    0  0.12668734384E+03 -0.36961876399E+02  0.26500656260E+03  0.31143442723E+03  0.96680198821E+02 0.  0.
         11    1    3    3    0    0  0.93053306600E+02 -0.95640917143E+01  0.85399762793E+02  0.12666297488E+03  0.00000000000E+00 0. -1.
        -11    1    3    3    0    0  0.33634037245E+02 -0.27397784684E+02  0.17960679980E+03  0.18477145235E+03  0.00000000000E+00 0.  1.
         22    1    1    2    0    0 -0.12668734384E+03  0.36961876399E+02 -0.28948606558E+03  0.31814783602E+03  0.00000000000E+00 0. -1.
<mgrwt>
<rscale>  0 0.62910618E+03</rscale>
<asrwt>0</asrwt>
<pdfrwt beam="1">  1        2 0.50312444E-01 0.62910618E+03</pdfrwt>
<pdfrwt beam="2">  1       -2 0.46546366E-01 0.62910618E+03</pdfrwt>
<totfact> 0.44017333E+02</totfact>
</mgrwt>
</event>
<event>
 6    1  0.2003386E-005  0.1547722E+04  0.7818608E-02  0.8853324E-01
         -3   -1    0    0    0  501 -0.00000000000E+00  0.00000000000E+00  0.72626295738E+03  0.72626295738E+03  0.00000000000E+00 0.  1.
          3   -1    0    0  501    0  0.00000000000E+00 -0.00000000000E+00 -0.82457811458E+03  0.82457811458E+03  0.00000000000E+00 0. -1.
         23    2    1    2    0    0 -0.54900247016E+03 -0.52034924606E+03 -0.20200889662E+03  0.78734945988E+03  0.83333831940E+02 0.  0.
         11    1    3    3    0    0 -0.40629039585E+03 -0.34188829947E+03 -0.11848733110E+03  0.54405766487E+03  0.00000000000E+00 0. -1.
        -11    1    3    3    0    0 -0.14271207431E+03 -0.17846094660E+03 -0.83521565527E+02  0.24329179502E+03  0.00000000000E+00 0.  1.
         22    1    1    2    0    0  0.54900247016E+03  0.52034924606E+03  0.10369373943E+03  0.76349161208E+03  0.00000000000E+00 0.  1.
<mgrwt>
<rscale>  0 0.15477216E+04</rscale>
<asrwt>0</asrwt>
<pdfrwt beam="1">  1        3 0.12685817E+00 0.15477216E+04</pdfrwt>
<pdfrwt beam="2">  1       -3 0.11173276E+00 0.15477216E+04</pdfrwt>
<totfact> 0.83695522E-01</totfact>
</mgrwt>
</event>
<event>
 6    1  0.2003386E-005  0.1885779E+04  0.7818608E-02  0.8661968E-01
         -2   -1    0    0    0  501 -0.00000000000E+00  0.00000000000E+00  0.27047441760E+03  0.27047441760E+03  0.00000000000E+00 0.  1.
          2   -1    0    0  501    0  0.00000000000E+00 -0.00000000000E+00 -0.32869659241E+04  0.32869659241E+04  0.00000000000E+00 0. -1.
         23    2    1    2    0    0 -0.40708745135E+03  0.81331685546E+03 -0.10600432000E+04  0.13999198953E+04  0.94231773075E+02 0.  0.
         13    1    3    3    0    0 -0.19501055062E+03  0.49185630057E+03 -0.62627146472E+03  0.81985833093E+03  0.00000000000E+00 0. -1.
        -13    1    3    3    0    0 -0.21207690073E+03  0.32146055489E+03 -0.43377173523E+03  0.58006156437E+03  0.00000000000E+00 0.  1.
         22    1    1    2    0    0  0.40708745135E+03 -0.81331685546E+03 -0.19564483066E+04  0.21575204464E+04  0.00000000000E+00 0. -1.
<mgrwt>
<rscale>  0 0.18857786E+04</rscale>
<asrwt>0</asrwt>
<pdfrwt beam="1">  1        2 0.50568705E+00 0.18857786E+04</pdfrwt>
<pdfrwt beam="2">  1       -2 0.41611450E-01 0.18857786E+04</pdfrwt>
<totfact> 0.58606762E+00</totfact>
</mgrwt>
</event>
<event>
 6    1  0.2003386E-005  0.8477202E+03  0.7818608E-02  0.9493402E-01
          2   -1    0    0  501    0  0.00000000000E+00  0.00000000000E+00  0.24009889128E+04  0.24009889128E+04  0.00000000000E+00 0. -1.
         -2   -1    0    0    0  501 -0.00000000000E+00 -0.00000000000E+00 -0.74826414671E+02  0.74826414671E+02  0.00000000000E+00 0.  1.
         23    2    1    2    0    0  0.17924835823E+03  0.13894452100E+03  0.22054838802E+04  0.22189128505E+04  0.89328262955E+02 0.  0.
         13    1    3    3    0    0  0.95238247235E+02  0.11752918197E+03  0.16196006788E+04  0.16266498674E+04  0.00000000000E+00 0. -1.
        -13    1    3    3    0    0  0.84010110999E+02  0.21415339027E+02  0.58588320140E+03  0.59226298312E+03  0.00000000000E+00 0.  1.
         22    1    1    2    0    0 -0.17924835823E+03 -0.13894452100E+03  0.12067861797E+03  0.25690247699E+03  0.00000000000E+00 0.  1.
<mgrwt>
<rscale>  0 0.84772022E+03</rscale>
<asrwt>0</asrwt>
<pdfrwt beam="1">  1        2 0.36938285E+00 0.84772022E+03</pdfrwt>
<pdfrwt beam="2">  1       -2 0.11511758E-01 0.84772022E+03</pdfrwt>
<totfact> 0.22194500E+02</totfact>
</mgrwt>
</event>
<event>
 6    1  0.2003386E-005  0.1860737E+04  0.7818608E-02  0.8674651E-01
         -2   -1    0    0    0  501 -0.00000000000E+00  0.00000000000E+00  0.70942869824E+03  0.70942869824E+03  0.00000000000E+00 0.  1.
          2   -1    0    0  501    0  0.00000000000E+00 -0.00000000000E+00 -0.12201167862E+04  0.12201167862E+04  0.00000000000E+00 0. -1.
         23    2    1    2    0    0  0.35499569334E+03 -0.17056745835E+03 -0.11275072613E+04  0.11977114235E+04  0.90137836644E+02 0.  0.
         13    1    3    3    0    0  0.23925788639E+03 -0.13722520734E+03 -0.88425856858E+03  0.92627658388E+03  0.00000000000E+00 0. -1.
        -13    1    3    3    0    0  0.11573780696E+03 -0.33342251003E+02 -0.24324869275E+03  0.27143483967E+03  0.00000000000E+00 0.  1.
         22    1    1    2    0    0 -0.35499569334E+03  0.17056745835E+03  0.61681917334E+03  0.73183406093E+03  0.00000000000E+00 0.  1.
<mgrwt>
<rscale>  0 0.18607373E+04</rscale>
<asrwt>0</asrwt>
<pdfrwt beam="1">  1        2 0.18771027E+00 0.18607373E+04</pdfrwt>
<pdfrwt beam="2">  1       -2 0.10914288E+00 0.18607373E+04</pdfrwt>
<totfact> 0.11592398E+01</totfact>
</mgrwt>
</event>
<event>
 6    1  0.2003386E-005  0.2770847E+04  0.7818608E-02  0.8312377E-01
         -2   -1    0    0    0  501 -0.00000000000E+00  0.00000000000E+00  0.67761490307E+03  0.67761490307E+03  0.00000000000E+00 0.  1.
          2   -1    0    0  501    0  0.00000000000E+00 -0.00000000000E+00 -0.28325796246E+04  0.28325796246E+04  0.00000000000E+00 0. -1.
         23    2    1    2    0    0 -0.11955048732E+04  0.30613568366E+03 -0.18722074550E+04  0.22441366180E+04  0.89651811346E+02 0.  0.
         13    1    3    3    0    0 -0.90109044369E+03  0.22427199125E+03 -0.14755408347E+04  0.17434112161E+04  0.00000000000E+00 0.  1.
        -13    1    3    3    0    0 -0.29441442953E+03  0.81863692415E+02 -0.39666662028E+03  0.50072540189E+03  0.00000000000E+00 0. -1.
         22    1    1    2    0    0  0.11955048732E+04 -0.30613568366E+03 -0.28275726653E+03  0.12660579096E+04  0.00000000000E+00 0.  1.
<mgrwt>
<rscale>  0 0.27708469E+04</rscale>
<asrwt>0</asrwt>
<pdfrwt beam="1">  1        2 0.43578147E+00 0.27708469E+04</pdfrwt>
<pdfrwt beam="2">  1       -2 0.10424845E+00 0.27708469E+04</pdfrwt>
<totfact> 0.14407249E+00</totfact>
</mgrwt>
</event>
<event>
 6    1  0.2003386E-005  0.5744109E+04  0.7818608E-02  0.7722965E-01
         -2   -1    0    0    0  501 -0.00000000000E+00  0.00000000000E+00  0.29531184420E+04  0.29531184420E+04  0.00000000000E+00 0.  1.
          2   -1    0    0  501    0  0.00000000000E+00 -0.00000000000E+00 -0.27932159195E+04  0.27932159195E+04  0.00000000000E+00 0. -1.
         23    2    1    2    0    0  0.17285438258E+04 -0.18221163592E+04  0.14720249922E+04  0.29126729209E+04  0.93990331403E+02 0.  0.
         11    1    3    3    0    0  0.11815848596E+04 -0.11943203472E+04  0.95313457523E+03  0.19315820952E+04  0.00000000000E+00 0.  1.
        -11    1    3    3    0    0  0.54695896617E+03 -0.62779601202E+03  0.51889041697E+03  0.98109082566E+03  0.00000000000E+00 0. -1.
         22    1    1    2    0    0 -0.17285438258E+04  0.18221163592E+04 -0.13121224698E+04  0.28336614406E+04  0.00000000000E+00 0. -1.
<mgrwt>
<rscale>  0 0.57441091E+04</rscale>
<asrwt>0</asrwt>
<pdfrwt beam="1">  1        2 0.42972553E+00 0.57441091E+04</pdfrwt>
<pdfrwt beam="2">  1       -2 0.45432591E+00 0.57441091E+04</pdfrwt>
<totfact> 0.52323579E-03</totfact>
</mgrwt>
</event>
<event>
 6    1  0.2003386E-005  0.5322965E+04  0.7818608E-02  0.7780530E-01
         -2   -1    0    0    0  501 -0.00000000000E+00  0.00000000000E+00  0.16405310203E+04  0.16405310203E+04  0.00000000000E+00 0.  1.
          2   -1    0    0  501    0  0.00000000000E+00 -0.00000000000E+00 -0.43178023813E+04  0.43178023813E+04  0.00000000000E+00 0. -1.
         23    2    1    2    0    0 -0.89124887210E+03  0.12809108881E+04 -0.37515772061E+04  0.40638175521E+04  0.72279372058E+02 0.  0.
         13    1    3    3    0    0 -0.59819307438E+03  0.86053318401E+03 -0.24299039793E+04  0.26462776997E+04  0.00000000000E+00 0. -1.
        -13    1    3    3    0    0 -0.29305579772E+03  0.42037770408E+03 -0.13216732268E+04  0.14175398524E+04  0.00000000000E+00 0.  1.
         22    1    1    2    0    0  0.89124887210E+03 -0.12809108881E+04  0.10743058451E+04  0.18945158495E+04  0.00000000000E+00 0.  1.
<mgrwt>
<rscale>  0 0.53229649E+04</rscale>
<asrwt>0</asrwt>
<pdfrwt beam="1">  1        2 0.66427727E+00 0.53229649E+04</pdfrwt>
<pdfrwt beam="2">  1       -2 0.25238939E+00 0.53229649E+04</pdfrwt>
<totfact> 0.79929702E-03</totfact>
</mgrwt>
</event>
<event>
 6    1  0.2003386E-005  0.2820196E+04  0.7818608E-02  0.8297026E-01
         -2   -1    0    0    0  501 -0.00000000000E+00  0.00000000000E+00  0.14031270671E+04  0.14031270671E+04  0.00000000000E+00 0.  1.
          2   -1    0    0  501    0  0.00000000000E+00 -0.00000000000E+00 -0.14171033285E+04  0.14171033285E+04  0.00000000000E+00 0. -1.
         23    2    1    2    0    0 -0.13378707645E+04  0.26867363603E+03  0.34251431792E+03  0.14098512840E+04  0.90999338694E+02 0.  0.
         13    1    3    3    0    0 -0.94337050911E+03  0.22574949042E+03  0.22139780951E+03  0.99495112439E+03  0.00000000000E+00 0.  1.
        -13    1    3    3    0    0 -0.39450025541E+03  0.42924145618E+02  0.12111650841E+03  0.41490015956E+03  0.00000000000E+00 0. -1.
         22    1    1    2    0    0  0.13378707645E+04 -0.26867363603E+03 -0.35649057932E+03  0.14103791116E+04  0.00000000000E+00 0. -1.
<mgrwt>
<rscale>  0 0.28201958E+04</rscale>
<asrwt>0</asrwt>
<pdfrwt beam="1">  1        2 0.21801590E+00 0.28201958E+04</pdfrwt>
<pdfrwt beam="2">  1       -2 0.21586570E+00 0.28201958E+04</pdfrwt>
<totfact> 0.12906768E+00</totfact>
</mgrwt>
</event>
<event>
 6    1  0.2003386E-005  0.3072022E+04  0.7818608E-02  0.8223458E-01
          2   -1    0    0  501    0  0.00000000000E+00  0.00000000000E+00  0.32190081153E+04  0.32190081153E+04  0.00000000000E+00 0. -1.
         -2   -1    0    0    0  501 -0.00000000000E+00 -0.00000000000E+00 -0.73293678532E+03  0.73293678532E+03  0.00000000000E+00 0.  1.
         23    2    1    2    0    0  0.13905923340E+04  0.63931806929E+03  0.13834764760E+04  0.20656283722E+04  0.10167978838E+03 0.  0.
         11    1    3    3    0    0  0.90470397272E+03  0.42389267224E+03  0.96662502965E+03  0.13901576255E+04  0.00000000000E+00 0. -1.
        -11    1    3    3    0    0  0.48588836133E+03  0.21542539705E+03  0.41685144633E+03  0.67547074672E+03  0.00000000000E+00 0.  1.
         22    1    1    2    0    0 -0.13905923340E+04 -0.63931806929E+03  0.11025948540E+04  0.18863165284E+04  0.00000000000E+00 0.  1.
<mgrwt>
<rscale>  0 0.30720218E+04</rscale>
<asrwt>0</asrwt>
<pdfrwt beam="1">  1        2 0.49523201E+00 0.30720218E+04</pdfrwt>
<pdfrwt beam="2">  1       -2 0.11275951E+00 0.30720218E+04</pdfrwt>
<totfact> 0.66284566E-01</totfact>
</mgrwt>
</event>
<event>
 6    1  0.2003386E-005  0.3602165E+04  0.7818608E-02  0.8089996E-01
         -2   -1    0    0    0  501 -0.00000000000E+00  0.00000000000E+00  0.24266162101E+04  0.24266162101E+04  0.00000000000E+00 0.  1.
          2   -1    0    0  501    0  0.00000000000E+00 -0.00000000000E+00 -0.13367992368E+04  0.13367992368E+04  0.00000000000E+00 0. -1.
         23    2    1    2    0    0  0.77647322775E+03  0.25125460953E+03  0.22213140616E+04  0.23683078479E+04  0.92770415195E+02 0.  0.
         13    1    3    3    0    0  0.33326813631E+03  0.62304241857E+02  0.95940749955E+03  0.10175520721E+04  0.00000000000E+00 0. -1.
        -13    1    3    3    0    0  0.44320509144E+03  0.18895036767E+03  0.12619065620E+04  0.13507557758E+04  0.00000000000E+00 0.  1.
         22    1    1    2    0    0 -0.77647322775E+03 -0.25125460953E+03 -0.11314970882E+04  0.13951075991E+04  0.00000000000E+00 0. -1.
<mgrwt>
<rscale>  0 0.36021653E+04</rscale>
<asrwt>0</asrwt>
<pdfrwt beam="1">  1        2 0.20566142E+00 0.36021653E+04</pdfrwt>
<pdfrwt beam="2">  1       -2 0.37332557E+00 0.36021653E+04</pdfrwt>
<totfact> 0.14165822E-01</totfact>
</mgrwt>
</event>
<event>
 6    1  0.2003386E-005  0.2673281E+04  0.7818608E-02  0.8343727E-01
          2   -1    0    0  501    0  0.00000000000E+00  0.00000000000E+00  0.18066347838E+04  0.18066347838E+04  0.00000000000E+00 0.  1.
         -2   -1    0    0    0  501 -0.00000000000E+00 -0.00000000000E+00 -0.98891509296E+03  0.98891509296E+03  0.00000000000E+00 0. -1.
         23    2    1    2    0    0 -0.72453572751E+03  0.10953980935E+04  0.15845734190E+03  0.13260343619E+04  0.91702759009E+02 0.  0.
         11    1    3    3    0    0 -0.42700052351E+03  0.64839865176E+03  0.48215776906E+02  0.77786568238E+03  0.00000000000E+00 0. -1.
        -11    1    3    3    0    0 -0.29753520400E+03  0.44699944175E+03  0.11024156500E+03  0.54816867951E+03  0.00000000000E+00 0.  1.
         22    1    1    2    0    0  0.72453572751E+03 -0.10953980935E+04  0.65926234894E+03  0.14695155149E+04  0.00000000000E+00 0.  1.
<mgrwt>
<rscale>  0 0.26732814E+04</rscale>
<asrwt>0</asrwt>
<pdfrwt beam="1">  1        2 0.27794381E+00 0.26732814E+04</pdfrwt>
<pdfrwt beam="2">  1       -2 0.15214078E+00 0.26732814E+04</pdfrwt>
<totfact> 0.21708299E+00</totfact>
</mgrwt>
</event>
<event>
 6    1  0.2003386E-005  0.2807197E+04  0.7818608E-02  0.8301038E-01
          2   -1    0    0  501    0  0.00000000000E+00  0.00000000000E+00  0.18445743384E+04  0.18445743384E+04  0.00000000000E+00 0. -1.
         -2   -1    0    0    0  501 -0.00000000000E+00 -0.00000000000E+00 -0.10680449319E+04  0.10680449319E+04  0.00000000000E+00 0.  1.
         23    2    1    2    0    0 -0.79862738078E+03 -0.23434227432E+03 -0.78195054067E+03  0.11458194116E+04  0.93453095573E+02 0.  0.
         13    1    3    3    0    0 -0.40024101539E+03 -0.11822813800E+03 -0.45599474287E+03  0.61814397072E+03  0.00000000000E+00 0. -1.
        -13    1    3    3    0    0 -0.39838636539E+03 -0.11611413632E+03 -0.32595579780E+03  0.52767544088E+03  0.00000000000E+00 0.  1.
         22    1    1    2    0    0  0.79862738078E+03  0.23434227432E+03  0.15584799472E+04  0.17667998587E+04  0.00000000000E+00 0. -1.
<mgrwt>
<rscale>  0 0.28071967E+04</rscale>
<asrwt>0</asrwt>
<pdfrwt beam="1">  1        2 0.28378067E+00 0.28071967E+04</pdfrwt>
<pdfrwt beam="2">  1       -2 0.16431461E+00 0.28071967E+04</pdfrwt>
<totfact> 0.16602316E+00</totfact>
</mgrwt>
</event>
<event>
 6    1  0.2003386E-005  0.1885179E+04  0.7818608E-02  0.8662269E-01
         -2   -1    0    0    0  501 -0.00000000000E+00  0.00000000000E+00  0.63440674309E+03  0.63440674309E+03  0.00000000000E+00 0.  1.
          2   -1    0    0  501    0  0.00000000000E+00 -0.00000000000E+00 -0.14004810033E+04  0.14004810033E+04  0.00000000000E+00 0. -1.
         23    2    1    2    0    0  0.25937184531E+03  0.89930754616E+03 -0.28488657044E+03  0.98247651047E+03  0.89843858365E+02 0.  0.
         13    1    3    3    0    0  0.53676067497E+02  0.33712726234E+03 -0.92315816484E+02  0.35363557684E+03  0.00000000000E+00 0. -1.
        -13    1    3    3    0    0  0.20569577782E+03  0.56218028382E+03 -0.19257075396E+03  0.62884093363E+03  0.00000000000E+00 0.  1.
         22    1    1    2    0    0 -0.25937184531E+03 -0.89930754616E+03 -0.48118768977E+03  0.10524112359E+04  0.00000000000E+00 0. -1.
<mgrwt>
<rscale>  0 0.18851786E+04</rscale>
<asrwt>0</asrwt>
<pdfrwt beam="1">  1        2 0.21545861E+00 0.18851786E+04</pdfrwt>
<pdfrwt beam="2">  1       -2 0.97601038E-01 0.18851786E+04</pdfrwt>
<totfact> 0.11863382E+01</totfact>
</mgrwt>
</event>
<event>
 6    1  0.2003386E-005  0.3241124E+04  0.7818608E-02  0.8178040E-01
          2   -1    0    0  501    0  0.00000000000E+00  0.00000000000E+00  0.23318010767E+04  0.23318010767E+04  0.00000000000E+00 0.  1.
         -2   -1    0    0    0  501 -0.00000000000E+00 -0.00000000000E+00 -0.11262626385E+04  0.11262626385E+04  0.00000000000E+00 0. -1.
         23    2    1    2    0    0  0.22959230739E+03  0.13833238085E+04 -0.26090811056E+03  0.14290829694E+04  0.88925276280E+02 0.  0.
         11    1    3    3    0    0  0.96985326397E+02  0.47148313782E+03 -0.51046998493E+02  0.48405402472E+03  0.00000000000E+00 0. -1.
        -11    1    3    3    0    0  0.13260698099E+03  0.91184067063E+03 -0.20986111206E+03  0.94502894473E+03  0.00000000000E+00 0.  1.
         22    1    1    2    0    0 -0.22959230739E+03 -0.13833238085E+04  0.14664465487E+04  0.20289807458E+04  0.00000000000E+00 0.  1.
<mgrwt>
<rscale>  0 0.32411235E+04</rscale>
<asrwt>0</asrwt>
<pdfrwt beam="1">  1        2 0.35873863E+00 0.32411235E+04</pdfrwt>
<pdfrwt beam="2">  1       -2 0.17327118E+00 0.32411235E+04</pdfrwt>
<totfact> 0.73739466E-01</totfact>
</mgrwt>
</event>
<event>
 6    1  0.2003386E-005  0.4321201E+04  0.7818608E-02  0.7942709E-01
          2   -1    0    0  501    0  0.00000000000E+00  0.00000000000E+00  0.33520400782E+04  0.33520400782E+04  0.00000000000E+00 0. -1.
         -2   -1    0    0    0  501 -0.00000000000E+00 -0.00000000000E+00 -0.13926428029E+04  0.13926428029E+04  0.00000000000E+00 0.  1.
         23    2    1    2    0    0  0.59176630112E+03  0.24595470553E+03 -0.12843162578E+04  0.14382711467E+04  0.92057422412E+02 0.  0.
         11    1    3    3    0    0  0.11404650654E+03  0.86895787282E+02 -0.26085982457E+03  0.29766647708E+03  0.00000000000E+00 0. -1.
        -11    1    3    3    0    0  0.47771979458E+03  0.15905891825E+03 -0.10234564332E+04  0.11406046696E+04  0.00000000000E+00 0.  1.
         22    1    1    2    0    0 -0.59176630112E+03 -0.24595470553E+03  0.32437135332E+04  0.33064117344E+04  0.00000000000E+00 0. -1.
<mgrwt>
<rscale>  0 0.43212010E+04</rscale>
<asrwt>0</asrwt>
<pdfrwt beam="1">  1        2 0.51569847E+00 0.43212010E+04</pdfrwt>
<pdfrwt beam="2">  1       -2 0.21425274E+00 0.43212010E+04</pdfrwt>
<totfact> 0.84830131E-02</totfact>
</mgrwt>
</event>
<event>
 6    1  0.2003386E-005  0.5389943E+03  0.7818608E-02  0.1004074E+00
         -1   -1    0    0    0  501 -0.00000000000E+00  0.00000000000E+00  0.13012325400E+04  0.13012325400E+04  0.00000000000E+00 0. -1.
          1   -1    0    0  501    0  0.00000000000E+00 -0.00000000000E+00 -0.55815328350E+02  0.55815328350E+02  0.00000000000E+00 0.  1.
         23    2    1    2    0    0  0.22881328358E+03 -0.95753267271E+02  0.43508350678E+03  0.50960175196E+03  0.94191723581E+02 0.  0.
         13    1    3    3    0    0  0.90368111583E+02 -0.85023755668E+02  0.17150100084E+03  0.21167906819E+03  0.00000000000E+00 0. -1.
        -13    1    3    3    0    0  0.13844517200E+03 -0.10729511603E+02  0.26358250594E+03  0.29792268377E+03  0.00000000000E+00 0.  1.
         22    1    1    2    0    0 -0.22881328358E+03  0.95753267271E+02  0.81033370485E+03  0.84744611638E+03  0.00000000000E+00 0. -1.
<mgrwt>
<rscale>  0 0.53899433E+03</rscale>
<asrwt>0</asrwt>
<pdfrwt beam="1">  1        1 0.85869746E-02 0.53899433E+03</pdfrwt>
<pdfrwt beam="2">  1       -1 0.20018960E+00 0.53899433E+03</pdfrwt>
<totfact> 0.12872362E+02</totfact>
</mgrwt>
</event>
<event>
 6    1  0.2003386E-005  0.1257053E+04  0.7818608E-02  0.9064334E-01
         -2   -1    0    0    0  501 -0.00000000000E+00  0.00000000000E+00  0.12516812739E+03  0.12516812739E+03  0.00000000000E+00 0.  1.
          2   -1    0    0  501    0  0.00000000000E+00 -0.00000000000E+00 -0.31561188896E+04  0.31561188896E+04  0.00000000000E+00 0. -1.
         23    2    1    2    0    0 -0.41247374237E+03 -0.36884373000E+03 -0.22829550971E+04  0.23508689388E+04  0.92306589503E+02 0.  0.
         11    1    3    3    0    0 -0.12375853408E+03 -0.17056295695E+03 -0.86237033409E+03  0.88774460864E+03  0.00000000000E+00 0. -1.
        -11    1    3    3    0    0 -0.28871520829E+03 -0.19828077305E+03 -0.14205847630E+04  0.14631243301E+04  0.00000000000E+00 0.  1.
         22    1    1    2    0    0  0.41247374237E+03  0.36884373000E+03 -0.74799566509E+03  0.93041807823E+03  0.00000000000E+00 0.  1.
<mgrwt>
<rscale>  0 0.12570529E+04</rscale>
<asrwt>0</asrwt>
<pdfrwt beam="1">  1        2 0.48555675E+00 0.12570529E+04</pdfrwt>
<pdfrwt beam="2">  1       -2 0.19256635E-01 0.12570529E+04</pdfrwt>
<totfact> 0.31582085E+01</totfact>
</mgrwt>
</event>
<event>
 6    1  0.2003386E-005  0.2326595E+04  0.7818608E-02  0.8467508E-01
          2   -1    0    0  501    0  0.00000000000E+00  0.00000000000E+00  0.28670540062E+04  0.28670540062E+04  0.00000000000E+00 0. -1.
         -2   -1    0    0    0  501 -0.00000000000E+00 -0.00000000000E+00 -0.47200400500E+03  0.47200400500E+03  0.00000000000E+00 0.  1.
         23    2    1    2    0    0 -0.19278752196E+03 -0.45541033867E+02  0.28418858792E+04  0.28502806424E+04  0.92430383052E+02 0.  0.
         11    1    3    3    0    0 -0.91919078861E+02 -0.52802956939E+01  0.75878705893E+03  0.76435253606E+03  0.00000000000E+00 0. -1.
        -11    1    3    3    0    0 -0.10086844310E+03 -0.40260738173E+02  0.20830988202E+04  0.20859281063E+04  0.00000000000E+00 0.  1.
         22    1    1    2    0    0  0.19278752196E+03  0.45541033867E+02 -0.44683587799E+03  0.48877736880E+03  0.00000000000E+00 0.  1.
<mgrwt>
<rscale>  0 0.23265949E+04</rscale>
<asrwt>0</asrwt>
<pdfrwt beam="1">  1        2 0.44108522E+00 0.23265949E+04</pdfrwt>
<pdfrwt beam="2">  1       -2 0.72616003E-01 0.23265949E+04</pdfrwt>
<totfact> 0.32671801E+00</totfact>
</mgrwt>
</event>
<event>
 6    1  0.2003386E-005  0.3642984E+04  0.7818608E-02  0.8080716E-01
         -2   -1    0    0    0  501 -0.00000000000E+00  0.00000000000E+00  0.14138994741E+04  0.14138994741E+04  0.00000000000E+00 0.  1.
          2   -1    0    0  501    0  0.00000000000E+00 -0.00000000000E+00 -0.23465840443E+04  0.23465840443E+04  0.00000000000E+00 0. -1.
         23    2    1    2    0    0 -0.10692147692E+04 -0.10725170889E+04  0.57582689432E+03  0.16229335267E+04  0.93933440501E+02 0.  0.
         13    1    3    3    0    0 -0.82429488661E+03 -0.86692551020E+03  0.48171086729E+03  0.12895996511E+04  0.00000000000E+00 0. -1.
        -13    1    3    3    0    0 -0.24491988254E+03 -0.20559157866E+03  0.94116027032E+02  0.33333387560E+03  0.00000000000E+00 0.  1.
         22    1    1    2    0    0  0.10692147692E+04  0.10725170889E+04 -0.15085114646E+04  0.21375499917E+04  0.00000000000E+00 0. -1.
<mgrwt>
<rscale>  0 0.36429845E+04</rscale>
<asrwt>0</asrwt>
<pdfrwt beam="1">  1        2 0.36101293E+00 0.36429845E+04</pdfrwt>
<pdfrwt beam="2">  1       -2 0.21752300E+00 0.36429845E+04</pdfrwt>
<totfact> 0.35500690E-01</totfact>
</mgrwt>
</event>
<event>
 6    1  0.2003386E-005  0.3226682E+04  0.7818608E-02  0.8181806E-01
          2   -1    0    0  501    0  0.00000000000E+00  0.00000000000E+00  0.21571618311E+04  0.21571618311E+04  0.00000000000E+00 0. -1.
         -2   -1    0    0    0  501 -0.00000000000E+00 -0.00000000000E+00 -0.12066173870E+04  0.12066173870E+04  0.00000000000E+00 0.  1.
         23    2    1    2    0    0  0.39751005321E+03  0.10507245410E+04  0.16815199000E+04  0.20234951361E+04  0.70619320886E+02 0.  0.
         11    1    3    3    0    0  0.12093791420E+03  0.38053449293E+03  0.55092857431E+03  0.68040779933E+03  0.00000000000E+00 0.  1.
        -11    1    3    3    0    0  0.27657213901E+03  0.67019004806E+03  0.11305913256E+04  0.13430873368E+04  0.00000000000E+00 0. -1.
         22    1    1    2    0    0 -0.39751005321E+03 -0.10507245410E+04 -0.73097545589E+03  0.13402840820E+04  0.00000000000E+00 0.  1.
<mgrwt>
<rscale>  0 0.32266819E+04</rscale>
<asrwt>0</asrwt>
<pdfrwt beam="1">  1        2 0.33187105E+00 0.32266819E+04</pdfrwt>
<pdfrwt beam="2">  1       -2 0.18563344E+00 0.32266819E+04</pdfrwt>
<totfact> 0.76083196E-01</totfact>
</mgrwt>
</event>
<event>
 6    1  0.2003386E-005  0.1927635E+04  0.7818608E-02  0.8641222E-01
         -2   -1    0    0    0  501 -0.00000000000E+00  0.00000000000E+00  0.67435702132E+03  0.67435702132E+03  0.00000000000E+00 0.  1.
          2   -1    0    0  501    0  0.00000000000E+00 -0.00000000000E+00 -0.13775255168E+04  0.13775255168E+04  0.00000000000E+00 0. -1.
         23    2    1    2    0    0 -0.66846307642E+03 -0.56815603926E+03  0.67645207266E+02  0.88406494372E+03  0.85736696729E+02 0.  0.
         13    1    3    3    0    0 -0.29937256582E+02 -0.52727883265E+02 -0.56711395879E+00  0.60636545280E+02  0.00000000000E+00 0. -1.
        -13    1    3    3    0    0 -0.63852581983E+03 -0.51542815599E+03  0.68212321225E+02  0.82342839844E+03  0.00000000000E+00 0.  1.
         22    1    1    2    0    0  0.66846307642E+03  0.56815603926E+03 -0.77081370277E+03  0.11678175944E+04  0.00000000000E+00 0. -1.
<mgrwt>
<rscale>  0 0.19276348E+04</rscale>
<asrwt>0</asrwt>
<pdfrwt beam="1">  1        2 0.21192700E+00 0.19276348E+04</pdfrwt>
<pdfrwt beam="2">  1       -2 0.10374724E+00 0.19276348E+04</pdfrwt>
<totfact> 0.10540938E+01</totfact>
</mgrwt>
</event>
<event>
 6    1  0.2003386E-005  0.8370383E+03  0.7818608E-02  0.9507901E-01
          2   -1    0    0  501    0  0.00000000000E+00  0.00000000000E+00  0.24726446486E+04  0.24726446486E+04  0.00000000000E+00 0. -1.
         -2   -1    0    0    0  501 -0.00000000000E+00 -0.00000000000E+00 -0.70838437589E+02  0.70838437589E+02  0.00000000000E+00 0.  1.
         23    2    1    2    0    0 -0.13988685160E+03  0.12092982497E+03  0.23392250147E+04  0.23482684352E+04  0.90546233763E+02 0.  0.
         13    1    3    3    0    0 -0.10865722379E+03  0.10665347364E+03  0.13698263074E+04  0.13782617561E+04  0.00000000000E+00 0. -1.
        -13    1    3    3    0    0 -0.31229627807E+02  0.14276351340E+02  0.96939870727E+03  0.97000667911E+03  0.00000000000E+00 0.  1.
         22    1    1    2    0    0  0.13988685160E+03 -0.12092982497E+03  0.62581196246E+02  0.19521465094E+03  0.00000000000E+00 0.  1.
<mgrwt>
<rscale>  0 0.83703831E+03</rscale>
<asrwt>0</asrwt>
<pdfrwt beam="1">  1        2 0.38040680E+00 0.83703831E+03</pdfrwt>
<pdfrwt beam="2">  1       -2 0.10898223E-01 0.83703831E+03</pdfrwt>
<totfact> 0.22148933E+02</totfact>
</mgrwt>
</event>
<event>
 6    1  0.2003386E-005  0.2085285E+04  0.7818608E-02  0.8567753E-01
          2   -1    0    0  501    0  0.00000000000E+00  0.00000000000E+00  0.21034103930E+04  0.21034103930E+04  0.00000000000E+00 0. -1.
         -2   -1    0    0    0  501 -0.00000000000E+00 -0.00000000000E+00 -0.51682890356E+03  0.51682890356E+03  0.00000000000E+00 0.  1.
         23    2    1    2    0    0 -0.37993989114E+03  0.95228605735E+03  0.10185005434E+04  0.14480963799E+04  0.91851578762E+02 0.  0.
         11    1    3    3    0    0 -0.25375413444E+03  0.61982481311E+03  0.72499980634E+03  0.98701503478E+03  0.00000000000E+00 0. -1.
        -11    1    3    3    0    0 -0.12618575669E+03  0.33246124424E+03  0.29350073709E+03  0.46108134509E+03  0.00000000000E+00 0.  1.
         22    1    1    2    0    0  0.37993989114E+03 -0.95228605735E+03  0.56808094596E+03  0.11721429167E+04  0.00000000000E+00 0.  1.
<mgrwt>
<rscale>  0 0.20852849E+04</rscale>
<asrwt>0</asrwt>
<pdfrwt beam="1">  1        2 0.32360159E+00 0.20852849E+04</pdfrwt>
<pdfrwt beam="2">  1       -2 0.79512140E-01 0.20852849E+04</pdfrwt>
<totfact> 0.75638768E+00</totfact>
</mgrwt>
</event>
<event>
 6    1  0.2003386E-005  0.1815362E+04  0.7818608E-02  0.8698173E-01
         -1   -1    0    0    0  501 -0.00000000000E+00  0.00000000000E+00  0.85874413306E+03  0.85874413306E+03  0.00000000000E+00 0.  1.
          1   -1    0    0  501    0  0.00000000000E+00 -0.00000000000E+00 -0.95940609400E+03  0.95940609400E+03  0.00000000000E+00 0. -1.
         23    2    1    2    0    0 -0.80826932491E+03 -0.30796857357E+03  0.21689145703E+03  0.89674688587E+03  0.94705487157E+02 0.  0.
         13    1    3    3    0    0 -0.14094511045E+03 -0.87962662776E+02  0.22200205981E+02  0.16761802811E+03  0.00000000000E+00 0. -1.
        -13    1    3    3    0    0 -0.66732421446E+03 -0.22000591079E+03  0.19469125105E+03  0.72912885776E+03  0.00000000000E+00 0.  1.
         22    1    1    2    0    0  0.80826932491E+03  0.30796857357E+03 -0.31755341797E+03  0.92140334119E+03  0.00000000000E+00 0. -1.
<mgrwt>
<rscale>  0 0.18153615E+04</rscale>
<asrwt>0</asrwt>
<pdfrwt beam="1">  1        1 0.14760094E+00 0.18153615E+04</pdfrwt>
<pdfrwt beam="2">  1       -1 0.13211448E+00 0.18153615E+04</pdfrwt>
<totfact> 0.74743170E+00</totfact>
</mgrwt>
</event>
<event>
 6    1  0.2003386E-005  0.1129511E+04  0.7818608E-02  0.9176896E-01
          2   -1    0    0  501    0  0.00000000000E+00  0.00000000000E+00  0.50486568479E+03  0.50486568479E+03  0.00000000000E+00 0. -1.
         -2   -1    0    0    0  501 -0.00000000000E+00 -0.00000000000E+00 -0.63175006483E+03  0.63175006483E+03  0.00000000000E+00 0.  1.
         23    2    1    2    0    0  0.27597463347E+03 -0.56511711491E+02  0.42407269522E+03  0.51781911854E+03  0.94569640176E+02 0.  0.
         11    1    3    3    0    0  0.43490176146E+02 -0.58662882800E+01  0.14287771701E+03  0.14946521594E+03  0.00000000000E+00 0. -1.
        -11    1    3    3    0    0  0.23248445732E+03 -0.50645423211E+02  0.28119497821E+03  0.36835390260E+03  0.00000000000E+00 0.  1.
         22    1    1    2    0    0 -0.27597463347E+03  0.56511711491E+02 -0.55095707526E+03  0.61879663107E+03  0.00000000000E+00 0.  1.
<mgrwt>
<rscale>  0 0.11295113E+04</rscale>
<asrwt>0</asrwt>
<pdfrwt beam="1">  1        2 0.77671645E-01 0.11295113E+04</pdfrwt>
<pdfrwt beam="2">  1       -2 0.97192317E-01 0.11295113E+04</pdfrwt>
<totfact> 0.53330128E+01</totfact>
</mgrwt>
</event>
<event>
 6    1  0.2003386E-005  0.1166762E+04  0.7818608E-02  0.9142458E-01
         -2   -1    0    0    0  501 -0.00000000000E+00  0.00000000000E+00  0.24955036995E+03  0.24955036995E+03  0.00000000000E+00 0.  1.
          2   -1    0    0  501    0  0.00000000000E+00 -0.00000000000E+00 -0.13637866336E+04  0.13637866336E+04  0.00000000000E+00 0. -1.
         23    2    1    2    0    0 -0.48229689720E+03 -0.27270708590E+03 -0.79773079604E+03  0.97524989131E+03  0.88082210395E+02 0.  0.
         13    1    3    3    0    0 -0.58029951031E+02 -0.59689729900E+02 -0.15825198426E+03  0.17881283398E+03  0.00000000000E+00 0.  1.
        -13    1    3    3    0    0 -0.42426694617E+03 -0.21301735600E+03 -0.63947881178E+03  0.79643705733E+03  0.00000000000E+00 0. -1.
         22    1    1    2    0    0  0.48229689720E+03  0.27270708590E+03 -0.31650546758E+03  0.63808711220E+03  0.00000000000E+00 0.  1.
<mgrwt>
<rscale>  0 0.11667621E+04</rscale>
<asrwt>0</asrwt>
<pdfrwt beam="1">  1        2 0.20981333E+00 0.11667621E+04</pdfrwt>
<pdfrwt beam="2">  1       -2 0.38392365E-01 0.11667621E+04</pdfrwt>
<totfact> 0.96121186E+01</totfact>
</mgrwt>
</event>
<event>
 6    1  0.2003386E-005  0.2314021E+04  0.7818608E-02  0.8472413E-01
          2   -1    0    0  501    0  0.00000000000E+00  0.00000000000E+00  0.11257271051E+04  0.11257271051E+04  0.00000000000E+00 0. -1.
         -2   -1    0    0    0  501 -0.00000000000E+00 -0.00000000000E+00 -0.11891636395E+04  0.11891636395E+04  0.00000000000E+00 0.  1.
         23    2    1    2    0    0  0.32723970244E+03  0.76058377894E+02 -0.11373600925E+04  0.11896429904E+04  0.93764410943E+02 0.  0.
         11    1    3    3    0    0  0.25755396784E+03  0.41981873110E+02 -0.73693493469E+03  0.78177338276E+03  0.00000000000E+00 0. -1.
        -11    1    3    3    0    0  0.69685734601E+02  0.34076504784E+02 -0.40042515784E+03  0.40786960762E+03  0.00000000000E+00 0.  1.
         22    1    1    2    0    0 -0.32723970244E+03 -0.76058377894E+02  0.10739235582E+04  0.11252477543E+04  0.00000000000E+00 0. -1.
<mgrwt>
<rscale>  0 0.23140214E+04</rscale>
<asrwt>0</asrwt>
<pdfrwt beam="1">  1        2 0.17318879E+00 0.23140214E+04</pdfrwt>
<pdfrwt beam="2">  1       -2 0.18294825E+00 0.23140214E+04</pdfrwt>
<totfact> 0.32916687E+00</totfact>
</mgrwt>
</event>
<event>
 6    1  0.2003386E-005  0.3699091E+04  0.7818608E-02  0.8068163E-01
         -2   -1    0    0    0  501 -0.00000000000E+00  0.00000000000E+00  0.12405763355E+04  0.12405763355E+04  0.00000000000E+00 0.  1.
          2   -1    0    0  501    0  0.00000000000E+00 -0.00000000000E+00 -0.27574433530E+04  0.27574433530E+04  0.00000000000E+00 0. -1.
         23    2    1    2    0    0 -0.62710075976E+03 -0.15669634801E+04 -0.15736107233E+04  0.23092776244E+04  0.88783598481E+02 0.  0.
         11    1    3    3    0    0 -0.46252484782E+03 -0.12089664326E+04 -0.11619259054E+04  0.17394254453E+04  0.00000000000E+00 0. -1.
        -11    1    3    3    0    0 -0.16457591194E+03 -0.35799704751E+03 -0.41168481792E+03  0.56985217918E+03  0.00000000000E+00 0.  1.
         22    1    1    2    0    0  0.62710075976E+03  0.15669634801E+04  0.56743705850E+02  0.16887420641E+04  0.00000000000E+00 0.  1.
<mgrwt>
<rscale>  0 0.36990912E+04</rscale>
<asrwt>0</asrwt>
<pdfrwt beam="1">  1        2 0.42422205E+00 0.36990912E+04</pdfrwt>
<pdfrwt beam="2">  1       -2 0.19085790E+00 0.36990912E+04</pdfrwt>
<totfact> 0.30328623E-01</totfact>
</mgrwt>
</event>
<event>
 6    1  0.2003386E-005  0.2142794E+04  0.7818608E-02  0.8542623E-01
         -3   -1    0    0    0  501 -0.00000000000E+00  0.00000000000E+00  0.71260788472E+03  0.71260788472E+03  0.00000000000E+00 0.  1.
          3   -1    0    0  501    0  0.00000000000E+00 -0.00000000000E+00 -0.16108325970E+04  0.16108325970E+04  0.00000000000E+00 0. -1.
         23    2    1    2    0    0  0.31158589816E+03 -0.15884792983E+03  0.64580577673E+03  0.74029532484E+03  0.93024889078E+02 0.  0.
         13    1    3    3    0    0  0.80770905829E+02 -0.89037864360E+02  0.19604078188E+03  0.22996449438E+03  0.00000000000E+00 0.  1.
        -13    1    3    3    0    0  0.23081499233E+03 -0.69810065473E+02  0.44976499485E+03  0.51033083046E+03  0.00000000000E+00 0. -1.
         22    1    1    2    0    0 -0.31158589816E+03  0.15884792983E+03 -0.15440304890E+04  0.15831451569E+04  0.00000000000E+00 0. -1.
<mgrwt>
<rscale>  0 0.21427944E+04</rscale>
<asrwt>0</asrwt>
<pdfrwt beam="1">  1        3 0.24782040E+00 0.21427944E+04</pdfrwt>
<pdfrwt beam="2">  1       -3 0.10963198E+00 0.21427944E+04</pdfrwt>
<totfact> 0.12818230E-01</totfact>
</mgrwt>
</event>
<event>
 6    1  0.2003386E-005  0.1624050E+04  0.7818608E-02  0.8805908E-01
         -2   -1    0    0    0  501 -0.00000000000E+00  0.00000000000E+00  0.64869340637E+03  0.64869340637E+03  0.00000000000E+00 0.  1.
          2   -1    0    0  501    0  0.00000000000E+00 -0.00000000000E+00 -0.10164814955E+04  0.10164814955E+04  0.00000000000E+00 0. -1.
         23    2    1    2    0    0 -0.16226703180E+03 -0.11739303533E+03 -0.98860645220E+03  0.10128504778E+04  0.91715094888E+02 0.  0.
         13    1    3    3    0    0 -0.40020759355E+02 -0.15151179789E+02 -0.42490878194E+03  0.42705818385E+03  0.00000000000E+00 0.  1.
        -13    1    3    3    0    0 -0.12224627244E+03 -0.10224185554E+03 -0.56369767026E+03  0.58579229391E+03  0.00000000000E+00 0. -1.
         22    1    1    2    0    0  0.16226703180E+03  0.11739303533E+03  0.62081836307E+03  0.65232442410E+03  0.00000000000E+00 0.  1.
<mgrwt>
<rscale>  0 0.16240503E+04</rscale>
<asrwt>0</asrwt>
<pdfrwt beam="1">  1        2 0.15638177E+00 0.16240503E+04</pdfrwt>
<pdfrwt beam="2">  1       -2 0.99798986E-01 0.16240503E+04</pdfrwt>
<totfact> 0.19532686E+01</totfact>
</mgrwt>
</event>
<event>
 6    1  0.2003386E-005  0.8072792E+03  0.7818608E-02  0.9549540E-01
          1   -1    0    0  501    0  0.00000000000E+00  0.00000000000E+00  0.11500170455E+03  0.11500170455E+03  0.00000000000E+00 0. -1.
         -1   -1    0    0    0  501 -0.00000000000E+00 -0.00000000000E+00 -0.14167175759E+04  0.14167175759E+04  0.00000000000E+00 0.  1.
         23    2    1    2    0    0 -0.19999357026E+03  0.16739358277E+03 -0.87252241210E+02  0.28956794159E+03  0.90656491782E+02 0.  0.
         11    1    3    3    0    0  0.92600460658E+01  0.64648331790E+01 -0.83625348755E+01  0.14052562425E+02  0.00000000000E+00 0. -1.
        -11    1    3    3    0    0 -0.20925361633E+03  0.16092874959E+03 -0.78889706334E+02  0.27551537917E+03  0.00000000000E+00 0.  1.
         22    1    1    2    0    0  0.19999357026E+03 -0.16739358277E+03 -0.12144636302E+04  0.12421513389E+04  0.00000000000E+00 0.  1.
<mgrwt>
<rscale>  0 0.80727922E+03</rscale>
<asrwt>0</asrwt>
<pdfrwt beam="1">  1        1 0.17692568E-01 0.80727922E+03</pdfrwt>
<pdfrwt beam="2">  1       -1 0.21795657E+00 0.80727922E+03</pdfrwt>
<totfact> 0.35826586E+01</totfact>
</mgrwt>
</event>
<event>
 6    1  0.2003386E-005  0.3383196E+04  0.7818608E-02  0.8142043E-01
          2   -1    0    0  501    0  0.00000000000E+00  0.00000000000E+00  0.34239458286E+04  0.34239458286E+04  0.00000000000E+00 0.  1.
         -2   -1    0    0    0  501 -0.00000000000E+00 -0.00000000000E+00 -0.83573272061E+03  0.83573272061E+03  0.00000000000E+00 0. -1.
         23    2    1    2    0    0  0.82592575164E+03  0.35105757580E+03 -0.50865821464E+03  0.10353946353E+04  0.88961242430E+02 0.  0.
         11    1    3    3    0    0  0.73352597573E+03  0.33857064044E+03 -0.46818807733E+03  0.93375077584E+03  0.00000000000E+00 0. -1.
        -11    1    3    3    0    0  0.92399775915E+02  0.12486935366E+02 -0.40470137316E+02  0.10164385942E+03  0.00000000000E+00 0.  1.
         22    1    1    2    0    0 -0.82592575164E+03 -0.35105757580E+03  0.30968713226E+04  0.32242839139E+04  0.00000000000E+00 0.  1.
<mgrwt>
<rscale>  0 0.33831959E+04</rscale>
<asrwt>0</asrwt>
<pdfrwt beam="1">  1        2 0.52676089E+00 0.33831959E+04</pdfrwt>
<pdfrwt beam="2">  1       -2 0.12857427E+00 0.33831959E+04</pdfrwt>
<totfact> 0.33964701E-01</totfact>
</mgrwt>
</event>
<event>
 6    1  0.2003386E-005  0.5412461E+03  0.7818608E-02  0.1003541E+00
          2   -1    0    0  501    0  0.00000000000E+00  0.00000000000E+00  0.75391464685E+03  0.75391464685E+03  0.00000000000E+00 0. -1.
         -2   -1    0    0    0  501 -0.00000000000E+00 -0.00000000000E+00 -0.97142093556E+02  0.97142093556E+02  0.00000000000E+00 0.  1.
         23    2    1    2    0    0  0.11054461811E+03 -0.23734192388E+03  0.37752076917E+03  0.46826063232E+03  0.90525063934E+02 0.  0.
         11    1    3    3    0    0  0.82244726019E+02 -0.73002411856E+02  0.16080271203E+03  0.19481031618E+03  0.00000000000E+00 0.  1.
        -11    1    3    3    0    0  0.28299892096E+02 -0.16433951203E+03  0.21671805714E+03  0.27345031614E+03  0.00000000000E+00 0. -1.
         22    1    1    2    0    0 -0.11054461811E+03  0.23734192388E+03  0.27925178412E+03  0.38279610808E+03  0.00000000000E+00 0. -1.
<mgrwt>
<rscale>  0 0.54124614E+03</rscale>
<asrwt>0</asrwt>
<pdfrwt beam="1">  1        2 0.11598686E+00 0.54124614E+03</pdfrwt>
<pdfrwt beam="2">  1       -2 0.14944938E-01 0.54124614E+03</pdfrwt>
<totfact> 0.13176642E+03</totfact>
</mgrwt>
</event>
<event>
 6    1  0.2003386E-005  0.4250481E+04  0.7818608E-02  0.7955839E-01
          2   -1    0    0  501    0  0.00000000000E+00  0.00000000000E+00  0.25175095208E+04  0.25175095208E+04  0.00000000000E+00 0. -1.
         -2   -1    0    0    0  501 -0.00000000000E+00 -0.00000000000E+00 -0.17940932279E+04  0.17940932279E+04  0.00000000000E+00 0.  1.
         23    2    1    2    0    0  0.12867818502E+04  0.16900632919E+04  0.38129339157E+03  0.21600522519E+04  0.91211949277E+02 0.  0.
         13    1    3    3    0    0  0.58658320157E+03  0.84559450469E+03  0.18253505125E+03  0.10451932662E+04  0.00000000000E+00 0.  1.
        -13    1    3    3    0    0  0.70019864868E+03  0.84446878720E+03  0.19875834032E+03  0.11148589857E+04  0.00000000000E+00 0. -1.
         22    1    1    2    0    0 -0.12867818502E+04 -0.16900632919E+04  0.34212290135E+03  0.21515504968E+04  0.00000000000E+00 0. -1.
<mgrwt>
<rscale>  0 0.42504808E+04</rscale>
<asrwt>0</asrwt>
<pdfrwt beam="1">  1        2 0.38730916E+00 0.42504808E+04</pdfrwt>
<pdfrwt beam="2">  1       -2 0.27601434E+00 0.42504808E+04</pdfrwt>
<totfact> 0.11709051E-01</totfact>
</mgrwt>
</event>
<event>
 6    1  0.2003386E-005  0.3710886E+04  0.7818608E-02  0.8065554E-01
         -2   -1    0    0    0  501 -0.00000000000E+00  0.00000000000E+00  0.12623240928E+04  0.12623240928E+04  0.00000000000E+00 0.  1.
          2   -1    0    0  501    0  0.00000000000E+00 -0.00000000000E+00 -0.27272463418E+04  0.27272463418E+04  0.00000000000E+00 0. -1.
         23    2    1    2    0    0 -0.60905412046E+03 -0.82795739116E+03 -0.23922058656E+04  0.26052600399E+04  0.90942886846E+02 0.  0.
         11    1    3    3    0    0 -0.57952531249E+03 -0.81330608985E+03 -0.23054178398E+04  0.25124226952E+04  0.00000000000E+00 0. -1.
        -11    1    3    3    0    0 -0.29528807963E+02 -0.14651301318E+02 -0.86788025867E+02  0.92837344663E+02  0.00000000000E+00 0.  1.
         22    1    1    2    0    0  0.60905412046E+03  0.82795739116E+03  0.92728361667E+03  0.13843103947E+04  0.00000000000E+00 0.  1.
<mgrwt>
<rscale>  0 0.37108860E+04</rscale>
<asrwt>0</asrwt>
<pdfrwt beam="1">  1        2 0.41957636E+00 0.37108860E+04</pdfrwt>
<pdfrwt beam="2">  1       -2 0.19420371E+00 0.37108860E+04</pdfrwt>
<totfact> 0.30005525E-01</totfact>
</mgrwt>
</event>
<event>
 6    1  0.2003386E-005  0.1484067E+04  0.7818608E-02  0.8895118E-01
          2   -1    0    0  501    0  0.00000000000E+00  0.00000000000E+00  0.16643892503E+04  0.16643892503E+04  0.00000000000E+00 0. -1.
         -2   -1    0    0    0  501 -0.00000000000E+00 -0.00000000000E+00 -0.33082035436E+03  0.33082035436E+03  0.00000000000E+00 0.  1.
         23    2    1    2    0    0 -0.25539755018E+03  0.64793971906E+03  0.33568098232E+03  0.77831434362E+03  0.89653262179E+02 0.  0.
         11    1    3    3    0    0 -0.21736000223E+03  0.44823515146E+03  0.22188821025E+03  0.54533888494E+03  0.00000000000E+00 0. -1.
        -11    1    3    3    0    0 -0.38037547953E+02  0.19970456760E+03  0.11379277207E+03  0.23297545868E+03  0.00000000000E+00 0.  1.
         22    1    1    2    0    0  0.25539755018E+03 -0.64793971906E+03  0.99788791364E+03  0.12168952610E+04  0.00000000000E+00 0.  1.
<mgrwt>
<rscale>  0 0.14840672E+04</rscale>
<asrwt>0</asrwt>
<pdfrwt beam="1">  1        2 0.25605988E+00 0.14840672E+04</pdfrwt>
<pdfrwt beam="2">  1       -2 0.50895440E-01 0.14840672E+04</pdfrwt>
<totfact> 0.36231929E+01</totfact>
</mgrwt>
</event>
<event>
 6    1  0.2003386E-005  0.1976579E+04  0.7818608E-02  0.8617650E-01
          1   -1    0    0  501    0  0.00000000000E+00  0.00000000000E+00  0.31134164324E+04  0.31134164324E+04  0.00000000000E+00 0. -1.
         -1   -1    0    0    0  501 -0.00000000000E+00 -0.00000000000E+00 -0.31371208471E+03  0.31371208471E+03  0.00000000000E+00 0.  1.
         23    2    1    2    0    0  0.18396679607E+02  0.77168499858E+03  0.33923178107E+03  0.84841538341E+03  0.94309525874E+02 0.  0.
         11    1    3    3    0    0 -0.25350567305E+02  0.15934682772E+03  0.44160846210E+02  0.16728491596E+03  0.00000000000E+00 0. -1.
        -11    1    3    3    0    0  0.43747246913E+02  0.61233817085E+03  0.29507093486E+03  0.68113046745E+03  0.00000000000E+00 0.  1.
         22    1    1    2    0    0 -0.18396679607E+02 -0.77168499858E+03  0.24604725666E+04  0.25787131337E+04  0.00000000000E+00 0. -1.
<mgrwt>
<rscale>  0 0.19765792E+04</rscale>
<asrwt>0</asrwt>
<pdfrwt beam="1">  1        1 0.47898712E+00 0.19765792E+04</pdfrwt>
<pdfrwt beam="2">  1       -1 0.48263400E-01 0.19765792E+04</pdfrwt>
<totfact> 0.19731041E+00</totfact>
</mgrwt>
</event>
<event>
 6    1  0.2003386E-005  0.2861345E+04  0.7818608E-02  0.8284472E-01
          2   -1    0    0  501    0  0.00000000000E+00  0.00000000000E+00  0.22059060770E+04  0.22059060770E+04  0.00000000000E+00 0. -1.
         -2   -1    0    0    0  501 -0.00000000000E+00 -0.00000000000E+00 -0.92788341784E+03  0.92788341784E+03  0.00000000000E+00 0.  1.
         23    2    1    2    0    0  0.63984074624E+03 -0.35192534967E+03  0.19851782631E+04  0.21172676404E+04  0.92961779194E+02 0.  0.
         11    1    3    3    0    0  0.58499833751E+02 -0.52869470062E+02  0.28577938203E+03  0.29645786650E+03  0.00000000000E+00 0. -1.
        -11    1    3    3    0    0  0.58134091249E+03 -0.29905587961E+03  0.16993988811E+04  0.18208097739E+04  0.00000000000E+00 0.  1.
         22    1    1    2    0    0 -0.63984074624E+03  0.35192534967E+03 -0.70715560398E+03  0.10165218544E+04  0.00000000000E+00 0.  1.
<mgrwt>
<rscale>  0 0.28613449E+04</rscale>
<asrwt>0</asrwt>
<pdfrwt beam="1">  1        2 0.33937017E+00 0.28613449E+04</pdfrwt>
<pdfrwt beam="2">  1       -2 0.14275130E+00 0.28613449E+04</pdfrwt>
<totfact> 0.15145595E+00</totfact>
</mgrwt>
</event>
<event>
 6    1  0.2003386E-005  0.3943913E+04  0.7818608E-02  0.8015958E-01
         -2   -1    0    0    0  501 -0.00000000000E+00  0.00000000000E+00  0.13860006497E+04  0.13860006497E+04  0.00000000000E+00 0.  1.
          2   -1    0    0  501    0  0.00000000000E+00 -0.00000000000E+00 -0.28056351160E+04  0.28056351160E+04  0.00000000000E+00 0. -1.
         23    2    1    2    0    0 -0.62757202787E+03  0.11831715353E+04  0.82662202981E+03  0.15764092405E+04  0.89557697211E+02 0.  0.
         13    1    3    3    0    0 -0.22086660964E+03  0.49518425751E+03  0.30622256370E+03  0.62270520044E+03  0.00000000000E+00 0. -1.
        -13    1    3    3    0    0 -0.40670541823E+03  0.68798727782E+03  0.52039946612E+03  0.95370404004E+03  0.00000000000E+00 0.  1.
         22    1    1    2    0    0  0.62757202787E+03 -0.11831715353E+04 -0.22462564960E+04  0.26152265252E+04  0.00000000000E+00 0. -1.
<mgrwt>
<rscale>  0 0.39439128E+04</rscale>
<asrwt>0</asrwt>
<pdfrwt beam="1">  1        2 0.43163617E+00 0.39439128E+04</pdfrwt>
<pdfrwt beam="2">  1       -2 0.21323087E+00 0.39439128E+04</pdfrwt>
<totfact> 0.19840994E-01</totfact>
</mgrwt>
</event>
<event>
 6    1  0.2003386E-005  0.4431265E+04  0.7818608E-02  0.7922782E-01
          2   -1    0    0  501    0  0.00000000000E+00  0.00000000000E+00  0.25498327340E+04  0.25498327340E+04  0.00000000000E+00 0. -1.
         -2   -1    0    0    0  501 -0.00000000000E+00 -0.00000000000E+00 -0.19252350156E+04  0.19252350156E+04  0.00000000000E+00 0.  1.
         23    2    1    2    0    0 -0.74533247315E+03 -0.19049647234E+04 -0.54474922382E+03  0.21188454842E+04  0.91342083792E+02 0.  0.
         13    1    3    3    0    0 -0.58683377776E+02 -0.16843613414E+03 -0.22121030831E+02  0.17973260727E+03  0.00000000000E+00 0. -1.
        -13    1    3    3    0    0 -0.68664909537E+03 -0.17365285893E+04 -0.52262819298E+03  0.19391128770E+04  0.00000000000E+00 0.  1.
         22    1    1    2    0    0  0.74533247315E+03  0.19049647234E+04  0.11693469422E+04  0.23562222654E+04  0.00000000000E+00 0.  1.
<mgrwt>
<rscale>  0 0.44312649E+04</rscale>
<asrwt>0</asrwt>
<pdfrwt beam="1">  1        2 0.39228196E+00 0.44312649E+04</pdfrwt>
<pdfrwt beam="2">  1       -2 0.29619000E+00 0.44312649E+04</pdfrwt>
<totfact> 0.83203835E-02</totfact>
</mgrwt>
</event>
<event>
 6    1  0.2003386E-005  0.6357560E+03  0.7818608E-02  0.9833880E-01
         -2   -1    0    0    0  501 -0.00000000000E+00  0.00000000000E+00  0.43016966700E+02  0.43016966700E+02  0.00000000000E+00 0.  1.
          2   -1    0    0  501    0  0.00000000000E+00 -0.00000000000E+00 -0.23489897832E+04  0.23489897832E+04  0.00000000000E+00 0. -1.
         23    2    1    2    0    0 -0.13155400781E+03  0.28176008597E+03 -0.11261844795E+04  0.11719265381E+04  0.91788484575E+02 0.  0.
         11    1    3    3    0    0 -0.16395988920E+02  0.69714470351E+02 -0.14795815553E+03  0.16437929193E+03  0.00000000000E+00 0.  1.
        -11    1    3    3    0    0 -0.11515801889E+03  0.21204561562E+03 -0.97822632397E+03  0.10075472462E+04  0.00000000000E+00 0. -1.
         22    1    1    2    0    0  0.13155400781E+03 -0.28176008597E+03 -0.11797883370E+04  0.12200802117E+04  0.00000000000E+00 0. -1.
<mgrwt>
<rscale>  0 0.63575598E+03</rscale>
<asrwt>0</asrwt>
<pdfrwt beam="1">  1        2 0.36138316E+00 0.63575598E+03</pdfrwt>
<pdfrwt beam="2">  1       -2 0.66179927E-02 0.63575598E+03</pdfrwt>
<totfact> 0.58983171E+02</totfact>
</mgrwt>
</event>
<event>
 6    1  0.2003386E-005  0.2896348E+04  0.7818608E-02  0.8273965E-01
         -2   -1    0    0    0  501 -0.00000000000E+00  0.00000000000E+00  0.66633247418E+03  0.66633247418E+03  0.00000000000E+00 0.  1.
          2   -1    0    0  501    0  0.00000000000E+00 -0.00000000000E+00 -0.31473904604E+04  0.31473904604E+04  0.00000000000E+00 0. -1.
         23    2    1    2    0    0  0.11719400381E+04 -0.66452232050E+03 -0.19359820905E+04  0.23604022200E+04  0.91861950749E+02 0.  0.
         13    1    3    3    0    0  0.10924004984E+04 -0.64431948286E+03 -0.18222592480E+04  0.22201610779E+04  0.00000000000E+00 0. -1.
        -13    1    3    3    0    0  0.79539539743E+02 -0.20202837640E+02 -0.11372284251E+03  0.14024114211E+03  0.00000000000E+00 0.  1.
         22    1    1    2    0    0 -0.11719400381E+04  0.66452232050E+03 -0.54507589572E+03  0.14533207146E+04  0.00000000000E+00 0.  1.
<mgrwt>
<rscale>  0 0.28963484E+04</rscale>
<asrwt>0</asrwt>
<pdfrwt beam="1">  1        2 0.48421393E+00 0.28963484E+04</pdfrwt>
<pdfrwt beam="2">  1       -2 0.10251269E+00 0.28963484E+04</pdfrwt>
<totfact> 0.94244454E-01</totfact>
</mgrwt>
</event>
<event>
 6    1  0.2003386E-005  0.1933289E+04  0.7818608E-02  0.8638462E-01
          1   -1    0    0  501    0  0.00000000000E+00  0.00000000000E+00  0.86601669823E+03  0.86601669823E+03  0.00000000000E+00 0. -1.
         -1   -1    0    0    0  501 -0.00000000000E+00 -0.00000000000E+00 -0.10789647254E+04  0.10789647254E+04  0.00000000000E+00 0.  1.
         23    2    1    2    0    0  0.76148054603E+02 -0.73762040086E+03 -0.72721760319E+03  0.10425649019E+04  0.90629742733E+02 0.  0.
         11    1    3    3    0    0  0.58992375978E+02 -0.36097055341E+03 -0.30257426893E+03  0.47469045606E+03  0.00000000000E+00 0. -1.
        -11    1    3    3    0    0  0.17155678625E+02 -0.37664984745E+03 -0.42464333426E+03  0.56787444583E+03  0.00000000000E+00 0.  1.
         22    1    1    2    0    0 -0.76148054603E+02  0.73762040086E+03  0.51426957598E+03  0.90241652178E+03  0.00000000000E+00 0. -1.
<mgrwt>
<rscale>  0 0.19332889E+04</rscale>
<asrwt>0</asrwt>
<pdfrwt beam="1">  1        1 0.13323334E+00 0.19332889E+04</pdfrwt>
<pdfrwt beam="2">  1       -1 0.16599457E+00 0.19332889E+04</pdfrwt>
<totfact> 0.47723226E+00</totfact>
</mgrwt>
</event>
<event>
 6    1  0.2003386E-005  0.2427662E+04  0.7818608E-02  0.8429219E-01
          1   -1    0    0  501    0  0.00000000000E+00  0.00000000000E+00  0.21083935385E+04  0.21083935385E+04  0.00000000000E+00 0. -1.
         -1   -1    0    0    0  501 -0.00000000000E+00 -0.00000000000E+00 -0.69881898247E+03  0.69881898247E+03  0.00000000000E+00 0.  1.
         23    2    1    2    0    0  0.31765733400E+03 -0.94088873562E+03  0.15094430681E+04  0.18091386187E+04  0.91577133695E+02 0.  0.
         11    1    3    3    0    0  0.20430233130E+03 -0.62437816150E+03  0.91860622142E+03  0.11293471216E+04  0.00000000000E+00 0.  1.
        -11    1    3    3    0    0  0.11335500270E+03 -0.31651057411E+03  0.59083684664E+03  0.67979149709E+03  0.00000000000E+00 0. -1.
         22    1    1    2    0    0 -0.31765733400E+03  0.94088873562E+03 -0.99868512016E+02  0.99807390225E+03  0.00000000000E+00 0.  1.
<mgrwt>
<rscale>  0 0.24276618E+04</rscale>
<asrwt>0</asrwt>
<pdfrwt beam="1">  1        1 0.32436824E+00 0.24276618E+04</pdfrwt>
<pdfrwt beam="2">  1       -1 0.10751061E+00 0.24276618E+04</pdfrwt>
<totfact> 0.18108306E+00</totfact>
</mgrwt>
</event>
<event>
 6    1  0.2003386E-005  0.1595616E+04  0.7818608E-02  0.8823246E-01
         -2   -1    0    0    0  501 -0.00000000000E+00  0.00000000000E+00  0.50700060378E+03  0.50700060378E+03  0.00000000000E+00 0.  1.
          2   -1    0    0  501    0  0.00000000000E+00 -0.00000000000E+00 -0.12554176649E+04  0.12554176649E+04  0.00000000000E+00 0. -1.
         23    2    1    2    0    0 -0.70181851361E+03  0.36429973285E+03 -0.28348872397E+03  0.84512775852E+03  0.92798438592E+02 0.  0.
         11    1    3    3    0    0 -0.61850426081E+03  0.33444154244E+03 -0.27914349724E+03  0.75651818089E+03  0.00000000000E+00 0. -1.
        -11    1    3    3    0    0 -0.83314252791E+02  0.29858190403E+02 -0.43452267215E+01  0.88609577628E+02  0.00000000000E+00 0.  1.
         22    1    1    2    0    0  0.70181851361E+03 -0.36429973285E+03 -0.46492833719E+03  0.91729051021E+03  0.00000000000E+00 0.  1.
<mgrwt>
<rscale>  0 0.15956159E+04</rscale>
<asrwt>0</asrwt>
<pdfrwt beam="1">  1        2 0.19314118E+00 0.15956159E+04</pdfrwt>
<pdfrwt beam="2">  1       -2 0.78000093E-01 0.15956159E+04</pdfrwt>
<totfact> 0.24645087E+01</totfact>
</mgrwt>
</event>
<event>
 6    1  0.2003386E-005  0.1557366E+04  0.7818608E-02  0.8847176E-01
          2   -1    0    0  501    0  0.00000000000E+00  0.00000000000E+00  0.14802642335E+04  0.14802642335E+04  0.00000000000E+00 0. -1.
         -2   -1    0    0    0  501 -0.00000000000E+00 -0.00000000000E+00 -0.40962098001E+03  0.40962098001E+03  0.00000000000E+00 0.  1.
         23    2    1    2    0    0  0.37941658222E+03 -0.50389948570E+03  0.10857708134E+04  0.12589331728E+04  0.90237684591E+02 0.  0.
         13    1    3    3    0    0  0.21951376383E+03 -0.22055945365E+03  0.55959950463E+03  0.64030021918E+03  0.00000000000E+00 0.  1.
        -13    1    3    3    0    0  0.15990281840E+03 -0.28334003206E+03  0.52617130879E+03  0.61863295361E+03  0.00000000000E+00 0. -1.
         22    1    1    2    0    0 -0.37941658222E+03  0.50389948570E+03 -0.15127559976E+02  0.63095204067E+03  0.00000000000E+00 0.  1.
<mgrwt>
<rscale>  0 0.15573661E+04</rscale>
<asrwt>0</asrwt>
<pdfrwt beam="1">  1        2 0.22773296E+00 0.15573661E+04</pdfrwt>
<pdfrwt beam="2">  1       -2 0.63018613E-01 0.15573661E+04</pdfrwt>
<totfact> 0.29230605E+01</totfact>
</mgrwt>
</event>
<event>
 6    1  0.2003386E-005  0.5426538E+04  0.7818608E-02  0.7765879E-01
         -2   -1    0    0    0  501 -0.00000000000E+00  0.00000000000E+00  0.26257033637E+04  0.26257033637E+04  0.00000000000E+00 0.  1.
          2   -1    0    0  501    0  0.00000000000E+00 -0.00000000000E+00 -0.28037552720E+04  0.28037552720E+04  0.00000000000E+00 0. -1.
         23    2    1    2    0    0  0.24840320933E+04 -0.79421203393E+03 -0.83540098642E+03  0.27399798746E+04  0.91688109533E+02 0.  0.
         13    1    3    3    0    0  0.75346109328E+03 -0.22093978006E+03 -0.21225929195E+03  0.81337077186E+03  0.00000000000E+00 0.  1.
        -13    1    3    3    0    0  0.17305710001E+04 -0.57327225387E+03 -0.62314169446E+03  0.19266091027E+04  0.00000000000E+00 0. -1.
         22    1    1    2    0    0 -0.24840320933E+04  0.79421203393E+03  0.65734907811E+03  0.26894787610E+04  0.00000000000E+00 0.  1.
<mgrwt>
<rscale>  0 0.54265384E+04</rscale>
<asrwt>0</asrwt>
<pdfrwt beam="1">  1        2 0.43134696E+00 0.54265384E+04</pdfrwt>
<pdfrwt beam="2">  1       -2 0.40395436E+00 0.54265384E+04</pdfrwt>
<totfact> 0.11333140E-02</totfact>
</mgrwt>
</event>
<event>
 6    1  0.2003386E-005  0.5370598E+03  0.7818608E-02  0.1004534E+00
          1   -1    0    0  501    0  0.00000000000E+00  0.00000000000E+00  0.86431861430E+03  0.86431861430E+03  0.00000000000E+00 0. -1.
         -1   -1    0    0    0  501 -0.00000000000E+00 -0.00000000000E+00 -0.83427933015E+02  0.83427933015E+02  0.00000000000E+00 0.  1.
         23    2    1    2    0    0 -0.33805015294E+02  0.22032767133E+03  0.16706374099E+03  0.29469940167E+03  0.96178906089E+02 0.  0.
         13    1    3    3    0    0 -0.24118682606E+02  0.77575668402E+02  0.11835888135E+03  0.14355667861E+03  0.00000000000E+00 0. -1.
        -13    1    3    3    0    0 -0.96863326883E+01  0.14275200292E+03  0.48704859640E+02  0.15114272306E+03  0.00000000000E+00 0.  1.
         22    1    1    2    0    0  0.33805015294E+02 -0.22032767133E+03  0.61382694029E+03  0.65304714565E+03  0.00000000000E+00 0. -1.
<mgrwt>
<rscale>  0 0.53705983E+03</rscale>
<asrwt>0</asrwt>
<pdfrwt beam="1">  1        1 0.13297209E+00 0.53705983E+03</pdfrwt>
<pdfrwt beam="2">  1       -1 0.12835067E-01 0.53705983E+03</pdfrwt>
<totfact> 0.83455213E+02</totfact>
</mgrwt>
</event>
<event>
 6    1  0.2155915E-005  0.4222222E+04  0.7818608E-02  0.7961159E-01
         -2   -1    0    0    0  501 -0.00000000000E+00  0.00000000000E+00  0.19050743901E+04  0.19050743901E+04  0.00000000000E+00 0.  1.
          2   -1    0    0  501    0  0.00000000000E+00 -0.00000000000E+00 -0.23394306007E+04  0.23394306007E+04  0.00000000000E+00 0. -1.
         23    2    1    2    0    0  0.76116172833E+03  0.16581306244E+04 -0.12828083231E+04  0.22323828943E+04  0.95769768371E+02 0.  0.
         11    1    3    3    0    0  0.45051369124E+03  0.87196130943E+03 -0.67211934875E+03  0.11895476157E+04  0.00000000000E+00 0. -1.
        -11    1    3    3    0    0  0.31064803709E+03  0.78616931498E+03 -0.61068897435E+03  0.10428352785E+04  0.00000000000E+00 0.  1.
         22    1    1    2    0    0 -0.76116172833E+03 -0.16581306244E+04  0.84845211242E+03  0.20121220965E+04  0.00000000000E+00 0.  1.
<mgrwt>
<rscale>  0 0.42222218E+04</rscale>
<asrwt>0</asrwt>
<pdfrwt beam="1">  1        2 0.35991240E+00 0.42222218E+04</pdfrwt>
<pdfrwt beam="2">  1       -2 0.29308837E+00 0.42222218E+04</pdfrwt>
<totfact> 0.11688293E-01</totfact>
</mgrwt>
</event>
<event>
 6    1  0.2003386E-005  0.2136611E+04  0.7818608E-02  0.8545285E-01
          2   -1    0    0  501    0  0.00000000000E+00  0.00000000000E+00  0.19964179582E+04  0.19964179582E+04  0.00000000000E+00 0. -1.
         -2   -1    0    0    0  501 -0.00000000000E+00 -0.00000000000E+00 -0.57166191949E+03  0.57166191949E+03  0.00000000000E+00 0.  1.
         23    2    1    2    0    0  0.66604332464E+03 -0.48762718861E+03  0.15248308906E+04  0.17365698289E+04  0.95768159322E+02 0.  0.
         13    1    3    3    0    0  0.59776163846E+03 -0.46230133756E+03  0.13486396873E+04  0.15459206025E+04  0.00000000000E+00 0. -1.
        -13    1    3    3    0    0  0.68281686175E+02 -0.25325851048E+02  0.17619120331E+03  0.19064922639E+03  0.00000000000E+00 0.  1.
         22    1    1    2    0    0 -0.66604332464E+03  0.48762718861E+03 -0.10007485183E+03  0.83151004885E+03  0.00000000000E+00 0.  1.
<mgrwt>
<rscale>  0 0.21366105E+04</rscale>
<asrwt>0</asrwt>
<pdfrwt beam="1">  1        2 0.30714122E+00 0.21366105E+04</pdfrwt>
<pdfrwt beam="2">  1       -2 0.87947989E-01 0.21366105E+04</pdfrwt>
<totfact> 0.68722825E+00</totfact>
</mgrwt>
</event>
<event>
 6    1  0.2003386E-005  0.1954501E+04  0.7818608E-02  0.8628193E-01
         -1   -1    0    0    0  501 -0.00000000000E+00  0.00000000000E+00  0.15708631263E+04  0.15708631263E+04  0.00000000000E+00 0.  1.
          1   -1    0    0  501    0  0.00000000000E+00 -0.00000000000E+00 -0.60795790089E+03  0.60795790089E+03  0.00000000000E+00 0. -1.
         23    2    1    2    0    0  0.53665290441E+03 -0.62632736620E+03 -0.97278057157E+02  0.83558951248E+03  0.92002736390E+02 0.  0.
         13    1    3    3    0    0  0.36108587330E+03 -0.36472262739E+03 -0.34891238772E+02  0.51441520328E+03  0.00000000000E+00 0. -1.
        -13    1    3    3    0    0  0.17556703111E+03 -0.26160473881E+03 -0.62386818385E+02  0.32117430920E+03  0.00000000000E+00 0.  1.
         22    1    1    2    0    0 -0.53665290441E+03  0.62632736620E+03  0.10601832825E+04  0.13432315147E+04  0.00000000000E+00 0.  1.
<mgrwt>
<rscale>  0 0.19545011E+04</rscale>
<asrwt>0</asrwt>
<pdfrwt beam="1">  1        1 0.93531985E-01 0.19545011E+04</pdfrwt>
<pdfrwt beam="2">  1       -1 0.24167125E+00 0.19545011E+04</pdfrwt>
<totfact> 0.24733843E+00</totfact>
</mgrwt>
</event>
<event>
 6    1  0.2003386E-005  0.5348346E+04  0.7818608E-02  0.7776909E-01
         -2   -1    0    0    0  501 -0.00000000000E+00  0.00000000000E+00  0.19246949472E+04  0.19246949472E+04  0.00000000000E+00 0.  1.
          2   -1    0    0  501    0  0.00000000000E+00 -0.00000000000E+00 -0.37154985892E+04  0.37154985892E+04  0.00000000000E+00 0. -1.
         23    2    1    2    0    0 -0.54497423846E+03  0.21694572203E+04  0.64812225261E+03  0.23308278765E+04  0.95679592862E+02 0.  0.
         13    1    3    3    0    0 -0.35756935021E+03  0.12410713627E+04  0.39071451813E+03  0.13493597749E+04  0.00000000000E+00 0.  1.
        -13    1    3    3    0    0 -0.18740488825E+03  0.92838585757E+03  0.25740773448E+03  0.98146810159E+03  0.00000000000E+00 0. -1.
         22    1    1    2    0    0  0.54497423846E+03 -0.21694572203E+04 -0.24389258947E+04  0.33093656599E+04  0.00000000000E+00 0. -1.
<mgrwt>
<rscale>  0 0.53483460E+04</rscale>
<asrwt>0</asrwt>
<pdfrwt beam="1">  1        2 0.57161516E+00 0.53483460E+04</pdfrwt>
<pdfrwt beam="2">  1       -2 0.29610692E+00 0.53483460E+04</pdfrwt>
<totfact> 0.13475934E-02</totfact>
</mgrwt>
</event>
<event>
 6    1  0.2003386E-005  0.1105749E+04  0.7818608E-02  0.9199607E-01
          2   -1    0    0  501    0  0.00000000000E+00  0.00000000000E+00  0.20225206050E+04  0.20225206050E+04  0.00000000000E+00 0. -1.
         -2   -1    0    0    0  501 -0.00000000000E+00 -0.00000000000E+00 -0.15113322092E+03  0.15113322092E+03  0.00000000000E+00 0.  1.
         23    2    1    2    0    0  0.34855379686E+03 -0.19235138875E+03  0.19902835605E+03  0.45456292527E+03  0.92338293548E+02 0.  0.
         13    1    3    3    0    0  0.89311004651E+02 -0.62185837932E+01  0.44500755118E+02  0.99977215115E+02  0.00000000000E+00 0.  1.
        -13    1    3    3    0    0  0.25924279221E+03 -0.18613280496E+03  0.15452760094E+03  0.35458571015E+03  0.00000000000E+00 0. -1.
         22    1    1    2    0    0 -0.34855379686E+03  0.19235138875E+03  0.16723590281E+04  0.17190909007E+04  0.00000000000E+00 0. -1.
<mgrwt>
<rscale>  0 0.11057487E+04</rscale>
<asrwt>0</asrwt>
<pdfrwt beam="1">  1        2 0.31115700E+00 0.11057487E+04</pdfrwt>
<pdfrwt beam="2">  1       -2 0.23251266E-01 0.11057487E+04</pdfrwt>
<totfact> 0.10560621E+02</totfact>
</mgrwt>
</event>
<event>
 6    1  0.2003386E-005  0.1825403E+04  0.7818608E-02  0.8692906E-01
         -2   -1    0    0    0  501 -0.00000000000E+00  0.00000000000E+00  0.51221834318E+03  0.51221834318E+03  0.00000000000E+00 0.  1.
          2   -1    0    0  501    0  0.00000000000E+00 -0.00000000000E+00 -0.16263056428E+04  0.16263056428E+04  0.00000000000E+00 0. -1.
         23    2    1    2    0    0  0.72453041174E+03  0.37593328022E+03 -0.10309120566E+04  0.13180434745E+04  0.90491897129E+02 0.  0.
         13    1    3    3    0    0  0.10770000673E+03  0.32099690312E+02 -0.18075643967E+03  0.21284400872E+03  0.00000000000E+00 0.  1.
        -13    1    3    3    0    0  0.61683040501E+03  0.34383358991E+03 -0.85015561690E+03  0.11051994657E+04  0.00000000000E+00 0. -1.
         22    1    1    2    0    0 -0.72453041174E+03 -0.37593328022E+03 -0.83175243044E+02  0.82048051151E+03  0.00000000000E+00 0.  1.
<mgrwt>
<rscale>  0 0.18254025E+04</rscale>
<asrwt>0</asrwt>
<pdfrwt beam="1">  1        2 0.25020086E+00 0.18254025E+04</pdfrwt>
<pdfrwt beam="2">  1       -2 0.78802824E-01 0.18254025E+04</pdfrwt>
<totfact> 0.14522745E+01</totfact>
</mgrwt>
</event>
<event>
 6    1  0.2215526E-005  0.2798788E+04  0.7818608E-02  0.8303645E-01
          2   -1    0    0  501    0  0.00000000000E+00  0.00000000000E+00  0.13530574980E+04  0.13530574980E+04  0.00000000000E+00 0. -1.
         -2   -1    0    0    0  501 -0.00000000000E+00 -0.00000000000E+00 -0.14473169071E+04  0.14473169071E+04  0.00000000000E+00 0.  1.
         23    2    1    2    0    0  0.13634686340E+04  0.28846336016E+03 -0.15694337246E+03  0.14053163041E+04  0.89581618523E+02 0.  0.
         13    1    3    3    0    0  0.10495779819E+04  0.18391840109E+03 -0.11218067304E+03  0.10714590154E+04  0.00000000000E+00 0. -1.
        -13    1    3    3    0    0  0.31389065211E+03  0.10454495907E+03 -0.44762699416E+02  0.33385728868E+03  0.00000000000E+00 0.  1.
         22    1    1    2    0    0 -0.13634686340E+04 -0.28846336016E+03  0.62683963399E+02  0.13950581010E+04  0.00000000000E+00 0. -1.
<mgrwt>
<rscale>  0 0.27987876E+04</rscale>
<asrwt>0</asrwt>
<pdfrwt beam="1">  1        2 0.20816269E+00 0.27987876E+04</pdfrwt>
<pdfrwt beam="2">  1       -2 0.22266414E+00 0.27987876E+04</pdfrwt>
<totfact> 0.12741180E+00</totfact>
</mgrwt>
</event>
<event>
 6    1  0.2124853E-005  0.3020096E+04  0.7818608E-02  0.8238016E-01
         -1   -1    0    0    0  501 -0.00000000000E+00  0.00000000000E+00  0.13057562023E+04  0.13057562023E+04  0.00000000000E+00 0.  1.
          1   -1    0    0  501    0  0.00000000000E+00 -0.00000000000E+00 -0.17463020904E+04  0.17463020904E+04  0.00000000000E+00 0. -1.
         23    2    1    2    0    0  0.23241339862E+03  0.14632200813E+04 -0.50778643812E+03  0.15689702016E+04  0.93762640427E+02 0.  0.
         11    1    3    3    0    0  0.44608561669E+02  0.50925954324E+03 -0.14710445164E+03  0.53195387567E+03  0.00000000000E+00 0.  1.
        -11    1    3    3    0    0  0.18780483695E+03  0.95396053806E+03 -0.36068198648E+03  0.10370163260E+04  0.00000000000E+00 0. -1.
         22    1    1    2    0    0 -0.23241339862E+03 -0.14632200813E+04  0.67240550051E+02  0.14830880910E+04  0.00000000000E+00 0.  1.
<mgrwt>
<rscale>  0 0.30200959E+04</rscale>
<asrwt>0</asrwt>
<pdfrwt beam="1">  1        1 0.26866186E+00 0.30200959E+04</pdfrwt>
<pdfrwt beam="2">  1       -1 0.20088557E+00 0.30200959E+04</pdfrwt>
<totfact> 0.55879310E-01</totfact>
</mgrwt>
</event>
<event>
 6    1  0.2003386E-005  0.4165308E+04  0.7818608E-02  0.7972004E-01
          2   -1    0    0  501    0  0.00000000000E+00  0.00000000000E+00  0.42721652230E+04  0.42721652230E+04  0.00000000000E+00 0. -1.
         -2   -1    0    0    0  501 -0.00000000000E+00 -0.00000000000E+00 -0.10152807542E+04  0.10152807542E+04  0.00000000000E+00 0.  1.
         23    2    1    2    0    0 -0.98935333592E+03  0.83918074876E+03  0.36957684206E+04  0.39178973378E+04  0.90393464611E+02 0.  0.
         13    1    3    3    0    0 -0.56591333284E+03  0.53769995175E+03  0.22034617793E+04  0.23376533000E+04  0.00000000000E+00 0. -1.
        -13    1    3    3    0    0 -0.42344000309E+03  0.30148079701E+03  0.14923066413E+04  0.15802440378E+04  0.00000000000E+00 0.  1.
         22    1    1    2    0    0  0.98935333592E+03 -0.83918074876E+03 -0.43888395182E+03  0.13695486394E+04  0.00000000000E+00 0.  1.
<mgrwt>
<rscale>  0 0.41653077E+04</rscale>
<asrwt>0</asrwt>
<pdfrwt beam="1">  1        2 0.65725618E+00 0.41653077E+04</pdfrwt>
<pdfrwt beam="2">  1       -2 0.15619704E+00 0.41653077E+04</pdfrwt>
<totfact> 0.41812395E-02</totfact>
</mgrwt>
</event>
<event>
 6    1  0.2003386E-005  0.1961767E+04  0.7818608E-02  0.8624707E-01
         -2   -1    0    0    0  501 -0.00000000000E+00  0.00000000000E+00  0.95584538090E+03  0.95584538090E+03  0.00000000000E+00 0.  1.
          2   -1    0    0  501    0  0.00000000000E+00 -0.00000000000E+00 -0.10065773949E+04  0.10065773949E+04  0.00000000000E+00 0. -1.
         23    2    1    2    0    0  0.74308471690E+03 -0.14950893282E+03  0.59405697313E+03  0.96729431403E+03  0.90701627022E+02 0.  0.
         13    1    3    3    0    0  0.14440590529E+03 -0.65125374569E+02  0.11120484438E+03  0.19354817827E+03  0.00000000000E+00 0. -1.
        -13    1    3    3    0    0  0.59867881161E+03 -0.84383558247E+02  0.48285212875E+03  0.77374613577E+03  0.00000000000E+00 0.  1.
         22    1    1    2    0    0 -0.74308471690E+03  0.14950893282E+03 -0.64478898712E+03  0.99512846176E+03  0.00000000000E+00 0. -1.
<mgrwt>
<rscale>  0 0.19617669E+04</rscale>
<asrwt>0</asrwt>
<pdfrwt beam="1">  1        2 0.15485806E+00 0.19617669E+04</pdfrwt>
<pdfrwt beam="2">  1       -2 0.14705314E+00 0.19617669E+04</pdfrwt>
<totfact> 0.73399045E+00</totfact>
</mgrwt>
</event>
<event>
 6    1  0.2003386E-005  0.1406654E+04  0.7818608E-02  0.8949016E-01
         -2   -1    0    0    0  501 -0.00000000000E+00  0.00000000000E+00  0.40093514319E+03  0.40093514319E+03  0.00000000000E+00 0.  1.
          2   -1    0    0  501    0  0.00000000000E+00 -0.00000000000E+00 -0.12337885089E+04  0.12337885089E+04  0.00000000000E+00 0. -1.
         23    2    1    2    0    0 -0.57779498629E+02  0.11833388115E+03 -0.12175815257E+04  0.12280823667E+04  0.91324421432E+02 0.  0.
         13    1    3    3    0    0 -0.30116657232E+02 -0.64211239647E+01 -0.31468880645E+03  0.31619185439E+03  0.00000000000E+00 0. -1.
        -13    1    3    3    0    0 -0.27662841397E+02  0.12475500511E+03 -0.90289271922E+03  0.91189051235E+03  0.00000000000E+00 0.  1.
         22    1    1    2    0    0  0.57779498629E+02 -0.11833388115E+03  0.38472815996E+03  0.40664128536E+03  0.00000000000E+00 0.  1.
<mgrwt>
<rscale>  0 0.14066544E+04</rscale>
<asrwt>0</asrwt>
<pdfrwt beam="1">  1        2 0.18981361E+00 0.14066544E+04</pdfrwt>
<pdfrwt beam="2">  1       -2 0.61682332E-01 0.14066544E+04</pdfrwt>
<totfact> 0.42963235E+01</totfact>
</mgrwt>
</event>
<event>
 6    1  0.2003386E-005  0.3228245E+04  0.7818608E-02  0.8181397E-01
          2   -1    0    0  501    0  0.00000000000E+00  0.00000000000E+00  0.31189324672E+04  0.31189324672E+04  0.00000000000E+00 0. -1.
         -2   -1    0    0    0  501 -0.00000000000E+00 -0.00000000000E+00 -0.83534741932E+03  0.83534741932E+03  0.00000000000E+00 0.  1.
         23    2    1    2    0    0  0.12813600496E+04 -0.97686570479E+03  0.10553614615E+04  0.19282780701E+04  0.91204819782E+02 0.  0.
         13    1    3    3    0    0  0.90443294888E+03 -0.71785605377E+03  0.71434993913E+03  0.13577967847E+04  0.00000000000E+00 0. -1.
        -13    1    3    3    0    0  0.37692710076E+03 -0.25900965102E+03  0.34101152239E+03  0.57048128542E+03  0.00000000000E+00 0.  1.
         22    1    1    2    0    0 -0.12813600496E+04  0.97686570479E+03  0.12282235864E+04  0.20260018164E+04  0.00000000000E+00 0. -1.
<mgrwt>
<rscale>  0 0.32282455E+04</rscale>
<asrwt>0</asrwt>
<pdfrwt beam="1">  1        2 0.47983576E+00 0.32282455E+04</pdfrwt>
<pdfrwt beam="2">  1       -2 0.12851499E+00 0.32282455E+04</pdfrwt>
<totfact> 0.54920537E-01</totfact>
</mgrwt>
</event>
<event>
 6    1  0.2003386E-005  0.4781360E+04  0.7818608E-02  0.7863149E-01
          2   -1    0    0  501    0  0.00000000000E+00  0.00000000000E+00  0.20182517317E+04  0.20182517317E+04  0.00000000000E+00 0. -1.
         -2   -1    0    0    0  501 -0.00000000000E+00 -0.00000000000E+00 -0.28318326564E+04  0.28318326564E+04  0.00000000000E+00 0.  1.
         23    2    1    2    0    0 -0.19736892113E+04 -0.34572615285E+03  0.91411215256E+03  0.22043521558E+04  0.92691552961E+02 0.  0.
         13    1    3    3    0    0 -0.99399193971E+03 -0.16852097082E+03  0.40935077405E+03  0.10881118279E+04  0.00000000000E+00 0.  1.
        -13    1    3    3    0    0 -0.97969727158E+03 -0.17720518203E+03  0.50476137851E+03  0.11162403279E+04  0.00000000000E+00 0. -1.
         22    1    1    2    0    0  0.19736892113E+04  0.34572615285E+03 -0.17276930773E+04  0.26457322323E+04  0.00000000000E+00 0.  1.
<mgrwt>
<rscale>  0 0.47813601E+04</rscale>
<asrwt>0</asrwt>
<pdfrwt beam="1">  1        2 0.31050027E+00 0.47813601E+04</pdfrwt>
<pdfrwt beam="2">  1       -2 0.43566656E+00 0.47813601E+04</pdfrwt>
<totfact> 0.20909836E-02</totfact>
</mgrwt>
</event>
<event>
 6    1  0.2003386E-005  0.4738913E+03  0.7818608E-02  0.1020828E+00
         -1   -1    0    0    0  501 -0.00000000000E+00  0.00000000000E+00  0.53934744295E+02  0.53934744295E+02  0.00000000000E+00 0.  1.
          1   -1    0    0  501    0  0.00000000000E+00 -0.00000000000E+00 -0.10409475410E+04  0.10409475410E+04  0.00000000000E+00 0. -1.
         23    2    1    2    0    0  0.11602096667E+03 -0.18036060909E+03 -0.33022249705E+03  0.40396672479E+03  0.90285121508E+02 0.  0.
         11    1    3    3    0    0  0.10092683955E+03 -0.14474974903E+03 -0.31751422942E+03  0.36325473523E+03  0.00000000000E+00 0. -1.
        -11    1    3    3    0    0  0.15094127121E+02 -0.35610860066E+02 -0.12708267631E+02  0.40711989565E+02  0.00000000000E+00 0.  1.
         22    1    1    2    0    0 -0.11602096667E+03  0.18036060909E+03 -0.65679029966E+03  0.69091556050E+03  0.00000000000E+00 0.  1.
<mgrwt>
<rscale>  0 0.47389129E+03</rscale>
<asrwt>0</asrwt>
<pdfrwt beam="1">  1        1 0.16014578E+00 0.47389129E+03</pdfrwt>
<pdfrwt beam="2">  1       -1 0.82976527E-02 0.47389129E+03</pdfrwt>
<totfact> 0.12082528E+03</totfact>
</mgrwt>
</event>
<event>
 6    1  0.2003386E-005  0.2511241E+04  0.7818608E-02  0.8398992E-01
          2   -1    0    0  501    0  0.00000000000E+00  0.00000000000E+00  0.12198059829E+04  0.12198059829E+04  0.00000000000E+00 0. -1.
         -2   -1    0    0    0  501 -0.00000000000E+00 -0.00000000000E+00 -0.12924867293E+04  0.12924867293E+04  0.00000000000E+00 0.  1.
         23    2    1    2    0    0  0.85629120159E+03 -0.90042530871E+03 -0.20517384980E+03  0.12626708570E+04  0.90780096834E+02 0.  0.
         11    1    3    3    0    0  0.19302263741E+03 -0.16361977613E+03 -0.66673606325E+02  0.26167640221E+03  0.00000000000E+00 0.  1.
        -11    1    3    3    0    0  0.66326856418E+03 -0.73680553258E+03 -0.13850024348E+03  0.10009944548E+04  0.00000000000E+00 0. -1.
         22    1    1    2    0    0 -0.85629120159E+03  0.90042530871E+03  0.13249310341E+03  0.12496218552E+04  0.00000000000E+00 0. -1.
<mgrwt>
<rscale>  0 0.25112412E+04</rscale>
<asrwt>0</asrwt>
<pdfrwt beam="1">  1        2 0.18766246E+00 0.25112412E+04</pdfrwt>
<pdfrwt beam="2">  1       -2 0.19884411E+00 0.25112412E+04</pdfrwt>
<totfact> 0.22229679E+00</totfact>
</mgrwt>
</event>
<event>
 6    1  0.2003386E-005  0.3427885E+04  0.7818608E-02  0.8131096E-01
         -2   -1    0    0    0  501 -0.00000000000E+00  0.00000000000E+00  0.11639150983E+04  0.11639150983E+04  0.00000000000E+00 0. -1.
          2   -1    0    0  501    0  0.00000000000E+00 -0.00000000000E+00 -0.25238943453E+04  0.25238943453E+04  0.00000000000E+00 0.  1.
         23    2    1    2    0    0  0.12674703775E+04 -0.65452029944E+02 -0.19177308112E+04  0.23015006997E+04  0.91917791208E+02 0.  0.
         13    1    3    3    0    0  0.75158512597E+03 -0.38397465954E+02 -0.10545350962E+04  0.12955303301E+04  0.00000000000E+00 0.  1.
        -13    1    3    3    0    0  0.51588525156E+03 -0.27054563990E+02 -0.86319571494E+03  0.10059703696E+04  0.00000000000E+00 0. -1.
         22    1    1    2    0    0 -0.12674703775E+04  0.65452029944E+02  0.55775156416E+03  0.13863087439E+04  0.00000000000E+00 0. -1.
<mgrwt>
<rscale>  0 0.34278849E+04</rscale>
<asrwt>0</asrwt>
<pdfrwt beam="1">  1        2 0.38829143E+00 0.34278849E+04</pdfrwt>
<pdfrwt beam="2">  1       -2 0.17906386E+00 0.34278849E+04</pdfrwt>
<totfact> 0.51284924E-01</totfact>
</mgrwt>
</event>
<event>
 6    1  0.2003386E-005  0.1702644E+04  0.7818608E-02  0.8759858E-01
         -2   -1    0    0    0  501 -0.00000000000E+00  0.00000000000E+00  0.17006625558E+04  0.17006625558E+04  0.00000000000E+00 0. -1.
          2   -1    0    0  501    0  0.00000000000E+00 -0.00000000000E+00 -0.42615699391E+03  0.42615699391E+03  0.00000000000E+00 0.  1.
         23    2    1    2    0    0 -0.37532669760E+03  0.10223470457E+02 -0.31188968727E+03  0.49659731460E+03  0.91427930983E+02 0.  0.
         11    1    3    3    0    0 -0.24147890834E+03  0.50143714476E+02 -0.19283456010E+03  0.31306808021E+03  0.00000000000E+00 0. -1.
        -11    1    3    3    0    0 -0.13384778926E+03 -0.39920244019E+02 -0.11905512717E+03  0.18352923439E+03  0.00000000000E+00 0.  1.
         22    1    1    2    0    0  0.37532669760E+03 -0.10223470457E+02  0.15863952491E+04  0.16302222351E+04  0.00000000000E+00 0. -1.
<mgrwt>
<rscale>  0 0.17026441E+04</rscale>
<asrwt>0</asrwt>
<pdfrwt beam="1">  1        2 0.65562616E-01 0.17026441E+04</pdfrwt>
<pdfrwt beam="2">  1       -2 0.26164039E+00 0.17026441E+04</pdfrwt>
<totfact> 0.38403922E+00</totfact>
</mgrwt>
</event>
<event>
 6    1  0.2003386E-005  0.2846345E+04  0.7818608E-02  0.8289023E-01
         -2   -1    0    0    0  501 -0.00000000000E+00  0.00000000000E+00  0.92676105504E+03  0.92676105504E+03  0.00000000000E+00 0.  1.
          2   -1    0    0  501    0  0.00000000000E+00 -0.00000000000E+00 -0.21854825429E+04  0.21854825429E+04  0.00000000000E+00 0. -1.
         23    2    1    2    0    0 -0.33876447815E+02  0.13713105956E+04 -0.10387952889E+04  0.17229963570E+04  0.89333257188E+02 0.  0.
         13    1    3    3    0    0 -0.54482089371E+02  0.63499037899E+03 -0.50937778414E+03  0.81587180760E+03  0.00000000000E+00 0. -1.
        -13    1    3    3    0    0  0.20605641557E+02  0.73632021660E+03 -0.52941750473E+03  0.90712454941E+03  0.00000000000E+00 0.  1.
         22    1    1    2    0    0  0.33876447815E+02 -0.13713105956E+04 -0.21992619894E+03  0.13892472409E+04  0.00000000000E+00 0.  1.
<mgrwt>
<rscale>  0 0.28463451E+04</rscale>
<asrwt>0</asrwt>
<pdfrwt beam="1">  1        2 0.33622808E+00 0.28463451E+04</pdfrwt>
<pdfrwt beam="2">  1       -2 0.14257863E+00 0.28463451E+04</pdfrwt>
<totfact> 0.15620436E+00</totfact>
</mgrwt>
</event>
<event>
 6    1  0.2003386E-005  0.2380292E+04  0.7818608E-02  0.8446919E-01
          2   -1    0    0  501    0  0.00000000000E+00  0.00000000000E+00  0.12975701503E+04  0.12975701503E+04  0.00000000000E+00 0. -1.
         -2   -1    0    0    0  501 -0.00000000000E+00 -0.00000000000E+00 -0.10916155979E+04  0.10916155979E+04  0.00000000000E+00 0.  1.
         23    2    1    2    0    0 -0.18160716652E+02  0.11377801146E+04 -0.24071842341E+03  0.11667332346E+04  0.91911264256E+02 0.  0.
         11    1    3    3    0    0  0.34299999291E+02  0.66292618753E+03 -0.13338001984E+03  0.67708038648E+03  0.00000000000E+00 0.  1.
        -11    1    3    3    0    0 -0.52460715943E+02  0.47485392705E+03 -0.10733840357E+03  0.48965284808E+03  0.00000000000E+00 0. -1.
         22    1    1    2    0    0  0.18160716652E+02 -0.11377801146E+04  0.44667297577E+03  0.12224525136E+04  0.00000000000E+00 0. -1.
<mgrwt>
<rscale>  0 0.23802923E+04</rscale>
<asrwt>0</asrwt>
<pdfrwt beam="1">  1        2 0.19962618E+00 0.23802923E+04</pdfrwt>
<pdfrwt beam="2">  1       -2 0.16794086E+00 0.23802923E+04</pdfrwt>
<totfact> 0.32938916E+00</totfact>
</mgrwt>
</event>
<event>
 6    1  0.2003386E-005  0.1878872E+04  0.7818608E-02  0.8665445E-01
          2   -1    0    0  501    0  0.00000000000E+00  0.00000000000E+00  0.13448375025E+04  0.13448375025E+04  0.00000000000E+00 0. -1.
         -2   -1    0    0    0  501 -0.00000000000E+00 -0.00000000000E+00 -0.65624271674E+03  0.65624271674E+03  0.00000000000E+00 0.  1.
         23    2    1    2    0    0 -0.58314448692E+03  0.30050992522E+02  0.11258637996E+04  0.12715839922E+04  0.91629685314E+02 0.  0.
         13    1    3    3    0    0 -0.20096669073E+03  0.24071667819E+02  0.48266943782E+03  0.52338976125E+03  0.00000000000E+00 0.  1.
        -13    1    3    3    0    0 -0.38217779619E+03  0.59793247038E+01  0.64319436176E+03  0.74819423095E+03  0.00000000000E+00 0. -1.
         22    1    1    2    0    0  0.58314448692E+03 -0.30050992522E+02 -0.43726901384E+03  0.72949622702E+03  0.00000000000E+00 0.  1.
<mgrwt>
<rscale>  0 0.18788718E+04</rscale>
<asrwt>0</asrwt>
<pdfrwt beam="1">  1        2 0.20689808E+00 0.18788718E+04</pdfrwt>
<pdfrwt beam="2">  1       -2 0.10096042E+00 0.18788718E+04</pdfrwt>
<totfact> 0.11794897E+01</totfact>
</mgrwt>
</event>
<event>
 6    1  0.2003386E-005  0.5089391E+04  0.7818608E-02  0.7814864E-01
          2   -1    0    0  501    0  0.00000000000E+00  0.00000000000E+00  0.33655436270E+04  0.33655436270E+04  0.00000000000E+00 0. -1.
         -2   -1    0    0    0  501 -0.00000000000E+00 -0.00000000000E+00 -0.19240505724E+04  0.19240505724E+04  0.00000000000E+00 0.  1.
         23    2    1    2    0    0  0.61302219122E+03 -0.13386384517E+04 -0.14351162371E+04  0.20580883385E+04  0.91759923387E+02 0.  0.
         11    1    3    3    0    0  0.44857377319E+03 -0.10549474970E+04 -0.10851892318E+04  0.15785335981E+04  0.00000000000E+00 0.  1.
        -11    1    3    3    0    0  0.16444841803E+03 -0.28369095469E+03 -0.34992700536E+03  0.47955474041E+03  0.00000000000E+00 0. -1.
         22    1    1    2    0    0 -0.61302219122E+03  0.13386384517E+04  0.28766092917E+04  0.32315058608E+04  0.00000000000E+00 0. -1.
<mgrwt>
<rscale>  0 0.50893914E+04</rscale>
<asrwt>0</asrwt>
<pdfrwt beam="1">  1        2 0.51777594E+00 0.50893914E+04</pdfrwt>
<pdfrwt beam="2">  1       -2 0.29600778E+00 0.50893914E+04</pdfrwt>
<totfact> 0.24422563E-02</totfact>
</mgrwt>
</event>
<event>
 6    1  0.2003386E-005  0.1429227E+04  0.7818608E-02  0.8932930E-01
         -2   -1    0    0    0  501 -0.00000000000E+00  0.00000000000E+00  0.28214237676E+03  0.28214237676E+03  0.00000000000E+00 0.  1.
          2   -1    0    0  501    0  0.00000000000E+00 -0.00000000000E+00 -0.18099816536E+04  0.18099816536E+04  0.00000000000E+00 0. -1.
         23    2    1    2    0    0  0.58565310474E+03  0.36971621782E+03 -0.52744364768E+03  0.87537793702E+03  0.91706544684E+02 0.  0.
         13    1    3    3    0    0  0.33545936177E+03  0.17742429143E+03 -0.33187690264E+03  0.50413752200E+03  0.00000000000E+00 0. -1.
        -13    1    3    3    0    0  0.25019374298E+03  0.19229192639E+03 -0.19556674504E+03  0.37124041502E+03  0.00000000000E+00 0.  1.
         22    1    1    2    0    0 -0.58565310474E+03 -0.36971621782E+03 -0.10003956292E+04  0.12167460933E+04  0.00000000000E+00 0. -1.
<mgrwt>
<rscale>  0 0.14292271E+04</rscale>
<asrwt>0</asrwt>
<pdfrwt beam="1">  1        2 0.27845871E+00 0.14292271E+04</pdfrwt>
<pdfrwt beam="2">  1       -2 0.43406521E-01 0.14292271E+04</pdfrwt>
<totfact> 0.41644099E+01</totfact>
</mgrwt>
</event>
<event>
 6    1  0.2003386E-005  0.1307812E+04  0.7818608E-02  0.9023393E-01
          2   -1    0    0  501    0  0.00000000000E+00  0.00000000000E+00  0.96287094659E+03  0.96287094659E+03  0.00000000000E+00 0. -1.
         -2   -1    0    0    0  501 -0.00000000000E+00 -0.00000000000E+00 -0.44408107318E+03  0.44408107318E+03  0.00000000000E+00 0.  1.
         23    2    1    2    0    0  0.89337068274E+02  0.23410499247E+03  0.90676502042E+03  0.94509600979E+03  0.90539528363E+02 0.  0.
         13    1    3    3    0    0  0.45303633160E+02  0.86050042404E+02  0.21013080021E+03  0.23154261416E+03  0.00000000000E+00 0. -1.
        -13    1    3    3    0    0  0.44033435114E+02  0.14805495006E+03  0.69663422021E+03  0.71355339563E+03  0.00000000000E+00 0.  1.
         22    1    1    2    0    0 -0.89337068274E+02 -0.23410499247E+03 -0.38797514701E+03  0.46185600999E+03  0.00000000000E+00 0.  1.
<mgrwt>
<rscale>  0 0.13078116E+04</rscale>
<asrwt>0</asrwt>
<pdfrwt beam="1">  1        2 0.14813399E+00 0.13078116E+04</pdfrwt>
<pdfrwt beam="2">  1       -2 0.68320166E-01 0.13078116E+04</pdfrwt>
<totfact> 0.51139963E+01</totfact>
</mgrwt>
</event>
<event>
 6    1  0.2003386E-005  0.4177628E+04  0.7818608E-02  0.7969642E-01
         -2   -1    0    0    0  501 -0.00000000000E+00  0.00000000000E+00  0.16201475368E+04  0.16201475368E+04  0.00000000000E+00 0.  1.
          2   -1    0    0  501    0  0.00000000000E+00 -0.00000000000E+00 -0.26930529322E+04  0.26930529322E+04  0.00000000000E+00 0. -1.
         23    2    1    2    0    0 -0.20430572542E+04  0.23557440358E+03 -0.16596053964E+03  0.20655067143E+04  0.95900168355E+02 0.  0.
         11    1    3    3    0    0 -0.12641163063E+04  0.11399807215E+03 -0.13678586795E+03  0.12765954605E+04  0.00000000000E+00 0.  1.
        -11    1    3    3    0    0 -0.77894094796E+03  0.12157633143E+03 -0.29174671687E+02  0.78891125372E+03  0.00000000000E+00 0. -1.
         22    1    1    2    0    0  0.20430572542E+04 -0.23557440358E+03 -0.90694485578E+03  0.22476937547E+04  0.00000000000E+00 0.  1.
<mgrwt>
<rscale>  0 0.41776276E+04</rscale>
<asrwt>0</asrwt>
<pdfrwt beam="1">  1        2 0.41431583E+00 0.41776276E+04</pdfrwt>
<pdfrwt beam="2">  1       -2 0.24925347E+00 0.41776276E+04</pdfrwt>
<totfact> 0.13538595E-01</totfact>
</mgrwt>
</event>
<event>
 6    1  0.2003386E-005  0.1507608E+04  0.7818608E-02  0.8879409E-01
         -2   -1    0    0    0  501 -0.00000000000E+00  0.00000000000E+00  0.43732506010E+03  0.43732506010E+03  0.00000000000E+00 0.  1.
          2   -1    0    0  501    0  0.00000000000E+00 -0.00000000000E+00 -0.12993094281E+04  0.12993094281E+04  0.00000000000E+00 0. -1.
         23    2    1    2    0    0  0.71186227792E+03 -0.12276416630E+03 -0.66485767164E+03  0.98785022174E+03  0.10951435429E+03 0.  0.
         13    1    3    3    0    0  0.54919575893E+03 -0.47976708443E+02 -0.48950838880E+03  0.73724908198E+03  0.00000000000E+00 0.  1.
        -13    1    3    3    0    0  0.16266651899E+03 -0.74787457860E+02 -0.17534928285E+03  0.25060113976E+03  0.00000000000E+00 0. -1.
         22    1    1    2    0    0 -0.71186227792E+03  0.12276416630E+03 -0.19712669632E+03  0.74878426643E+03  0.00000000000E+00 0.  1.
<mgrwt>
<rscale>  0 0.15076081E+04</rscale>
<asrwt>0</asrwt>
<pdfrwt beam="1">  1        2 0.19989375E+00 0.15076081E+04</pdfrwt>
<pdfrwt beam="2">  1       -2 0.67280780E-01 0.15076081E+04</pdfrwt>
<totfact> 0.32378645E+01</totfact>
</mgrwt>
</event>
<event>
 6    1  0.2003386E-005  0.3029429E+04  0.7818608E-02  0.8235377E-01
         -2   -1    0    0    0  501 -0.00000000000E+00  0.00000000000E+00  0.93373872120E+03  0.93373872120E+03  0.00000000000E+00 0.  1.
          2   -1    0    0  501    0  0.00000000000E+00 -0.00000000000E+00 -0.24571751037E+04  0.24571751037E+04  0.00000000000E+00 0. -1.
         23    2    1    2    0    0 -0.13593010207E+04  0.60141585380E+03 -0.10804306070E+04  0.18398966067E+04  0.92135405618E+02 0.  0.
         11    1    3    3    0    0 -0.12022893362E+04  0.51585573975E+03 -0.98163486964E+03  0.16356080855E+04  0.00000000000E+00 0.  1.
        -11    1    3    3    0    0 -0.15701168447E+03  0.85560114048E+02 -0.98795737335E+02  0.20428852119E+03  0.00000000000E+00 0. -1.
         22    1    1    2    0    0  0.13593010207E+04 -0.60141585380E+03 -0.44300577557E+03  0.15510172182E+04  0.00000000000E+00 0.  1.
<mgrwt>
<rscale>  0 0.30294287E+04</rscale>
<asrwt>0</asrwt>
<pdfrwt beam="1">  1        2 0.37802694E+00 0.30294287E+04</pdfrwt>
<pdfrwt beam="2">  1       -2 0.14365211E+00 0.30294287E+04</pdfrwt>
<totfact> 0.10566791E+00</totfact>
</mgrwt>
</event>
<event>
 6    1  0.3214855E-005  0.3806266E+04  0.7818608E-02  0.8044812E-01
         -2   -1    0    0    0  501 -0.00000000000E+00  0.00000000000E+00  0.19138812477E+04  0.19138812477E+04  0.00000000000E+00 0.  1.
          2   -1    0    0  501    0  0.00000000000E+00 -0.00000000000E+00 -0.18924449264E+04  0.18924449264E+04  0.00000000000E+00 0. -1.
         23    2    1    2    0    0 -0.12150694625E+04 -0.12146024333E+04 -0.80543328485E+03  0.18996625396E+04  0.91335197416E+02 0.  0.
         11    1    3    3    0    0 -0.70106184019E+03 -0.63837502238E+03 -0.45574671925E+03  0.10520054397E+04  0.00000000000E+00 0.  1.
        -11    1    3    3    0    0 -0.51400762228E+03 -0.57622741097E+03 -0.34968656560E+03  0.84765709994E+03  0.00000000000E+00 0. -1.
         22    1    1    2    0    0  0.12150694625E+04  0.12146024333E+04  0.82686960613E+03  0.19066636345E+04  0.00000000000E+00 0.  1.
<mgrwt>
<rscale>  0 0.38062658E+04</rscale>
<asrwt>0</asrwt>
<pdfrwt beam="1">  1        2 0.29114537E+00 0.38062658E+04</pdfrwt>
<pdfrwt beam="2">  1       -2 0.29444327E+00 0.38062658E+04</pdfrwt>
<totfact> 0.21119731E-01</totfact>
</mgrwt>
</event>
<event>
 6    1  0.2003386E-005  0.1004786E+04  0.7818608E-02  0.9303311E-01
          2   -1    0    0  501    0  0.00000000000E+00  0.00000000000E+00  0.48295856658E+03  0.48295856658E+03  0.00000000000E+00 0. -1.
         -2   -1    0    0    0  501 -0.00000000000E+00 -0.00000000000E+00 -0.52260987403E+03  0.52260987403E+03  0.00000000000E+00 0.  1.
         23    2    1    2    0    0 -0.36643924211E+03 -0.11337029524E+03  0.29801014303E+03  0.49454417784E+03  0.92915857014E+02 0.  0.
         11    1    3    3    0    0 -0.28473058995E+03 -0.66827818302E+02  0.26562983997E+03  0.39509072127E+03  0.00000000000E+00 0.  1.
        -11    1    3    3    0    0 -0.81708652160E+02 -0.46542476942E+02  0.32380303069E+02  0.99453456574E+02  0.00000000000E+00 0. -1.
         22    1    1    2    0    0  0.36643924211E+03  0.11337029524E+03 -0.33766145048E+03  0.51102426277E+03  0.00000000000E+00 0.  1.
<mgrwt>
<rscale>  0 0.10047864E+04</rscale>
<asrwt>0</asrwt>
<pdfrwt beam="1">  1        2 0.74301318E-01 0.10047864E+04</pdfrwt>
<pdfrwt beam="2">  1       -2 0.80401519E-01 0.10047864E+04</pdfrwt>
<totfact> 0.87527293E+01</totfact>
</mgrwt>
</event>
<event>
 6    1  0.2003386E-005  0.1322334E+04  0.7818608E-02  0.9012040E-01
         -4   -1    0    0    0  501 -0.00000000000E+00  0.00000000000E+00  0.53723620412E+03  0.53723620412E+03  0.00000000000E+00 0.  1.
          4   -1    0    0  501    0  0.00000000000E+00 -0.00000000000E+00 -0.81368581297E+03  0.81368581297E+03  0.00000000000E+00 0. -1.
         23    2    1    2    0    0  0.18841085803E+03  0.60608517030E+03  0.38741775770E+02  0.64227295442E+03  0.90419786055E+02 0.  0.
         13    1    3    3    0    0  0.15146126524E+02  0.17259338817E+03 -0.55106783764E+01  0.17334431160E+03  0.00000000000E+00 0. -1.
        -13    1    3    3    0    0  0.17326473151E+03  0.43349178213E+03  0.44252454147E+02  0.46892864282E+03  0.00000000000E+00 0.  1.
         22    1    1    2    0    0 -0.18841085803E+03 -0.60608517030E+03 -0.31519138462E+03  0.70864906267E+03  0.00000000000E+00 0.  1.
<mgrwt>
<rscale>  0 0.13223335E+04</rscale>
<asrwt>0</asrwt>
<pdfrwt beam="1">  1        4 0.12518243E+00 0.13223335E+04</pdfrwt>
<pdfrwt beam="2">  1       -4 0.82651724E-01 0.13223335E+04</pdfrwt>
<totfact> 0.11983765E+00</totfact>
</mgrwt>
</event>
<event>
 6    1  0.2003386E-005  0.2640181E+04  0.7818608E-02  0.8354679E-01
         -2   -1    0    0    0  501 -0.00000000000E+00  0.00000000000E+00  0.10386376288E+04  0.10386376288E+04  0.00000000000E+00 0.  1.
          2   -1    0    0  501    0  0.00000000000E+00 -0.00000000000E+00 -0.16778116961E+04  0.16778116961E+04  0.00000000000E+00 0. -1.
         23    2    1    2    0    0  0.73068975020E+03 -0.24332664737E+03 -0.14208797532E+04  0.16190983564E+04  0.97287441506E+02 0.  0.
         11    1    3    3    0    0  0.45039819282E+03 -0.15141899320E+03 -0.97270342715E+03  0.10825609455E+04  0.00000000000E+00 0. -1.
        -11    1    3    3    0    0  0.28029155738E+03 -0.91907654166E+02 -0.44817632610E+03  0.53653741091E+03  0.00000000000E+00 0.  1.
         22    1    1    2    0    0 -0.73068975020E+03  0.24332664737E+03  0.78170568599E+03  0.10973509684E+04  0.00000000000E+00 0.  1.
<mgrwt>
<rscale>  0 0.26401806E+04</rscale>
<asrwt>0</asrwt>
<pdfrwt beam="1">  1        2 0.25812488E+00 0.26401806E+04</pdfrwt>
<pdfrwt beam="2">  1       -2 0.15979040E+00 0.26401806E+04</pdfrwt>
<totfact> 0.22491331E+00</totfact>
</mgrwt>
</event>
<event>
 6    1  0.2003386E-005  0.3559639E+04  0.7818608E-02  0.8099800E-01
          1   -1    0    0  501    0  0.00000000000E+00  0.00000000000E+00  0.32532298302E+04  0.32532298302E+04  0.00000000000E+00 0. -1.
         -1   -1    0    0    0  501 -0.00000000000E+00 -0.00000000000E+00 -0.97372702648E+03  0.97372702648E+03  0.00000000000E+00 0.  1.
         23    2    1    2    0    0 -0.16324379879E+04 -0.33501031665E+03  0.40215669083E+03  0.17166751744E+04  0.90321392824E+02 0.  0.
         13    1    3    3    0    0 -0.99416752395E+03 -0.18541143951E+03  0.20255880304E+03  0.10313954316E+04  0.00000000000E+00 0.  1.
        -13    1    3    3    0    0 -0.63827046394E+03 -0.14959887714E+03  0.19959788779E+03  0.68527974287E+03  0.00000000000E+00 0. -1.
         22    1    1    2    0    0  0.16324379879E+04  0.33501031665E+03  0.18773461129E+04  0.25102816822E+04  0.00000000000E+00 0. -1.
<mgrwt>
<rscale>  0 0.35596392E+04</rscale>
<asrwt>0</asrwt>
<pdfrwt beam="1">  1        1 0.50049689E+00 0.35596392E+04</pdfrwt>
<pdfrwt beam="2">  1       -1 0.14980416E+00 0.35596392E+04</pdfrwt>
<totfact> 0.11003509E-01</totfact>
</mgrwt>
</event>
<event>
 6    1  0.4338463E-005  0.3914194E+04  0.7818608E-02  0.8022084E-01
         -2   -1    0    0    0  501 -0.00000000000E+00  0.00000000000E+00  0.17162308577E+04  0.17162308577E+04  0.00000000000E+00 0.  1.
          2   -1    0    0  501    0  0.00000000000E+00 -0.00000000000E+00 -0.22317681610E+04  0.22317681610E+04  0.00000000000E+00 0. -1.
         23    2    1    2    0    0 -0.21444804449E+03 -0.10543242764E+04 -0.19055631890E+04  0.21902278145E+04  0.91319049604E+02 0.  0.
         13    1    3    3    0    0 -0.19072582900E+03 -0.80969793708E+03 -0.14108979595E+04  0.16378706125E+04  0.00000000000E+00 0.  1.
        -13    1    3    3    0    0 -0.23722215494E+02 -0.24462633929E+03 -0.49466522949E+03  0.55235720204E+03  0.00000000000E+00 0. -1.
         22    1    1    2    0    0  0.21444804449E+03  0.10543242764E+04  0.13900258856E+04  0.17577712042E+04  0.00000000000E+00 0.  1.
<mgrwt>
<rscale>  0 0.39141944E+04</rscale>
<asrwt>0</asrwt>
<pdfrwt beam="1">  1        2 0.34334895E+00 0.39141944E+04</pdfrwt>
<pdfrwt beam="2">  1       -2 0.26403552E+00 0.39141944E+04</pdfrwt>
<totfact> 0.20749677E-01</totfact>
</mgrwt>
</event>
<event>
 6    1  0.2003386E-005  0.4996862E+04  0.7818608E-02  0.7828991E-01
          2   -1    0    0  501    0  0.00000000000E+00  0.00000000000E+00  0.27752998106E+04  0.27752998106E+04  0.00000000000E+00 0. -1.
         -2   -1    0    0    0  501 -0.00000000000E+00 -0.00000000000E+00 -0.22491831621E+04  0.22491831621E+04  0.00000000000E+00 0.  1.
         23    2    1    2    0    0 -0.69996459316E+03  0.85265917717E+02 -0.21461162575E+04  0.22607808519E+04  0.89968668192E+02 0.  0.
         11    1    3    3    0    0 -0.60812350584E+03  0.65715413693E+02 -0.17544860775E+04  0.18580511592E+04  0.00000000000E+00 0. -1.
        -11    1    3    3    0    0 -0.91841087322E+02  0.19550504024E+02 -0.39163018001E+03  0.40272969276E+03  0.00000000000E+00 0.  1.
         22    1    1    2    0    0  0.69996459316E+03 -0.85265917717E+02  0.26722329060E+04  0.27637021208E+04  0.00000000000E+00 0. -1.
<mgrwt>
<rscale>  0 0.49968621E+04</rscale>
<asrwt>0</asrwt>
<pdfrwt beam="1">  1        2 0.42696920E+00 0.49968621E+04</pdfrwt>
<pdfrwt beam="2">  1       -2 0.34602818E+00 0.49968621E+04</pdfrwt>
<totfact> 0.28720054E-02</totfact>
</mgrwt>
</event>
<event>
 6    1  0.2003386E-005  0.2515797E+04  0.7818608E-02  0.8397379E-01
          2   -1    0    0  501    0  0.00000000000E+00  0.00000000000E+00  0.21128468713E+04  0.21128468713E+04  0.00000000000E+00 0. -1.
         -2   -1    0    0    0  501 -0.00000000000E+00 -0.00000000000E+00 -0.74889902299E+03  0.74889902299E+03  0.00000000000E+00 0.  1.
         23    2    1    2    0    0 -0.58515232373E+03 -0.10891384570E+04  0.93847648592E+03  0.15542093935E+04  0.78758515119E+02 0.  0.
         11    1    3    3    0    0 -0.38519332197E+03 -0.68604891273E+03  0.64045100899E+03  0.10145020951E+04  0.00000000000E+00 0.  1.
        -11    1    3    3    0    0 -0.19995900176E+03 -0.40308954432E+03  0.29802547693E+03  0.53970729847E+03  0.00000000000E+00 0. -1.
         22    1    1    2    0    0  0.58515232373E+03  0.10891384570E+04  0.42547136237E+03  0.13075365008E+04  0.00000000000E+00 0. -1.
<mgrwt>
<rscale>  0 0.25157973E+04</rscale>
<asrwt>0</asrwt>
<pdfrwt beam="1">  1        2 0.32505336E+00 0.25157973E+04</pdfrwt>
<pdfrwt beam="2">  1       -2 0.11521524E+00 0.25157973E+04</pdfrwt>
<totfact> 0.30213914E+00</totfact>
</mgrwt>
</event>
<event>
 6    1  0.2003386E-005  0.1838265E+04  0.7818608E-02  0.8686211E-01
          2   -1    0    0  501    0  0.00000000000E+00  0.00000000000E+00  0.12606385611E+04  0.12606385611E+04  0.00000000000E+00 0. -1.
         -2   -1    0    0    0  501 -0.00000000000E+00 -0.00000000000E+00 -0.67014019286E+03  0.67014019286E+03  0.00000000000E+00 0.  1.
         23    2    1    2    0    0 -0.78422081792E+03 -0.11256879788E+03  0.78071943782E+03  0.11160038888E+04  0.90927518941E+02 0.  0.
         11    1    3    3    0    0 -0.46667668226E+03 -0.85802200120E+02  0.52291890407E+03  0.70611141014E+03  0.00000000000E+00 0. -1.
        -11    1    3    3    0    0 -0.31754413566E+03 -0.26766597757E+02  0.25780053375E+03  0.40989247865E+03  0.00000000000E+00 0.  1.
         22    1    1    2    0    0  0.78422081792E+03  0.11256879788E+03 -0.19022106963E+03  0.81477486513E+03  0.00000000000E+00 0.  1.
<mgrwt>
<rscale>  0 0.18382650E+04</rscale>
<asrwt>0</asrwt>
<pdfrwt beam="1">  1        2 0.19394439E+00 0.18382650E+04</pdfrwt>
<pdfrwt beam="2">  1       -2 0.10309849E+00 0.18382650E+04</pdfrwt>
<totfact> 0.12604254E+01</totfact>
</mgrwt>
</event>
<event>
 6    1  0.2003386E-005  0.5080292E+04  0.7818608E-02  0.7816239E-01
         -3   -1    0    0    0  501 -0.00000000000E+00  0.00000000000E+00  0.28473891248E+04  0.28473891248E+04  0.00000000000E+00 0.  1.
          3   -1    0    0  501    0  0.00000000000E+00 -0.00000000000E+00 -0.22660557350E+04  0.22660557350E+04  0.00000000000E+00 0. -1.
         23    2    1    2    0    0  0.10242122962E+04 -0.16732559095E+04  0.19136052858E+04  0.27420012972E+04  0.88824309222E+02 0.  0.
         11    1    3    3    0    0  0.18795592331E+03 -0.26570634689E+03  0.28315508792E+03  0.43139783924E+03  0.00000000000E+00 0. -1.
        -11    1    3    3    0    0  0.83625637286E+03 -0.14075495626E+04  0.16304501978E+04  0.23106034579E+04  0.00000000000E+00 0.  1.
         22    1    1    2    0    0 -0.10242122962E+04  0.16732559095E+04 -0.13322718959E+04  0.23714435626E+04  0.00000000000E+00 0. -1.
<mgrwt>
<rscale>  0 0.50802923E+04</rscale>
<asrwt>0</asrwt>
<pdfrwt beam="1">  1        3 0.34862396E+00 0.50802923E+04</pdfrwt>
<pdfrwt beam="2">  1       -3 0.43805986E+00 0.50802923E+04</pdfrwt>
<totfact> 0.25413421E-04</totfact>
</mgrwt>
</event>
<event>
 6    1  0.2003386E-005  0.1401325E+04  0.7818608E-02  0.8952860E-01
         -1   -1    0    0    0  501 -0.00000000000E+00  0.00000000000E+00  0.25652037609E+03  0.25652037609E+03  0.00000000000E+00 0.  1.
          1   -1    0    0  501    0  0.00000000000E+00 -0.00000000000E+00 -0.19137975895E+04  0.19137975895E+04  0.00000000000E+00 0. -1.
         23    2    1    2    0    0  0.63378245660E+03  0.51680486962E+02 -0.38655856543E+03  0.74937568762E+03  0.88234469757E+02 0.  0.
         11    1    3    3    0    0  0.56356241501E+03  0.26816863322E+02 -0.36444396910E+03  0.67167041500E+03  0.00000000000E+00 0.  1.
        -11    1    3    3    0    0  0.70220041594E+02  0.24863623640E+02 -0.22114596330E+02  0.77705272619E+02  0.00000000000E+00 0. -1.
         22    1    1    2    0    0 -0.63378245660E+03 -0.51680486962E+02 -0.12707186480E+04  0.14209422780E+04  0.00000000000E+00 0. -1.
<mgrwt>
<rscale>  0 0.14013252E+04</rscale>
<asrwt>0</asrwt>
<pdfrwt beam="1">  1        1 0.29443041E+00 0.14013252E+04</pdfrwt>
<pdfrwt beam="2">  1       -1 0.39464672E-01 0.14013252E+04</pdfrwt>
<totfact> 0.20767683E+01</totfact>
</mgrwt>
</event>
<event>
 6    1  0.2003386E-005  0.1572730E+04  0.7818608E-02  0.8837478E-01
         -2   -1    0    0    0  501 -0.00000000000E+00  0.00000000000E+00  0.22431030578E+04  0.22431030578E+04  0.00000000000E+00 0. -1.
          2   -1    0    0  501    0  0.00000000000E+00 -0.00000000000E+00 -0.27567625366E+03  0.27567625366E+03  0.00000000000E+00 0.  1.
         23    2    1    2    0    0  0.26986857300E+03 -0.56576180938E+02  0.21619151663E+04  0.21813543065E+04  0.91648858097E+02 0.  0.
         11    1    3    3    0    0  0.14364507337E+03  0.78498339989E+01  0.12901213559E+04  0.12981173445E+04  0.00000000000E+00 0.  1.
        -11    1    3    3    0    0  0.12622349962E+03 -0.64426014937E+02  0.87179381036E+03  0.88323696199E+03  0.00000000000E+00 0. -1.
         22    1    1    2    0    0 -0.26986857300E+03  0.56576180938E+02 -0.19448836219E+03  0.33742500495E+03  0.00000000000E+00 0.  1.
<mgrwt>
<rscale>  0 0.15727304E+04</rscale>
<asrwt>0</asrwt>
<pdfrwt beam="1">  1        2 0.42411733E-01 0.15727304E+04</pdfrwt>
<pdfrwt beam="2">  1       -2 0.34509277E+00 0.15727304E+04</pdfrwt>
<totfact> 0.19481998E+00</totfact>
</mgrwt>
</event>
<event>
 6    1  0.2003386E-005  0.1878908E+04  0.7818608E-02  0.8665427E-01
          2   -1    0    0  501    0  0.00000000000E+00  0.00000000000E+00  0.69070016434E+03  0.69070016434E+03  0.00000000000E+00 0.  1.
         -2   -1    0    0    0  501 -0.00000000000E+00 -0.00000000000E+00 -0.12777954890E+04  0.12777954890E+04  0.00000000000E+00 0. -1.
         23    2    1    2    0    0 -0.38144306254E+03  0.52170140735E+03 -0.10057243807E+04  0.11984817217E+04  0.84886623457E+02 0.  0.
         13    1    3    3    0    0 -0.55454256844E+02  0.12756079644E+03 -0.24655672340E+03  0.28308505656E+03  0.00000000000E+00 0. -1.
        -13    1    3    3    0    0 -0.32598880569E+03  0.39414061091E+03 -0.75916765731E+03  0.91539666512E+03  0.00000000000E+00 0.  1.
         22    1    1    2    0    0  0.38144306254E+03 -0.52170140735E+03  0.41862905606E+03  0.77001393167E+03  0.00000000000E+00 0.  1.
<mgrwt>
<rscale>  0 0.18789077E+04</rscale>
<asrwt>0</asrwt>
<pdfrwt beam="1">  1        2 0.10626156E+00 0.18789077E+04</pdfrwt>
<pdfrwt beam="2">  1       -2 0.19658392E+00 0.18789077E+04</pdfrwt>
<totfact> 0.54727293E+00</totfact>
</mgrwt>
</event>
<event>
 6    1  0.2003386E-005  0.4041958E+04  0.7818608E-02  0.7996135E-01
         -2   -1    0    0    0  501 -0.00000000000E+00  0.00000000000E+00  0.95302630373E+03  0.95302630373E+03  0.00000000000E+00 0.  1.
          2   -1    0    0  501    0  0.00000000000E+00 -0.00000000000E+00 -0.42856702765E+04  0.42856702765E+04  0.00000000000E+00 0. -1.
         23    2    1    2    0    0  0.61236134617E+03  0.48205734560E+03 -0.40824280543E+04  0.41572429881E+04  0.95313907905E+02 0.  0.
         11    1    3    3    0    0  0.18277583393E+03  0.20074988847E+03 -0.13726582540E+04  0.13992491578E+04  0.00000000000E+00 0. -1.
        -11    1    3    3    0    0  0.42958551225E+03  0.28130745713E+03 -0.27097698003E+04  0.27579938304E+04  0.00000000000E+00 0.  1.
         22    1    1    2    0    0 -0.61236134617E+03 -0.48205734560E+03  0.74978408160E+03  0.10814535920E+04  0.00000000000E+00 0.  1.
<mgrwt>
<rscale>  0 0.40419582E+04</rscale>
<asrwt>0</asrwt>
<pdfrwt beam="1">  1        2 0.65933389E+00 0.40419582E+04</pdfrwt>
<pdfrwt beam="2">  1       -2 0.14661943E+00 0.40419582E+04</pdfrwt>
<totfact> 0.48617847E-02</totfact>
</mgrwt>
</event>
<event>
 6    1  0.2003386E-005  0.1100125E+04  0.7818608E-02  0.9205070E-01
          2   -1    0    0  501    0  0.00000000000E+00  0.00000000000E+00  0.65904362717E+03  0.65904362717E+03  0.00000000000E+00 0. -1.
         -2   -1    0    0    0  501 -0.00000000000E+00 -0.00000000000E+00 -0.45910306412E+03  0.45910306412E+03  0.00000000000E+00 0.  1.
         23    2    1    2    0    0 -0.29180231944E+03 -0.38914222004E+03 -0.15136972755E+03  0.51814737351E+03  0.94782093317E+02 0.  0.
         11    1    3    3    0    0 -0.75124679457E+02 -0.17466461679E+03 -0.69853940566E+02  0.20256114839E+03  0.00000000000E+00 0.  1.
        -11    1    3    3    0    0 -0.21667763998E+03 -0.21447760325E+03 -0.81515786983E+02  0.31558622513E+03  0.00000000000E+00 0. -1.
         22    1    1    2    0    0  0.29180231944E+03  0.38914222004E+03  0.35131029060E+03  0.59999931777E+03  0.00000000000E+00 0.  1.
<mgrwt>
<rscale>  0 0.11001254E+04</rscale>
<asrwt>0</asrwt>
<pdfrwt beam="1">  1        2 0.10139133E+00 0.11001254E+04</pdfrwt>
<pdfrwt beam="2">  1       -2 0.70631241E-01 0.11001254E+04</pdfrwt>
<totfact> 0.80035253E+01</totfact>
</mgrwt>
</event>
<event>
 6    1  0.2003386E-005  0.1248276E+04  0.7818608E-02  0.9071619E-01
         -2   -1    0    0    0  501 -0.00000000000E+00  0.00000000000E+00  0.35336415404E+03  0.35336415404E+03  0.00000000000E+00 0. -1.
          2   -1    0    0  501    0  0.00000000000E+00 -0.00000000000E+00 -0.11023992428E+04  0.11023992428E+04  0.00000000000E+00 0.  1.
         23    2    1    2    0    0  0.30659123513E+03 -0.49759360393E+03 -0.13456294484E+03  0.60772236258E+03  0.98090283560E+02 0.  0.
         13    1    3    3    0    0  0.12240822335E+03 -0.29119464632E+03 -0.65354277242E+02  0.32256670123E+03  0.00000000000E+00 0. -1.
        -13    1    3    3    0    0  0.18418301178E+03 -0.20639895761E+03 -0.69208667601E+02  0.28515566135E+03  0.00000000000E+00 0.  1.
         22    1    1    2    0    0 -0.30659123513E+03  0.49759360393E+03 -0.61447214387E+03  0.84804103422E+03  0.00000000000E+00 0.  1.
<mgrwt>
<rscale>  0 0.12482762E+04</rscale>
<asrwt>0</asrwt>
<pdfrwt beam="1">  1        2 0.16959988E+00 0.12482762E+04</pdfrwt>
<pdfrwt beam="2">  1       -2 0.54363716E-01 0.12482762E+04</pdfrwt>
<totfact> 0.68015921E+01</totfact>
</mgrwt>
</event>
<event>
 6    1  0.2442105E-005  0.2572910E+04  0.7818608E-02  0.8377462E-01
         -2   -1    0    0    0  501 -0.00000000000E+00  0.00000000000E+00  0.60746487181E+03  0.60746487181E+03  0.00000000000E+00 0. -1.
          2   -1    0    0  501    0  0.00000000000E+00 -0.00000000000E+00 -0.27243823772E+04  0.27243823772E+04  0.00000000000E+00 0.  1.
         23    2    1    2    0    0 -0.72699077930E+03  0.85315603109E+03 -0.18722153596E+04  0.21845591654E+04  0.10352578407E+03 0.  0.
         11    1    3    3    0    0 -0.33828601751E+03  0.47665034273E+03 -0.97698737468E+03  0.11384802630E+04  0.00000000000E+00 0. -1.
        -11    1    3    3    0    0 -0.38870476180E+03  0.37650568836E+03 -0.89522798493E+03  0.10460789025E+04  0.00000000000E+00 0.  1.
         22    1    1    2    0    0  0.72699077930E+03 -0.85315603109E+03 -0.24470214579E+03  0.11472880836E+04  0.00000000000E+00 0. -1.
<mgrwt>
<rscale>  0 0.25729101E+04</rscale>
<asrwt>0</asrwt>
<pdfrwt beam="1">  1        2 0.41913575E+00 0.25729101E+04</pdfrwt>
<pdfrwt beam="2">  1       -2 0.93456134E-01 0.25729101E+04</pdfrwt>
<totfact> 0.22041078E+00</totfact>
</mgrwt>
</event>
<event>
 6    1  0.2003386E-005  0.1329944E+04  0.7818608E-02  0.9006150E-01
         -2   -1    0    0    0  501 -0.00000000000E+00  0.00000000000E+00  0.56142902542E+03  0.56142902542E+03  0.00000000000E+00 0.  1.
          2   -1    0    0  501    0  0.00000000000E+00 -0.00000000000E+00 -0.78761143690E+03  0.78761143690E+03  0.00000000000E+00 0. -1.
         23    2    1    2    0    0  0.40229514710E+03 -0.51955233563E+03 -0.33399783543E+02  0.66424767872E+03  0.91287558331E+02 0.  0.
         13    1    3    3    0    0  0.16701948327E+03 -0.25700812950E+03  0.22363343257E+02  0.30732524391E+03  0.00000000000E+00 0.  1.
        -13    1    3    3    0    0  0.23527566383E+03 -0.26254420613E+03 -0.55763126800E+02  0.35692243481E+03  0.00000000000E+00 0. -1.
         22    1    1    2    0    0 -0.40229514710E+03  0.51955233563E+03 -0.19278262794E+03  0.68479278360E+03  0.00000000000E+00 0. -1.
<mgrwt>
<rscale>  0 0.13299442E+04</rscale>
<asrwt>0</asrwt>
<pdfrwt beam="1">  1        2 0.12117099E+00 0.13299442E+04</pdfrwt>
<pdfrwt beam="2">  1       -2 0.86373696E-01 0.13299442E+04</pdfrwt>
<totfact> 0.39973562E+01</totfact>
</mgrwt>
</event>
<event>
 6    1  0.2003386E-005  0.1839208E+04  0.7818608E-02  0.8685723E-01
         -2   -1    0    0    0  501 -0.00000000000E+00  0.00000000000E+00  0.59758543378E+03  0.59758543378E+03  0.00000000000E+00 0.  1.
          2   -1    0    0  501    0  0.00000000000E+00 -0.00000000000E+00 -0.14151474194E+04  0.14151474194E+04  0.00000000000E+00 0. -1.
         23    2    1    2    0    0  0.27966558719E+03 -0.50607652770E+03  0.36952051356E+03  0.69231960257E+03  0.91840783998E+02 0.  0.
         13    1    3    3    0    0  0.18576928489E+03 -0.24144362003E+03  0.19522602569E+03  0.36182654680E+03  0.00000000000E+00 0.  1.
        -13    1    3    3    0    0  0.93896302304E+02 -0.26463290767E+03  0.17429448787E+03  0.33049305577E+03  0.00000000000E+00 0. -1.
         22    1    1    2    0    0 -0.27966558719E+03  0.50607652770E+03 -0.11870824992E+04  0.13204132507E+04  0.00000000000E+00 0. -1.
<mgrwt>
<rscale>  0 0.18392080E+04</rscale>
<asrwt>0</asrwt>
<pdfrwt beam="1">  1        2 0.21771498E+00 0.18392080E+04</pdfrwt>
<pdfrwt beam="2">  1       -2 0.91936223E-01 0.18392080E+04</pdfrwt>
<totfact> 0.13430524E+01</totfact>
</mgrwt>
</event>
<event>
 6    1  0.2003386E-005  0.2491471E+04  0.7818608E-02  0.8406030E-01
          1   -1    0    0  501    0  0.00000000000E+00  0.00000000000E+00  0.42850818319E+04  0.42850818319E+04  0.00000000000E+00 0. -1.
         -1   -1    0    0    0  501 -0.00000000000E+00 -0.00000000000E+00 -0.36215330442E+03  0.36215330442E+03  0.00000000000E+00 0.  1.
         23    2    1    2    0    0 -0.94799773186E+03  0.76727823008E+03  0.15063282376E+04  0.19403231423E+04  0.91725434880E+02 0.  0.
         13    1    3    3    0    0 -0.80371435226E+03  0.61157420982E+03  0.12710307604E+04  0.16234219932E+04  0.00000000000E+00 0. -1.
        -13    1    3    3    0    0 -0.14428337960E+03  0.15570402026E+03  0.23529747715E+03  0.31690114911E+03  0.00000000000E+00 0.  1.
         22    1    1    2    0    0  0.94799773186E+03 -0.76727823008E+03  0.24166002899E+04  0.27069119940E+04  0.00000000000E+00 0.  1.
<mgrwt>
<rscale>  0 0.24914707E+04</rscale>
<asrwt>0</asrwt>
<pdfrwt beam="1">  1        1 0.65924332E+00 0.24914707E+04</pdfrwt>
<pdfrwt beam="2">  1       -1 0.55715896E-01 0.24914707E+04</pdfrwt>
<totfact> 0.15291322E-01</totfact>
</mgrwt>
</event>
<event>
 6    1  0.2003386E-005  0.2734710E+04  0.7818608E-02  0.8323830E-01
          2   -1    0    0  501    0  0.00000000000E+00  0.00000000000E+00  0.20503599646E+04  0.20503599646E+04  0.00000000000E+00 0. -1.
         -2   -1    0    0    0  501 -0.00000000000E+00 -0.00000000000E+00 -0.91186894140E+03  0.91186894140E+03  0.00000000000E+00 0.  1.
         23    2    1    2    0    0  0.40611920110E+03 -0.53562091550E+03  0.18577712486E+04  0.19777561470E+04  0.91557601227E+02 0.  0.
         13    1    3    3    0    0  0.34271802672E+01 -0.30793267053E+02  0.11814040164E+03  0.12213568422E+03  0.00000000000E+00 0. -1.
        -13    1    3    3    0    0  0.40269202083E+03 -0.50482764845E+03  0.17396308470E+04  0.18556204628E+04  0.00000000000E+00 0.  1.
         22    1    1    2    0    0 -0.40611920110E+03  0.53562091550E+03 -0.71928022536E+03  0.98447275901E+03  0.00000000000E+00 0.  1.
<mgrwt>
<rscale>  0 0.27347099E+04</rscale>
<asrwt>0</asrwt>
<pdfrwt beam="1">  1        2 0.31543999E+00 0.27347099E+04</pdfrwt>
<pdfrwt beam="2">  1       -2 0.14028753E+00 0.27347099E+04</pdfrwt>
<totfact> 0.19574735E+00</totfact>
</mgrwt>
</event>
<event>
 6    1  0.2003386E-005  0.1630804E+04  0.7818608E-02  0.8801845E-01
         -2   -1    0    0    0  501 -0.00000000000E+00  0.00000000000E+00  0.29493028358E+03  0.29493028358E+03  0.00000000000E+00 0.  1.
          2   -1    0    0  501    0  0.00000000000E+00 -0.00000000000E+00 -0.22543634316E+04  0.22543634316E+04  0.00000000000E+00 0. -1.
         23    2    1    2    0    0 -0.56438207186E+03  0.55357440975E+03 -0.68549124925E+03  0.10499939748E+04  0.87277397347E+02 0.  0.
         11    1    3    3    0    0 -0.42695407414E+03  0.43725646241E+03 -0.57269639558E+03  0.83753457054E+03  0.00000000000E+00 0. -1.
        -11    1    3    3    0    0 -0.13742799771E+03  0.11631794734E+03 -0.11279485367E+03  0.21245940423E+03  0.00000000000E+00 0.  1.
         22    1    1    2    0    0  0.56438207186E+03 -0.55357440975E+03 -0.12739418988E+04  0.14992997404E+04  0.00000000000E+00 0. -1.
<mgrwt>
<rscale>  0 0.16308035E+04</rscale>
<asrwt>0</asrwt>
<pdfrwt beam="1">  1        2 0.34682515E+00 0.16308035E+04</pdfrwt>
<pdfrwt beam="2">  1       -2 0.45373889E-01 0.16308035E+04</pdfrwt>
<totfact> 0.21221725E+01</totfact>
</mgrwt>
</event>
<event>
 6    1  0.2003386E-005  0.6137063E+04  0.7818608E-02  0.7673636E-01
         -2   -1    0    0    0  501 -0.00000000000E+00  0.00000000000E+00  0.25191048889E+04  0.25191048889E+04  0.00000000000E+00 0.  1.
          2   -1    0    0  501    0  0.00000000000E+00 -0.00000000000E+00 -0.37377896321E+04  0.37377896321E+04  0.00000000000E+00 0. -1.
         23    2    1    2    0    0  0.16990014742E+04 -0.13107962848E+03  0.19914011666E+04  0.26225528439E+04  0.91197226368E+02 0.  0.
         13    1    3    3    0    0  0.80662488010E+03 -0.16717743378E+02  0.93580549787E+03  0.12355788562E+04  0.00000000000E+00 0.  1.
        -13    1    3    3    0    0  0.89237659414E+03 -0.11436188510E+03  0.10555956687E+04  0.13869739876E+04  0.00000000000E+00 0. -1.
         22    1    1    2    0    0 -0.16990014742E+04  0.13107962848E+03 -0.32100859097E+04  0.36343416771E+04  0.00000000000E+00 0. -1.
<mgrwt>
<rscale>  0 0.61370625E+04</rscale>
<asrwt>0</asrwt>
<pdfrwt beam="1">  1        2 0.57504456E+00 0.61370625E+04</pdfrwt>
<pdfrwt beam="2">  1       -2 0.38755460E+00 0.61370625E+04</pdfrwt>
<totfact> 0.32516750E-03</totfact>
</mgrwt>
</event>
<event>
 6    1  0.2003386E-005  0.3580541E+04  0.7818608E-02  0.8094964E-01
         -2   -1    0    0    0  501 -0.00000000000E+00  0.00000000000E+00  0.15160364593E+04  0.15160364593E+04  0.00000000000E+00 0.  1.
          2   -1    0    0  501    0  0.00000000000E+00 -0.00000000000E+00 -0.21141106030E+04  0.21141106030E+04  0.00000000000E+00 0. -1.
         23    2    1    2    0    0  0.60389944616E+03 -0.22336285838E+03  0.13933382319E+04  0.15372283450E+04  0.84226176036E+02 0.  0.
         13    1    3    3    0    0  0.13974647378E+03 -0.86913740191E+02  0.39195623856E+03  0.42510324407E+03  0.00000000000E+00 0.  1.
        -13    1    3    3    0    0  0.46415297238E+03 -0.13644911819E+03  0.10013819933E+04  0.11121251009E+04  0.00000000000E+00 0. -1.
         22    1    1    2    0    0 -0.60389944616E+03  0.22336285838E+03 -0.19914123755E+04  0.20929187173E+04  0.00000000000E+00 0. -1.
<mgrwt>
<rscale>  0 0.35805412E+04</rscale>
<asrwt>0</asrwt>
<pdfrwt beam="1">  1        2 0.32524779E+00 0.35805412E+04</pdfrwt>
<pdfrwt beam="2">  1       -2 0.23323638E+00 0.35805412E+04</pdfrwt>
<totfact> 0.38441079E-01</totfact>
</mgrwt>
</event>
<event>
 6    1  0.2003386E-005  0.3193588E+04  0.7818608E-02  0.8190513E-01
          2   -1    0    0  501    0  0.00000000000E+00  0.00000000000E+00  0.20432463515E+04  0.20432463515E+04  0.00000000000E+00 0. -1.
         -2   -1    0    0    0  501 -0.00000000000E+00 -0.00000000000E+00 -0.12478922382E+04  0.12478922382E+04  0.00000000000E+00 0.  1.
         23    2    1    2    0    0  0.45171717505E+02 -0.99057994588E+03 -0.88997864637E+03  0.13357267088E+04  0.93886827644E+02 0.  0.
         13    1    3    3    0    0  0.50312015666E+02 -0.50041144545E+03 -0.50171202606E+03  0.71039275809E+03  0.00000000000E+00 0.  1.
        -13    1    3    3    0    0 -0.51402981614E+01 -0.49016850043E+03 -0.38826662031E+03  0.62533395072E+03  0.00000000000E+00 0. -1.
         22    1    1    2    0    0 -0.45171717505E+02  0.99057994588E+03  0.16853327596E+04  0.19554118809E+04  0.00000000000E+00 0. -1.
<mgrwt>
<rscale>  0 0.31935881E+04</rscale>
<asrwt>0</asrwt>
<pdfrwt beam="1">  1        2 0.31434559E+00 0.31935881E+04</pdfrwt>
<pdfrwt beam="2">  1       -2 0.19198342E+00 0.31935881E+04</pdfrwt>
<totfact> 0.80058907E-01</totfact>
</mgrwt>
</event>
<event>
 6    1  0.2003386E-005  0.2304286E+04  0.7818608E-02  0.8476233E-01
         -2   -1    0    0    0  501 -0.00000000000E+00  0.00000000000E+00  0.10383845186E+04  0.10383845186E+04  0.00000000000E+00 0.  1.
          2   -1    0    0  501    0  0.00000000000E+00 -0.00000000000E+00 -0.12783641745E+04  0.12783641745E+04  0.00000000000E+00 0. -1.
         23    2    1    2    0    0  0.87090436462E+03 -0.55679521224E+03  0.38732943664E+03  0.11076118033E+04  0.91019194295E+02 0.  0.
         13    1    3    3    0    0  0.57078330893E+03 -0.31288242585E+03  0.24692137088E+03  0.69617466311E+03  0.00000000000E+00 0.  1.
        -13    1    3    3    0    0  0.30012105569E+03 -0.24391278639E+03  0.14040806576E+03  0.41143714023E+03  0.00000000000E+00 0. -1.
         22    1    1    2    0    0 -0.87090436462E+03  0.55679521224E+03 -0.62730909246E+03  0.12091368898E+04  0.00000000000E+00 0. -1.
<mgrwt>
<rscale>  0 0.23042861E+04</rscale>
<asrwt>0</asrwt>
<pdfrwt beam="1">  1        2 0.19667141E+00 0.23042861E+04</pdfrwt>
<pdfrwt beam="2">  1       -2 0.15975147E+00 0.23042861E+04</pdfrwt>
<totfact> 0.39024862E+00</totfact>
</mgrwt>
</event>
<event>
 6    1  0.2003386E-005  0.2424688E+04  0.7818608E-02  0.8430318E-01
          2   -1    0    0  501    0  0.00000000000E+00  0.00000000000E+00  0.17087308940E+04  0.17087308940E+04  0.00000000000E+00 0.  1.
         -2   -1    0    0    0  501 -0.00000000000E+00 -0.00000000000E+00 -0.86015733578E+03  0.86015733578E+03  0.00000000000E+00 0. -1.
         23    2    1    2    0    0  0.90619606775E+02  0.75265208733E+03  0.14249353227E+04  0.16165805268E+04  0.90525401003E+02 0.  0.
         11    1    3    3    0    0  0.32016941696E+02  0.29898436175E+03  0.66064310613E+03  0.72585538973E+03  0.00000000000E+00 0. -1.
        -11    1    3    3    0    0  0.58602665078E+02  0.45366772558E+03  0.76429221654E+03  0.89072513709E+03  0.00000000000E+00 0.  1.
         22    1    1    2    0    0 -0.90619606775E+02 -0.75265208733E+03 -0.57636176442E+03  0.95230770299E+03  0.00000000000E+00 0. -1.
<mgrwt>
<rscale>  0 0.24246875E+04</rscale>
<asrwt>0</asrwt>
<pdfrwt beam="1">  1        2 0.26288168E+00 0.24246875E+04</pdfrwt>
<pdfrwt beam="2">  1       -2 0.13233190E+00 0.24246875E+04</pdfrwt>
<totfact> 0.36133107E+00</totfact>
</mgrwt>
</event>
<event>
 6    1  0.2003386E-005  0.2420750E+04  0.7818608E-02  0.8431776E-01
          1   -1    0    0  501    0  0.00000000000E+00  0.00000000000E+00  0.13935882339E+04  0.13935882339E+04  0.00000000000E+00 0. -1.
         -1   -1    0    0    0  501 -0.00000000000E+00 -0.00000000000E+00 -0.10512486565E+04  0.10512486565E+04  0.00000000000E+00 0.  1.
         23    2    1    2    0    0  0.87241297232E+03 -0.80403702090E+03 -0.61784061738E+02  0.11914830533E+04  0.90745086448E+02 0.  0.
         11    1    3    3    0    0  0.41750382457E+02 -0.61281794212E+02 -0.18040814818E+02  0.76315291629E+02  0.00000000000E+00 0.  1.
        -11    1    3    3    0    0  0.83066258986E+03 -0.74275522669E+03 -0.43743246920E+02  0.11151677616E+04  0.00000000000E+00 0. -1.
         22    1    1    2    0    0 -0.87241297232E+03  0.80403702090E+03  0.40412363912E+03  0.12533538371E+04  0.00000000000E+00 0.  1.
<mgrwt>
<rscale>  0 0.24207501E+04</rscale>
<asrwt>0</asrwt>
<pdfrwt beam="1">  1        1 0.21439819E+00 0.24207501E+04</pdfrwt>
<pdfrwt beam="2">  1       -1 0.16173056E+00 0.24207501E+04</pdfrwt>
<totfact> 0.19692418E+00</totfact>
</mgrwt>
</event>
<event>
 6    1  0.2003386E-005  0.1451183E+04  0.7818608E-02  0.8917581E-01
         -2   -1    0    0    0  501 -0.00000000000E+00  0.00000000000E+00  0.48124175999E+03  0.48124175999E+03  0.00000000000E+00 0. -1.
          2   -1    0    0  501    0  0.00000000000E+00 -0.00000000000E+00 -0.10940092725E+04  0.10940092725E+04  0.00000000000E+00 0.  1.
         23    2    1    2    0    0  0.59670371244E+03  0.18336723810E+03  0.87757340065E+02  0.63694727916E+03  0.91222920638E+02 0.  0.
         11    1    3    3    0    0  0.37167492480E+03  0.12703021893E+03  0.97729965845E+02  0.40475927719E+03  0.00000000000E+00 0.  1.
        -11    1    3    3    0    0  0.22502878764E+03  0.56337019171E+02 -0.99726257800E+01  0.23218800197E+03  0.00000000000E+00 0. -1.
         22    1    1    2    0    0 -0.59670371244E+03 -0.18336723810E+03 -0.70052485263E+03  0.93830375337E+03  0.00000000000E+00 0.  1.
<mgrwt>
<rscale>  0 0.14511829E+04</rscale>
<asrwt>0</asrwt>
<pdfrwt beam="1">  1        2 0.16830912E+00 0.14511829E+04</pdfrwt>
<pdfrwt beam="2">  1       -2 0.74037194E-01 0.14511829E+04</pdfrwt>
<totfact> 0.35017842E+01</totfact>
</mgrwt>
</event>
<event>
 6    1  0.2003386E-005  0.3324382E+04  0.7818608E-02  0.8156719E-01
          2   -1    0    0  501    0  0.00000000000E+00  0.00000000000E+00  0.27256234628E+04  0.27256234628E+04  0.00000000000E+00 0. -1.
         -2   -1    0    0    0  501 -0.00000000000E+00 -0.00000000000E+00 -0.10136686465E+04  0.10136686465E+04  0.00000000000E+00 0.  1.
         23    2    1    2    0    0 -0.10777020890E+04 -0.96801516724E+03  0.17705404110E+04  0.22894895612E+04  0.91945348552E+02 0.  0.
         11    1    3    3    0    0 -0.28819445933E+03 -0.24473869820E+03  0.40210466622E+03  0.55194314868E+03  0.00000000000E+00 0. -1.
        -11    1    3    3    0    0 -0.78950762967E+03 -0.72327646904E+03  0.13684357448E+04  0.17375464125E+04  0.00000000000E+00 0.  1.
         22    1    1    2    0    0  0.10777020890E+04  0.96801516724E+03 -0.58585594725E+02  0.14498025481E+04  0.00000000000E+00 0.  1.
<mgrwt>
<rscale>  0 0.33243821E+04</rscale>
<asrwt>0</asrwt>
<pdfrwt beam="1">  1        2 0.41932668E+00 0.33243821E+04</pdfrwt>
<pdfrwt beam="2">  1       -2 0.15594902E+00 0.33243821E+04</pdfrwt>
<totfact> 0.57682252E-01</totfact>
</mgrwt>
</event>
<event>
 6    1  0.2003386E-005  0.2918001E+04  0.7818608E-02  0.8267542E-01
          1   -1    0    0  501    0  0.00000000000E+00  0.00000000000E+00  0.15021378049E+04  0.15021378049E+04  0.00000000000E+00 0. -1.
         -1   -1    0    0    0  501 -0.00000000000E+00 -0.00000000000E+00 -0.14171015586E+04  0.14171015586E+04  0.00000000000E+00 0.  1.
         23    2    1    2    0    0 -0.80782783573E+03 -0.91448274711E+03  0.84017638376E+03  0.14842825229E+04  0.91289348067E+02 0.  0.
         11    1    3    3    0    0 -0.66393984892E+03 -0.75694935363E+03  0.64984086677E+03  0.11983662208E+04  0.00000000000E+00 0.  1.
        -11    1    3    3    0    0 -0.14388798681E+03 -0.15753339348E+03  0.19033551699E+03  0.28591630216E+03  0.00000000000E+00 0. -1.
         22    1    1    2    0    0  0.80782783573E+03  0.91448274711E+03 -0.75514013747E+03  0.14349568405E+04  0.00000000000E+00 0.  1.
<mgrwt>
<rscale>  0 0.29180006E+04</rscale>
<asrwt>0</asrwt>
<pdfrwt beam="1">  1        1 0.23109812E+00 0.29180006E+04</pdfrwt>
<pdfrwt beam="2">  1       -1 0.21801562E+00 0.29180006E+04</pdfrwt>
<totfact> 0.63407141E-01</totfact>
</mgrwt>
</event>
<event>
 6    1  0.2003386E-005  0.1706832E+04  0.7818608E-02  0.8757477E-01
         -1   -1    0    0    0  501 -0.00000000000E+00  0.00000000000E+00  0.50478560679E+03  0.50478560679E+03  0.00000000000E+00 0.  1.
          1   -1    0    0  501    0  0.00000000000E+00 -0.00000000000E+00 -0.14428283377E+04  0.14428283377E+04  0.00000000000E+00 0. -1.
         23    2    1    2    0    0 -0.19305103238E+03  0.79216826974E+03 -0.19243461379E+03  0.84274710500E+03  0.91609681325E+02 0.  0.
         13    1    3    3    0    0 -0.10341111869E+03  0.26213308358E+03 -0.45284573170E+02  0.28540901447E+03  0.00000000000E+00 0. -1.
        -13    1    3    3    0    0 -0.89639913686E+02  0.53003518616E+03 -0.14715004062E+03  0.55733809053E+03  0.00000000000E+00 0.  1.
         22    1    1    2    0    0  0.19305103238E+03 -0.79216826974E+03 -0.74560811707E+03  0.11048668395E+04  0.00000000000E+00 0. -1.
<mgrwt>
<rscale>  0 0.17068321E+04</rscale>
<asrwt>0</asrwt>
<pdfrwt beam="1">  1        1 0.22197359E+00 0.17068321E+04</pdfrwt>
<pdfrwt beam="2">  1       -1 0.77659326E-01 0.17068321E+04</pdfrwt>
<totfact> 0.11328966E+01</totfact>
</mgrwt>
</event>
<event>
 6    1  0.2003386E-005  0.5985509E+04  0.7818608E-02  0.7692201E-01
          2   -1    0    0  501    0  0.00000000000E+00  0.00000000000E+00  0.48635897422E+04  0.48635897422E+04  0.00000000000E+00 0. -1.
         -2   -1    0    0    0  501 -0.00000000000E+00 -0.00000000000E+00 -0.18415571584E+04  0.18415571584E+04  0.00000000000E+00 0.  1.
         23    2    1    2    0    0 -0.28235728563E+04 -0.32193295675E+03  0.25600251293E+04  0.38259707351E+04  0.90104938640E+02 0.  0.
         11    1    3    3    0    0 -0.14285784665E+04 -0.20706836575E+03  0.13133019921E+04  0.19515316717E+04  0.00000000000E+00 0.  1.
        -11    1    3    3    0    0 -0.13949943898E+04 -0.11486459100E+03  0.12467231372E+04  0.18744390635E+04  0.00000000000E+00 0. -1.
         22    1    1    2    0    0  0.28235728563E+04  0.32193295675E+03  0.46200745451E+03  0.28791761654E+04  0.00000000000E+00 0.  1.
<mgrwt>
<rscale>  0 0.59855087E+04</rscale>
<asrwt>0</asrwt>
<pdfrwt beam="1">  1        2 0.74824457E+00 0.59855087E+04</pdfrwt>
<pdfrwt beam="2">  1       -2 0.28331649E+00 0.59855087E+04</pdfrwt>
<totfact> 0.13375476E-03</totfact>
</mgrwt>
</event>
<event>
 6    1  0.2003386E-005  0.1338976E+04  0.7818608E-02  0.8999215E-01
         -2   -1    0    0    0  501 -0.00000000000E+00  0.00000000000E+00  0.45908364430E+03  0.45908364430E+03  0.00000000000E+00 0.  1.
          2   -1    0    0  501    0  0.00000000000E+00 -0.00000000000E+00 -0.97632415855E+03  0.97632415855E+03  0.00000000000E+00 0. -1.
         23    2    1    2    0    0 -0.37815561120E+03  0.54315689474E+03 -0.17669596655E+03  0.69110163765E+03  0.91536497512E+02 0.  0.
         13    1    3    3    0    0 -0.23021975578E+03  0.37858812899E+03 -0.83011488770E+02  0.45080041552E+03  0.00000000000E+00 0.  1.
        -13    1    3    3    0    0 -0.14793585542E+03  0.16456876575E+03 -0.93684477783E+02  0.24030122213E+03  0.00000000000E+00 0. -1.
         22    1    1    2    0    0  0.37815561120E+03 -0.54315689474E+03 -0.34054454770E+03  0.74430616520E+03  0.00000000000E+00 0. -1.
<mgrwt>
<rscale>  0 0.13389764E+04</rscale>
<asrwt>0</asrwt>
<pdfrwt beam="1">  1        2 0.15020372E+00 0.13389764E+04</pdfrwt>
<pdfrwt beam="2">  1       -2 0.70628253E-01 0.13389764E+04</pdfrwt>
<totfact> 0.46508925E+01</totfact>
</mgrwt>
</event>
<event>
 6    1  0.2003386E-005  0.1107601E+04  0.7818608E-02  0.9197815E-01
         -2   -1    0    0    0  501 -0.00000000000E+00  0.00000000000E+00  0.18447946270E+03  0.18447946270E+03  0.00000000000E+00 0.  1.
          2   -1    0    0  501    0  0.00000000000E+00 -0.00000000000E+00 -0.16624880157E+04  0.16624880157E+04  0.00000000000E+00 0. -1.
         23    2    1    2    0    0 -0.25438670705E+03  0.13796477585E+03  0.35684395309E+02  0.30585968923E+03  0.92357443284E+02 0.  0.
         11    1    3    3    0    0 -0.15063118021E+03  0.91658761119E+02  0.65985413545E+02  0.18826883901E+03  0.00000000000E+00 0.  1.
        -11    1    3    3    0    0 -0.10375552684E+03  0.46306014729E+02 -0.30301018236E+02  0.11759085022E+03  0.00000000000E+00 0. -1.
         22    1    1    2    0    0  0.25438670705E+03 -0.13796477585E+03 -0.15136929483E+04  0.15411077891E+04  0.00000000000E+00 0. -1.
<mgrwt>
<rscale>  0 0.11076008E+04</rscale>
<asrwt>0</asrwt>
<pdfrwt beam="1">  1        2 0.25576739E+00 0.11076008E+04</pdfrwt>
<pdfrwt beam="2">  1       -2 0.28381456E-01 0.11076008E+04</pdfrwt>
<totfact> 0.11607770E+02</totfact>
</mgrwt>
</event>
<event>
 6    1  0.2003386E-005  0.2689380E+04  0.7818608E-02  0.8338459E-01
          2   -1    0    0  501    0  0.00000000000E+00  0.00000000000E+00  0.35059331951E+04  0.35059331951E+04  0.00000000000E+00 0. -1.
         -2   -1    0    0    0  501 -0.00000000000E+00 -0.00000000000E+00 -0.51575156493E+03  0.51575156493E+03  0.00000000000E+00 0.  1.
         23    2    1    2    0    0  0.10704117119E+04 -0.24239518470E+03  0.26546289953E+04  0.28740209463E+04  0.91676816006E+02 0.  0.
         13    1    3    3    0    0  0.75742483828E+03 -0.21203882176E+03  0.18640424915E+04  0.20231923432E+04  0.00000000000E+00 0. -1.
        -13    1    3    3    0    0  0.31298687363E+03 -0.30356362938E+02  0.79058650382E+03  0.85082860310E+03  0.00000000000E+00 0.  1.
         22    1    1    2    0    0 -0.10704117119E+04  0.24239518470E+03  0.33555263487E+03  0.11476638137E+04  0.00000000000E+00 0.  1.
<mgrwt>
<rscale>  0 0.26893795E+04</rscale>
<asrwt>0</asrwt>
<pdfrwt beam="1">  1        2 0.53937432E+00 0.26893795E+04</pdfrwt>
<pdfrwt beam="2">  1       -2 0.79346397E-01 0.26893795E+04</pdfrwt>
<totfact> 0.99579674E-01</totfact>
</mgrwt>
</event>
<event>
 6    1  0.2169596E-005  0.3765878E+04  0.7818608E-02  0.8053517E-01
         -2   -1    0    0    0  501 -0.00000000000E+00  0.00000000000E+00  0.20725470810E+04  0.20725470810E+04  0.00000000000E+00 0.  1.
          2   -1    0    0  501    0  0.00000000000E+00 -0.00000000000E+00 -0.17106773769E+04  0.17106773769E+04  0.00000000000E+00 0. -1.
         23    2    1    2    0    0 -0.15332950302E+04  0.89486811276E+02  0.12733709768E+04  0.19972132292E+04  0.91572372445E+02 0.  0.
         13    1    3    3    0    0 -0.86819709179E+03  0.23026195703E+02  0.76617987584E+03  0.11581571560E+04  0.00000000000E+00 0.  1.
        -13    1    3    3    0    0 -0.66509793839E+03  0.66460615573E+02  0.50719110099E+03  0.83905607321E+03  0.00000000000E+00 0. -1.
         22    1    1    2    0    0  0.15332950302E+04 -0.89486811276E+02 -0.91150127265E+03  0.17860112287E+04  0.00000000000E+00 0. -1.
<mgrwt>
<rscale>  0 0.37658781E+04</rscale>
<asrwt>0</asrwt>
<pdfrwt beam="1">  1        2 0.26318114E+00 0.37658781E+04</pdfrwt>
<pdfrwt beam="2">  1       -2 0.31885340E+00 0.37658781E+04</pdfrwt>
<totfact> 0.18927738E-01</totfact>
</mgrwt>
</event>
<event>
 6    1  0.2003386E-005  0.3737184E+04  0.7818608E-02  0.8059771E-01
         -2   -1    0    0    0  501 -0.00000000000E+00  0.00000000000E+00  0.16494522972E+04  0.16494522972E+04  0.00000000000E+00 0.  1.
          2   -1    0    0  501    0  0.00000000000E+00 -0.00000000000E+00 -0.21168456452E+04  0.21168456452E+04  0.00000000000E+00 0. -1.
         23    2    1    2    0    0 -0.12301328685E+04  0.14044627008E+04 -0.27498534006E+03  0.18893953894E+04  0.91954599127E+02 0.  0.
         11    1    3    3    0    0 -0.78399232153E+03  0.95340964623E+03 -0.16090421477E+03  0.12447988111E+04  0.00000000000E+00 0. -1.
        -11    1    3    3    0    0 -0.44614054694E+03  0.45105305455E+03 -0.11408112529E+03  0.64459657833E+03  0.00000000000E+00 0.  1.
         22    1    1    2    0    0  0.12301328685E+04 -0.14044627008E+04 -0.19240800801E+03  0.18769025530E+04  0.00000000000E+00 0.  1.
<mgrwt>
<rscale>  0 0.37371839E+04</rscale>
<asrwt>0</asrwt>
<pdfrwt beam="1">  1        2 0.32566856E+00 0.37371839E+04</pdfrwt>
<pdfrwt beam="2">  1       -2 0.25376189E+00 0.37371839E+04</pdfrwt>
<totfact> 0.28236141E-01</totfact>
</mgrwt>
</event>
<event>
 6    1  0.2003386E-005  0.2025246E+04  0.7818608E-02  0.8594907E-01
          2   -1    0    0  501    0  0.00000000000E+00  0.00000000000E+00  0.21038785871E+04  0.21038785871E+04  0.00000000000E+00 0. -1.
         -2   -1    0    0    0  501 -0.00000000000E+00 -0.00000000000E+00 -0.48738805848E+03  0.48738805848E+03  0.00000000000E+00 0.  1.
         23    2    1    2    0    0 -0.74505045155E+03  0.50558367441E+03  0.13961612876E+04  0.16643038623E+04  0.99629202130E+02 0.  0.
         11    1    3    3    0    0 -0.32715757966E+03  0.20804441658E+03  0.51396577365E+03  0.64379762168E+03  0.00000000000E+00 0.  1.
        -11    1    3    3    0    0 -0.41789287189E+03  0.29753925783E+03  0.88219551392E+03  0.10205062406E+04  0.00000000000E+00 0. -1.
         22    1    1    2    0    0  0.74505045155E+03 -0.50558367441E+03  0.22032924107E+03  0.92696278332E+03  0.00000000000E+00 0.  1.
<mgrwt>
<rscale>  0 0.20252460E+04</rscale>
<asrwt>0</asrwt>
<pdfrwt beam="1">  1        2 0.32367362E+00 0.20252460E+04</pdfrwt>
<pdfrwt beam="2">  1       -2 0.74982780E-01 0.20252460E+04</pdfrwt>
<totfact> 0.86597969E+00</totfact>
</mgrwt>
</event>
<event>
 6    1  0.2003386E-005  0.4120898E+04  0.7818608E-02  0.7980592E-01
         -3   -1    0    0    0  501 -0.00000000000E+00  0.00000000000E+00  0.25972033807E+04  0.25972033807E+04  0.00000000000E+00 0.  1.
          3   -1    0    0  501    0  0.00000000000E+00 -0.00000000000E+00 -0.16346239437E+04  0.16346239437E+04  0.00000000000E+00 0. -1.
         23    2    1    2    0    0  0.39851846880E+03  0.75585585636E+03  0.24057722936E+04  0.25546449649E+04  0.91299082098E+02 0.  0.
         11    1    3    3    0    0  0.32117702713E+02  0.13188870176E+03  0.37586219296E+03  0.39962302809E+03  0.00000000000E+00 0.  1.
        -11    1    3    3    0    0  0.36640076608E+03  0.62396715460E+03  0.20299101007E+04  0.21550219368E+04  0.00000000000E+00 0. -1.
         22    1    1    2    0    0 -0.39851846880E+03 -0.75585585636E+03 -0.14431928566E+04  0.16771823595E+04  0.00000000000E+00 0. -1.
<mgrwt>
<rscale>  0 0.41208984E+04</rscale>
<asrwt>0</asrwt>
<pdfrwt beam="1">  1        3 0.25148061E+00 0.41208984E+04</pdfrwt>
<pdfrwt beam="2">  1       -3 0.39956975E+00 0.41208984E+04</pdfrwt>
<totfact> 0.15480145E-03</totfact>
</mgrwt>
</event>
<event>
 6    1  0.2003386E-005  0.4533243E+04  0.7818608E-02  0.7904843E-01
         -2   -1    0    0    0  501 -0.00000000000E+00  0.00000000000E+00  0.13905106305E+04  0.13905106305E+04  0.00000000000E+00 0.  1.
          2   -1    0    0  501    0  0.00000000000E+00 -0.00000000000E+00 -0.36947380760E+04  0.36947380760E+04  0.00000000000E+00 0. -1.
         23    2    1    2    0    0  0.13799586951E+04  0.82528518752E+03 -0.29422501112E+04  0.33553774503E+04  0.12782987378E+03 0.  0.
         11    1    3    3    0    0  0.79280762279E+03  0.53438947026E+03 -0.16711300893E+04  0.19253030432E+04  0.00000000000E+00 0.  1.
        -11    1    3    3    0    0  0.58715107229E+03  0.29089571726E+03 -0.12711200219E+04  0.14300744072E+04  0.00000000000E+00 0. -1.
         22    1    1    2    0    0 -0.13799586951E+04 -0.82528518752E+03  0.63802266565E+03  0.17298712561E+04  0.00000000000E+00 0.  1.
<mgrwt>
<rscale>  0 0.45332428E+04</rscale>
<asrwt>0</asrwt>
<pdfrwt beam="1">  1        2 0.56842123E+00 0.45332428E+04</pdfrwt>
<pdfrwt beam="2">  1       -2 0.21392472E+00 0.45332428E+04</pdfrwt>
<totfact> 0.47958462E-02</totfact>
</mgrwt>
</event>
<event>
 6    1  0.2003386E-005  0.4005861E+04  0.7818608E-02  0.8003365E-01
          2   -1    0    0  501    0  0.00000000000E+00  0.00000000000E+00  0.24283155662E+04  0.24283155662E+04  0.00000000000E+00 0. -1.
         -2   -1    0    0    0  501 -0.00000000000E+00 -0.00000000000E+00 -0.16520630758E+04  0.16520630758E+04  0.00000000000E+00 0.  1.
         23    2    1    2    0    0 -0.10388741600E+04  0.19871825857E+03 -0.13429532062E+04  0.17118809638E+04  0.90910140633E+02 0.  0.
         13    1    3    3    0    0 -0.15712390185E+03 -0.24949261988E+01 -0.20461937077E+03  0.25799851179E+03  0.00000000000E+00 0.  1.
        -13    1    3    3    0    0 -0.88175025812E+03  0.20121318477E+03 -0.11383338355E+04  0.14538824521E+04  0.00000000000E+00 0. -1.
         22    1    1    2    0    0  0.10388741600E+04 -0.19871825857E+03  0.21192056967E+04  0.23684976781E+04  0.00000000000E+00 0. -1.
<mgrwt>
<rscale>  0 0.40058609E+04</rscale>
<asrwt>0</asrwt>
<pdfrwt beam="1">  1        2 0.37358701E+00 0.40058609E+04</pdfrwt>
<pdfrwt beam="2">  1       -2 0.25416355E+00 0.40058609E+04</pdfrwt>
<totfact> 0.18293889E-01</totfact>
</mgrwt>
</event>
<event>
 6    1  0.2003386E-005  0.2345381E+04  0.7818608E-02  0.8460240E-01
         -1   -1    0    0    0  501 -0.00000000000E+00  0.00000000000E+00  0.71467046837E+03  0.71467046837E+03  0.00000000000E+00 0.  1.
          1   -1    0    0  501    0  0.00000000000E+00 -0.00000000000E+00 -0.19242484674E+04  0.19242484674E+04  0.00000000000E+00 0. -1.
         23    2    1    2    0    0 -0.50380163029E+03  0.10156917253E+04 -0.93486202527E+03  0.14723364785E+04  0.91443622526E+02 0.  0.
         11    1    3    3    0    0 -0.75222836193E+02  0.91249850087E+02 -0.10664357634E+03  0.15924152285E+03  0.00000000000E+00 0. -1.
        -11    1    3    3    0    0 -0.42857879410E+03  0.92444187519E+03 -0.82821844893E+03  0.13130949556E+04  0.00000000000E+00 0.  1.
         22    1    1    2    0    0  0.50380163029E+03 -0.10156917253E+04 -0.27471597379E+03  0.11665824573E+04  0.00000000000E+00 0.  1.
<mgrwt>
<rscale>  0 0.23453815E+04</rscale>
<asrwt>0</asrwt>
<pdfrwt beam="1">  1        1 0.29603822E+00 0.23453815E+04</pdfrwt>
<pdfrwt beam="2">  1       -1 0.10994930E+00 0.23453815E+04</pdfrwt>
<totfact> 0.23071480E+00</totfact>
</mgrwt>
</event>
<event>
 6    1  0.2003386E-005  0.1683703E+04  0.7818608E-02  0.8770714E-01
         -2   -1    0    0    0  501 -0.00000000000E+00  0.00000000000E+00  0.45850193588E+03  0.45850193588E+03  0.00000000000E+00 0.  1.
          2   -1    0    0  501    0  0.00000000000E+00 -0.00000000000E+00 -0.15457164049E+04  0.15457164049E+04  0.00000000000E+00 0. -1.
         23    2    1    2    0    0 -0.19635207900E+03 -0.13693073960E+03 -0.15028525685E+04  0.15245734761E+04  0.91947131327E+02 0.  0.
         13    1    3    3    0    0 -0.18759390120E+03 -0.92541290337E+02 -0.13012976218E+04  0.13180026034E+04  0.00000000000E+00 0. -1.
        -13    1    3    3    0    0 -0.87581777927E+01 -0.44389449260E+02 -0.20155494677E+03  0.20657087270E+03  0.00000000000E+00 0.  1.
         22    1    1    2    0    0  0.19635207900E+03  0.13693073960E+03  0.41563809954E+03  0.47964486463E+03  0.00000000000E+00 0.  1.
<mgrwt>
<rscale>  0 0.16837030E+04</rscale>
<asrwt>0</asrwt>
<pdfrwt beam="1">  1        2 0.23780253E+00 0.16837030E+04</pdfrwt>
<pdfrwt beam="2">  1       -2 0.70538759E-01 0.16837030E+04</pdfrwt>
<totfact> 0.20832371E+01</totfact>
</mgrwt>
</event>
<event>
 6    1  0.2076921E-005  0.3330815E+04  0.7818608E-02  0.8155099E-01
          2   -1    0    0  501    0  0.00000000000E+00  0.00000000000E+00  0.30815386944E+04  0.30815386944E+04  0.00000000000E+00 0. -1.
         -2   -1    0    0    0  501 -0.00000000000E+00 -0.00000000000E+00 -0.90006397819E+03  0.90006397819E+03  0.00000000000E+00 0.  1.
         23    2    1    2    0    0  0.44308633497E+03 -0.66604733247E+03 -0.65287872974E+03  0.10365213484E+04  0.90450653297E+02 0.  0.
         11    1    3    3    0    0  0.30719037456E+03 -0.40818738176E+03 -0.37414300884E+03  0.63321864780E+03  0.00000000000E+00 0.  1.
        -11    1    3    3    0    0  0.13589596041E+03 -0.25785995071E+03 -0.27873572090E+03  0.40330270064E+03  0.00000000000E+00 0. -1.
         22    1    1    2    0    0 -0.44308633497E+03  0.66604733247E+03  0.28343534459E+04  0.29450813241E+04  0.00000000000E+00 0. -1.
<mgrwt>
<rscale>  0 0.33308149E+04</rscale>
<asrwt>0</asrwt>
<pdfrwt beam="1">  1        2 0.47408287E+00 0.33308149E+04</pdfrwt>
<pdfrwt beam="2">  1       -2 0.13847138E+00 0.33308149E+04</pdfrwt>
<totfact> 0.47565795E-01</totfact>
</mgrwt>
</event>
<event>
 6    1  0.2003386E-005  0.2737353E+04  0.7818608E-02  0.8322986E-01
         -2   -1    0    0    0  501 -0.00000000000E+00  0.00000000000E+00  0.72675645579E+03  0.72675645579E+03  0.00000000000E+00 0.  1.
          2   -1    0    0  501    0  0.00000000000E+00 -0.00000000000E+00 -0.25775839088E+04  0.25775839088E+04  0.00000000000E+00 0. -1.
         23    2    1    2    0    0  0.20246224855E+03  0.68803416320E+03 -0.23314834556E+04  0.24409678120E+04  0.90148677618E+02 0.  0.
         13    1    3    3    0    0  0.15432902448E+03  0.48310255799E+03 -0.17737800275E+04  0.18448580203E+04  0.00000000000E+00 0. -1.
        -13    1    3    3    0    0  0.48133224074E+02  0.20493160521E+03 -0.55770342808E+03  0.59610979170E+03  0.00000000000E+00 0.  1.
         22    1    1    2    0    0 -0.20246224855E+03 -0.68803416320E+03  0.48065600251E+03  0.86337255259E+03  0.00000000000E+00 0.  1.
<mgrwt>
<rscale>  0 0.27373533E+04</rscale>
<asrwt>0</asrwt>
<pdfrwt beam="1">  1        2 0.39655138E+00 0.27373533E+04</pdfrwt>
<pdfrwt beam="2">  1       -2 0.11180868E+00 0.27373533E+04</pdfrwt>
<totfact> 0.17321076E+00</totfact>
</mgrwt>
</event>
<event>
 6    1  0.2003386E-005  0.2415344E+04  0.7818608E-02  0.8433781E-01
         -1   -1    0    0    0  501 -0.00000000000E+00  0.00000000000E+00  0.95497977313E+03  0.95497977313E+03  0.00000000000E+00 0.  1.
          1   -1    0    0  501    0  0.00000000000E+00 -0.00000000000E+00 -0.15272273442E+04  0.15272273442E+04  0.00000000000E+00 0. -1.
         23    2    1    2    0    0 -0.10255434316E+03 -0.14455054517E+03 -0.15123817063E+04  0.15255125758E+04  0.92075728235E+02 0.  0.
         11    1    3    3    0    0 -0.72671201979E+02 -0.28804686827E+02 -0.49547543596E+03  0.50160414792E+03  0.00000000000E+00 0.  1.
        -11    1    3    3    0    0 -0.29883141177E+02 -0.11574585835E+03 -0.10169062704E+04  0.10239084278E+04  0.00000000000E+00 0. -1.
         22    1    1    2    0    0  0.10255434316E+03  0.14455054517E+03  0.94013413531E+03  0.95669454152E+03  0.00000000000E+00 0.  1.
<mgrwt>
<rscale>  0 0.24153436E+04</rscale>
<asrwt>0</asrwt>
<pdfrwt beam="1">  1        1 0.23495805E+00 0.24153436E+04</pdfrwt>
<pdfrwt beam="2">  1       -1 0.14691996E+00 0.24153436E+04</pdfrwt>
<totfact> 0.20679596E+00</totfact>
</mgrwt>
</event>
<event>
 6    1  0.2003386E-005  0.1011569E+04  0.7818608E-02  0.9295946E-01
          1   -1    0    0  501    0  0.00000000000E+00  0.00000000000E+00  0.35423304970E+03  0.35423304970E+03  0.00000000000E+00 0. -1.
         -1   -1    0    0    0  501 -0.00000000000E+00 -0.00000000000E+00 -0.72217444241E+03  0.72217444241E+03  0.00000000000E+00 0.  1.
         23    2    1    2    0    0  0.27721799069E+03 -0.18793721912E+03  0.21209072144E+03  0.40662583653E+03  0.90509027826E+02 0.  0.
         13    1    3    3    0    0  0.18443483879E+03 -0.11568709388E+03  0.18558559409E+03  0.28607992971E+03  0.00000000000E+00 0. -1.
        -13    1    3    3    0    0  0.92783151899E+02 -0.72250125248E+02  0.26505127347E+02  0.12054590682E+03  0.00000000000E+00 0.  1.
         22    1    1    2    0    0 -0.27721799069E+03  0.18793721912E+03 -0.58003211415E+03  0.66978165557E+03  0.00000000000E+00 0.  1.
<mgrwt>
<rscale>  0 0.10115692E+04</rscale>
<asrwt>0</asrwt>
<pdfrwt beam="1">  1        1 0.54497392E-01 0.10115692E+04</pdfrwt>
<pdfrwt beam="2">  1       -1 0.11110376E+00 0.10115692E+04</pdfrwt>
<totfact> 0.52667693E+01</totfact>
</mgrwt>
</event>
<event>
 6    1  0.2003386E-005  0.4065653E+04  0.7818608E-02  0.7991432E-01
         -2   -1    0    0    0  501 -0.00000000000E+00  0.00000000000E+00  0.15692904042E+04  0.15692904042E+04  0.00000000000E+00 0.  1.
          2   -1    0    0  501    0  0.00000000000E+00 -0.00000000000E+00 -0.26332816254E+04  0.26332816254E+04  0.00000000000E+00 0. -1.
         23    2    1    2    0    0  0.19771363011E+04 -0.43110828787E+03 -0.34302030311E+03  0.20543817741E+04  0.88877648390E+02 0.  0.
         13    1    3    3    0    0  0.86309180827E+03 -0.15834399238E+03 -0.11523351065E+03  0.88503053699E+03  0.00000000000E+00 0. -1.
        -13    1    3    3    0    0  0.11140444929E+04 -0.27276429550E+03 -0.22778679246E+03  0.11693512371E+04  0.00000000000E+00 0.  1.
         22    1    1    2    0    0 -0.19771363011E+04  0.43110828787E+03 -0.72097091803E+03  0.21481902555E+04  0.00000000000E+00 0.  1.
<mgrwt>
<rscale>  0 0.40656530E+04</rscale>
<asrwt>0</asrwt>
<pdfrwt beam="1">  1        2 0.40512025E+00 0.40656530E+04</pdfrwt>
<pdfrwt beam="2">  1       -2 0.24142929E+00 0.40656530E+04</pdfrwt>
<totfact> 0.16566512E-01</totfact>
</mgrwt>
</event>
<event>
 6    1  0.2003386E-005  0.6988518E+03  0.7818608E-02  0.9719198E-01
          2   -1    0    0  501    0  0.00000000000E+00  0.00000000000E+00  0.14583692313E+04  0.14583692313E+04  0.00000000000E+00 0. -1.
         -2   -1    0    0    0  501 -0.00000000000E+00 -0.00000000000E+00 -0.83722585300E+02  0.83722585300E+02  0.00000000000E+00 0.  1.
         23    2    1    2    0    0 -0.18248702871E+03  0.21734041123E+03  0.27566493051E+03  0.40705913823E+03  0.95747679337E+02 0.  0.
         13    1    3    3    0    0 -0.18148578527E+02  0.34673389377E+02  0.92965664975E+02  0.10086738669E+03  0.00000000000E+00 0. -1.
        -13    1    3    3    0    0 -0.16433845019E+03  0.18266702185E+03  0.18269926554E+03  0.30619175154E+03  0.00000000000E+00 0.  1.
         22    1    1    2    0    0  0.18248702871E+03 -0.21734041123E+03  0.10989817155E+04  0.11350326784E+04  0.00000000000E+00 0. -1.
<mgrwt>
<rscale>  0 0.69885175E+03</rscale>
<asrwt>0</asrwt>
<pdfrwt beam="1">  1        2 0.22436448E+00 0.69885175E+03</pdfrwt>
<pdfrwt beam="2">  1       -2 0.12880399E-01 0.69885175E+03</pdfrwt>
<totfact> 0.61503675E+02</totfact>
</mgrwt>
</event>
<event>
 6    1  0.2003386E-005  0.2081424E+04  0.7818608E-02  0.8569471E-01
         -2   -1    0    0    0  501 -0.00000000000E+00  0.00000000000E+00  0.32073385243E+03  0.32073385243E+03  0.00000000000E+00 0.  1.
          2   -1    0    0  501    0  0.00000000000E+00 -0.00000000000E+00 -0.33768851143E+04  0.33768851143E+04  0.00000000000E+00 0. -1.
         23    2    1    2    0    0 -0.42526560526E+03  0.63392245615E+03 -0.27958341608E+03  0.81802914912E+03  0.91083954899E+02 0.  0.
         13    1    3    3    0    0 -0.35915863049E+03  0.58516490374E+03 -0.24744964334E+03  0.72982478200E+03  0.00000000000E+00 0. -1.
        -13    1    3    3    0    0 -0.66106974765E+02  0.48757552409E+02 -0.32133772739E+02  0.88204367125E+02  0.00000000000E+00 0.  1.
         22    1    1    2    0    0  0.42526560526E+03 -0.63392245615E+03 -0.27765678458E+04  0.28795898176E+04  0.00000000000E+00 0. -1.
<mgrwt>
<rscale>  0 0.20814239E+04</rscale>
<asrwt>0</asrwt>
<pdfrwt beam="1">  1        2 0.51952081E+00 0.20814239E+04</pdfrwt>
<pdfrwt beam="2">  1       -2 0.49343667E-01 0.20814239E+04</pdfrwt>
<totfact> 0.35611791E+00</totfact>
</mgrwt>
</event>
<event>
 6    1  0.2003386E-005  0.2609606E+04  0.7818608E-02  0.8364946E-01
          2   -1    0    0  501    0  0.00000000000E+00  0.00000000000E+00  0.19431867669E+04  0.19431867669E+04  0.00000000000E+00 0. -1.
         -2   -1    0    0    0  501 -0.00000000000E+00 -0.00000000000E+00 -0.87614360746E+03  0.87614360746E+03  0.00000000000E+00 0.  1.
         23    2    1    2    0    0  0.10263127434E+04 -0.58759951549E+03  0.11257484053E+04  0.16352537959E+04  0.90302088595E+02 0.  0.
         11    1    3    3    0    0  0.36527291181E+03 -0.16974871824E+03  0.34762896746E+03  0.53205716466E+03  0.00000000000E+00 0. -1.
        -11    1    3    3    0    0  0.66103983158E+03 -0.41785079725E+03  0.77811943780E+03  0.11031966312E+04  0.00000000000E+00 0.  1.
         22    1    1    2    0    0 -0.10263127434E+04  0.58759951549E+03 -0.58705245775E+02  0.11840765785E+04  0.00000000000E+00 0.  1.
<mgrwt>
<rscale>  0 0.26096058E+04</rscale>
<asrwt>0</asrwt>
<pdfrwt beam="1">  1        2 0.29895181E+00 0.26096058E+04</pdfrwt>
<pdfrwt beam="2">  1       -2 0.13479133E+00 0.26096058E+04</pdfrwt>
<totfact> 0.25156157E+00</totfact>
</mgrwt>
</event>
<event>
 6    1  0.2003386E-005  0.3275218E+04  0.7818608E-02  0.8169230E-01
         -1   -1    0    0    0  501 -0.00000000000E+00  0.00000000000E+00  0.86975212567E+03  0.86975212567E+03  0.00000000000E+00 0.  1.
          1   -1    0    0  501    0  0.00000000000E+00 -0.00000000000E+00 -0.30833640915E+04  0.30833640915E+04  0.00000000000E+00 0. -1.
         23    2    1    2    0    0 -0.29823548958E+03 -0.48190265670E+03 -0.29604727413E+04  0.30155792335E+04  0.90247901052E+02 0.  0.
         11    1    3    3    0    0 -0.58505812087E+02 -0.80048611872E+02 -0.71737048542E+03  0.72418997761E+03  0.00000000000E+00 0.  1.
        -11    1    3    3    0    0 -0.23972967749E+03 -0.40185404483E+03 -0.22431022559E+04  0.22913892559E+04  0.00000000000E+00 0. -1.
         22    1    1    2    0    0  0.29823548958E+03  0.48190265670E+03  0.74686077550E+03  0.93753698367E+03  0.00000000000E+00 0.  1.
<mgrwt>
<rscale>  0 0.32752175E+04</rscale>
<asrwt>0</asrwt>
<pdfrwt beam="1">  1        1 0.47436371E+00 0.32752175E+04</pdfrwt>
<pdfrwt beam="2">  1       -1 0.13380802E+00 0.32752175E+04</pdfrwt>
<totfact> 0.20319411E-01</totfact>
</mgrwt>
</event>
<event>
 6    1  0.2003386E-005  0.2974870E+04  0.7818608E-02  0.8250943E-01
          2   -1    0    0  501    0  0.00000000000E+00  0.00000000000E+00  0.19699753994E+04  0.19699753994E+04  0.00000000000E+00 0. -1.
         -2   -1    0    0    0  501 -0.00000000000E+00 -0.00000000000E+00 -0.11230917244E+04  0.11230917244E+04  0.00000000000E+00 0.  1.
         23    2    1    2    0    0  0.12125358684E+04 -0.43905785734E+03  0.11916463531E+04  0.17581977151E+04  0.90681531874E+02 0.  0.
         11    1    3    3    0    0  0.51895015155E+03 -0.23569367429E+03  0.52144576808E+03  0.77250660641E+03  0.00000000000E+00 0. -1.
        -11    1    3    3    0    0  0.69358571681E+03 -0.20336418305E+03  0.67020058505E+03  0.98569110867E+03  0.00000000000E+00 0.  1.
         22    1    1    2    0    0 -0.12125358684E+04  0.43905785734E+03 -0.34476267819E+03  0.13348694088E+04  0.00000000000E+00 0.  1.
<mgrwt>
<rscale>  0 0.29748701E+04</rscale>
<asrwt>0</asrwt>
<pdfrwt beam="1">  1        2 0.30307314E+00 0.29748701E+04</pdfrwt>
<pdfrwt beam="2">  1       -2 0.17278334E+00 0.29748701E+04</pdfrwt>
<totfact> 0.12131282E+00</totfact>
</mgrwt>
</event>
<event>
 6    1  0.2003386E-005  0.2709840E+04  0.7818608E-02  0.8331819E-01
         -2   -1    0    0    0  501 -0.00000000000E+00  0.00000000000E+00  0.12604190516E+04  0.12604190516E+04  0.00000000000E+00 0.  1.
          2   -1    0    0  501    0  0.00000000000E+00 -0.00000000000E+00 -0.14565066999E+04  0.14565066999E+04  0.00000000000E+00 0. -1.
         23    2    1    2    0    0  0.41752537922E+03 -0.48808674959E+03  0.10963013809E+04  0.12737260009E+04  0.89135234904E+02 0.  0.
         13    1    3    3    0    0  0.12262519554E+03 -0.10111018218E+03  0.32522496045E+03  0.36198271011E+03  0.00000000000E+00 0. -1.
        -13    1    3    3    0    0  0.29490018369E+03 -0.38697656741E+03  0.77107642047E+03  0.91174329077E+03  0.00000000000E+00 0.  1.
         22    1    1    2    0    0 -0.41752537922E+03  0.48808674959E+03 -0.12923890291E+04  0.14431997506E+04  0.00000000000E+00 0. -1.
<mgrwt>
<rscale>  0 0.27098404E+04</rscale>
<asrwt>0</asrwt>
<pdfrwt beam="1">  1        2 0.22407795E+00 0.27098404E+04</pdfrwt>
<pdfrwt beam="2">  1       -2 0.19391063E+00 0.27098404E+04</pdfrwt>
<totfact> 0.17189001E+00</totfact>
</mgrwt>
</event>
<event>
 6    1  0.2003386E-005  0.1741727E+04  0.7818608E-02  0.8737917E-01
         -1   -1    0    0    0  501 -0.00000000000E+00  0.00000000000E+00  0.76093384167E+03  0.76093384167E+03  0.00000000000E+00 0.  1.
          1   -1    0    0  501    0  0.00000000000E+00 -0.00000000000E+00 -0.99667404566E+03  0.99667404566E+03  0.00000000000E+00 0. -1.
         23    2    1    2    0    0  0.53669338534E+03  0.53808816864E+03 -0.54226296095E+03  0.93813557686E+03  0.92035724871E+02 0.  0.
         13    1    3    3    0    0  0.46543210595E+03  0.50390453077E+03 -0.49665621175E+03  0.84688500640E+03  0.00000000000E+00 0.  1.
        -13    1    3    3    0    0  0.71261279386E+02  0.34183637870E+02 -0.45606749199E+02  0.91250570465E+02  0.00000000000E+00 0. -1.
         22    1    1    2    0    0 -0.53669338534E+03 -0.53808816864E+03  0.30652275696E+03  0.81947231047E+03  0.00000000000E+00 0.  1.
<mgrwt>
<rscale>  0 0.17417267E+04</rscale>
<asrwt>0</asrwt>
<pdfrwt beam="1">  1        1 0.15333447E+00 0.17417267E+04</pdfrwt>
<pdfrwt beam="2">  1       -1 0.11706675E+00 0.17417267E+04</pdfrwt>
<totfact> 0.94935262E+00</totfact>
</mgrwt>
</event>
<event>
 6    1  0.2003386E-005  0.2168748E+04  0.7818608E-02  0.8531550E-01
         -1   -1    0    0    0  501 -0.00000000000E+00  0.00000000000E+00  0.38961185933E+03  0.38961185933E+03  0.00000000000E+00 0.  1.
          1   -1    0    0  501    0  0.00000000000E+00 -0.00000000000E+00 -0.30180468651E+04  0.30180468651E+04  0.00000000000E+00 0. -1.
         23    2    1    2    0    0 -0.73159220383E+03  0.82355395646E+02 -0.25633528788E+04  0.26685746648E+04  0.92212778014E+02 0.  0.
         13    1    3    3    0    0 -0.13669272141E+03  0.47714123585E+02 -0.56586966016E+03  0.58409760312E+03  0.00000000000E+00 0. -1.
        -13    1    3    3    0    0 -0.59489948242E+03  0.34641272061E+02 -0.19974832187E+04  0.20844770617E+04  0.00000000000E+00 0.  1.
         22    1    1    2    0    0  0.73159220383E+03 -0.82355395646E+02 -0.65082126910E+02  0.73908405959E+03  0.00000000000E+00 0.  1.
<mgrwt>
<rscale>  0 0.21687479E+04</rscale>
<asrwt>0</asrwt>
<pdfrwt beam="1">  1        1 0.46431492E+00 0.21687479E+04</pdfrwt>
<pdfrwt beam="2">  1       -1 0.59940284E-01 0.21687479E+04</pdfrwt>
<totfact> 0.14976690E+00</totfact>
</mgrwt>
</event>
<event>
 6    1  0.2003386E-005  0.1082366E+04  0.7818608E-02  0.9222552E-01
          2   -1    0    0  501    0  0.00000000000E+00  0.00000000000E+00  0.67335039229E+03  0.67335039229E+03  0.00000000000E+00 0. -1.
         -2   -1    0    0    0  501 -0.00000000000E+00 -0.00000000000E+00 -0.43495784086E+03  0.43495784086E+03  0.00000000000E+00 0.  1.
         23    2    1    2    0    0  0.48631232778E+03  0.18398459616E+03 -0.18104854728E+02  0.52853161139E+03  0.93101378638E+02 0.  0.
         13    1    3    3    0    0  0.21090302006E+03  0.11231006371E+03  0.26749515157E+02  0.24043537768E+03  0.00000000000E+00 0. -1.
        -13    1    3    3    0    0  0.27540930772E+03  0.71674532452E+02 -0.44854369885E+02  0.28809623371E+03  0.00000000000E+00 0.  1.
         22    1    1    2    0    0 -0.48631232778E+03 -0.18398459616E+03  0.25649740615E+03  0.57977662176E+03  0.00000000000E+00 0. -1.
<mgrwt>
<rscale>  0 0.10823660E+04</rscale>
<asrwt>0</asrwt>
<pdfrwt beam="1">  1        2 0.10359237E+00 0.10823660E+04</pdfrwt>
<pdfrwt beam="2">  1       -2 0.66916591E-01 0.10823660E+04</pdfrwt>
<totfact> 0.87736988E+01</totfact>
</mgrwt>
</event>
<event>
 6    1  0.2003386E-005  0.2050148E+04  0.7818608E-02  0.8583527E-01
         -2   -1    0    0    0  501 -0.00000000000E+00  0.00000000000E+00  0.56279319118E+03  0.56279319118E+03  0.00000000000E+00 0.  1.
          2   -1    0    0  501    0  0.00000000000E+00 -0.00000000000E+00 -0.18670746519E+04  0.18670746519E+04  0.00000000000E+00 0. -1.
         23    2    1    2    0    0  0.97291414917E+03 -0.27604772543E+03 -0.46995316039E+03  0.11188117798E+04  0.90108474806E+02 0.  0.
         13    1    3    3    0    0  0.31837673704E+03 -0.81601795167E+02 -0.19892560939E+03  0.38417964253E+03  0.00000000000E+00 0.  1.
        -13    1    3    3    0    0  0.65453741212E+03 -0.19444593027E+03 -0.27102755100E+03  0.73463213724E+03  0.00000000000E+00 0. -1.
         22    1    1    2    0    0 -0.97291414917E+03  0.27604772543E+03 -0.83432830030E+03  0.13110560633E+04  0.00000000000E+00 0. -1.
<mgrwt>
<rscale>  0 0.20501482E+04</rscale>
<asrwt>0</asrwt>
<pdfrwt beam="1">  1        2 0.28724226E+00 0.20501482E+04</pdfrwt>
<pdfrwt beam="2">  1       -2 0.86583567E-01 0.20501482E+04</pdfrwt>
<totfact> 0.84646910E+00</totfact>
</mgrwt>
</event>
<event>
 6    1  0.2003386E-005  0.2002313E+04  0.7818608E-02  0.8605540E-01
          2   -1    0    0  501    0  0.00000000000E+00  0.00000000000E+00  0.17200107798E+04  0.17200107798E+04  0.00000000000E+00 0. -1.
         -2   -1    0    0    0  501 -0.00000000000E+00 -0.00000000000E+00 -0.58273706416E+03  0.58273706416E+03  0.00000000000E+00 0.  1.
         23    2    1    2    0    0  0.51126677742E+03  0.61206653133E+03 -0.12213911375E+03  0.81206349398E+03  0.92249654111E+02 0.  0.
         13    1    3    3    0    0  0.34229893784E+03  0.47328766063E+03 -0.83956256636E+02  0.59010035213E+03  0.00000000000E+00 0. -1.
        -13    1    3    3    0    0  0.16896783958E+03  0.13877887069E+03 -0.38182857110E+02  0.22196314185E+03  0.00000000000E+00 0.  1.
         22    1    1    2    0    0 -0.51126677742E+03 -0.61206653133E+03  0.12594128293E+04  0.14906843499E+04  0.00000000000E+00 0. -1.
<mgrwt>
<rscale>  0 0.20023127E+04</rscale>
<asrwt>0</asrwt>
<pdfrwt beam="1">  1        2 0.26461704E+00 0.20023127E+04</pdfrwt>
<pdfrwt beam="2">  1       -2 0.89651857E-01 0.20023127E+04</pdfrwt>
<totfact> 0.94674980E+00</totfact>
</mgrwt>
</event>
<event>
 6    1  0.2003386E-005  0.3401333E+04  0.7818608E-02  0.8137579E-01
         -2   -1    0    0    0  501 -0.00000000000E+00  0.00000000000E+00  0.10439055172E+04  0.10439055172E+04  0.00000000000E+00 0.  1.
          2   -1    0    0  501    0  0.00000000000E+00 -0.00000000000E+00 -0.27706212985E+04  0.27706212985E+04  0.00000000000E+00 0. -1.
         23    2    1    2    0    0 -0.21262947355E+02  0.61955167529E+03  0.91021639102E+03  0.11057064687E+04  0.98977396949E+02 0.  0.
         11    1    3    3    0    0 -0.56774739686E+02  0.47662680425E+03  0.71486178653E+03  0.86105972815E+03  0.00000000000E+00 0. -1.
        -11    1    3    3    0    0  0.35511792331E+02  0.14292487104E+03  0.19535460449E+03  0.24464674053E+03  0.00000000000E+00 0.  1.
         22    1    1    2    0    0  0.21262947355E+02 -0.61955167529E+03 -0.26369321723E+04  0.27088203471E+04  0.00000000000E+00 0. -1.
<mgrwt>
<rscale>  0 0.34013332E+04</rscale>
<asrwt>0</asrwt>
<pdfrwt beam="1">  1        2 0.42624942E+00 0.34013332E+04</pdfrwt>
<pdfrwt beam="2">  1       -2 0.16060085E+00 0.34013332E+04</pdfrwt>
<totfact> 0.49730271E-01</totfact>
</mgrwt>
</event>
<event>
 6    1  0.2003386E-005  0.1246047E+04  0.7818608E-02  0.9073480E-01
         -2   -1    0    0    0  501 -0.00000000000E+00  0.00000000000E+00  0.41026284527E+03  0.41026284527E+03  0.00000000000E+00 0.  1.
          2   -1    0    0  501    0  0.00000000000E+00 -0.00000000000E+00 -0.94612054989E+03  0.94612054989E+03  0.00000000000E+00 0. -1.
         23    2    1    2    0    0  0.24932333354E+03 -0.25313192408E+03  0.28683216976E+03  0.46024918364E+03  0.57608348284E+02 0.  0.
         13    1    3    3    0    0  0.12231442865E+03 -0.16150805301E+03  0.14713408050E+03  0.25038791562E+03  0.00000000000E+00 0. -1.
        -13    1    3    3    0    0  0.12700890489E+03 -0.91623871075E+02  0.13969808927E+03  0.20986126802E+03  0.00000000000E+00 0.  1.
         22    1    1    2    0    0 -0.24932333354E+03  0.25313192408E+03 -0.82268987438E+03  0.89613421152E+03  0.00000000000E+00 0. -1.
<mgrwt>
<rscale>  0 0.12460467E+04</rscale>
<asrwt>0</asrwt>
<pdfrwt beam="1">  1        2 0.14555701E+00 0.12460467E+04</pdfrwt>
<pdfrwt beam="2">  1       -2 0.63117361E-01 0.12460467E+04</pdfrwt>
<totfact> 0.62487141E+01</totfact>
</mgrwt>
</event>
<event>
 6    1  0.2003386E-005  0.9790158E+03  0.7818608E-02  0.9331864E-01
          2   -1    0    0  501    0  0.00000000000E+00  0.00000000000E+00  0.66305071366E+03  0.66305071366E+03  0.00000000000E+00 0. -1.
         -2   -1    0    0    0  501 -0.00000000000E+00 -0.00000000000E+00 -0.36138709906E+03  0.36138709906E+03  0.00000000000E+00 0.  1.
         23    2    1    2    0    0 -0.37138326580E+03  0.31071973854E+03  0.17436014454E+03  0.52375981289E+03  0.97214173653E+02 0.  0.
         11    1    3    3    0    0 -0.16196989778E+03  0.14512840532E+03  0.12929785199E+03  0.25301074355E+03  0.00000000000E+00 0. -1.
        -11    1    3    3    0    0 -0.20941336802E+03  0.16559133322E+03  0.45062292544E+02  0.27074906934E+03  0.00000000000E+00 0.  1.
         22    1    1    2    0    0  0.37138326580E+03 -0.31071973854E+03  0.12730347007E+03  0.50067799984E+03  0.00000000000E+00 0.  1.
<mgrwt>
<rscale>  0 0.97901578E+03</rscale>
<asrwt>0</asrwt>
<pdfrwt beam="1">  1        2 0.10200780E+00 0.97901578E+03</pdfrwt>
<pdfrwt beam="2">  1       -2 0.55598015E-01 0.97901578E+03</pdfrwt>
<totfact> 0.13331954E+02</totfact>
</mgrwt>
</event>
<event>
 6    1  0.2003386E-005  0.4679614E+03  0.7818608E-02  0.1022497E+00
         -2   -1    0    0    0  501 -0.00000000000E+00  0.00000000000E+00  0.46655351092E+02  0.46655351092E+02  0.00000000000E+00 0.  1.
          2   -1    0    0  501    0  0.00000000000E+00 -0.00000000000E+00 -0.11734340139E+04  0.11734340139E+04  0.00000000000E+00 0. -1.
         23    2    1    2    0    0  0.22361787221E+03 -0.19926915451E+01 -0.65177838652E+03  0.69508061643E+03  0.91176063843E+02 0.  0.
         11    1    3    3    0    0  0.12817369756E+03  0.36064497724E+02 -0.43975619727E+03  0.45947215125E+03  0.00000000000E+00 0.  1.
        -11    1    3    3    0    0  0.95444174649E+02 -0.38057189269E+02 -0.21202218925E+03  0.23560846518E+03  0.00000000000E+00 0. -1.
         22    1    1    2    0    0 -0.22361787221E+03  0.19926915451E+01 -0.47500027631E+03  0.52500874858E+03  0.00000000000E+00 0.  1.
<mgrwt>
<rscale>  0 0.46796143E+03</rscale>
<asrwt>0</asrwt>
<pdfrwt beam="1">  1        2 0.18052829E+00 0.46796143E+03</pdfrwt>
<pdfrwt beam="2">  1       -2 0.71777471E-02 0.46796143E+03</pdfrwt>
<totfact> 0.23191150E+03</totfact>
</mgrwt>
</event>
<event>
 6    1  0.2003386E-005  0.2694555E+04  0.7818608E-02  0.8336774E-01
          2   -1    0    0  501    0  0.00000000000E+00  0.00000000000E+00  0.11984948885E+04  0.11984948885E+04  0.00000000000E+00 0. -1.
         -2   -1    0    0    0  501 -0.00000000000E+00 -0.00000000000E+00 -0.15145296796E+04  0.15145296796E+04  0.00000000000E+00 0.  1.
         23    2    1    2    0    0  0.10802379740E+04  0.70732752358E+03  0.22418804039E+03  0.13133578171E+04  0.86152030628E+02 0.  0.
         13    1    3    3    0    0  0.12076495322E+03  0.78060367954E+02  0.52937669980E+02  0.15323182396E+03  0.00000000000E+00 0. -1.
        -13    1    3    3    0    0  0.95947302073E+03  0.62926715562E+03  0.17125037041E+03  0.11601259932E+04  0.00000000000E+00 0.  1.
         22    1    1    2    0    0 -0.10802379740E+04 -0.70732752358E+03 -0.54022283157E+03  0.13996667510E+04  0.00000000000E+00 0.  1.
<mgrwt>
<rscale>  0 0.26945546E+04</rscale>
<asrwt>0</asrwt>
<pdfrwt beam="1">  1        2 0.18438383E+00 0.26945546E+04</pdfrwt>
<pdfrwt beam="2">  1       -2 0.23300457E+00 0.26945546E+04</pdfrwt>
<totfact> 0.13639631E+00</totfact>
</mgrwt>
</event>
<event>
 6    1  0.2003386E-005  0.1368972E+04  0.7818608E-02  0.8976590E-01
          1   -1    0    0  501    0  0.00000000000E+00  0.00000000000E+00  0.19301241374E+04  0.19301241374E+04  0.00000000000E+00 0. -1.
         -1   -1    0    0    0  501 -0.00000000000E+00 -0.00000000000E+00 -0.24274141913E+03  0.24274141913E+03  0.00000000000E+00 0.  1.
         23    2    1    2    0    0 -0.30019778840E+03  0.43221354449E+03  0.16019806674E+03  0.55755746825E+03  0.90992579991E+02 0.  0.
         11    1    3    3    0    0 -0.22195585416E+03  0.32012650251E+03  0.75631766585E+02  0.39681928245E+03  0.00000000000E+00 0.  1.
        -11    1    3    3    0    0 -0.78241934237E+02  0.11208704198E+03  0.84566300153E+02  0.16073818580E+03  0.00000000000E+00 0. -1.
         22    1    1    2    0    0  0.30019778840E+03 -0.43221354449E+03  0.15271846515E+04  0.16153080883E+04  0.00000000000E+00 0. -1.
<mgrwt>
<rscale>  0 0.13689720E+04</rscale>
<asrwt>0</asrwt>
<pdfrwt beam="1">  1        1 0.29694216E+00 0.13689720E+04</pdfrwt>
<pdfrwt beam="2">  1       -1 0.37344835E-01 0.13689720E+04</pdfrwt>
<totfact> 0.22444058E+01</totfact>
</mgrwt>
</event>
<event>
 6    1  0.2003386E-005  0.3361620E+04  0.7818608E-02  0.8147391E-01
         -2   -1    0    0    0  501 -0.00000000000E+00  0.00000000000E+00  0.12810435835E+04  0.12810435835E+04  0.00000000000E+00 0.  1.
          2   -1    0    0  501    0  0.00000000000E+00 -0.00000000000E+00 -0.22053289960E+04  0.22053289960E+04  0.00000000000E+00 0. -1.
         23    2    1    2    0    0  0.36202118572E+03  0.19883434884E+03  0.12259162138E+04  0.12968608826E+04  0.91559535082E+02 0.  0.
         11    1    3    3    0    0  0.34939508466E+02  0.34273394176E+02  0.24490901097E+03  0.24975159350E+03  0.00000000000E+00 0.  1.
        -11    1    3    3    0    0  0.32708167725E+03  0.16456095466E+03  0.98100720282E+03  0.10471092891E+04  0.00000000000E+00 0. -1.
         22    1    1    2    0    0 -0.36202118572E+03 -0.19883434884E+03 -0.21502016263E+04  0.21895116969E+04  0.00000000000E+00 0. -1.
<mgrwt>
<rscale>  0 0.33616202E+04</rscale>
<asrwt>0</asrwt>
<pdfrwt beam="1">  1        2 0.33928138E+00 0.33616202E+04</pdfrwt>
<pdfrwt beam="2">  1       -2 0.19708363E+00 0.33616202E+04</pdfrwt>
<totfact> 0.59248530E-01</totfact>
</mgrwt>
</event>
<event>
 6    1  0.2003386E-005  0.4703469E+04  0.7818608E-02  0.7875952E-01
         -2   -1    0    0    0  501 -0.00000000000E+00  0.00000000000E+00  0.26903822616E+04  0.26903822616E+04  0.00000000000E+00 0.  1.
          2   -1    0    0  501    0  0.00000000000E+00 -0.00000000000E+00 -0.20557134844E+04  0.20557134844E+04  0.00000000000E+00 0. -1.
         23    2    1    2    0    0 -0.66515991558E+03 -0.55572841885E+03  0.25224627893E+04  0.26688287864E+04  0.92502860194E+02 0.  0.
         11    1    3    3    0    0 -0.32133487092E+03 -0.31228842318E+03  0.13970362278E+04  0.14671367967E+04  0.00000000000E+00 0. -1.
        -11    1    3    3    0    0 -0.34382504466E+03 -0.24343999567E+03  0.11254265615E+04  0.12016919897E+04  0.00000000000E+00 0.  1.
         22    1    1    2    0    0  0.66515991558E+03  0.55572841885E+03 -0.18877940121E+04  0.20772669595E+04  0.00000000000E+00 0. -1.
<mgrwt>
<rscale>  0 0.47034690E+04</rscale>
<asrwt>0</asrwt>
<pdfrwt beam="1">  1        2 0.31626361E+00 0.47034690E+04</pdfrwt>
<pdfrwt beam="2">  1       -2 0.41390497E+00 0.47034690E+04</pdfrwt>
<totfact> 0.27905752E-02</totfact>
</mgrwt>
</event>
<event>
 6    1  0.2003386E-005  0.1782635E+04  0.7818608E-02  0.8715589E-01
          2   -1    0    0  501    0  0.00000000000E+00  0.00000000000E+00  0.97496425984E+03  0.97496425984E+03  0.00000000000E+00 0. -1.
         -2   -1    0    0    0  501 -0.00000000000E+00 -0.00000000000E+00 -0.81484721720E+03  0.81484721720E+03  0.00000000000E+00 0.  1.
         23    2    1    2    0    0 -0.63698138911E+03 -0.15338844389E+03 -0.52292474976E+03  0.84333411601E+03  0.92134860500E+02 0.  0.
         13    1    3    3    0    0 -0.40924251546E+03 -0.12772725836E+03 -0.38257692782E+03  0.57459446107E+03  0.00000000000E+00 0.  1.
        -13    1    3    3    0    0 -0.22773887365E+03 -0.25661185527E+02 -0.14034782194E+03  0.26873965494E+03  0.00000000000E+00 0. -1.
         22    1    1    2    0    0  0.63698138911E+03  0.15338844389E+03  0.68304179240E+03  0.94647736104E+03  0.00000000000E+00 0. -1.
<mgrwt>
<rscale>  0 0.17826350E+04</rscale>
<asrwt>0</asrwt>
<pdfrwt beam="1">  1        2 0.14999450E+00 0.17826350E+04</pdfrwt>
<pdfrwt beam="2">  1       -2 0.12536111E+00 0.17826350E+04</pdfrwt>
<totfact> 0.11766379E+01</totfact>
</mgrwt>
</event>
<event>
 6    1  0.2003386E-005  0.3277594E+04  0.7818608E-02  0.8168620E-01
         -2   -1    0    0    0  501 -0.00000000000E+00  0.00000000000E+00  0.15726456250E+04  0.15726456250E+04  0.00000000000E+00 0.  1.
          2   -1    0    0  501    0  0.00000000000E+00 -0.00000000000E+00 -0.17077306309E+04  0.17077306309E+04  0.00000000000E+00 0. -1.
         23    2    1    2    0    0  0.12757576919E+04 -0.45942250592E+03 -0.98655541361E+03  0.16792427254E+04  0.89094439578E+02 0.  0.
         11    1    3    3    0    0  0.26072393908E+03 -0.57866160987E+02 -0.18154143132E+03  0.32292840737E+03  0.00000000000E+00 0. -1.
        -11    1    3    3    0    0  0.10150337528E+04 -0.40155634493E+03 -0.80501398229E+03  0.13563143180E+04  0.00000000000E+00 0.  1.
         22    1    1    2    0    0 -0.12757576919E+04  0.45942250592E+03  0.85147040764E+03  0.16011335305E+04  0.00000000000E+00 0.  1.
<mgrwt>
<rscale>  0 0.32775937E+04</rscale>
<asrwt>0</asrwt>
<pdfrwt beam="1">  1        2 0.26272779E+00 0.32775937E+04</pdfrwt>
<pdfrwt beam="2">  1       -2 0.24194548E+00 0.32775937E+04</pdfrwt>
<totfact> 0.58542414E-01</totfact>
</mgrwt>
</event>
<event>
 6    1  0.2003386E-005  0.1626034E+04  0.7818608E-02  0.8804712E-01
          2   -1    0    0  501    0  0.00000000000E+00  0.00000000000E+00  0.25558484431E+04  0.25558484431E+04  0.00000000000E+00 0. -1.
         -2   -1    0    0    0  501 -0.00000000000E+00 -0.00000000000E+00 -0.25862129161E+03  0.25862129161E+03  0.00000000000E+00 0.  1.
         23    2    1    2    0    0 -0.11737965648E+03  0.75808581531E+03  0.16050263753E+04  0.17812156509E+04  0.90263184715E+02 0.  0.
         13    1    3    3    0    0 -0.42530495447E+02  0.29223687476E+03  0.72150992026E+03  0.77960746472E+03  0.00000000000E+00 0.  1.
        -13    1    3    3    0    0 -0.74849161032E+02  0.46584894056E+03  0.88351645500E+03  0.10016081862E+04  0.00000000000E+00 0. -1.
         22    1    1    2    0    0  0.11737965648E+03 -0.75808581531E+03  0.69220077619E+03  0.10332540838E+04  0.00000000000E+00 0.  1.
<mgrwt>
<rscale>  0 0.16260342E+04</rscale>
<asrwt>0</asrwt>
<pdfrwt beam="1">  1        2 0.39320744E+00 0.16260342E+04</pdfrwt>
<pdfrwt beam="2">  1       -2 0.39787893E-01 0.16260342E+04</pdfrwt>
<totfact> 0.18516680E+01</totfact>
</mgrwt>
</event>
<event>
 6    1  0.2003386E-005  0.6382897E+03  0.7818608E-02  0.9829004E-01
          2   -1    0    0  501    0  0.00000000000E+00  0.00000000000E+00  0.50612623321E+03  0.50612623321E+03  0.00000000000E+00 0.  1.
         -2   -1    0    0    0  501 -0.00000000000E+00 -0.00000000000E+00 -0.20124113981E+03  0.20124113981E+03  0.00000000000E+00 0. -1.
         23    2    1    2    0    0 -0.25244816755E+03  0.62769690176E+01  0.36068868483E+03  0.44874889251E+03  0.86658891787E+02 0.  0.
         13    1    3    3    0    0 -0.21668216142E+03  0.30769252222E+02  0.26493402308E+03  0.34363926223E+03  0.00000000000E+00 0. -1.
        -13    1    3    3    0    0 -0.35766006132E+02 -0.24492283204E+02  0.95754661755E+02  0.10510963029E+03  0.00000000000E+00 0.  1.
         22    1    1    2    0    0  0.25244816755E+03 -0.62769690176E+01 -0.55803591438E+02  0.25861848050E+03  0.00000000000E+00 0. -1.
<mgrwt>
<rscale>  0 0.63828965E+03</rscale>
<asrwt>0</asrwt>
<pdfrwt beam="1">  1        2 0.77865574E-01 0.63828965E+03</pdfrwt>
<pdfrwt beam="2">  1       -2 0.30960176E-01 0.63828965E+03</pdfrwt>
<totfact> 0.59049461E+02</totfact>
</mgrwt>
</event>
<event>
 6    1  0.2003386E-005  0.1524811E+04  0.7818608E-02  0.8868119E-01
          4   -1    0    0  501    0  0.00000000000E+00  0.00000000000E+00  0.79541554309E+03  0.79541554309E+03  0.00000000000E+00 0.  1.
         -4   -1    0    0    0  501 -0.00000000000E+00 -0.00000000000E+00 -0.73076581225E+03  0.73076581225E+03  0.00000000000E+00 0. -1.
         23    2    1    2    0    0  0.19457790910E+03  0.41570660279E+03  0.63845664350E+03  0.79138416200E+03  0.89383801249E+02 0.  0.
         13    1    3    3    0    0  0.27604517339E+02  0.15744350333E+03  0.23021060374E+03  0.28026306962E+03  0.00000000000E+00 0. -1.
        -13    1    3    3    0    0  0.16697339176E+03  0.25826309946E+03  0.40824603976E+03  0.51112109238E+03  0.00000000000E+00 0.  1.
         22    1    1    2    0    0 -0.19457790910E+03 -0.41570660279E+03 -0.57380691267E+03  0.73479719334E+03  0.00000000000E+00 0. -1.
<mgrwt>
<rscale>  0 0.15248114E+04</rscale>
<asrwt>0</asrwt>
<pdfrwt beam="1">  1        4 0.12237162E+00 0.15248114E+04</pdfrwt>
<pdfrwt beam="2">  1       -4 0.11242551E+00 0.15248114E+04</pdfrwt>
<totfact> 0.60447973E-01</totfact>
</mgrwt>
</event>
<event>
 6    1  0.2003386E-005  0.5841178E+03  0.7818608E-02  0.9938916E-01
         -2   -1    0    0    0  501 -0.00000000000E+00  0.00000000000E+00  0.36511351714E+03  0.36511351714E+03  0.00000000000E+00 0.  1.
          2   -1    0    0  501    0  0.00000000000E+00 -0.00000000000E+00 -0.23362162669E+03  0.23362162669E+03  0.00000000000E+00 0. -1.
         23    2    1    2    0    0  0.44562588808E+01  0.89172378941E+02  0.34455089235E+03  0.36772494989E+03  0.92383710390E+02 0.  0.
         11    1    3    3    0    0 -0.42609063619E+02  0.52075349480E+02  0.20772430391E+03  0.21835008761E+03  0.00000000000E+00 0. -1.
        -11    1    3    3    0    0  0.47065322500E+02  0.37097029461E+02  0.13682658844E+03  0.14937486228E+03  0.00000000000E+00 0.  1.
         22    1    1    2    0    0 -0.44562588808E+01 -0.89172378941E+02 -0.21305900190E+03  0.23101019393E+03  0.00000000000E+00 0. -1.
<mgrwt>
<rscale>  0 0.58411784E+03</rscale>
<asrwt>0</asrwt>
<pdfrwt beam="1">  1        2 0.35941788E-01 0.58411784E+03</pdfrwt>
<pdfrwt beam="2">  1       -2 0.56171311E-01 0.58411784E+03</pdfrwt>
<totfact> 0.43593658E+02</totfact>
</mgrwt>
</event>
<event>
 6    1  0.2003386E-005  0.5163114E+04  0.7818608E-02  0.7803826E-01
          2   -1    0    0  501    0  0.00000000000E+00  0.00000000000E+00  0.42613321698E+04  0.42613321698E+04  0.00000000000E+00 0. -1.
         -2   -1    0    0    0  501 -0.00000000000E+00 -0.00000000000E+00 -0.15639324113E+04  0.15639324113E+04  0.00000000000E+00 0.  1.
         23    2    1    2    0    0 -0.42120231001E+03  0.12766132482E+04  0.38346050481E+04  0.40644725315E+04  0.92673153103E+02 0.  0.
         11    1    3    3    0    0 -0.19861312916E+03  0.66711702460E+03  0.18589333807E+04  0.19849749655E+04  0.00000000000E+00 0. -1.
        -11    1    3    3    0    0 -0.22258918085E+03  0.60949622362E+03  0.19756716673E+04  0.20794975661E+04  0.00000000000E+00 0.  1.
         22    1    1    2    0    0  0.42120231001E+03 -0.12766132482E+04 -0.11372052896E+04  0.17607920497E+04  0.00000000000E+00 0.  1.
<mgrwt>
<rscale>  0 0.51631136E+04</rscale>
<asrwt>0</asrwt>
<pdfrwt beam="1">  1        2 0.65558956E+00 0.51631136E+04</pdfrwt>
<pdfrwt beam="2">  1       -2 0.24060499E+00 0.51631136E+04</pdfrwt>
<totfact> 0.10763693E-02</totfact>
</mgrwt>
</event>
<event>
 6    1  0.2003386E-005  0.7954856E+03  0.7818608E-02  0.9566575E-01
         -2   -1    0    0    0  501 -0.00000000000E+00  0.00000000000E+00  0.86722676707E+02  0.86722676707E+02  0.00000000000E+00 0.  1.
          2   -1    0    0  501    0  0.00000000000E+00 -0.00000000000E+00 -0.18241982176E+04  0.18241982176E+04  0.00000000000E+00 0. -1.
         23    2    1    2    0    0 -0.24407434751E+03  0.30743997269E+03 -0.85833676792E+03  0.94812465104E+03  0.90037341250E+02 0.  0.
         13    1    3    3    0    0 -0.23880717924E+03  0.26264053237E+03 -0.79189887261E+03  0.86782068571E+03  0.00000000000E+00 0. -1.
        -13    1    3    3    0    0 -0.52671682741E+01  0.44799440317E+02 -0.66437895308E+02  0.80303965327E+02  0.00000000000E+00 0.  1.
         22    1    1    2    0    0  0.24407434751E+03 -0.30743997269E+03 -0.87913877302E+03  0.96279624332E+03  0.00000000000E+00 0. -1.
<mgrwt>
<rscale>  0 0.79548564E+03</rscale>
<asrwt>0</asrwt>
<pdfrwt beam="1">  1        2 0.28064586E+00 0.79548564E+03</pdfrwt>
<pdfrwt beam="2">  1       -2 0.13341951E-01 0.79548564E+03</pdfrwt>
<totfact> 0.36271548E+02</totfact>
</mgrwt>
</event>
<event>
 6    1  0.2003386E-005  0.1513005E+04  0.7818608E-02  0.8875851E-01
         -2   -1    0    0    0  501 -0.00000000000E+00  0.00000000000E+00  0.68422211788E+03  0.68422211788E+03  0.00000000000E+00 0.  1.
          2   -1    0    0  501    0  0.00000000000E+00 -0.00000000000E+00 -0.83641796104E+03  0.83641796104E+03  0.00000000000E+00 0. -1.
         23    2    1    2    0    0 -0.34600336628E+03 -0.56600646744E+03 -0.43570615331E+03  0.79921111732E+03  0.93898388480E+02 0.  0.
         13    1    3    3    0    0 -0.22430471578E+03 -0.31147952264E+03 -0.20744249146E+03  0.43630778793E+03  0.00000000000E+00 0. -1.
        -13    1    3    3    0    0 -0.12169865050E+03 -0.25452694480E+03 -0.22826366185E+03  0.36290332939E+03  0.00000000000E+00 0.  1.
         22    1    1    2    0    0  0.34600336628E+03  0.56600646744E+03  0.28351031015E+03  0.72142896159E+03  0.00000000000E+00 0.  1.
<mgrwt>
<rscale>  0 0.15130045E+04</rscale>
<asrwt>0</asrwt>
<pdfrwt beam="1">  1        2 0.12867969E+00 0.15130045E+04</pdfrwt>
<pdfrwt beam="2">  1       -2 0.10526494E+00 0.15130045E+04</pdfrwt>
<totfact> 0.22884551E+01</totfact>
</mgrwt>
</event>
<event>
 6    1  0.2003386E-005  0.3361480E+04  0.7818608E-02  0.8147426E-01
         -1   -1    0    0    0  501 -0.00000000000E+00  0.00000000000E+00  0.12737000176E+04  0.12737000176E+04  0.00000000000E+00 0.  1.
          1   -1    0    0  501    0  0.00000000000E+00 -0.00000000000E+00 -0.22178582786E+04  0.22178582786E+04  0.00000000000E+00 0. -1.
         23    2    1    2    0    0 -0.95496066518E+03 -0.31804081362E+03  0.92402618879E+03  0.13694807837E+04  0.92484528749E+02 0.  0.
         13    1    3    3    0    0 -0.57328930351E+03 -0.18621429897E+03  0.49145881786E+03  0.77773270493E+03  0.00000000000E+00 0.  1.
        -13    1    3    3    0    0 -0.38167136167E+03 -0.13182651465E+03  0.43256737093E+03  0.59174807873E+03  0.00000000000E+00 0. -1.
         22    1    1    2    0    0  0.95496066518E+03  0.31804081362E+03 -0.18681844498E+04  0.21220775126E+04  0.00000000000E+00 0. -1.
<mgrwt>
<rscale>  0 0.33614795E+04</rscale>
<asrwt>0</asrwt>
<pdfrwt beam="1">  1        1 0.34120896E+00 0.33614795E+04</pdfrwt>
<pdfrwt beam="2">  1       -1 0.19595385E+00 0.33614795E+04</pdfrwt>
<totfact> 0.28067463E-01</totfact>
</mgrwt>
</event>
<event>
 6    1  0.2003386E-005  0.1433121E+04  0.7818608E-02  0.8930187E-01
          2   -1    0    0  501    0  0.00000000000E+00  0.00000000000E+00  0.65505932600E+03  0.65505932600E+03  0.00000000000E+00 0. -1.
         -2   -1    0    0    0  501 -0.00000000000E+00 -0.00000000000E+00 -0.78383599102E+03  0.78383599102E+03  0.00000000000E+00 0.  1.
         23    2    1    2    0    0  0.40917530539E+03 -0.58121728599E+03  0.30173249204E+00  0.71646940609E+03  0.89946399270E+02 0.  0.
         11    1    3    3    0    0  0.24164818917E+03 -0.27137639340E+03 -0.17458703334E+02  0.36379087474E+03  0.00000000000E+00 0. -1.
        -11    1    3    3    0    0  0.16752711622E+03 -0.30984089259E+03  0.17760435826E+02  0.35267853134E+03  0.00000000000E+00 0.  1.
         22    1    1    2    0    0 -0.40917530539E+03  0.58121728599E+03 -0.12907839751E+03  0.72242591093E+03  0.00000000000E+00 0.  1.
<mgrwt>
<rscale>  0 0.14331212E+04</rscale>
<asrwt>0</asrwt>
<pdfrwt beam="1">  1        2 0.10077836E+00 0.14331212E+04</pdfrwt>
<pdfrwt beam="2">  1       -2 0.12059015E+00 0.14331212E+04</pdfrwt>
<totfact> 0.22677492E+01</totfact>
</mgrwt>
</event>
<event>
 6    1  0.2003386E-005  0.1847131E+04  0.7818608E-02  0.8681630E-01
          2   -1    0    0  501    0  0.00000000000E+00  0.00000000000E+00  0.18789078341E+04  0.18789078341E+04  0.00000000000E+00 0. -1.
         -2   -1    0    0    0  501 -0.00000000000E+00 -0.00000000000E+00 -0.45397281988E+03  0.45397281988E+03  0.00000000000E+00 0.  1.
         23    2    1    2    0    0  0.67502074188E+03  0.49473876560E+03  0.22859880874E+03  0.87286703599E+03  0.96020825983E+02 0.  0.
         11    1    3    3    0    0  0.33318910981E+03  0.22171453951E+03  0.63263668129E+02  0.40518466362E+03  0.00000000000E+00 0. -1.
        -11    1    3    3    0    0  0.34183163206E+03  0.27302422608E+03  0.16533514061E+03  0.46768237237E+03  0.00000000000E+00 0.  1.
         22    1    1    2    0    0 -0.67502074188E+03 -0.49473876560E+03  0.11963362055E+04  0.14600136180E+04  0.00000000000E+00 0. -1.
<mgrwt>
<rscale>  0 0.18471308E+04</rscale>
<asrwt>0</asrwt>
<pdfrwt beam="1">  1        2 0.28906274E+00 0.18471308E+04</pdfrwt>
<pdfrwt beam="2">  1       -2 0.69841973E-01 0.18471308E+04</pdfrwt>
<totfact> 0.13705030E+01</totfact>
</mgrwt>
</event>
<event>
 6    1  0.2003386E-005  0.2111723E+04  0.7818608E-02  0.8556097E-01
         -2   -1    0    0    0  501 -0.00000000000E+00  0.00000000000E+00  0.51364505253E+03  0.51364505253E+03  0.00000000000E+00 0.  1.
          2   -1    0    0  501    0  0.00000000000E+00 -0.00000000000E+00 -0.21704545735E+04  0.21704545735E+04  0.00000000000E+00 0. -1.
         23    2    1    2    0    0 -0.51583844013E+03 -0.66187916653E+03 -0.19754725997E+02  0.84450137393E+03  0.92838537127E+02 0.  0.
         13    1    3    3    0    0 -0.18395011185E+03 -0.16823292002E+03  0.14231911973E+01  0.24928294065E+03  0.00000000000E+00 0. -1.
        -13    1    3    3    0    0 -0.33188832829E+03 -0.49364624650E+03 -0.21177917194E+02  0.59521843328E+03  0.00000000000E+00 0.  1.
         22    1    1    2    0    0  0.51583844013E+03  0.66187916653E+03 -0.16370547950E+04  0.18395982521E+04  0.00000000000E+00 0. -1.
<mgrwt>
<rscale>  0 0.21117228E+04</rscale>
<asrwt>0</asrwt>
<pdfrwt beam="1">  1        2 0.33391609E+00 0.21117228E+04</pdfrwt>
<pdfrwt beam="2">  1       -2 0.79022316E-01 0.21117228E+04</pdfrwt>
<totfact> 0.70187959E+00</totfact>
</mgrwt>
</event>
<event>
 6    1  0.2003386E-005  0.1121334E+04  0.7818608E-02  0.9184645E-01
         -2   -1    0    0    0  501 -0.00000000000E+00  0.00000000000E+00  0.13051498681E+04  0.13051498681E+04  0.00000000000E+00 0.  1.
          2   -1    0    0  501    0  0.00000000000E+00 -0.00000000000E+00 -0.24085146618E+03  0.24085146618E+03  0.00000000000E+00 0. -1.
         23    2    1    2    0    0  0.97598489004E+02  0.41338198040E+03  0.38703418631E+02  0.43593142814E+03  0.90156134841E+02 0.  0.
         13    1    3    3    0    0 -0.83374046704E+01  0.34868011345E+02 -0.15676764005E+02  0.39128652692E+02  0.00000000000E+00 0.  1.
        -13    1    3    3    0    0  0.10593589367E+03  0.37851396906E+03  0.54380182636E+02  0.39680277545E+03  0.00000000000E+00 0. -1.
         22    1    1    2    0    0 -0.97598489004E+02 -0.41338198040E+03  0.10255949833E+04  0.11100699062E+04  0.00000000000E+00 0.  1.
<mgrwt>
<rscale>  0 0.11213336E+04</rscale>
<asrwt>0</asrwt>
<pdfrwt beam="1">  1        2 0.37054072E-01 0.11213336E+04</pdfrwt>
<pdfrwt beam="2">  1       -2 0.20079228E+00 0.11213336E+04</pdfrwt>
<totfact> 0.18285417E+01</totfact>
</mgrwt>
</event>
<event>
 6    1  0.2003386E-005  0.1194569E+04  0.7818608E-02  0.9117624E-01
         -1   -1    0    0    0  501 -0.00000000000E+00  0.00000000000E+00  0.10134039158E+04  0.10134039158E+04  0.00000000000E+00 0.  1.
          1   -1    0    0  501    0  0.00000000000E+00 -0.00000000000E+00 -0.35203015768E+03  0.35203015768E+03  0.00000000000E+00 0. -1.
         23    2    1    2    0    0  0.18432962574E+03  0.13084261334E+03 -0.29498175844E+03  0.38272705995E+03  0.91479856882E+02 0.  0.
         11    1    3    3    0    0  0.13340272678E+03  0.40253746426E+02 -0.15570175569E+03  0.20894900894E+03  0.00000000000E+00 0.  1.
        -11    1    3    3    0    0  0.50926898968E+02  0.90588866917E+02 -0.13928000274E+03  0.17377805101E+03  0.00000000000E+00 0. -1.
         22    1    1    2    0    0 -0.18432962574E+03 -0.13084261334E+03  0.95635551658E+03  0.98270701355E+03  0.00000000000E+00 0.  1.
<mgrwt>
<rscale>  0 0.11945689E+04</rscale>
<asrwt>0</asrwt>
<pdfrwt beam="1">  1        1 0.54158486E-01 0.11945689E+04</pdfrwt>
<pdfrwt beam="2">  1       -1 0.15590829E+00 0.11945689E+04</pdfrwt>
<totfact> 0.22099632E+01</totfact>
</mgrwt>
</event>
<event>
 6    1  0.2003386E-005  0.1623478E+04  0.7818608E-02  0.8806253E-01
         -2   -1    0    0    0  501 -0.00000000000E+00  0.00000000000E+00  0.34238217651E+03  0.34238217651E+03  0.00000000000E+00 0. -1.
          2   -1    0    0  501    0  0.00000000000E+00 -0.00000000000E+00 -0.19245168781E+04  0.19245168781E+04  0.00000000000E+00 0.  1.
         23    2    1    2    0    0 -0.18097977425E+02  0.27412302738E+03 -0.18563271804E+04  0.18787592777E+04  0.91185810991E+02 0.  0.
         13    1    3    3    0    0 -0.10860221397E+02  0.18938705465E+03 -0.97098352195E+03  0.98934038671E+03  0.00000000000E+00 0. -1.
        -13    1    3    3    0    0 -0.72377560279E+01  0.84735972728E+02 -0.88534365841E+03  0.88941889101E+03  0.00000000000E+00 0.  1.
         22    1    1    2    0    0  0.18097977425E+02 -0.27412302738E+03  0.27419247883E+03  0.38813977685E+03  0.00000000000E+00 0. -1.
<mgrwt>
<rscale>  0 0.16234781E+04</rscale>
<asrwt>0</asrwt>
<pdfrwt beam="1">  1        2 0.29607952E+00 0.16234781E+04</pdfrwt>
<pdfrwt beam="2">  1       -2 0.52674181E-01 0.16234781E+04</pdfrwt>
<totfact> 0.23953781E+01</totfact>
</mgrwt>
</event>
<event>
 6    1  0.2003386E-005  0.1057626E+04  0.7818608E-02  0.9247506E-01
         -2   -1    0    0    0  501 -0.00000000000E+00  0.00000000000E+00  0.51948955251E+03  0.51948955251E+03  0.00000000000E+00 0.  1.
          2   -1    0    0  501    0  0.00000000000E+00 -0.00000000000E+00 -0.53830387985E+03  0.53830387985E+03  0.00000000000E+00 0. -1.
         23    2    1    2    0    0  0.51987445821E+03 -0.69956395667E+02 -0.18430251653E+02  0.53323314307E+03  0.93992345953E+02 0.  0.
         11    1    3    3    0    0  0.41290358428E+03 -0.74686233282E+02 -0.47494647449E+02  0.42228325197E+03  0.00000000000E+00 0.  1.
        -11    1    3    3    0    0  0.10697087392E+03  0.47298376157E+01  0.29064395796E+02  0.11094989110E+03  0.00000000000E+00 0. -1.
         22    1    1    2    0    0 -0.51987445821E+03  0.69956395667E+02 -0.38407569503E+00  0.52456028929E+03  0.00000000000E+00 0.  1.
<mgrwt>
<rscale>  0 0.10576261E+04</rscale>
<asrwt>0</asrwt>
<pdfrwt beam="1">  1        2 0.82815981E-01 0.10576261E+04</pdfrwt>
<pdfrwt beam="2">  1       -2 0.79921470E-01 0.10576261E+04</pdfrwt>
<totfact> 0.77916987E+01</totfact>
</mgrwt>
</event>
<event>
 6    1  0.2115848E-005  0.4030082E+04  0.7818608E-02  0.7998505E-01
          2   -1    0    0  501    0  0.00000000000E+00  0.00000000000E+00  0.18773098859E+04  0.18773098859E+04  0.00000000000E+00 0. -1.
         -2   -1    0    0    0  501 -0.00000000000E+00 -0.00000000000E+00 -0.21628765793E+04  0.21628765793E+04  0.00000000000E+00 0.  1.
         23    2    1    2    0    0  0.10535367241E+04  0.11891327018E+03 -0.18595154698E+04  0.21424523569E+04  0.90688060578E+02 0.  0.
         11    1    3    3    0    0  0.31660502616E+03  0.76201017188E+02 -0.59219995212E+03  0.67582994969E+03  0.00000000000E+00 0. -1.
        -11    1    3    3    0    0  0.73693169798E+03  0.42712252989E+02 -0.12673155176E+04  0.14666224072E+04  0.00000000000E+00 0.  1.
         22    1    1    2    0    0 -0.10535367241E+04 -0.11891327018E+03  0.15739487764E+04  0.18977341083E+04  0.00000000000E+00 0. -1.
<mgrwt>
<rscale>  0 0.40300817E+04</rscale>
<asrwt>0</asrwt>
<pdfrwt beam="1">  1        2 0.28881691E+00 0.40300817E+04</pdfrwt>
<pdfrwt beam="2">  1       -2 0.33275024E+00 0.40300817E+04</pdfrwt>
<totfact> 0.12274972E-01</totfact>
</mgrwt>
</event>
<event>
 6    1  0.2003386E-005  0.2387483E+04  0.7818608E-02  0.8444205E-01
         -2   -1    0    0    0  501 -0.00000000000E+00  0.00000000000E+00  0.11901210601E+04  0.11901210601E+04  0.00000000000E+00 0.  1.
          2   -1    0    0  501    0  0.00000000000E+00 -0.00000000000E+00 -0.11973730726E+04  0.11973730726E+04  0.00000000000E+00 0. -1.
         23    2    1    2    0    0  0.78618540615E+02 -0.56058118582E+03  0.10454181450E+04  0.11922759094E+04  0.90501963791E+02 0.  0.
         11    1    3    3    0    0  0.58551648485E+02 -0.53615572967E+03  0.95903763603E+03  0.11002928925E+04  0.00000000000E+00 0. -1.
        -11    1    3    3    0    0  0.20066892130E+02 -0.24425456149E+02  0.86380508961E+02  0.91983016890E+02  0.00000000000E+00 0.  1.
         22    1    1    2    0    0 -0.78618540615E+02  0.56058118582E+03 -0.10526701575E+04  0.11952182233E+04  0.00000000000E+00 0. -1.
<mgrwt>
<rscale>  0 0.23874831E+04</rscale>
<asrwt>0</asrwt>
<pdfrwt beam="1">  1        2 0.18421124E+00 0.23874831E+04</pdfrwt>
<pdfrwt beam="2">  1       -2 0.18309555E+00 0.23874831E+04</pdfrwt>
<totfact> 0.29542279E+00</totfact>
</mgrwt>
</event>
<event>
 6    1  0.2003386E-005  0.1200262E+04  0.7818608E-02  0.9112627E-01
          1   -1    0    0  501    0  0.00000000000E+00  0.00000000000E+00  0.82978043449E+03  0.82978043449E+03  0.00000000000E+00 0.  1.
         -1   -1    0    0    0  501 -0.00000000000E+00 -0.00000000000E+00 -0.43403917879E+03  0.43403917879E+03  0.00000000000E+00 0. -1.
         23    2    1    2    0    0  0.25172648896E+03  0.22283581788E+03 -0.31989902698E+03  0.47314708867E+03  0.92253742863E+02 0.  0.
         13    1    3    3    0    0  0.17322221651E+03  0.14669480486E+03 -0.27056162734E+03  0.35316978389E+03  0.00000000000E+00 0.  1.
        -13    1    3    3    0    0  0.78504272456E+02  0.76141013022E+02 -0.49337399645E+02  0.11997730478E+03  0.00000000000E+00 0. -1.
         22    1    1    2    0    0 -0.25172648896E+03 -0.22283581788E+03  0.71564028269E+03  0.79067252461E+03  0.00000000000E+00 0.  1.
<mgrwt>
<rscale>  0 0.12002620E+04</rscale>
<asrwt>0</asrwt>
<pdfrwt beam="1">  1        1 0.12765853E+00 0.12002620E+04</pdfrwt>
<pdfrwt beam="2">  1       -1 0.66775258E-01 0.12002620E+04</pdfrwt>
<totfact> 0.46867834E+01</totfact>
</mgrwt>
</event>
<event>
 6    1  0.2003386E-005  0.2081330E+04  0.7818608E-02  0.8569512E-01
         -2   -1    0    0    0  501 -0.00000000000E+00  0.00000000000E+00  0.88093017754E+03  0.88093017754E+03  0.00000000000E+00 0.  1.
          2   -1    0    0  501    0  0.00000000000E+00 -0.00000000000E+00 -0.12293642575E+04  0.12293642575E+04  0.00000000000E+00 0. -1.
         23    2    1    2    0    0  0.26056202255E+03 -0.96159130116E+03  0.12332173550E+03  0.10079769002E+04  0.90877846072E+02 0.  0.
         11    1    3    3    0    0  0.16799655523E+03 -0.74828364561E+03  0.75828678192E+02  0.77064988503E+03  0.00000000000E+00 0.  1.
        -11    1    3    3    0    0  0.92565467321E+02 -0.21330765555E+03  0.47493057312E+02  0.23732701521E+03  0.00000000000E+00 0. -1.
         22    1    1    2    0    0 -0.26056202255E+03  0.96159130116E+03 -0.47175581544E+03  0.11023175348E+04  0.00000000000E+00 0. -1.
<mgrwt>
<rscale>  0 0.20813304E+04</rscale>
<asrwt>0</asrwt>
<pdfrwt beam="1">  1        2 0.18913296E+00 0.20813304E+04</pdfrwt>
<pdfrwt beam="2">  1       -2 0.13552772E+00 0.20813304E+04</pdfrwt>
<totfact> 0.65593052E+00</totfact>
</mgrwt>
</event>
<event>
 6    1  0.2003386E-005  0.2821150E+04  0.7818608E-02  0.8296732E-01
         -1   -1    0    0    0  501 -0.00000000000E+00  0.00000000000E+00  0.16672128163E+04  0.16672128163E+04  0.00000000000E+00 0.  1.
          1   -1    0    0  501    0  0.00000000000E+00 -0.00000000000E+00 -0.11934422211E+04  0.11934422211E+04  0.00000000000E+00 0. -1.
         23    2    1    2    0    0 -0.16436749970E+03 -0.59351729152E+03  0.15222735633E+04  0.16446624699E+04  0.91205197792E+02 0.  0.
         13    1    3    3    0    0 -0.52893933510E+02 -0.22741273589E+03  0.46648189576E+03  0.52165091749E+03  0.00000000000E+00 0. -1.
        -13    1    3    3    0    0 -0.11147356619E+03 -0.36610455563E+03  0.10557916675E+04  0.11230115524E+04  0.00000000000E+00 0.  1.
         22    1    1    2    0    0  0.16436749970E+03  0.59351729152E+03 -0.10485029681E+04  0.12159925675E+04  0.00000000000E+00 0. -1.
<mgrwt>
<rscale>  0 0.28211502E+04</rscale>
<asrwt>0</asrwt>
<pdfrwt beam="1">  1        1 0.18360650E+00 0.28211502E+04</pdfrwt>
<pdfrwt beam="2">  1       -1 0.25649428E+00 0.28211502E+04</pdfrwt>
<totfact> 0.59041871E-01</totfact>
</mgrwt>
</event>
<event>
 6    1  0.2003386E-005  0.6710298E+03  0.7818608E-02  0.9768099E-01
          2   -1    0    0  501    0  0.00000000000E+00  0.00000000000E+00  0.20658024578E+04  0.20658024578E+04  0.00000000000E+00 0. -1.
         -2   -1    0    0    0  501 -0.00000000000E+00 -0.00000000000E+00 -0.54492262444E+02  0.54492262444E+02  0.00000000000E+00 0.  1.
         23    2    1    2    0    0 -0.29055230171E+03 -0.53061879887E+02  0.56438610326E+03  0.64353288047E+03  0.91469621007E+02 0.  0.
         13    1    3    3    0    0 -0.28859845902E+03 -0.37895925668E+02  0.55122720400E+03  0.62335912776E+03  0.00000000000E+00 0.  1.
        -13    1    3    3    0    0 -0.19538426863E+01 -0.15165954219E+02  0.13158899258E+02  0.20173752708E+02  0.00000000000E+00 0. -1.
         22    1    1    2    0    0  0.29055230171E+03  0.53061879887E+02  0.14469240921E+04  0.14767618398E+04  0.00000000000E+00 0. -1.
<mgrwt>
<rscale>  0 0.67102980E+03</rscale>
<asrwt>0</asrwt>
<pdfrwt beam="1">  1        2 0.31781570E+00 0.67102980E+03</pdfrwt>
<pdfrwt beam="2">  1       -2 0.83834266E-02 0.67102980E+03</pdfrwt>
<totfact> 0.57788964E+02</totfact>
</mgrwt>
</event>
<event>
 6    1  0.2003386E-005  0.2557631E+04  0.7818608E-02  0.8382737E-01
         -2   -1    0    0    0  501 -0.00000000000E+00  0.00000000000E+00  0.65627518031E+03  0.65627518031E+03  0.00000000000E+00 0.  1.
          2   -1    0    0  501    0  0.00000000000E+00 -0.00000000000E+00 -0.24918949314E+04  0.24918949314E+04  0.00000000000E+00 0. -1.
         23    2    1    2    0    0  0.91124096516E+03  0.85081519502E+03 -0.57726630491E+03  0.13768147018E+04  0.90198357617E+02 0.  0.
         11    1    3    3    0    0  0.59175915368E+02  0.32581470092E+02 -0.44647026895E+02  0.80973441100E+02  0.00000000000E+00 0. -1.
        -11    1    3    3    0    0  0.85206504979E+03  0.81823372493E+03 -0.53261927801E+03  0.12958412607E+04  0.00000000000E+00 0.  1.
         22    1    1    2    0    0 -0.91124096516E+03 -0.85081519502E+03 -0.12583534462E+04  0.17713554099E+04  0.00000000000E+00 0. -1.
<mgrwt>
<rscale>  0 0.25576308E+04</rscale>
<asrwt>0</asrwt>
<pdfrwt beam="1">  1        2 0.38336845E+00 0.25576308E+04</pdfrwt>
<pdfrwt beam="2">  1       -2 0.10096541E+00 0.25576308E+04</pdfrwt>
<totfact> 0.25213628E+00</totfact>
</mgrwt>
</event>
<event>
 6    1  0.2003386E-005  0.1475322E+04  0.7818608E-02  0.8901031E-01
          1   -1    0    0  501    0  0.00000000000E+00  0.00000000000E+00  0.23666989049E+04  0.23666989049E+04  0.00000000000E+00 0. -1.
         -1   -1    0    0    0  501 -0.00000000000E+00 -0.00000000000E+00 -0.22991676035E+03  0.22991676035E+03  0.00000000000E+00 0.  1.
         23    2    1    2    0    0 -0.17068224352E+02 -0.64248946730E+03  0.44535992815E+03  0.78719776052E+03  0.90833962256E+02 0.  0.
         11    1    3    3    0    0  0.27395979095E+02 -0.18892941884E+03  0.16345046906E+03  0.25131836544E+03  0.00000000000E+00 0. -1.
        -11    1    3    3    0    0 -0.44464203446E+02 -0.45356004846E+03  0.28190945909E+03  0.53587939508E+03  0.00000000000E+00 0.  1.
         22    1    1    2    0    0  0.17068224352E+02  0.64248946730E+03  0.16914222164E+04  0.18094179048E+04  0.00000000000E+00 0. -1.
<mgrwt>
<rscale>  0 0.14753220E+04</rscale>
<asrwt>0</asrwt>
<pdfrwt beam="1">  1        1 0.36410751E+00 0.14753220E+04</pdfrwt>
<pdfrwt beam="2">  1       -1 0.35371811E-01 0.14753220E+04</pdfrwt>
<totfact> 0.12386576E+01</totfact>
</mgrwt>
</event>
<event>
 6    1  0.2003386E-005  0.1182831E+04  0.7818608E-02  0.9128018E-01
          2   -1    0    0  501    0  0.00000000000E+00  0.00000000000E+00  0.13432229800E+04  0.13432229800E+04  0.00000000000E+00 0. -1.
         -2   -1    0    0    0  501 -0.00000000000E+00 -0.00000000000E+00 -0.26039790939E+03  0.26039790939E+03  0.00000000000E+00 0.  1.
         23    2    1    2    0    0  0.53600395135E+02 -0.15160086605E+03  0.13113152000E+04  0.13242223136E+04  0.90340230800E+02 0.  0.
         13    1    3    3    0    0  0.12706691805E+02 -0.52536417005E+02  0.79852515531E+03  0.80035239663E+03  0.00000000000E+00 0. -1.
        -13    1    3    3    0    0  0.40893703330E+02 -0.99064449043E+02  0.51279004464E+03  0.52386991698E+03  0.00000000000E+00 0.  1.
         22    1    1    2    0    0 -0.53600395135E+02  0.15160086605E+03 -0.22849012934E+03  0.27939857578E+03  0.00000000000E+00 0.  1.
<mgrwt>
<rscale>  0 0.11828313E+04</rscale>
<asrwt>0</asrwt>
<pdfrwt beam="1">  1        2 0.20664969E+00 0.11828313E+04</pdfrwt>
<pdfrwt beam="2">  1       -2 0.40061218E-01 0.11828313E+04</pdfrwt>
<totfact> 0.90820365E+01</totfact>
</mgrwt>
</event>
<event>
 6    1  0.2003386E-005  0.2474311E+04  0.7818608E-02  0.8412195E-01
         -2   -1    0    0    0  501 -0.00000000000E+00  0.00000000000E+00  0.93115126578E+03  0.93115126578E+03  0.00000000000E+00 0.  1.
          2   -1    0    0  501    0  0.00000000000E+00 -0.00000000000E+00 -0.16437221269E+04  0.16437221269E+04  0.00000000000E+00 0. -1.
         23    2    1    2    0    0 -0.22006668052E+03  0.53081660980E+03 -0.14949989121E+04  0.16041060301E+04  0.89099896869E+02 0.  0.
         13    1    3    3    0    0 -0.53256867408E+02  0.65651455688E+02 -0.16778182901E+03  0.18787535684E+03  0.00000000000E+00 0. -1.
        -13    1    3    3    0    0 -0.16680981311E+03  0.46516515411E+03 -0.13272170831E+04  0.14162306733E+04  0.00000000000E+00 0.  1.
         22    1    1    2    0    0  0.22006668052E+03 -0.53081660980E+03  0.78242805101E+03  0.97076736251E+03  0.00000000000E+00 0.  1.
<mgrwt>
<rscale>  0 0.24743112E+04</rscale>
<asrwt>0</asrwt>
<pdfrwt beam="1">  1        2 0.25288032E+00 0.24743112E+04</pdfrwt>
<pdfrwt beam="2">  1       -2 0.14325404E+00 0.24743112E+04</pdfrwt>
<totfact> 0.31874594E+00</totfact>
</mgrwt>
</event>
<event>
 6    1  0.2003386E-005  0.3819493E+04  0.7818608E-02  0.8041985E-01
         -2   -1    0    0    0  501 -0.00000000000E+00  0.00000000000E+00  0.91589676902E+03  0.91589676902E+03  0.00000000000E+00 0.  1.
          2   -1    0    0  501    0  0.00000000000E+00 -0.00000000000E+00 -0.39820339216E+04  0.39820339216E+04  0.00000000000E+00 0. -1.
         23    2    1    2    0    0  0.12076249194E+04  0.72232936206E+03 -0.31874235548E+04  0.34855468743E+04  0.96179216869E+02 0.  0.
         13    1    3    3    0    0  0.35036191235E+03  0.17400906432E+03 -0.96183852266E+03  0.10383477104E+04  0.00000000000E+00 0. -1.
        -13    1    3    3    0    0  0.85726300707E+03  0.54832029774E+03 -0.22255850322E+04  0.24471991639E+04  0.00000000000E+00 0.  1.
         22    1    1    2    0    0 -0.12076249194E+04 -0.72232936206E+03  0.12128640224E+03  0.14123838163E+04  0.00000000000E+00 0.  1.
<mgrwt>
<rscale>  0 0.38194932E+04</rscale>
<asrwt>0</asrwt>
<pdfrwt beam="1">  1        2 0.61262060E+00 0.38194932E+04</pdfrwt>
<pdfrwt beam="2">  1       -2 0.14090720E+00 0.38194932E+04</pdfrwt>
<totfact> 0.99682031E-02</totfact>
</mgrwt>
</event>
<event>
 6    1  0.2003386E-005  0.1252695E+04  0.7818608E-02  0.9067943E-01
          2   -1    0    0  501    0  0.00000000000E+00  0.00000000000E+00  0.21005093986E+03  0.21005093986E+03  0.00000000000E+00 0. -1.
         -2   -1    0    0    0  501 -0.00000000000E+00 -0.00000000000E+00 -0.18676965735E+04  0.18676965735E+04  0.00000000000E+00 0.  1.
         23    2    1    2    0    0 -0.36243336779E+03 -0.87946713093E+02 -0.16609855546E+04  0.17047813950E+04  0.91181256777E+02 0.  0.
         11    1    3    3    0    0 -0.22129047655E+03 -0.91529734938E+02 -0.93388999423E+03  0.96410460465E+03  0.00000000000E+00 0. -1.
        -11    1    3    3    0    0 -0.14114289124E+03  0.35830218453E+01 -0.72709556038E+03  0.74067679032E+03  0.00000000000E+00 0.  1.
         22    1    1    2    0    0  0.36243336779E+03  0.87946713093E+02  0.33399209192E+01  0.37296611844E+03  0.00000000000E+00 0. -1.
<mgrwt>
<rscale>  0 0.12526954E+04</rscale>
<asrwt>0</asrwt>
<pdfrwt beam="1">  1        2 0.32315530E-01 0.12526954E+04</pdfrwt>
<pdfrwt beam="2">  1       -2 0.28733793E+00 0.12526954E+04</pdfrwt>
<totfact> 0.61505052E+00</totfact>
</mgrwt>
</event>
<event>
 6    1  0.2003386E-005  0.1050535E+04  0.7818608E-02  0.9254792E-01
          1   -1    0    0  501    0  0.00000000000E+00  0.00000000000E+00  0.44286694494E+03  0.44286694494E+03  0.00000000000E+00 0. -1.
         -1   -1    0    0    0  501 -0.00000000000E+00 -0.00000000000E+00 -0.62299966848E+03  0.62299966848E+03  0.00000000000E+00 0.  1.
         23    2    1    2    0    0  0.20724123014E+03  0.47809672129E+03 -0.87285886298E+02  0.53657847113E+03  0.93660169468E+02 0.  0.
         11    1    3    3    0    0  0.17416214526E+03  0.34270840500E+03 -0.98240224826E+02  0.39677782886E+03  0.00000000000E+00 0. -1.
        -11    1    3    3    0    0  0.33079084880E+02  0.13538831629E+03  0.10954338528E+02  0.13980064227E+03  0.00000000000E+00 0.  1.
         22    1    1    2    0    0 -0.20724123014E+03 -0.47809672129E+03 -0.92846837244E+02  0.52928814229E+03  0.00000000000E+00 0. -1.
<mgrwt>
<rscale>  0 0.10505350E+04</rscale>
<asrwt>0</asrwt>
<pdfrwt beam="1">  1        1 0.68133376E-01 0.10505350E+04</pdfrwt>
<pdfrwt beam="2">  1       -1 0.95846103E-01 0.10505350E+04</pdfrwt>
<totfact> 0.54930796E+01</totfact>
</mgrwt>
</event>
<event>
 6    1  0.2003386E-005  0.1697602E+04  0.7818608E-02  0.8762733E-01
         -1   -1    0    0    0  501 -0.00000000000E+00  0.00000000000E+00  0.29790778438E+03  0.29790778438E+03  0.00000000000E+00 0.  1.
          1   -1    0    0  501    0  0.00000000000E+00 -0.00000000000E+00 -0.24184085081E+04  0.24184085081E+04  0.00000000000E+00 0. -1.
         23    2    1    2    0    0  0.31793847655E+03 -0.64800337081E+03 -0.17708980321E+04  0.19143092567E+04  0.86642061217E+02 0.  0.
         11    1    3    3    0    0  0.15872008154E+03 -0.41872229996E+03 -0.10807326526E+04  0.11698305412E+04  0.00000000000E+00 0.  1.
        -11    1    3    3    0    0  0.15921839501E+03 -0.22928107085E+03 -0.69016537952E+03  0.74447871551E+03  0.00000000000E+00 0. -1.
         22    1    1    2    0    0 -0.31793847655E+03  0.64800337081E+03 -0.34960269164E+03  0.80200703579E+03  0.00000000000E+00 0.  1.
<mgrwt>
<rscale>  0 0.16976015E+04</rscale>
<asrwt>0</asrwt>
<pdfrwt beam="1">  1        1 0.37206287E+00 0.16976015E+04</pdfrwt>
<pdfrwt beam="2">  1       -1 0.45831965E-01 0.16976015E+04</pdfrwt>
<totfact> 0.69582407E+00</totfact>
</mgrwt>
</event>
<event>
 6    1  0.2003386E-005  0.2810675E+04  0.7818608E-02  0.8299962E-01
          2   -1    0    0  501    0  0.00000000000E+00  0.00000000000E+00  0.27851317324E+04  0.27851317324E+04  0.00000000000E+00 0. -1.
         -2   -1    0    0    0  501 -0.00000000000E+00 -0.00000000000E+00 -0.70911301775E+03  0.70911301775E+03  0.00000000000E+00 0.  1.
         23    2    1    2    0    0  0.22184171819E+03 -0.13262311215E+04  0.53986383442E+03  0.14527074491E+04  0.10393862285E+03 0.  0.
         13    1    3    3    0    0  0.11118935776E+03 -0.95006754791E+03  0.38608263496E+03  0.10315285841E+04  0.00000000000E+00 0.  1.
        -13    1    3    3    0    0  0.11065236043E+03 -0.37616357359E+03  0.15378119946E+03  0.42117886494E+03  0.00000000000E+00 0. -1.
         22    1    1    2    0    0 -0.22184171819E+03  0.13262311215E+04  0.15361548802E+04  0.20415373010E+04  0.00000000000E+00 0.  1.
<mgrwt>
<rscale>  0 0.28106748E+04</rscale>
<asrwt>0</asrwt>
<pdfrwt beam="1">  1        2 0.42848180E+00 0.28106748E+04</pdfrwt>
<pdfrwt beam="2">  1       -2 0.10909431E+00 0.28106748E+04</pdfrwt>
<totfact> 0.13752639E+00</totfact>
</mgrwt>
</event>
<event>
 6    1  0.2003386E-005  0.2569002E+04  0.7818608E-02  0.8378807E-01
         -2   -1    0    0    0  501 -0.00000000000E+00  0.00000000000E+00  0.57508386382E+03  0.57508386382E+03  0.00000000000E+00 0.  1.
          2   -1    0    0  501    0  0.00000000000E+00 -0.00000000000E+00 -0.28690482116E+04  0.28690482116E+04  0.00000000000E+00 0. -1.
         23    2    1    2    0    0  0.72221060540E+03 -0.72889334726E+03 -0.11621312405E+03  0.10367529896E+04  0.92073889290E+02 0.  0.
         11    1    3    3    0    0  0.23459256069E+03 -0.17989479607E+03 -0.21890813540E+02  0.29643720229E+03  0.00000000000E+00 0. -1.
        -11    1    3    3    0    0  0.48761804471E+03 -0.54899855119E+03 -0.94322310515E+02  0.74031578735E+03  0.00000000000E+00 0.  1.
         22    1    1    2    0    0 -0.72221060540E+03  0.72889334726E+03 -0.21777512237E+04  0.24073790858E+04  0.00000000000E+00 0. -1.
<mgrwt>
<rscale>  0 0.25690024E+04</rscale>
<asrwt>0</asrwt>
<pdfrwt beam="1">  1        2 0.44139204E+00 0.25690024E+04</pdfrwt>
<pdfrwt beam="2">  1       -2 0.88474440E-01 0.25690024E+04</pdfrwt>
<totfact> 0.20460037E+00</totfact>
</mgrwt>
</event>
<event>
 6    1  0.2003386E-005  0.1649425E+04  0.7818608E-02  0.8790747E-01
         -2   -1    0    0    0  501 -0.00000000000E+00  0.00000000000E+00  0.17349882046E+04  0.17349882046E+04  0.00000000000E+00 0.  1.
          2   -1    0    0  501    0  0.00000000000E+00 -0.00000000000E+00 -0.39202024474E+03  0.39202024474E+03  0.00000000000E+00 0. -1.
         23    2    1    2    0    0  0.33582052520E+03 -0.58816433580E+03  0.72831214201E+02  0.68757798428E+03  0.93522123931E+02 0.  0.
         11    1    3    3    0    0  0.16934633919E+03 -0.22360033289E+03  0.58619619493E+02  0.28655113201E+03  0.00000000000E+00 0. -1.
        -11    1    3    3    0    0  0.16647418600E+03 -0.36456400291E+03  0.14211594707E+02  0.40102685228E+03  0.00000000000E+00 0.  1.
         22    1    1    2    0    0 -0.33582052520E+03  0.58816433580E+03  0.12701367456E+04  0.14394304650E+04  0.00000000000E+00 0.  1.
<mgrwt>
<rscale>  0 0.16494247E+04</rscale>
<asrwt>0</asrwt>
<pdfrwt beam="1">  1        2 0.60310808E-01 0.16494247E+04</pdfrwt>
<pdfrwt beam="2">  1       -2 0.26692126E+00 0.16494247E+04</pdfrwt>
<totfact> 0.39367142E+00</totfact>
</mgrwt>
</event>
<event>
 6    1  0.2003386E-005  0.3850928E+04  0.7818608E-02  0.8035313E-01
          2   -1    0    0  501    0  0.00000000000E+00  0.00000000000E+00  0.22664265788E+04  0.22664265788E+04  0.00000000000E+00 0. -1.
         -2   -1    0    0    0  501 -0.00000000000E+00 -0.00000000000E+00 -0.16357962230E+04  0.16357962230E+04  0.00000000000E+00 0.  1.
         23    2    1    2    0    0 -0.18335784437E+04  0.40860141362E+03  0.73870718035E+03  0.20205624646E+04  0.89550826640E+02 0.  0.
         11    1    3    3    0    0 -0.13851103294E+04  0.27440640606E+03  0.53370867842E+03  0.15095278910E+04  0.00000000000E+00 0.  1.
        -11    1    3    3    0    0 -0.44846811437E+03  0.13419500757E+03  0.20499850193E+03  0.51103457364E+03  0.00000000000E+00 0. -1.
         22    1    1    2    0    0  0.18335784437E+04 -0.40860141362E+03 -0.10807682459E+03  0.18816603372E+04  0.00000000000E+00 0. -1.
<mgrwt>
<rscale>  0 0.38509282E+04</rscale>
<asrwt>0</asrwt>
<pdfrwt beam="1">  1        2 0.34868101E+00 0.38509282E+04</pdfrwt>
<pdfrwt beam="2">  1       -2 0.25166096E+00 0.38509282E+04</pdfrwt>
<totfact> 0.23741073E-01</totfact>
</mgrwt>
</event>
<event>
 6    1  0.2003386E-005  0.1625138E+04  0.7818608E-02  0.8805252E-01
         -2   -1    0    0    0  501 -0.00000000000E+00  0.00000000000E+00  0.50301937341E+03  0.50301937341E+03  0.00000000000E+00 0.  1.
          2   -1    0    0  501    0  0.00000000000E+00 -0.00000000000E+00 -0.13126103735E+04  0.13126103735E+04  0.00000000000E+00 0. -1.
         23    2    1    2    0    0  0.70536774205E+03 -0.93479575070E+02  0.26680606191E+02  0.71761686813E+03  0.89331025941E+02 0.  0.
         13    1    3    3    0    0  0.16082498047E+03 -0.55946645444E+02 -0.98349548631E+01  0.17056209373E+03  0.00000000000E+00 0. -1.
        -13    1    3    3    0    0  0.54454276158E+03 -0.37532929626E+02  0.36515561054E+02  0.54705477440E+03  0.00000000000E+00 0.  1.
         22    1    1    2    0    0 -0.70536774205E+03  0.93479575070E+02 -0.83627160624E+03  0.10980128787E+04  0.00000000000E+00 0. -1.
<mgrwt>
<rscale>  0 0.16251381E+04</rscale>
<asrwt>0</asrwt>
<pdfrwt beam="1">  1        2 0.20194006E+00 0.16251381E+04</pdfrwt>
<pdfrwt beam="2">  1       -2 0.77387596E-01 0.16251381E+04</pdfrwt>
<totfact> 0.23167294E+01</totfact>
</mgrwt>
</event>
<event>
 6    1  0.2003386E-005  0.1334057E+04  0.7818608E-02  0.9002986E-01
          2   -1    0    0  501    0  0.00000000000E+00  0.00000000000E+00  0.17397851031E+04  0.17397851031E+04  0.00000000000E+00 0. -1.
         -2   -1    0    0    0  501 -0.00000000000E+00 -0.00000000000E+00 -0.25573659656E+03  0.25573659656E+03  0.00000000000E+00 0.  1.
         23    2    1    2    0    0  0.46400291309E+01  0.61504638835E+03  0.37449321479E+03  0.72689388381E+03  0.99125984004E+02 0.  0.
         13    1    3    3    0    0 -0.17882826323E+02  0.24167604311E+03  0.96452682762E+02  0.26082604415E+03  0.00000000000E+00 0.  1.
        -13    1    3    3    0    0  0.22522855454E+02  0.37337034523E+03  0.27804053203E+03  0.46606783966E+03  0.00000000000E+00 0. -1.
         22    1    1    2    0    0 -0.46400291309E+01 -0.61504638835E+03  0.11095552917E+04  0.12686278158E+04  0.00000000000E+00 0. -1.
<mgrwt>
<rscale>  0 0.13340566E+04</rscale>
<asrwt>0</asrwt>
<pdfrwt beam="1">  1        2 0.26765924E+00 0.13340566E+04</pdfrwt>
<pdfrwt beam="2">  1       -2 0.39344093E-01 0.13340566E+04</pdfrwt>
<totfact> 0.55668292E+01</totfact>
</mgrwt>
</event>
<event>
 6    1  0.2003386E-005  0.4182031E+04  0.7818608E-02  0.7968799E-01
          2   -1    0    0  501    0  0.00000000000E+00  0.00000000000E+00  0.33985646539E+04  0.33985646539E+04  0.00000000000E+00 0. -1.
         -2   -1    0    0    0  501 -0.00000000000E+00 -0.00000000000E+00 -0.12865269623E+04  0.12865269623E+04  0.00000000000E+00 0.  1.
         23    2    1    2    0    0  0.10257969340E+04 -0.94325075782E+03  0.28016024649E+04  0.31302665719E+04  0.87241606592E+02 0.  0.
         13    1    3    3    0    0  0.50163701246E+03 -0.40348556861E+03  0.13121346808E+04  0.14615531865E+04  0.00000000000E+00 0.  1.
        -13    1    3    3    0    0  0.52415992155E+03 -0.53976518920E+03  0.14894677841E+04  0.16687133854E+04  0.00000000000E+00 0. -1.
         22    1    1    2    0    0 -0.10257969340E+04  0.94325075782E+03 -0.68956477323E+03  0.15548250443E+04  0.00000000000E+00 0.  1.
<mgrwt>
<rscale>  0 0.41820306E+04</rscale>
<asrwt>0</asrwt>
<pdfrwt beam="1">  1        2 0.52285610E+00 0.41820306E+04</pdfrwt>
<pdfrwt beam="2">  1       -2 0.19792723E+00 0.41820306E+04</pdfrwt>
<totfact> 0.10179772E-01</totfact>
</mgrwt>
</event>
<event>
 6    1  0.2003386E-005  0.4359075E+04  0.7818608E-02  0.7935784E-01
         -2   -1    0    0    0  501 -0.00000000000E+00  0.00000000000E+00  0.14539427294E+04  0.14539427294E+04  0.00000000000E+00 0.  1.
          2   -1    0    0  501    0  0.00000000000E+00 -0.00000000000E+00 -0.32672432161E+04  0.32672432161E+04  0.00000000000E+00 0. -1.
         23    2    1    2    0    0 -0.17031519062E+04  0.47547091095E+03  0.47121988545E+03  0.18322705204E+04  0.91477191413E+02 0.  0.
         11    1    3    3    0    0 -0.95250158212E+03  0.23663383705E+03  0.29826997378E+03  0.10257776631E+04  0.00000000000E+00 0. -1.
        -11    1    3    3    0    0 -0.75065032413E+03  0.23883707390E+03  0.17294991167E+03  0.80649285733E+03  0.00000000000E+00 0.  1.
         22    1    1    2    0    0  0.17031519062E+04 -0.47547091095E+03 -0.22845203721E+04  0.28889154251E+04  0.00000000000E+00 0. -1.
<mgrwt>
<rscale>  0 0.43590754E+04</rscale>
<asrwt>0</asrwt>
<pdfrwt beam="1">  1        2 0.50265279E+00 0.43590754E+04</pdfrwt>
<pdfrwt beam="2">  1       -2 0.22368350E+00 0.43590754E+04</pdfrwt>
<totfact> 0.83980886E-02</totfact>
</mgrwt>
</event>
<event>
 6    1  0.2003386E-005  0.2091078E+04  0.7818608E-02  0.8565184E-01
          2   -1    0    0  501    0  0.00000000000E+00  0.00000000000E+00  0.55163949952E+03  0.55163949952E+03  0.00000000000E+00 0. -1.
         -2   -1    0    0    0  501 -0.00000000000E+00 -0.00000000000E+00 -0.19816407658E+04  0.19816407658E+04  0.00000000000E+00 0.  1.
         23    2    1    2    0    0 -0.17954312099E+03  0.85864751872E+03 -0.31055863344E+02  0.88205056169E+03  0.86818391064E+02 0.  0.
         13    1    3    3    0    0 -0.13151607245E+03  0.71708998787E+03  0.15539800959E+01  0.72905208516E+03  0.00000000000E+00 0.  1.
        -13    1    3    3    0    0 -0.48027048541E+02  0.14155753085E+03 -0.32609843440E+02  0.15299847653E+03  0.00000000000E+00 0. -1.
         22    1    1    2    0    0  0.17954312099E+03 -0.85864751872E+03 -0.13989454029E+04  0.16512297036E+04  0.00000000000E+00 0.  1.
<mgrwt>
<rscale>  0 0.20910775E+04</rscale>
<asrwt>0</asrwt>
<pdfrwt beam="1">  1        2 0.84867618E-01 0.20910775E+04</pdfrwt>
<pdfrwt beam="2">  1       -2 0.30486780E+00 0.20910775E+04</pdfrwt>
<totfact> 0.15025558E+00</totfact>
</mgrwt>
</event>
<event>
 6    1  0.2003386E-005  0.1495444E+04  0.7818608E-02  0.8887488E-01
         -2   -1    0    0    0  501 -0.00000000000E+00  0.00000000000E+00  0.37394589854E+03  0.37394589854E+03  0.00000000000E+00 0.  1.
          2   -1    0    0  501    0  0.00000000000E+00 -0.00000000000E+00 -0.14951038670E+04  0.14951038670E+04  0.00000000000E+00 0. -1.
         23    2    1    2    0    0 -0.71291418690E+03 -0.36160616797E+02 -0.82868709102E+03  0.10976267673E+04  0.92238805833E+02 0.  0.
         11    1    3    3    0    0 -0.55585432213E+03  0.76306051908E+01 -0.66202881663E+03  0.86447348577E+03  0.00000000000E+00 0.  1.
        -11    1    3    3    0    0 -0.15705986477E+03 -0.43791221988E+02 -0.16665827439E+03  0.23315328149E+03  0.00000000000E+00 0. -1.
         22    1    1    2    0    0  0.71291418690E+03  0.36160616797E+02 -0.29247087741E+03  0.77142299825E+03  0.00000000000E+00 0.  1.
<mgrwt>
<rscale>  0 0.14954437E+04</rscale>
<asrwt>0</asrwt>
<pdfrwt beam="1">  1        2 0.23001598E+00 0.14954437E+04</pdfrwt>
<pdfrwt beam="2">  1       -2 0.57530139E-01 0.14954437E+04</pdfrwt>
<totfact> 0.34936879E+01</totfact>
</mgrwt>
</event>
<event>
 6    1  0.2003386E-005  0.1662741E+04  0.7818608E-02  0.8782905E-01
          2   -1    0    0  501    0  0.00000000000E+00  0.00000000000E+00  0.12824392759E+04  0.12824392759E+04  0.00000000000E+00 0.  1.
         -2   -1    0    0    0  501 -0.00000000000E+00 -0.00000000000E+00 -0.53895488029E+03  0.53895488029E+03  0.00000000000E+00 0. -1.
         23    2    1    2    0    0 -0.44696522444E+03  0.51713363283E+03 -0.14154238340E+03  0.70314664082E+03  0.84710366158E+02 0.  0.
         11    1    3    3    0    0 -0.36512017062E+03  0.36714735144E+03 -0.11148217653E+03  0.52965856204E+03  0.00000000000E+00 0.  1.
        -11    1    3    3    0    0 -0.81845053824E+02  0.14998628140E+03 -0.30060206874E+02  0.17348807878E+03  0.00000000000E+00 0. -1.
         22    1    1    2    0    0  0.44696522444E+03 -0.51713363283E+03  0.88502677906E+03  0.11182475154E+04  0.00000000000E+00 0.  1.
<mgrwt>
<rscale>  0 0.16627410E+04</rscale>
<asrwt>0</asrwt>
<pdfrwt beam="1">  1        2 0.19729835E+00 0.16627410E+04</pdfrwt>
<pdfrwt beam="2">  1       -2 0.82916136E-01 0.16627410E+04</pdfrwt>
<totfact> 0.20595798E+01</totfact>
</mgrwt>
</event>
<event>
 6    1  0.2003386E-005  0.3114269E+04  0.7818608E-02  0.8211833E-01
         -2   -1    0    0    0  501 -0.00000000000E+00  0.00000000000E+00  0.12343829884E+04  0.12343829884E+04  0.00000000000E+00 0.  1.
          2   -1    0    0  501    0  0.00000000000E+00 -0.00000000000E+00 -0.19642754405E+04  0.19642754405E+04  0.00000000000E+00 0. -1.
         23    2    1    2    0    0 -0.11293653043E+04 -0.85264538864E+03  0.29872968946E+03  0.14492203306E+04  0.92357944141E+02 0.  0.
         13    1    3    3    0    0 -0.60187373947E+03 -0.50825364759E+03  0.18242142843E+03  0.80861075067E+03  0.00000000000E+00 0. -1.
        -13    1    3    3    0    0 -0.52749156487E+03 -0.34439174106E+03  0.11630826102E+03  0.64060957993E+03  0.00000000000E+00 0.  1.
         22    1    1    2    0    0  0.11293653043E+04  0.85264538864E+03 -0.10286221416E+04  0.17494380982E+04  0.00000000000E+00 0. -1.
<mgrwt>
<rscale>  0 0.31142692E+04</rscale>
<asrwt>0</asrwt>
<pdfrwt beam="1">  1        2 0.30219622E+00 0.31142692E+04</pdfrwt>
<pdfrwt beam="2">  1       -2 0.18990508E+00 0.31142692E+04</pdfrwt>
<totfact> 0.92075868E-01</totfact>
</mgrwt>
</event>
<event>
 6    1  0.2003386E-005  0.3146708E+04  0.7818608E-02  0.8203035E-01
          2   -1    0    0  501    0  0.00000000000E+00  0.00000000000E+00  0.12342557396E+04  0.12342557396E+04  0.00000000000E+00 0. -1.
         -2   -1    0    0    0  501 -0.00000000000E+00 -0.00000000000E+00 -0.20056157744E+04  0.20056157744E+04  0.00000000000E+00 0.  1.
         23    2    1    2    0    0  0.13205412593E+03  0.12705210619E+04  0.55746949196E+03  0.13966542256E+04  0.90602044329E+02 0.  0.
         11    1    3    3    0    0  0.11047467747E+03  0.95003335245E+03  0.37571751049E+03  0.10275853604E+04  0.00000000000E+00 0.  1.
        -11    1    3    3    0    0  0.21579448460E+02  0.32048770947E+03  0.18175198147E+03  0.36906886524E+03  0.00000000000E+00 0. -1.
         22    1    1    2    0    0 -0.13205412593E+03 -0.12705210619E+04 -0.13288295268E+04  0.18432172884E+04  0.00000000000E+00 0.  1.
<mgrwt>
<rscale>  0 0.31467080E+04</rscale>
<asrwt>0</asrwt>
<pdfrwt beam="1">  1        2 0.18988550E+00 0.31467080E+04</pdfrwt>
<pdfrwt beam="2">  1       -2 0.30855627E+00 0.31467080E+04</pdfrwt>
<totfact> 0.43041759E-01</totfact>
</mgrwt>
</event>
<event>
 6    1  0.2003386E-005  0.4999425E+04  0.7818608E-02  0.7828596E-01
         -1   -1    0    0    0  501 -0.00000000000E+00  0.00000000000E+00  0.24754571578E+04  0.24754571578E+04  0.00000000000E+00 0.  1.
          1   -1    0    0  501    0  0.00000000000E+00 -0.00000000000E+00 -0.25242055328E+04  0.25242055328E+04  0.00000000000E+00 0. -1.
         23    2    1    2    0    0 -0.10110355458E+04 -0.15744113899E+04 -0.16807813934E+04  0.25168224073E+04  0.91677902791E+02 0.  0.
         13    1    3    3    0    0 -0.21328537946E+03 -0.32371817255E+03 -0.29981669126E+03  0.49007566425E+03  0.00000000000E+00 0.  1.
        -13    1    3    3    0    0 -0.79775016630E+03 -0.12506932173E+04 -0.13809647022E+04  0.20267467430E+04  0.00000000000E+00 0. -1.
         22    1    1    2    0    0  0.10110355458E+04  0.15744113899E+04  0.16320330184E+04  0.24828402833E+04  0.00000000000E+00 0.  1.
<mgrwt>
<rscale>  0 0.49994250E+04</rscale>
<asrwt>0</asrwt>
<pdfrwt beam="1">  1        1 0.38833931E+00 0.49994250E+04</pdfrwt>
<pdfrwt beam="2">  1       -1 0.38083956E+00 0.49994250E+04</pdfrwt>
<totfact> 0.90890644E-03</totfact>
</mgrwt>
</event>
<event>
 6    1  0.2003386E-005  0.3155897E+04  0.7818608E-02  0.8200563E-01
         -2   -1    0    0    0  501 -0.00000000000E+00  0.00000000000E+00  0.16684214283E+04  0.16684214283E+04  0.00000000000E+00 0.  1.
          2   -1    0    0  501    0  0.00000000000E+00 -0.00000000000E+00 -0.14923816223E+04  0.14923816223E+04  0.00000000000E+00 0. -1.
         23    2    1    2    0    0  0.78394712864E+03  0.75502317080E+03  0.12305192833E+04  0.16453625017E+04  0.91689510667E+02 0.  0.
         11    1    3    3    0    0  0.55172519573E+03  0.47224393935E+03  0.82966275453E+03  0.11026129494E+04  0.00000000000E+00 0.  1.
        -11    1    3    3    0    0  0.23222193291E+03  0.28277923145E+03  0.40085652882E+03  0.54274955233E+03  0.00000000000E+00 0. -1.
         22    1    1    2    0    0 -0.78394712864E+03 -0.75502317080E+03 -0.10544794774E+04  0.15154405489E+04  0.00000000000E+00 0. -1.
<mgrwt>
<rscale>  0 0.31558970E+04</rscale>
<asrwt>0</asrwt>
<pdfrwt beam="1">  1        2 0.22959717E+00 0.31558970E+04</pdfrwt>
<pdfrwt beam="2">  1       -2 0.25668022E+00 0.31558970E+04</pdfrwt>
<totfact> 0.63349268E-01</totfact>
</mgrwt>
</event>
<event>
 6    1  0.2003386E-005  0.2205230E+04  0.7818608E-02  0.8516255E-01
         -2   -1    0    0    0  501 -0.00000000000E+00  0.00000000000E+00  0.41164295926E+03  0.41164295926E+03  0.00000000000E+00 0.  1.
          2   -1    0    0  501    0  0.00000000000E+00 -0.00000000000E+00 -0.29534322211E+04  0.29534322211E+04  0.00000000000E+00 0. -1.
         23    2    1    2    0    0  0.10079195177E+04 -0.29890040271E+03 -0.77465220747E+03  0.13088610442E+04  0.88249563343E+02 0.  0.
         13    1    3    3    0    0  0.21628477247E+03 -0.73186223578E+02 -0.12575076626E+03  0.26066948678E+03  0.00000000000E+00 0.  1.
        -13    1    3    3    0    0  0.79163474527E+03 -0.22571417913E+03 -0.64890144121E+03  0.10481915574E+04  0.00000000000E+00 0. -1.
         22    1    1    2    0    0 -0.10079195177E+04  0.29890040271E+03 -0.17671370544E+04  0.20562141362E+04  0.00000000000E+00 0. -1.
<mgrwt>
<rscale>  0 0.22052298E+04</rscale>
<asrwt>0</asrwt>
<pdfrwt beam="1">  1        2 0.45437418E+00 0.22052298E+04</pdfrwt>
<pdfrwt beam="2">  1       -2 0.63329687E-01 0.22052298E+04</pdfrwt>
<totfact> 0.39311097E+00</totfact>
</mgrwt>
</event>
<event>
 6    1  0.2003386E-005  0.6006515E+04  0.7818608E-02  0.7689595E-01
         -1   -1    0    0    0  501 -0.00000000000E+00  0.00000000000E+00  0.23799106237E+04  0.23799106237E+04  0.00000000000E+00 0.  1.
          1   -1    0    0  501    0  0.00000000000E+00 -0.00000000000E+00 -0.37898718099E+04  0.37898718099E+04  0.00000000000E+00 0. -1.
         23    2    1    2    0    0  0.22655163191E+04 -0.67400551446E+03  0.11968574049E+04  0.26509259726E+04  0.89962431819E+02 0.  0.
         13    1    3    3    0    0  0.13516641681E+04 -0.40309870077E+03  0.66459841573E+03  0.15592227679E+04  0.00000000000E+00 0. -1.
        -13    1    3    3    0    0  0.91385215097E+03 -0.27090681369E+03  0.53225898921E+03  0.10917032047E+04  0.00000000000E+00 0.  1.
         22    1    1    2    0    0 -0.22655163191E+04  0.67400551446E+03 -0.26068185912E+04  0.35188564610E+04  0.00000000000E+00 0. -1.
<mgrwt>
<rscale>  0 0.60065152E+04</rscale>
<asrwt>0</asrwt>
<pdfrwt beam="1">  1        1 0.58305720E+00 0.60065152E+04</pdfrwt>
<pdfrwt beam="2">  1       -1 0.36614010E+00 0.60065152E+04</pdfrwt>
<totfact> 0.11743543E-03</totfact>
</mgrwt>
</event>
<event>
 6    1  0.2003386E-005  0.2284013E+04  0.7818608E-02  0.8484251E-01
         -2   -1    0    0    0  501 -0.00000000000E+00  0.00000000000E+00  0.11066030643E+04  0.11066030643E+04  0.00000000000E+00 0. -1.
          2   -1    0    0  501    0  0.00000000000E+00 -0.00000000000E+00 -0.11785424900E+04  0.11785424900E+04  0.00000000000E+00 0.  1.
         23    2    1    2    0    0 -0.56224952174E+03  0.40945777872E+03  0.86790039654E+03  0.11159239805E+04  0.90857220840E+02 0.  0.
         11    1    3    3    0    0 -0.27958043204E+03  0.23895172437E+03  0.40108539914E+03  0.54418070708E+03  0.00000000000E+00 0.  1.
        -11    1    3    3    0    0 -0.28266908970E+03  0.17050605435E+03  0.46681499740E+03  0.57174327337E+03  0.00000000000E+00 0. -1.
         22    1    1    2    0    0  0.56224952174E+03 -0.40945777872E+03 -0.93983982222E+03  0.11692215738E+04  0.00000000000E+00 0.  1.
<mgrwt>
<rscale>  0 0.22840129E+04</rscale>
<asrwt>0</asrwt>
<pdfrwt beam="1">  1        2 0.18131423E+00 0.22840129E+04</pdfrwt>
<pdfrwt beam="2">  1       -2 0.17024662E+00 0.22840129E+04</pdfrwt>
<totfact> 0.37598481E+00</totfact>
</mgrwt>
</event>
<event>
 6    1  0.2003386E-005  0.1357351E+04  0.7818608E-02  0.8985282E-01
          4   -1    0    0  501    0  0.00000000000E+00  0.00000000000E+00  0.30456122446E+03  0.30456122446E+03  0.00000000000E+00 0. -1.
         -4   -1    0    0    0  501 -0.00000000000E+00 -0.00000000000E+00 -0.15123409121E+04  0.15123409121E+04  0.00000000000E+00 0.  1.
         23    2    1    2    0    0  0.64889983202E+03  0.13680964145E+03 -0.77100113391E+03  0.10228219296E+04  0.10924322073E+03 0.  0.
         13    1    3    3    0    0  0.25480731183E+03  0.43791960554E+02 -0.38238933476E+03  0.46159084188E+03  0.00000000000E+00 0.  1.
        -13    1    3    3    0    0  0.39409252020E+03  0.93017680892E+02 -0.38861179916E+03  0.56123108777E+03  0.00000000000E+00 0. -1.
         22    1    1    2    0    0 -0.64889983202E+03 -0.13680964145E+03 -0.43677855369E+03  0.79408020687E+03  0.00000000000E+00 0. -1.
<mgrwt>
<rscale>  0 0.13573509E+04</rscale>
<asrwt>0</asrwt>
<pdfrwt beam="1">  1        4 0.46855573E-01 0.13573509E+04</pdfrwt>
<pdfrwt beam="2">  1       -4 0.23266783E+00 0.13573509E+04</pdfrwt>
<totfact> 0.70019046E-01</totfact>
</mgrwt>
</event>
<event>
 6    1  0.2003386E-005  0.2140904E+04  0.7818608E-02  0.8543436E-01
          1   -1    0    0  501    0  0.00000000000E+00  0.00000000000E+00  0.78376255331E+03  0.78376255331E+03  0.00000000000E+00 0.  1.
         -1   -1    0    0    0  501 -0.00000000000E+00 -0.00000000000E+00 -0.14620083768E+04  0.14620083768E+04  0.00000000000E+00 0. -1.
         23    2    1    2    0    0  0.44247007657E+03 -0.97085515045E+03 -0.27969321549E+03  0.11068312157E+04  0.92236399227E+02 0.  0.
         11    1    3    3    0    0  0.22263867536E+03 -0.49989052257E+03 -0.19082149464E+03  0.57954409421E+03  0.00000000000E+00 0. -1.
        -11    1    3    3    0    0  0.21983140121E+03 -0.47096462789E+03 -0.88871720858E+02  0.52728712145E+03  0.00000000000E+00 0.  1.
         22    1    1    2    0    0 -0.44247007657E+03  0.97085515045E+03 -0.39855260800E+03  0.11389397145E+04  0.00000000000E+00 0. -1.
<mgrwt>
<rscale>  0 0.21409039E+04</rscale>
<asrwt>0</asrwt>
<pdfrwt beam="1">  1        1 0.12057886E+00 0.21409039E+04</pdfrwt>
<pdfrwt beam="2">  1       -1 0.22492436E+00 0.21409039E+04</pdfrwt>
<totfact> 0.21358450E+00</totfact>
</mgrwt>
</event>
<event>
 6    1  0.2003386E-005  0.2331703E+04  0.7818608E-02  0.8465525E-01
         -2   -1    0    0    0  501 -0.00000000000E+00  0.00000000000E+00  0.39481157834E+03  0.39481157834E+03  0.00000000000E+00 0.  1.
          2   -1    0    0  501    0  0.00000000000E+00 -0.00000000000E+00 -0.34426793936E+04  0.34426793936E+04  0.00000000000E+00 0. -1.
         23    2    1    2    0    0 -0.78840024168E+03  0.39378271180E+03 -0.27780121532E+04  0.29158284287E+04  0.89800542258E+02 0.  0.
         13    1    3    3    0    0 -0.51932253161E+03  0.22435545085E+03 -0.16791354824E+04  0.17718711095E+04  0.00000000000E+00 0. -1.
        -13    1    3    3    0    0 -0.26907771007E+03  0.16942726095E+03 -0.10988766707E+04  0.11439573193E+04  0.00000000000E+00 0.  1.
         22    1    1    2    0    0  0.78840024168E+03 -0.39378271180E+03 -0.26985566208E+03  0.92166254321E+03  0.00000000000E+00 0.  1.
<mgrwt>
<rscale>  0 0.23317030E+04</rscale>
<asrwt>0</asrwt>
<pdfrwt beam="1">  1        2 0.52964299E+00 0.23317030E+04</pdfrwt>
<pdfrwt beam="2">  1       -2 0.60740242E-01 0.23317030E+04</pdfrwt>
<totfact> 0.20379996E+00</totfact>
</mgrwt>
</event>
<event>
 6    1  0.2003386E-005  0.1561935E+04  0.7818608E-02  0.8844280E-01
          2   -1    0    0  501    0  0.00000000000E+00  0.00000000000E+00  0.86312940710E+03  0.86312940710E+03  0.00000000000E+00 0. -1.
         -2   -1    0    0    0  501 -0.00000000000E+00 -0.00000000000E+00 -0.70662670664E+03  0.70662670664E+03  0.00000000000E+00 0.  1.
         23    2    1    2    0    0  0.53282966609E+03  0.45686342745E+03  0.41627385675E+03  0.82134934062E+03  0.93269347158E+02 0.  0.
         13    1    3    3    0    0  0.30721826288E+03  0.31970319892E+03  0.27751367042E+03  0.52307459671E+03  0.00000000000E+00 0. -1.
        -13    1    3    3    0    0  0.22561140321E+03  0.13716022853E+03  0.13876018633E+03  0.29827474392E+03  0.00000000000E+00 0.  1.
         22    1    1    2    0    0 -0.53282966609E+03 -0.45686342745E+03 -0.25977115629E+03  0.74840677312E+03  0.00000000000E+00 0.  1.
<mgrwt>
<rscale>  0 0.15619351E+04</rscale>
<asrwt>0</asrwt>
<pdfrwt beam="1">  1        2 0.13278914E+00 0.15619351E+04</pdfrwt>
<pdfrwt beam="2">  1       -2 0.10871180E+00 0.15619351E+04</pdfrwt>
<totfact> 0.20207507E+01</totfact>
</mgrwt>
</event>
<event>
 6    1  0.2003386E-005  0.1037792E+04  0.7818608E-02  0.9268039E-01
         -2   -1    0    0    0  501 -0.00000000000E+00  0.00000000000E+00  0.24230027740E+03  0.24230027740E+03  0.00000000000E+00 0.  1.
          2   -1    0    0  501    0  0.00000000000E+00 -0.00000000000E+00 -0.11112372790E+04  0.11112372790E+04  0.00000000000E+00 0. -1.
         23    2    1    2    0    0  0.13537087231E+03  0.29890676530E+03 -0.95536714738E+03  0.10142136735E+04  0.90732914348E+02 0.  0.
         11    1    3    3    0    0  0.75888258287E+02  0.23681678852E+03 -0.62033847472E+03  0.66832704740E+03  0.00000000000E+00 0.  1.
        -11    1    3    3    0    0  0.59482614025E+02  0.62089976778E+02 -0.33502867266E+03  0.34588662607E+03  0.00000000000E+00 0. -1.
         22    1    1    2    0    0 -0.13537087231E+03 -0.29890676530E+03  0.86430145805E+02  0.33932388291E+03  0.00000000000E+00 0.  1.
<mgrwt>
<rscale>  0 0.10377921E+04</rscale>
<asrwt>0</asrwt>
<pdfrwt beam="1">  1        2 0.17095958E+00 0.10377921E+04</pdfrwt>
<pdfrwt beam="2">  1       -2 0.37276966E-01 0.10377921E+04</pdfrwt>
<totfact> 0.14480264E+02</totfact>
</mgrwt>
</event>
<event>
 6    1  0.2003386E-005  0.2787171E+04  0.7818608E-02  0.8307262E-01
         -2   -1    0    0    0  501 -0.00000000000E+00  0.00000000000E+00  0.12671129757E+04  0.12671129757E+04  0.00000000000E+00 0.  1.
          2   -1    0    0  501    0  0.00000000000E+00 -0.00000000000E+00 -0.15326809481E+04  0.15326809481E+04  0.00000000000E+00 0. -1.
         23    2    1    2    0    0 -0.67441137943E+03  0.72654062146E+03  0.84893335583E+03  0.13082158353E+04  0.89715359210E+02 0.  0.
         11    1    3    3    0    0 -0.30760167077E+03  0.28626898239E+03  0.31738915041E+03  0.52659718090E+03  0.00000000000E+00 0. -1.
        -11    1    3    3    0    0 -0.36680970865E+03  0.44027163907E+03  0.53154420543E+03  0.78161865437E+03  0.00000000000E+00 0.  1.
         22    1    1    2    0    0  0.67441137943E+03 -0.72654062146E+03 -0.11145013283E+04  0.14915780885E+04  0.00000000000E+00 0. -1.
<mgrwt>
<rscale>  0 0.27871705E+04</rscale>
<asrwt>0</asrwt>
<pdfrwt beam="1">  1        2 0.23579707E+00 0.27871705E+04</pdfrwt>
<pdfrwt beam="2">  1       -2 0.19494046E+00 0.27871705E+04</pdfrwt>
<totfact> 0.15225102E+00</totfact>
</mgrwt>
</event>
<event>
 6    1  0.2003386E-005  0.7444277E+03  0.7818608E-02  0.9644133E-01
         -2   -1    0    0    0  501 -0.00000000000E+00  0.00000000000E+00  0.99723954530E+03  0.99723954530E+03  0.00000000000E+00 0.  1.
          2   -1    0    0  501    0  0.00000000000E+00 -0.00000000000E+00 -0.13892665279E+03  0.13892665279E+03  0.00000000000E+00 0. -1.
         23    2    1    2    0    0 -0.14999951282E+03  0.75201336181E+02 -0.66699542922E+02  0.19605817210E+03  0.76386405946E+02 0.  0.
         13    1    3    3    0    0  0.33868501271E+01 -0.64490315447E+01 -0.11727049390E+02  0.13805232669E+02  0.00000000000E+00 0. -1.
        -13    1    3    3    0    0 -0.15338636294E+03  0.81650367725E+02 -0.54972493532E+02  0.18225293943E+03  0.00000000000E+00 0.  1.
         22    1    1    2    0    0  0.14999951282E+03 -0.75201336181E+02  0.92501243543E+03  0.94010802598E+03  0.00000000000E+00 0.  1.
<mgrwt>
<rscale>  0 0.74442771E+03</rscale>
<asrwt>0</asrwt>
<pdfrwt beam="1">  1        2 0.21373332E-01 0.74442771E+03</pdfrwt>
<pdfrwt beam="2">  1       -2 0.15342146E+00 0.74442771E+03</pdfrwt>
<totfact> 0.75011164E+01</totfact>
</mgrwt>
</event>
<event>
 6    1  0.2003386E-005  0.3522688E+04  0.7818608E-02  0.8108434E-01
         -2   -1    0    0    0  501 -0.00000000000E+00  0.00000000000E+00  0.12385360955E+04  0.12385360955E+04  0.00000000000E+00 0.  1.
          2   -1    0    0  501    0  0.00000000000E+00 -0.00000000000E+00 -0.25048376228E+04  0.25048376228E+04  0.00000000000E+00 0. -1.
         23    2    1    2    0    0  0.16108554712E+04 -0.56184189658E+03 -0.10937692248E+04  0.20286466084E+04  0.92489342285E+02 0.  0.
         13    1    3    3    0    0  0.69641091330E+03 -0.24105549804E+03 -0.41833056095E+03  0.84740567116E+03  0.00000000000E+00 0. -1.
        -13    1    3    3    0    0  0.91444455795E+03 -0.32078639853E+03 -0.67543866387E+03  0.11812409372E+04  0.00000000000E+00 0.  1.
         22    1    1    2    0    0 -0.16108554712E+04  0.56184189658E+03 -0.17253230249E+03  0.17147271099E+04  0.00000000000E+00 0.  1.
<mgrwt>
<rscale>  0 0.35226875E+04</rscale>
<asrwt>0</asrwt>
<pdfrwt beam="1">  1        2 0.38535964E+00 0.35226875E+04</pdfrwt>
<pdfrwt beam="2">  1       -2 0.19054401E+00 0.35226875E+04</pdfrwt>
<totfact> 0.43597450E-01</totfact>
</mgrwt>
</event>
<event>
 6    1  0.2003386E-005  0.2513933E+04  0.7818608E-02  0.8398039E-01
         -2   -1    0    0    0  501 -0.00000000000E+00  0.00000000000E+00  0.66588359244E+03  0.66588359244E+03  0.00000000000E+00 0. -1.
          2   -1    0    0  501    0  0.00000000000E+00 -0.00000000000E+00 -0.23727341039E+04  0.23727341039E+04  0.00000000000E+00 0.  1.
         23    2    1    2    0    0 -0.12030008439E+04 -0.24815138427E+03 -0.11680230516E+04  0.16973029788E+04  0.88144272507E+02 0.  0.
         11    1    3    3    0    0 -0.81925141481E+03 -0.12679524364E+03 -0.78690090509E+03  0.11430061019E+04  0.00000000000E+00 0. -1.
        -11    1    3    3    0    0 -0.38374942911E+03 -0.12135614064E+03 -0.38112214648E+03  0.55429687690E+03  0.00000000000E+00 0.  1.
         22    1    1    2    0    0  0.12030008439E+04  0.24815138427E+03 -0.53882745988E+03  0.13413147175E+04  0.00000000000E+00 0.  1.
<mgrwt>
<rscale>  0 0.25139329E+04</rscale>
<asrwt>0</asrwt>
<pdfrwt beam="1">  1        2 0.36503601E+00 0.25139329E+04</pdfrwt>
<pdfrwt beam="2">  1       -2 0.10244363E+00 0.25139329E+04</pdfrwt>
<totfact> 0.28623942E+00</totfact>
</mgrwt>
</event>
<event>
 6    1  0.2003386E-005  0.1587734E+04  0.7818608E-02  0.8828119E-01
          2   -1    0    0  501    0  0.00000000000E+00  0.00000000000E+00  0.16847325005E+04  0.16847325005E+04  0.00000000000E+00 0.  1.
         -2   -1    0    0    0  501 -0.00000000000E+00 -0.00000000000E+00 -0.37407988921E+03  0.37407988921E+03  0.00000000000E+00 0. -1.
         23    2    1    2    0    0  0.34506996299E+03 -0.55993197430E+03  0.87011872589E+02  0.66960623056E+03  0.90577827452E+02 0.  0.
         11    1    3    3    0    0  0.16913328269E+03 -0.22465023960E+03  0.46098835328E+00  0.28120101347E+03  0.00000000000E+00 0. -1.
        -11    1    3    3    0    0  0.17593668031E+03 -0.33528173471E+03  0.86550884236E+02  0.38840521710E+03  0.00000000000E+00 0.  1.
         22    1    1    2    0    0 -0.34506996299E+03  0.55993197430E+03  0.12236407387E+04  0.13892061592E+04  0.00000000000E+00 0.  1.
<mgrwt>
<rscale>  0 0.15877337E+04</rscale>
<asrwt>0</asrwt>
<pdfrwt beam="1">  1        2 0.25918961E+00 0.15877337E+04</pdfrwt>
<pdfrwt beam="2">  1       -2 0.57550753E-01 0.15877337E+04</pdfrwt>
<totfact> 0.27140953E+01</totfact>
</mgrwt>
</event>
<event>
 6    1  0.2003386E-005  0.8940451E+03  0.7818608E-02  0.9433056E-01
         -2   -1    0    0    0  501 -0.00000000000E+00  0.00000000000E+00  0.51189522717E+03  0.51189522717E+03  0.00000000000E+00 0.  1.
          2   -1    0    0  501    0  0.00000000000E+00 -0.00000000000E+00 -0.39037121760E+03  0.39037121760E+03  0.00000000000E+00 0. -1.
         23    2    1    2    0    0  0.24410805802E+03 -0.23423989766E+03  0.34889055083E+03  0.49464821931E+03  0.92169250617E+02 0.  0.
         11    1    3    3    0    0  0.98649258578E+02 -0.48831271192E+02  0.15136725652E+03  0.18715826353E+03  0.00000000000E+00 0. -1.
        -11    1    3    3    0    0  0.14545879944E+03 -0.18540862647E+03  0.19752329431E+03  0.30748995577E+03  0.00000000000E+00 0.  1.
         22    1    1    2    0    0 -0.24410805802E+03  0.23423989766E+03 -0.22736654126E+03  0.40761822547E+03  0.00000000000E+00 0. -1.
<mgrwt>
<rscale>  0 0.89404511E+03</rscale>
<asrwt>0</asrwt>
<pdfrwt beam="1">  1        2 0.60057110E-01 0.89404511E+03</pdfrwt>
<pdfrwt beam="2">  1       -2 0.78753112E-01 0.89404511E+03</pdfrwt>
<totfact> 0.11753834E+02</totfact>
</mgrwt>
</event>
<event>
 6    1  0.2003386E-005  0.1784929E+04  0.7818608E-02  0.8714355E-01
          2   -1    0    0  501    0  0.00000000000E+00  0.00000000000E+00  0.10320442721E+04  0.10320442721E+04  0.00000000000E+00 0. -1.
         -2   -1    0    0    0  501 -0.00000000000E+00 -0.00000000000E+00 -0.77176274650E+03  0.77176274650E+03  0.00000000000E+00 0.  1.
         23    2    1    2    0    0 -0.38843880175E+03 -0.72850698507E+03  0.46735241847E+03  0.95263988768E+03  0.86587196226E+02 0.  0.
         13    1    3    3    0    0 -0.35857422425E+03 -0.61208187587E+03  0.38721906469E+03  0.80818209651E+03  0.00000000000E+00 0. -1.
        -13    1    3    3    0    0 -0.29864577505E+02 -0.11642510920E+03  0.80133353775E+02  0.14445779117E+03  0.00000000000E+00 0.  1.
         22    1    1    2    0    0  0.38843880175E+03  0.72850698507E+03 -0.20707089290E+03  0.85116713088E+03  0.00000000000E+00 0.  1.
<mgrwt>
<rscale>  0 0.17849295E+04</rscale>
<asrwt>0</asrwt>
<pdfrwt beam="1">  1        2 0.15877604E+00 0.17849295E+04</pdfrwt>
<pdfrwt beam="2">  1       -2 0.11873273E+00 0.17849295E+04</pdfrwt>
<totfact> 0.12383389E+01</totfact>
</mgrwt>
</event>
<event>
 6    1  0.2003386E-005  0.2422024E+04  0.7818608E-02  0.8431304E-01
         -2   -1    0    0    0  501 -0.00000000000E+00  0.00000000000E+00  0.13515156616E+04  0.13515156616E+04  0.00000000000E+00 0.  1.
          2   -1    0    0  501    0  0.00000000000E+00 -0.00000000000E+00 -0.10851147054E+04  0.10851147054E+04  0.00000000000E+00 0. -1.
         23    2    1    2    0    0  0.53332670184E+03  0.10648695023E+04  0.34499946760E+03  0.12430801360E+04  0.88539053373E+02 0.  0.
         11    1    3    3    0    0  0.44137652535E+03  0.86274655586E+03  0.24522964126E+03  0.99964115248E+03  0.00000000000E+00 0. -1.
        -11    1    3    3    0    0  0.91950176490E+02  0.20212294646E+03  0.99769826347E+02  0.24343898351E+03  0.00000000000E+00 0.  1.
         22    1    1    2    0    0 -0.53332670184E+03 -0.10648695023E+04 -0.78598511462E+02  0.11935502310E+04  0.00000000000E+00 0.  1.
<mgrwt>
<rscale>  0 0.24220235E+04</rscale>
<asrwt>0</asrwt>
<pdfrwt beam="1">  1        2 0.16694072E+00 0.24220235E+04</pdfrwt>
<pdfrwt beam="2">  1       -2 0.20792549E+00 0.24220235E+04</pdfrwt>
<totfact> 0.23585825E+00</totfact>
</mgrwt>
</event>
<event>
 6    1  0.2003386E-005  0.1550519E+04  0.7818608E-02  0.8851536E-01
          2   -1    0    0  501    0  0.00000000000E+00  0.00000000000E+00  0.99921723568E+03  0.99921723568E+03  0.00000000000E+00 0. -1.
         -2   -1    0    0    0  501 -0.00000000000E+00 -0.00000000000E+00 -0.60149791487E+03  0.60149791487E+03  0.00000000000E+00 0.  1.
         23    2    1    2    0    0  0.42251526107E+03 -0.35539640390E+03 -0.35833999479E+03  0.66452529884E+03  0.91436159099E+02 0.  0.
         13    1    3    3    0    0  0.80452770370E+02 -0.78407065136E+02 -0.32671426425E+02  0.11699460769E+03  0.00000000000E+00 0. -1.
        -13    1    3    3    0    0  0.34206249070E+03 -0.27698933876E+03 -0.32566856837E+03  0.54753069115E+03  0.00000000000E+00 0.  1.
         22    1    1    2    0    0 -0.42251526107E+03  0.35539640390E+03  0.75605931560E+03  0.93618985171E+03  0.00000000000E+00 0. -1.
<mgrwt>
<rscale>  0 0.15505187E+04</rscale>
<asrwt>0</asrwt>
<pdfrwt beam="1">  1        2 0.15372573E+00 0.15505187E+04</pdfrwt>
<pdfrwt beam="2">  1       -2 0.92538141E-01 0.15505187E+04</pdfrwt>
<totfact> 0.24056445E+01</totfact>
</mgrwt>
</event>
<event>
 6    1  0.2003386E-005  0.1903279E+04  0.7818608E-02  0.8653226E-01
         -2   -1    0    0    0  501 -0.00000000000E+00  0.00000000000E+00  0.50586899959E+03  0.50586899959E+03  0.00000000000E+00 0.  1.
          2   -1    0    0  501    0  0.00000000000E+00 -0.00000000000E+00 -0.17902225445E+04  0.17902225445E+04  0.00000000000E+00 0. -1.
         23    2    1    2    0    0  0.14835618878E+03  0.15476241086E+03 -0.17594502460E+04  0.17748643020E+04  0.92288459445E+02 0.  0.
         11    1    3    3    0    0  0.49226232515E+02  0.92176115802E+02 -0.55738501990E+03  0.56709586377E+03  0.00000000000E+00 0. -1.
        -11    1    3    3    0    0  0.99129956263E+02  0.62586295054E+02 -0.12020652261E+04  0.12077684382E+04  0.00000000000E+00 0.  1.
         22    1    1    2    0    0 -0.14835618878E+03 -0.15476241086E+03  0.47509670107E+03  0.52122724212E+03  0.00000000000E+00 0.  1.
<mgrwt>
<rscale>  0 0.19032794E+04</rscale>
<asrwt>0</asrwt>
<pdfrwt beam="1">  1        2 0.27541885E+00 0.19032794E+04</pdfrwt>
<pdfrwt beam="2">  1       -2 0.77826001E-01 0.19032794E+04</pdfrwt>
<totfact> 0.12028741E+01</totfact>
</mgrwt>
</event>
<event>
 6    1  0.2003386E-005  0.1584935E+04  0.7818608E-02  0.8829857E-01
          2   -1    0    0  501    0  0.00000000000E+00  0.00000000000E+00  0.83362830330E+03  0.83362830330E+03  0.00000000000E+00 0. -1.
         -2   -1    0    0    0  501 -0.00000000000E+00 -0.00000000000E+00 -0.75333948497E+03  0.75333948497E+03  0.00000000000E+00 0.  1.
         23    2    1    2    0    0  0.36868044679E+03  0.78697064497E+02  0.73515914583E+03  0.83133980729E+03  0.92457588518E+02 0.  0.
         13    1    3    3    0    0  0.22188290104E+03  0.52086054354E+01  0.37982257706E+03  0.43991401590E+03  0.00000000000E+00 0. -1.
        -13    1    3    3    0    0  0.14679754575E+03  0.73488459062E+02  0.35533656877E+03  0.39142579138E+03  0.00000000000E+00 0.  1.
         22    1    1    2    0    0 -0.36868044679E+03 -0.78697064497E+02 -0.65487032750E+03  0.75562798099E+03  0.00000000000E+00 0.  1.
<mgrwt>
<rscale>  0 0.15849355E+04</rscale>
<asrwt>0</asrwt>
<pdfrwt beam="1">  1        2 0.12825051E+00 0.15849355E+04</pdfrwt>
<pdfrwt beam="2">  1       -2 0.11589838E+00 0.15849355E+04</pdfrwt>
<totfact> 0.18101581E+01</totfact>
</mgrwt>
</event>
<event>
 6    1  0.2003386E-005  0.9622261E+03  0.7818608E-02  0.9350973E-01
          2   -1    0    0  501    0  0.00000000000E+00  0.00000000000E+00  0.36906828496E+04  0.36906828496E+04  0.00000000000E+00 0. -1.
         -2   -1    0    0    0  501 -0.00000000000E+00 -0.00000000000E+00 -0.62717329747E+02  0.62717329747E+02  0.00000000000E+00 0.  1.
         23    2    1    2    0    0  0.15701300123E+03  0.23238238517E+03  0.33343237662E+04  0.33473458295E+04  0.91402786446E+02 0.  0.
         13    1    3    3    0    0 -0.70888538036E+00  0.64874015893E+02  0.74909940975E+03  0.75190362823E+03  0.00000000000E+00 0. -1.
        -13    1    3    3    0    0  0.15772188661E+03  0.16750836927E+03  0.25852243564E+04  0.25954422013E+04  0.00000000000E+00 0.  1.
         22    1    1    2    0    0 -0.15701300123E+03 -0.23238238517E+03  0.29364175366E+03  0.40605434979E+03  0.00000000000E+00 0.  1.
<mgrwt>
<rscale>  0 0.96222611E+03</rscale>
<asrwt>0</asrwt>
<pdfrwt beam="1">  1        2 0.56779719E+00 0.96222611E+03</pdfrwt>
<pdfrwt beam="2">  1       -2 0.96488228E-02 0.96222611E+03</pdfrwt>
<totfact> 0.45431970E+01</totfact>
</mgrwt>
</event>
<event>
 6    1  0.2177961E-005  0.3642839E+04  0.7818608E-02  0.8080749E-01
         -2   -1    0    0    0  501 -0.00000000000E+00  0.00000000000E+00  0.13647180422E+04  0.13647180422E+04  0.00000000000E+00 0.  1.
          2   -1    0    0  501    0  0.00000000000E+00 -0.00000000000E+00 -0.24309554827E+04  0.24309554827E+04  0.00000000000E+00 0. -1.
         23    2    1    2    0    0 -0.16162690958E+03 -0.43176414130E+03  0.13013510710E+04  0.13836165414E+04  0.91304939773E+02 0.  0.
         11    1    3    3    0    0 -0.81419148704E+02 -0.19191943823E+03  0.72146320193E+03  0.75098022629E+03  0.00000000000E+00 0. -1.
        -11    1    3    3    0    0 -0.80207760872E+02 -0.23984470307E+03  0.57988786911E+03  0.63263631514E+03  0.00000000000E+00 0.  1.
         22    1    1    2    0    0  0.16162690958E+03  0.43176414130E+03 -0.23675885116E+04  0.24120569835E+04  0.00000000000E+00 0. -1.
<mgrwt>
<rscale>  0 0.36428389E+04</rscale>
<asrwt>0</asrwt>
<pdfrwt beam="1">  1        2 0.37399315E+00 0.36428389E+04</pdfrwt>
<pdfrwt beam="2">  1       -2 0.20995662E+00 0.36428389E+04</pdfrwt>
<totfact> 0.35511576E-01</totfact>
</mgrwt>
</event>
<event>
 6    1  0.2003386E-005  0.7921855E+03  0.7818608E-02  0.9571398E-01
          4   -1    0    0  501    0  0.00000000000E+00  0.00000000000E+00  0.73304564640E+03  0.73304564640E+03  0.00000000000E+00 0. -1.
         -4   -1    0    0    0  501 -0.00000000000E+00 -0.00000000000E+00 -0.21402413398E+03  0.21402413398E+03  0.00000000000E+00 0.  1.
         23    2    1    2    0    0  0.36375493621E+03 -0.13821323168E+03  0.22144118105E+03  0.45719775153E+03  0.92590692367E+02 0.  0.
         11    1    3    3    0    0  0.77098992315E+02 -0.23186008692E+02  0.92121985721E+02  0.12234502797E+03  0.00000000000E+00 0.  1.
        -11    1    3    3    0    0  0.28665594389E+03 -0.11502722299E+03  0.12931919532E+03  0.33485272356E+03  0.00000000000E+00 0. -1.
         22    1    1    2    0    0 -0.36375493621E+03  0.13821323168E+03  0.29758033137E+03  0.48987202885E+03  0.00000000000E+00 0.  1.
<mgrwt>
<rscale>  0 0.79218548E+03</rscale>
<asrwt>0</asrwt>
<pdfrwt beam="1">  1        4 0.11277625E+00 0.79218548E+03</pdfrwt>
<pdfrwt beam="2">  1       -4 0.32926790E-01 0.79218548E+03</pdfrwt>
<totfact> 0.11020980E+01</totfact>
</mgrwt>
</event>
<event>
 6    1  0.2003386E-005  0.6947241E+03  0.7818608E-02  0.9726297E-01
          2   -1    0    0  501    0  0.00000000000E+00  0.00000000000E+00  0.57892363339E+03  0.57892363339E+03  0.00000000000E+00 0. -1.
         -2   -1    0    0    0  501 -0.00000000000E+00 -0.00000000000E+00 -0.20842196443E+03  0.20842196443E+03  0.00000000000E+00 0.  1.
         23    2    1    2    0    0  0.15073054714E+03  0.41929614272E+02  0.53260304066E+03  0.56205768180E+03  0.88119511800E+02 0.  0.
         11    1    3    3    0    0  0.11375820783E+03  0.59123335667E+02  0.30529724340E+03  0.33112370119E+03  0.00000000000E+00 0.  1.
        -11    1    3    3    0    0  0.36972339317E+02 -0.17193721395E+02  0.22730579726E+03  0.23093398061E+03  0.00000000000E+00 0. -1.
         22    1    1    2    0    0 -0.15073054714E+03 -0.41929614272E+02 -0.16210137170E+03  0.22528791601E+03  0.00000000000E+00 0.  1.
<mgrwt>
<rscale>  0 0.69472412E+03</rscale>
<asrwt>0</asrwt>
<pdfrwt beam="1">  1        2 0.89065174E-01 0.69472412E+03</pdfrwt>
<pdfrwt beam="2">  1       -2 0.32064918E-01 0.69472412E+03</pdfrwt>
<totfact> 0.47163689E+02</totfact>
</mgrwt>
</event>
<event>
 6    1  0.2003386E-005  0.1945938E+04  0.7818608E-02  0.8632322E-01
         -2   -1    0    0    0  501 -0.00000000000E+00  0.00000000000E+00  0.23929465097E+03  0.23929465097E+03  0.00000000000E+00 0.  1.
          2   -1    0    0  501    0  0.00000000000E+00 -0.00000000000E+00 -0.39560782496E+04  0.39560782496E+04  0.00000000000E+00 0. -1.
         23    2    1    2    0    0  0.60864309799E+03 -0.62173035173E+03 -0.93394142694E+03  0.12796902012E+04  0.91462402382E+02 0.  0.
         13    1    3    3    0    0  0.25096884022E+03 -0.19696922495E+03 -0.31969316248E+03  0.45164804048E+03  0.00000000000E+00 0. -1.
        -13    1    3    3    0    0  0.35767425777E+03 -0.42476112678E+03 -0.61424826446E+03  0.82804216070E+03  0.00000000000E+00 0.  1.
         22    1    1    2    0    0 -0.60864309799E+03  0.62173035173E+03 -0.27828421717E+04  0.29156826994E+04  0.00000000000E+00 0. -1.
<mgrwt>
<rscale>  0 0.19459377E+04</rscale>
<asrwt>0</asrwt>
<pdfrwt beam="1">  1        2 0.60862740E+00 0.19459377E+04</pdfrwt>
<pdfrwt beam="2">  1       -2 0.36814563E-01 0.19459377E+04</pdfrwt>
<totfact> 0.24338133E+00</totfact>
</mgrwt>
</event>
<event>
 6    1  0.2003386E-005  0.2191192E+04  0.7818608E-02  0.8522103E-01
          2   -1    0    0  501    0  0.00000000000E+00  0.00000000000E+00  0.16304958204E+04  0.16304958204E+04  0.00000000000E+00 0. -1.
         -2   -1    0    0    0  501 -0.00000000000E+00 -0.00000000000E+00 -0.73617536709E+03  0.73617536709E+03  0.00000000000E+00 0.  1.
         23    2    1    2    0    0 -0.63794072550E+03  0.44955790341E+03  0.12755734043E+04  0.14980950593E+04  0.90169946460E+02 0.  0.
         11    1    3    3    0    0 -0.39190263889E+03  0.26321911331E+03  0.85128662049E+03  0.97342739339E+03  0.00000000000E+00 0.  1.
        -11    1    3    3    0    0 -0.24603808661E+03  0.18633879010E+03  0.42428678379E+03  0.52466766591E+03  0.00000000000E+00 0. -1.
         22    1    1    2    0    0  0.63794072550E+03 -0.44955790341E+03 -0.38125295100E+03  0.86857612816E+03  0.00000000000E+00 0.  1.
<mgrwt>
<rscale>  0 0.21911922E+04</rscale>
<asrwt>0</asrwt>
<pdfrwt beam="1">  1        2 0.25084551E+00 0.21911922E+04</pdfrwt>
<pdfrwt beam="2">  1       -2 0.11325775E+00 0.21911922E+04</pdfrwt>
<totfact> 0.60033574E+00</totfact>
</mgrwt>
</event>
<event>
 6    1  0.2003386E-005  0.2254945E+04  0.7818608E-02  0.8495901E-01
          2   -1    0    0  501    0  0.00000000000E+00  0.00000000000E+00  0.14827291190E+04  0.14827291190E+04  0.00000000000E+00 0. -1.
         -2   -1    0    0    0  501 -0.00000000000E+00 -0.00000000000E+00 -0.85733418249E+03  0.85733418249E+03  0.00000000000E+00 0.  1.
         23    2    1    2    0    0 -0.28746738343E+02 -0.44258281646E+03 -0.76019105948E+03  0.88522500234E+03  0.95010175545E+02 0.  0.
         13    1    3    3    0    0 -0.45110766642E+02 -0.37514351317E+03 -0.68901369644E+03  0.78581646116E+03  0.00000000000E+00 0.  1.
        -13    1    3    3    0    0  0.16364028298E+02 -0.67439303291E+02 -0.71177363039E+02  0.99408541181E+02  0.00000000000E+00 0. -1.
         22    1    1    2    0    0  0.28746738343E+02  0.44258281646E+03  0.13855859959E+04  0.14548382991E+04  0.00000000000E+00 0. -1.
<mgrwt>
<rscale>  0 0.22549451E+04</rscale>
<asrwt>0</asrwt>
<pdfrwt beam="1">  1        2 0.22811217E+00 0.22549451E+04</pdfrwt>
<pdfrwt beam="2">  1       -2 0.13189757E+00 0.22549451E+04</pdfrwt>
<totfact> 0.49462076E+00</totfact>
</mgrwt>
</event>
<event>
 6    1  0.2003386E-005  0.3151014E+04  0.7818608E-02  0.8201875E-01
          2   -1    0    0  501    0  0.00000000000E+00  0.00000000000E+00  0.28072433978E+04  0.28072433978E+04  0.00000000000E+00 0. -1.
         -2   -1    0    0    0  501 -0.00000000000E+00 -0.00000000000E+00 -0.88422058149E+03  0.88422058149E+03  0.00000000000E+00 0.  1.
         23    2    1    2    0    0  0.48767178162E+03  0.12561270245E+04  0.19157220682E+04  0.23439729147E+04  0.92407325813E+02 0.  0.
         11    1    3    3    0    0  0.19017892880E+03  0.41743351016E+03  0.71339290978E+03  0.84814397604E+03  0.00000000000E+00 0. -1.
        -11    1    3    3    0    0  0.29749285282E+03  0.83869351433E+03  0.12023291584E+04  0.14958289386E+04  0.00000000000E+00 0.  1.
         22    1    1    2    0    0 -0.48767178162E+03 -0.12561270245E+04  0.73007480738E+01  0.13474910646E+04  0.00000000000E+00 0.  1.
<mgrwt>
<rscale>  0 0.31510141E+04</rscale>
<asrwt>0</asrwt>
<pdfrwt beam="1">  1        2 0.43188360E+00 0.31510141E+04</pdfrwt>
<pdfrwt beam="2">  1       -2 0.13603394E+00 0.31510141E+04</pdfrwt>
<totfact> 0.74841019E-01</totfact>
</mgrwt>
</event>
<event>
 6    1  0.2003386E-005  0.9947125E+03  0.7818608E-02  0.9314363E-01
         -2   -1    0    0    0  501 -0.00000000000E+00  0.00000000000E+00  0.24908829872E+03  0.24908829872E+03  0.00000000000E+00 0.  1.
          2   -1    0    0  501    0  0.00000000000E+00 -0.00000000000E+00 -0.99307442740E+03  0.99307442740E+03  0.00000000000E+00 0. -1.
         23    2    1    2    0    0  0.29142365550E+03 -0.11006154858E+03 -0.85249432961E+03  0.91229105240E+03  0.92125408059E+02 0.  0.
         13    1    3    3    0    0  0.20067664502E+03 -0.70536358239E+02 -0.68980695138E+03  0.72185879773E+03  0.00000000000E+00 0. -1.
        -13    1    3    3    0    0  0.90747010481E+02 -0.39525190340E+02 -0.16268737823E+03  0.19043225467E+03  0.00000000000E+00 0.  1.
         22    1    1    2    0    0 -0.29142365550E+03  0.11006154858E+03  0.10850820093E+03  0.32987167373E+03  0.00000000000E+00 0.  1.
<mgrwt>
<rscale>  0 0.99471246E+03</rscale>
<asrwt>0</asrwt>
<pdfrwt beam="1">  1        2 0.15278068E+00 0.99471246E+03</pdfrwt>
<pdfrwt beam="2">  1       -2 0.38321277E-01 0.99471246E+03</pdfrwt>
<totfact> 0.16327012E+02</totfact>
</mgrwt>
</event>
<event>
 6    1  0.2003386E-005  0.2696905E+04  0.7818608E-02  0.8336010E-01
          1   -1    0    0  501    0  0.00000000000E+00  0.00000000000E+00  0.19368113515E+04  0.19368113515E+04  0.00000000000E+00 0. -1.
         -1   -1    0    0    0  501 -0.00000000000E+00 -0.00000000000E+00 -0.93882365133E+03  0.93882365133E+03  0.00000000000E+00 0.  1.
         23    2    1    2    0    0  0.83169846997E+03  0.21271713813E+03 -0.60731184767E+03  0.10552071509E+04  0.87541562412E+02 0.  0.
         13    1    3    3    0    0  0.12432478420E+03  0.62797299350E+02 -0.84462849175E+02  0.16289298838E+03  0.00000000000E+00 0. -1.
        -13    1    3    3    0    0  0.70737368577E+03  0.14991983878E+03 -0.52284899850E+03  0.89231416251E+03  0.00000000000E+00 0.  1.
         22    1    1    2    0    0 -0.83169846997E+03 -0.21271713813E+03  0.16052995478E+04  0.18204278519E+04  0.00000000000E+00 0. -1.
<mgrwt>
<rscale>  0 0.26969051E+04</rscale>
<asrwt>0</asrwt>
<pdfrwt beam="1">  1        1 0.29797098E+00 0.26969051E+04</pdfrwt>
<pdfrwt beam="2">  1       -1 0.14443441E+00 0.26969051E+04</pdfrwt>
<totfact> 0.11090100E+00</totfact>
</mgrwt>
</event>
<event>
 6    1  0.2003386E-005  0.3046516E+04  0.7818608E-02  0.8230571E-01
         -2   -1    0    0    0  501 -0.00000000000E+00  0.00000000000E+00  0.47366540915E+03  0.47366540915E+03  0.00000000000E+00 0.  1.
          2   -1    0    0  501    0  0.00000000000E+00 -0.00000000000E+00 -0.48986373407E+04  0.48986373407E+04  0.00000000000E+00 0. -1.
         23    2    1    2    0    0 -0.12959975801E+04 -0.39472605644E+03 -0.98916887171E+03  0.16790438836E+04  0.72903490429E+02 0.  0.
         13    1    3    3    0    0 -0.42767600994E+03 -0.16628257338E+03 -0.33296121172E+03  0.56693900219E+03  0.00000000000E+00 0. -1.
        -13    1    3    3    0    0 -0.86832157018E+03 -0.22844348305E+03 -0.65620765999E+03  0.11121048814E+04  0.00000000000E+00 0.  1.
         22    1    1    2    0    0  0.12959975801E+04  0.39472605644E+03 -0.34358030599E+04  0.36932588663E+04  0.00000000000E+00 0. -1.
<mgrwt>
<rscale>  0 0.30465161E+04</rscale>
<asrwt>0</asrwt>
<pdfrwt beam="1">  1        2 0.75363649E+00 0.30465161E+04</pdfrwt>
<pdfrwt beam="2">  1       -2 0.72871604E-01 0.30465161E+04</pdfrwt>
<totfact> 0.66267013E-02</totfact>
</mgrwt>
</event>
<event>
 6    1  0.2003386E-005  0.2700677E+04  0.7818608E-02  0.8334785E-01
         -2   -1    0    0    0  501 -0.00000000000E+00  0.00000000000E+00  0.12441124538E+04  0.12441124538E+04  0.00000000000E+00 0.  1.
          2   -1    0    0  501    0  0.00000000000E+00 -0.00000000000E+00 -0.14656349104E+04  0.14656349104E+04  0.00000000000E+00 0. -1.
         23    2    1    2    0    0 -0.42781592259E+02  0.12331855767E+04 -0.65729162977E+03  0.14011329429E+04  0.92543535483E+02 0.  0.
         11    1    3    3    0    0  0.16159159124E+02  0.63615935934E+03 -0.36783173582E+03  0.73502383279E+03  0.00000000000E+00 0. -1.
        -11    1    3    3    0    0 -0.58940751383E+02  0.59702621739E+03 -0.28945989394E+03  0.66610911016E+03  0.00000000000E+00 0.  1.
         22    1    1    2    0    0  0.42781592259E+02 -0.12331855767E+04  0.43576917308E+03  0.13086144212E+04  0.00000000000E+00 0.  1.
<mgrwt>
<rscale>  0 0.27006774E+04</rscale>
<asrwt>0</asrwt>
<pdfrwt beam="1">  1        2 0.22548229E+00 0.27006774E+04</pdfrwt>
<pdfrwt beam="2">  1       -2 0.19140192E+00 0.27006774E+04</pdfrwt>
<totfact> 0.17667184E+00</totfact>
</mgrwt>
</event>
<event>
 6    1  0.2003386E-005  0.2178023E+04  0.7818608E-02  0.8527632E-01
         -2   -1    0    0    0  501 -0.00000000000E+00  0.00000000000E+00  0.11124699509E+04  0.11124699509E+04  0.00000000000E+00 0.  1.
          2   -1    0    0  501    0  0.00000000000E+00 -0.00000000000E+00 -0.10660475786E+04  0.10660475786E+04  0.00000000000E+00 0. -1.
         23    2    1    2    0    0 -0.24186860447E+03  0.15459500437E+03 -0.10251575515E+04  0.10691557443E+04  0.98721643769E+02 0.  0.
         11    1    3    3    0    0 -0.38300074769E+02  0.32499733161E+02 -0.78537275779E+02  0.93226777643E+02  0.00000000000E+00 0. -1.
        -11    1    3    3    0    0 -0.20356852970E+03  0.12209527121E+03 -0.94662027577E+03  0.97592896669E+03  0.00000000000E+00 0.  1.
         22    1    1    2    0    0  0.24186860447E+03 -0.15459500437E+03  0.10715799238E+04  0.11093617851E+04  0.00000000000E+00 0.  1.
<mgrwt>
<rscale>  0 0.21780229E+04</rscale>
<asrwt>0</asrwt>
<pdfrwt beam="1">  1        2 0.16400732E+00 0.21780229E+04</pdfrwt>
<pdfrwt beam="2">  1       -2 0.17114922E+00 0.21780229E+04</pdfrwt>
<totfact> 0.43800912E+00</totfact>
</mgrwt>
</event>
<event>
 6    1  0.2003386E-005  0.1198311E+04  0.7818608E-02  0.9114336E-01
          1   -1    0    0  501    0  0.00000000000E+00  0.00000000000E+00  0.64640784573E+03  0.64640784573E+03  0.00000000000E+00 0. -1.
         -1   -1    0    0    0  501 -0.00000000000E+00 -0.00000000000E+00 -0.55535728125E+03  0.55535728125E+03  0.00000000000E+00 0.  1.
         23    2    1    2    0    0 -0.36827408184E+03  0.11408010480E+03  0.50124949588E+03  0.63882353766E+03  0.90578062901E+02 0.  0.
         13    1    3    3    0    0 -0.64225712842E+02  0.21280526225E+02  0.39877456077E+02  0.78536707912E+02  0.00000000000E+00 0.  1.
        -13    1    3    3    0    0 -0.30404836900E+03  0.92799578571E+02  0.46137203980E+03  0.56028682975E+03  0.00000000000E+00 0. -1.
         22    1    1    2    0    0  0.36827408184E+03 -0.11408010480E+03 -0.41019893140E+03  0.56294158932E+03  0.00000000000E+00 0.  1.
<mgrwt>
<rscale>  0 0.11983110E+04</rscale>
<asrwt>0</asrwt>
<pdfrwt beam="1">  1        1 0.99447361E-01 0.11983110E+04</pdfrwt>
<pdfrwt beam="2">  1       -1 0.85439582E-01 0.11983110E+04</pdfrwt>
<totfact> 0.41173096E+01</totfact>
</mgrwt>
</event>
<event>
 6    1  0.2003386E-005  0.1585159E+04  0.7818608E-02  0.8829718E-01
         -2   -1    0    0    0  501 -0.00000000000E+00  0.00000000000E+00  0.10636647475E+04  0.10636647475E+04  0.00000000000E+00 0.  1.
          2   -1    0    0  501    0  0.00000000000E+00 -0.00000000000E+00 -0.59058300935E+03  0.59058300935E+03  0.00000000000E+00 0. -1.
         23    2    1    2    0    0 -0.62801586224E+03 -0.38058515806E+03 -0.66146430186E+02  0.74319561601E+03  0.93356240650E+02 0.  0.
         13    1    3    3    0    0 -0.10651710598E+03 -0.87484266646E+02 -0.43523188567E+02  0.14454638951E+03  0.00000000000E+00 0.  1.
        -13    1    3    3    0    0 -0.52149875626E+03 -0.29310089142E+03 -0.22623241619E+02  0.59864922650E+03  0.00000000000E+00 0. -1.
         22    1    1    2    0    0  0.62801586224E+03  0.38058515806E+03  0.53922816830E+03  0.91105214080E+03  0.00000000000E+00 0. -1.
<mgrwt>
<rscale>  0 0.15851591E+04</rscale>
<asrwt>0</asrwt>
<pdfrwt beam="1">  1        2 0.90858925E-01 0.15851591E+04</pdfrwt>
<pdfrwt beam="2">  1       -2 0.16364073E+00 0.15851591E+04</pdfrwt>
<totfact> 0.11485012E+01</totfact>
</mgrwt>
</event>
<event>
 6    1  0.2003386E-005  0.1928320E+04  0.7818608E-02  0.8640887E-01
          2   -1    0    0  501    0  0.00000000000E+00  0.00000000000E+00  0.13585401849E+04  0.13585401849E+04  0.00000000000E+00 0. -1.
         -2   -1    0    0    0  501 -0.00000000000E+00 -0.00000000000E+00 -0.68426720789E+03  0.68426720789E+03  0.00000000000E+00 0.  1.
         23    2    1    2    0    0 -0.12433017008E+03 -0.58599390471E+03  0.11351934629E+04  0.12869671042E+04  0.93665796117E+02 0.  0.
         13    1    3    3    0    0 -0.10700046517E+03 -0.44605884659E+03  0.94242456067E+03  0.10481324567E+04  0.00000000000E+00 0. -1.
        -13    1    3    3    0    0 -0.17329704913E+02 -0.13993505812E+03  0.19276890225E+03  0.23883464748E+03  0.00000000000E+00 0.  1.
         22    1    1    2    0    0  0.12433017008E+03  0.58599390471E+03 -0.46092048594E+03  0.75584028862E+03  0.00000000000E+00 0.  1.
<mgrwt>
<rscale>  0 0.19283200E+04</rscale>
<asrwt>0</asrwt>
<pdfrwt beam="1">  1        2 0.20900618E+00 0.19283200E+04</pdfrwt>
<pdfrwt beam="2">  1       -2 0.10527188E+00 0.19283200E+04</pdfrwt>
<totfact> 0.10437328E+01</totfact>
</mgrwt>
</event>
<event>
 6    1  0.2003386E-005  0.1472627E+04  0.7818608E-02  0.8902862E-01
         -2   -1    0    0    0  501 -0.00000000000E+00  0.00000000000E+00  0.89610206784E+03  0.89610206784E+03  0.00000000000E+00 0. -1.
          2   -1    0    0  501    0  0.00000000000E+00 -0.00000000000E+00 -0.60501785771E+03  0.60501785771E+03  0.00000000000E+00 0.  1.
         23    2    1    2    0    0  0.59638874708E+03  0.38427539323E+03 -0.43427569895E+02  0.71674422063E+03  0.92136900858E+02 0.  0.
         13    1    3    3    0    0  0.50808697083E+03  0.36299843518E+03 -0.42991661775E+02  0.62591414495E+03  0.00000000000E+00 0.  1.
        -13    1    3    3    0    0  0.88301776251E+02  0.21276958058E+02 -0.43590811990E+00  0.90830075686E+02  0.00000000000E+00 0. -1.
         22    1    1    2    0    0 -0.59638874708E+03 -0.38427539323E+03  0.33451178003E+03  0.78437570492E+03  0.00000000000E+00 0.  1.
<mgrwt>
<rscale>  0 0.14726272E+04</rscale>
<asrwt>0</asrwt>
<pdfrwt beam="1">  1        2 0.93079671E-01 0.14726272E+04</pdfrwt>
<pdfrwt beam="2">  1       -2 0.13786186E+00 0.14726272E+04</pdfrwt>
<totfact> 0.17758435E+01</totfact>
</mgrwt>
</event>
<event>
 6    1  0.2003386E-005  0.1537480E+04  0.7818608E-02  0.8859905E-01
          2   -1    0    0  501    0  0.00000000000E+00  0.00000000000E+00  0.37035394946E+03  0.37035394946E+03  0.00000000000E+00 0. -1.
         -2   -1    0    0    0  501 -0.00000000000E+00 -0.00000000000E+00 -0.15956665268E+04  0.15956665268E+04  0.00000000000E+00 0.  1.
         23    2    1    2    0    0 -0.39727207340E+03  0.63101974926E+03 -0.83904788024E+03  0.11262517935E+04  0.91819022489E+02 0.  0.
         11    1    3    3    0    0 -0.25004342523E+03  0.35237573743E+03 -0.54227041990E+03  0.69335963477E+03  0.00000000000E+00 0. -1.
        -11    1    3    3    0    0 -0.14722864817E+03  0.27864401183E+03 -0.29677746033E+03  0.43289215878E+03  0.00000000000E+00 0.  1.
         22    1    1    2    0    0  0.39727207340E+03 -0.63101974926E+03 -0.38626469713E+03  0.83976868274E+03  0.00000000000E+00 0. -1.
<mgrwt>
<rscale>  0 0.15374803E+04</rscale>
<asrwt>0</asrwt>
<pdfrwt beam="1">  1        2 0.56977530E-01 0.15374803E+04</pdfrwt>
<pdfrwt beam="2">  1       -2 0.24548716E+00 0.15374803E+04</pdfrwt>
<totfact> 0.57262959E+00</totfact>
</mgrwt>
</event>
<event>
 6    1  0.2003386E-005  0.1676284E+04  0.7818608E-02  0.8775007E-01
          1   -1    0    0  501    0  0.00000000000E+00  0.00000000000E+00  0.10439784412E+04  0.10439784412E+04  0.00000000000E+00 0. -1.
         -1   -1    0    0    0  501 -0.00000000000E+00 -0.00000000000E+00 -0.67288977976E+03  0.67288977976E+03  0.00000000000E+00 0.  1.
         23    2    1    2    0    0  0.83348503103E+03 -0.52709131269E+02  0.21722641622E+03  0.86766321629E+03  0.90424507375E+02 0.  0.
         13    1    3    3    0    0  0.58257816977E+03 -0.78084842599E+02  0.15661017594E+03  0.60829377257E+03  0.00000000000E+00 0.  1.
        -13    1    3    3    0    0  0.25090686126E+03  0.25375711330E+02  0.60616240281E+02  0.25936944372E+03  0.00000000000E+00 0. -1.
         22    1    1    2    0    0 -0.83348503103E+03  0.52709131269E+02  0.15386224523E+03  0.84920500468E+03  0.00000000000E+00 0.  1.
<mgrwt>
<rscale>  0 0.16762845E+04</rscale>
<asrwt>0</asrwt>
<pdfrwt beam="1">  1        1 0.16061207E+00 0.16762845E+04</pdfrwt>
<pdfrwt beam="2">  1       -1 0.10352150E+00 0.16762845E+04</pdfrwt>
<totfact> 0.11737982E+01</totfact>
</mgrwt>
</event>
<event>
 6    1  0.2003386E-005  0.1749246E+04  0.7818608E-02  0.8733765E-01
          2   -1    0    0  501    0  0.00000000000E+00  0.00000000000E+00  0.15813930096E+04  0.15813930096E+04  0.00000000000E+00 0. -1.
         -2   -1    0    0    0  501 -0.00000000000E+00 -0.00000000000E+00 -0.48372896736E+03  0.48372896736E+03  0.00000000000E+00 0.  1.
         23    2    1    2    0    0 -0.46159089397E+03 -0.11730845587E+02  0.14239126691E+04  0.14997531303E+04  0.92349318505E+02 0.  0.
         11    1    3    3    0    0 -0.34709379325E+03  0.17040529815E+02  0.11530825374E+04  0.12043105161E+04  0.00000000000E+00 0.  1.
        -11    1    3    3    0    0 -0.11449710072E+03 -0.28771375402E+02  0.27083013167E+03  0.29544261429E+03  0.00000000000E+00 0. -1.
         22    1    1    2    0    0  0.46159089397E+03  0.11730845587E+02 -0.32624862690E+03  0.56536884658E+03  0.00000000000E+00 0.  1.
<mgrwt>
<rscale>  0 0.17492462E+04</rscale>
<asrwt>0</asrwt>
<pdfrwt beam="1">  1        2 0.24329123E+00 0.17492462E+04</pdfrwt>
<pdfrwt beam="2">  1       -2 0.74419842E-01 0.17492462E+04</pdfrwt>
<totfact> 0.17588562E+01</totfact>
</mgrwt>
</event>
<event>
 6    1  0.2003386E-005  0.1430830E+04  0.7818608E-02  0.8931800E-01
          2   -1    0    0  501    0  0.00000000000E+00  0.00000000000E+00  0.48563230640E+03  0.48563230640E+03  0.00000000000E+00 0. -1.
         -2   -1    0    0    0  501 -0.00000000000E+00 -0.00000000000E+00 -0.10539219717E+04  0.10539219717E+04  0.00000000000E+00 0.  1.
         23    2    1    2    0    0  0.20367644373E+03 -0.37685845226E+02  0.44833599763E+03  0.50204184194E+03  0.90202702955E+02 0.  0.
         11    1    3    3    0    0  0.65497436571E+02 -0.42708502686E+02  0.97760921624E+02  0.12518437680E+03  0.00000000000E+00 0. -1.
        -11    1    3    3    0    0  0.13817900716E+03  0.50226574599E+01  0.35057507601E+03  0.37685746513E+03  0.00000000000E+00 0.  1.
         22    1    1    2    0    0 -0.20367644373E+03  0.37685845226E+02 -0.10166256629E+04  0.10375124362E+04  0.00000000000E+00 0.  1.
<mgrwt>
<rscale>  0 0.14308299E+04</rscale>
<asrwt>0</asrwt>
<pdfrwt beam="1">  1        2 0.74712663E-01 0.14308299E+04</pdfrwt>
<pdfrwt beam="2">  1       -2 0.16214184E+00 0.14308299E+04</pdfrwt>
<totfact> 0.15011175E+01</totfact>
</mgrwt>
</event>
<event>
 6    1  0.2003386E-005  0.3596394E+04  0.7818608E-02  0.8091318E-01
         -2   -1    0    0    0  501 -0.00000000000E+00  0.00000000000E+00  0.26577633441E+04  0.26577633441E+04  0.00000000000E+00 0.  1.
          2   -1    0    0  501    0  0.00000000000E+00 -0.00000000000E+00 -0.12166289770E+04  0.12166289770E+04  0.00000000000E+00 0. -1.
         23    2    1    2    0    0  0.27350288153E+03 -0.16574175141E+04  0.14088903981E+04  0.21942505664E+04  0.89032307729E+02 0.  0.
         11    1    3    3    0    0  0.60559027388E+02 -0.50835700966E+03  0.47394306304E+03  0.69765053721E+03  0.00000000000E+00 0. -1.
        -11    1    3    3    0    0  0.21294385414E+03 -0.11490605045E+04  0.93494733508E+03  0.14966000292E+04  0.00000000000E+00 0.  1.
         22    1    1    2    0    0 -0.27350288153E+03  0.16574175141E+04  0.32243969068E+02  0.16801417547E+04  0.00000000000E+00 0. -1.
<mgrwt>
<rscale>  0 0.35963937E+04</rscale>
<asrwt>0</asrwt>
<pdfrwt beam="1">  1        2 0.18717369E+00 0.35963937E+04</pdfrwt>
<pdfrwt beam="2">  1       -2 0.40888667E+00 0.35963937E+04</pdfrwt>
<totfact> 0.97872212E-02</totfact>
</mgrwt>
</event>
<event>
 6    1  0.2003386E-005  0.1316052E+04  0.7818608E-02  0.9016932E-01
          2   -1    0    0  501    0  0.00000000000E+00  0.00000000000E+00  0.11080232048E+04  0.11080232048E+04  0.00000000000E+00 0. -1.
         -2   -1    0    0    0  501 -0.00000000000E+00 -0.00000000000E+00 -0.39078438637E+03  0.39078438637E+03  0.00000000000E+00 0.  1.
         23    2    1    2    0    0 -0.13061937763E+03  0.63671929903E+03  0.45446586858E+03  0.79772092693E+03  0.85712099490E+02 0.  0.
         11    1    3    3    0    0  0.14612385168E+01  0.18358767857E+03  0.13032718688E+03  0.22514827687E+03  0.00000000000E+00 0. -1.
        -11    1    3    3    0    0 -0.13208061614E+03  0.45313162046E+03  0.32413868170E+03  0.57257265006E+03  0.00000000000E+00 0.  1.
         22    1    1    2    0    0  0.13061937763E+03 -0.63671929903E+03  0.26277294981E+03  0.70108666420E+03  0.00000000000E+00 0. -1.
<mgrwt>
<rscale>  0 0.13160519E+04</rscale>
<asrwt>0</asrwt>
<pdfrwt beam="1">  1        2 0.17046511E+00 0.13160519E+04</pdfrwt>
<pdfrwt beam="2">  1       -2 0.60120675E-01 0.13160519E+04</pdfrwt>
<totfact> 0.54389377E+01</totfact>
</mgrwt>
</event>
<event>
 6    1  0.2003386E-005  0.1610117E+04  0.7818608E-02  0.8814357E-01
          2   -1    0    0  501    0  0.00000000000E+00  0.00000000000E+00  0.61256061319E+03  0.61256061319E+03  0.00000000000E+00 0.  1.
         -2   -1    0    0    0  501 -0.00000000000E+00 -0.00000000000E+00 -0.10580491563E+04  0.10580491563E+04  0.00000000000E+00 0. -1.
         23    2    1    2    0    0  0.39956879087E+03  0.90863948686E+02 -0.93933217609E+03  0.10288987679E+04  0.91521919200E+02 0.  0.
         11    1    3    3    0    0  0.19188332573E+03 -0.31120203136E+01 -0.42916668766E+03  0.47012013482E+03  0.00000000000E+00 0.  1.
        -11    1    3    3    0    0  0.20768546514E+03  0.93975969000E+02 -0.51016548843E+03  0.55877863306E+03  0.00000000000E+00 0. -1.
         22    1    1    2    0    0 -0.39956879087E+03 -0.90863948686E+02  0.49384363295E+03  0.64171100163E+03  0.00000000000E+00 0.  1.
<mgrwt>
<rscale>  0 0.16101171E+04</rscale>
<asrwt>0</asrwt>
<pdfrwt beam="1">  1        2 0.94240094E-01 0.16101171E+04</pdfrwt>
<pdfrwt beam="2">  1       -2 0.16277679E+00 0.16101171E+04</pdfrwt>
<totfact> 0.11127246E+01</totfact>
</mgrwt>
</event>
<event>
 6    1  0.2003386E-005  0.5982309E+03  0.7818608E-02  0.9909083E-01
          2   -1    0    0  501    0  0.00000000000E+00  0.00000000000E+00  0.22669161571E+04  0.22669161571E+04  0.00000000000E+00 0. -1.
         -2   -1    0    0    0  501 -0.00000000000E+00 -0.00000000000E+00 -0.39467734778E+02  0.39467734778E+02  0.00000000000E+00 0.  1.
         23    2    1    2    0    0 -0.43882239181E+02 -0.26331787162E+03  0.15922122755E+04  0.16173360600E+04  0.96819668431E+02 0.  0.
         13    1    3    3    0    0 -0.34598559454E+02 -0.21758067158E+03  0.14717597982E+04  0.14881583628E+04  0.00000000000E+00 0. -1.
        -13    1    3    3    0    0 -0.92836797277E+01 -0.45737200039E+02  0.12045247730E+03  0.12917769724E+03  0.00000000000E+00 0.  1.
         22    1    1    2    0    0  0.43882239181E+02  0.26331787162E+03  0.63523614681E+03  0.68904783190E+03  0.00000000000E+00 0.  1.
<mgrwt>
<rscale>  0 0.59823088E+03</rscale>
<asrwt>0</asrwt>
<pdfrwt beam="1">  1        2 0.34875623E+00 0.59823088E+03</pdfrwt>
<pdfrwt beam="2">  1       -2 0.60719610E-02 0.59823088E+03</pdfrwt>
<totfact> 0.75194008E+02</totfact>
</mgrwt>
</event>
<event>
 6    1  0.2003386E-005  0.2121774E+04  0.7818608E-02  0.8551712E-01
          2   -1    0    0  501    0  0.00000000000E+00  0.00000000000E+00  0.54276216839E+03  0.54276216839E+03  0.00000000000E+00 0. -1.
         -2   -1    0    0    0  501 -0.00000000000E+00 -0.00000000000E+00 -0.20736183283E+04  0.20736183283E+04  0.00000000000E+00 0.  1.
         23    2    1    2    0    0 -0.10440805079E+04 -0.90275419077E+02 -0.95613753556E+03  0.14211586531E+04  0.85083324126E+02 0.  0.
         11    1    3    3    0    0 -0.78362087026E+03 -0.89371446800E+02 -0.67745394249E+03  0.10397080206E+04  0.00000000000E+00 0.  1.
        -11    1    3    3    0    0 -0.26045963764E+03 -0.90397227644E+00 -0.27868359308E+03  0.38145063253E+03  0.00000000000E+00 0. -1.
         22    1    1    2    0    0  0.10440805079E+04  0.90275419077E+02 -0.57471862437E+03  0.11952218436E+04  0.00000000000E+00 0.  1.
<mgrwt>
<rscale>  0 0.21217743E+04</rscale>
<asrwt>0</asrwt>
<pdfrwt beam="1">  1        2 0.83501872E-01 0.21217743E+04</pdfrwt>
<pdfrwt beam="2">  1       -2 0.31901820E+00 0.21217743E+04</pdfrwt>
<totfact> 0.12505576E+00</totfact>
</mgrwt>
</event>
<event>
 6    1  0.2003386E-005  0.2754932E+04  0.7818608E-02  0.8317398E-01
          2   -1    0    0  501    0  0.00000000000E+00  0.00000000000E+00  0.17262667683E+04  0.17262667683E+04  0.00000000000E+00 0. -1.
         -2   -1    0    0    0  501 -0.00000000000E+00 -0.00000000000E+00 -0.10991419189E+04  0.10991419189E+04  0.00000000000E+00 0.  1.
         23    2    1    2    0    0 -0.83827138169E+03  0.91368621566E+02  0.14290215791E+04  0.16617568925E+04  0.91028357087E+02 0.  0.
         11    1    3    3    0    0 -0.30372892247E+03 -0.64780327381E+01  0.54983201969E+03  0.62817869522E+03  0.00000000000E+00 0. -1.
        -11    1    3    3    0    0 -0.53454245922E+03  0.97846654305E+02  0.87918955940E+03  0.10335781973E+04  0.00000000000E+00 0.  1.
         22    1    1    2    0    0  0.83827138169E+03 -0.91368621566E+02 -0.80189672973E+03  0.11636517948E+04  0.00000000000E+00 0.  1.
<mgrwt>
<rscale>  0 0.27549317E+04</rscale>
<asrwt>0</asrwt>
<pdfrwt beam="1">  1        2 0.26557950E+00 0.27549317E+04</pdfrwt>
<pdfrwt beam="2">  1       -2 0.16909876E+00 0.27549317E+04</pdfrwt>
<totfact> 0.17916823E+00</totfact>
</mgrwt>
</event>
<event>
 6    1  0.2003386E-005  0.3003773E+04  0.7818608E-02  0.8242654E-01
          2   -1    0    0  501    0  0.00000000000E+00  0.00000000000E+00  0.26877437928E+04  0.26877437928E+04  0.00000000000E+00 0. -1.
         -2   -1    0    0    0  501 -0.00000000000E+00 -0.00000000000E+00 -0.83924028347E+03  0.83924028347E+03  0.00000000000E+00 0.  1.
         23    2    1    2    0    0  0.51631600718E+03 -0.10623307902E+04 -0.16154261752E+03  0.11955865642E+04  0.90566485752E+02 0.  0.
         13    1    3    3    0    0  0.25149329625E+03 -0.61948229498E+03 -0.85912780532E+02  0.67408322758E+03  0.00000000000E+00 0. -1.
        -13    1    3    3    0    0  0.26482271093E+03 -0.44284849517E+03 -0.75629836991E+02  0.52150333666E+03  0.00000000000E+00 0.  1.
         22    1    1    2    0    0 -0.51631600718E+03  0.10623307902E+04  0.20100461268E+04  0.23313975120E+04  0.00000000000E+00 0. -1.
<mgrwt>
<rscale>  0 0.30037729E+04</rscale>
<asrwt>0</asrwt>
<pdfrwt beam="1">  1        2 0.41349904E+00 0.30037729E+04</pdfrwt>
<pdfrwt beam="2">  1       -2 0.12911389E+00 0.30037729E+04</pdfrwt>
<totfact> 0.10208292E+00</totfact>
</mgrwt>
</event>
<event>
 6    1  0.2003386E-005  0.1715224E+04  0.7818608E-02  0.8752729E-01
         -2   -1    0    0    0  501 -0.00000000000E+00  0.00000000000E+00  0.13959030489E+04  0.13959030489E+04  0.00000000000E+00 0.  1.
          2   -1    0    0  501    0  0.00000000000E+00 -0.00000000000E+00 -0.52689790991E+03  0.52689790991E+03  0.00000000000E+00 0. -1.
         23    2    1    2    0    0 -0.84055347371E+03 -0.14880221778E+03  0.37603796906E+03  0.93705815625E+03  0.89449381484E+02 0.  0.
         11    1    3    3    0    0 -0.46030556407E+03 -0.12608653805E+03  0.21653926096E+03  0.52408804502E+03  0.00000000000E+00 0. -1.
        -11    1    3    3    0    0 -0.38024790964E+03 -0.22715679724E+02  0.15949870810E+03  0.41297011123E+03  0.00000000000E+00 0.  1.
         22    1    1    2    0    0  0.84055347371E+03  0.14880221778E+03  0.49296716995E+03  0.98574280258E+03  0.00000000000E+00 0. -1.
<mgrwt>
<rscale>  0 0.17152241E+04</rscale>
<asrwt>0</asrwt>
<pdfrwt beam="1">  1        2 0.81061217E-01 0.17152241E+04</pdfrwt>
<pdfrwt beam="2">  1       -2 0.21475431E+00 0.17152241E+04</pdfrwt>
<totfact> 0.58706284E+00</totfact>
</mgrwt>
</event>
<event>
 6    1  0.2003386E-005  0.3655528E+04  0.7818608E-02  0.8077889E-01
         -2   -1    0    0    0  501 -0.00000000000E+00  0.00000000000E+00  0.16584012977E+04  0.16584012977E+04  0.00000000000E+00 0.  1.
          2   -1    0    0  501    0  0.00000000000E+00 -0.00000000000E+00 -0.20144231911E+04  0.20144231911E+04  0.00000000000E+00 0. -1.
         23    2    1    2    0    0 -0.62560731784E+03 -0.85177063784E+03  0.13188004618E+04  0.16924387545E+04  0.90645154680E+02 0.  0.
         13    1    3    3    0    0 -0.18835847178E+03 -0.20597387628E+03  0.39084410799E+03  0.48027415957E+03  0.00000000000E+00 0.  1.
        -13    1    3    3    0    0 -0.43724884606E+03 -0.64579676155E+03  0.92795635378E+03  0.12121645949E+04  0.00000000000E+00 0. -1.
         22    1    1    2    0    0  0.62560731784E+03  0.85177063784E+03 -0.16748223552E+04  0.19803857344E+04  0.00000000000E+00 0. -1.
<mgrwt>
<rscale>  0 0.36555284E+04</rscale>
<asrwt>0</asrwt>
<pdfrwt beam="1">  1        2 0.30991126E+00 0.36555284E+04</pdfrwt>
<pdfrwt beam="2">  1       -2 0.25513866E+00 0.36555284E+04</pdfrwt>
<totfact> 0.31800198E-01</totfact>
</mgrwt>
</event>
<event>
 6    1  0.2003386E-005  0.2029489E+04  0.7818608E-02  0.8592956E-01
          2   -1    0    0  501    0  0.00000000000E+00  0.00000000000E+00  0.19020018768E+04  0.19020018768E+04  0.00000000000E+00 0. -1.
         -2   -1    0    0    0  501 -0.00000000000E+00 -0.00000000000E+00 -0.54138039160E+03  0.54138039160E+03  0.00000000000E+00 0.  1.
         23    2    1    2    0    0 -0.79862790069E+02 -0.63654138311E+03 -0.26150139555E+03  0.69900683922E+03  0.93083745855E+02 0.  0.
         13    1    3    3    0    0 -0.71190699898E+02 -0.32690031469E+03 -0.17409588329E+03  0.37714892029E+03  0.00000000000E+00 0. -1.
        -13    1    3    3    0    0 -0.86720901706E+01 -0.30964106843E+03 -0.87405512261E+02  0.32185791893E+03  0.00000000000E+00 0.  1.
         22    1    1    2    0    0  0.79862790069E+02  0.63654138311E+03  0.16221228807E+04  0.17443754292E+04  0.00000000000E+00 0. -1.
<mgrwt>
<rscale>  0 0.20294891E+04</rscale>
<asrwt>0</asrwt>
<pdfrwt beam="1">  1        2 0.29261567E+00 0.20294891E+04</pdfrwt>
<pdfrwt beam="2">  1       -2 0.83289292E-01 0.20294891E+04</pdfrwt>
<totfact> 0.88580286E+00</totfact>
</mgrwt>
</event>
<event>
 6    1  0.2003386E-005  0.3227571E+04  0.7818608E-02  0.8181573E-01
          2   -1    0    0  501    0  0.00000000000E+00  0.00000000000E+00  0.14114424997E+04  0.14114424997E+04  0.00000000000E+00 0. -1.
         -2   -1    0    0    0  501 -0.00000000000E+00 -0.00000000000E+00 -0.18451362989E+04  0.18451362989E+04  0.00000000000E+00 0.  1.
         23    2    1    2    0    0 -0.33559656705E+03  0.57502207881E+03 -0.16988057565E+04  0.18269691625E+04  0.92735512360E+02 0.  0.
         13    1    3    3    0    0 -0.15102840442E+03  0.31858949143E+03 -0.99092436197E+03  0.10517794133E+04  0.00000000000E+00 0.  1.
        -13    1    3    3    0    0 -0.18456816263E+03  0.25643258737E+03 -0.70788139455E+03  0.77518974921E+03  0.00000000000E+00 0. -1.
         22    1    1    2    0    0  0.33559656705E+03 -0.57502207881E+03  0.12651119573E+04  0.14296096361E+04  0.00000000000E+00 0. -1.
<mgrwt>
<rscale>  0 0.32275711E+04</rscale>
<asrwt>0</asrwt>
<pdfrwt beam="1">  1        2 0.21714500E+00 0.32275711E+04</pdfrwt>
<pdfrwt beam="2">  1       -2 0.28386712E+00 0.32275711E+04</pdfrwt>
<totfact> 0.47762776E-01</totfact>
</mgrwt>
</event>
<event>
 6    1  0.2003386E-005  0.4102260E+04  0.7818608E-02  0.7984229E-01
          2   -1    0    0  501    0  0.00000000000E+00  0.00000000000E+00  0.16689766309E+04  0.16689766309E+04  0.00000000000E+00 0. -1.
         -2   -1    0    0    0  501 -0.00000000000E+00 -0.00000000000E+00 -0.25207866753E+04  0.25207866753E+04  0.00000000000E+00 0.  1.
         23    2    1    2    0    0 -0.18368422778E+04  0.79649005432E+03  0.24598051443E+02  0.20042480098E+04  0.89549208123E+02 0.  0.
         13    1    3    3    0    0 -0.80305547536E+03  0.37007739111E+03 -0.28829057995E+02  0.88469570277E+03  0.00000000000E+00 0. -1.
        -13    1    3    3    0    0 -0.10337868024E+04  0.42641266321E+03  0.53427109437E+02  0.11195523071E+04  0.00000000000E+00 0.  1.
         22    1    1    2    0    0  0.18368422778E+04 -0.79649005432E+03 -0.87640809583E+03  0.21855152963E+04  0.00000000000E+00 0.  1.
<mgrwt>
<rscale>  0 0.41022599E+04</rscale>
<asrwt>0</asrwt>
<pdfrwt beam="1">  1        2 0.25676564E+00 0.41022599E+04</pdfrwt>
<pdfrwt beam="2">  1       -2 0.38781333E+00 0.41022599E+04</pdfrwt>
<totfact> 0.71129214E-02</totfact>
</mgrwt>
</event>
<event>
 6    1  0.2003386E-005  0.1771889E+04  0.7818608E-02  0.8721393E-01
          3   -1    0    0  501    0  0.00000000000E+00  0.00000000000E+00  0.30792121009E+04  0.30792121009E+04  0.00000000000E+00 0. -1.
         -3   -1    0    0    0  501 -0.00000000000E+00 -0.00000000000E+00 -0.25490197888E+03  0.25490197888E+03  0.00000000000E+00 0.  1.
         23    2    1    2    0    0  0.15750507429E+03  0.45994086810E+03  0.28042702251E+04  0.28475392674E+04  0.90525870038E+02 0.  0.
         13    1    3    3    0    0  0.14335860010E+03  0.36952827605E+03  0.20717342338E+04  0.21093092638E+04  0.00000000000E+00 0.  1.
        -13    1    3    3    0    0  0.14146474197E+02  0.90412592052E+02  0.73253599136E+03  0.73823000357E+03  0.00000000000E+00 0. -1.
         22    1    1    2    0    0 -0.15750507429E+03 -0.45994086810E+03  0.20039896864E+02  0.48657481238E+03  0.00000000000E+00 0.  1.
<mgrwt>
<rscale>  0 0.17718885E+04</rscale>
<asrwt>0</asrwt>
<pdfrwt beam="1">  1        3 0.47372491E+00 0.17718885E+04</pdfrwt>
<pdfrwt beam="2">  1       -3 0.39215691E-01 0.17718885E+04</pdfrwt>
<totfact> 0.74549581E-02</totfact>
</mgrwt>
</event>
<event>
 6    1  0.2003386E-005  0.2455535E+04  0.7818608E-02  0.8419000E-01
          2   -1    0    0  501    0  0.00000000000E+00  0.00000000000E+00  0.27803909293E+04  0.27803909293E+04  0.00000000000E+00 0. -1.
         -2   -1    0    0    0  501 -0.00000000000E+00 -0.00000000000E+00 -0.54215864959E+03  0.54215864959E+03  0.00000000000E+00 0.  1.
         23    2    1    2    0    0  0.71638479297E+03  0.55496576884E+03  0.33050367195E+01  0.91089165173E+03  0.92295729808E+02 0.  0.
         11    1    3    3    0    0  0.31886406363E+03  0.20048333241E+03 -0.25342538948E+02  0.37750510186E+03  0.00000000000E+00 0.  1.
        -11    1    3    3    0    0  0.39752072934E+03  0.35448243643E+03  0.28647575667E+02  0.53338654987E+03  0.00000000000E+00 0. -1.
         22    1    1    2    0    0 -0.71638479297E+03 -0.55496576884E+03  0.22349272430E+04  0.24116579272E+04  0.00000000000E+00 0. -1.
<mgrwt>
<rscale>  0 0.24555350E+04</rscale>
<asrwt>0</asrwt>
<pdfrwt beam="1">  1        2 0.42775244E+00 0.24555350E+04</pdfrwt>
<pdfrwt beam="2">  1       -2 0.83409024E-01 0.24555350E+04</pdfrwt>
<totfact> 0.26757185E+00</totfact>
</mgrwt>
</event>
<event>
 6    1  0.2003386E-005  0.2425992E+04  0.7818608E-02  0.8429836E-01
         -2   -1    0    0    0  501 -0.00000000000E+00  0.00000000000E+00  0.68522047418E+03  0.68522047418E+03  0.00000000000E+00 0. -1.
          2   -1    0    0  501    0  0.00000000000E+00 -0.00000000000E+00 -0.21472794010E+04  0.21472794010E+04  0.00000000000E+00 0.  1.
         23    2    1    2    0    0 -0.93569113031E+02  0.10208517179E+04  0.21247005922E+02  0.10294219792E+04  0.91459100235E+02 0.  0.
         13    1    3    3    0    0 -0.28356594998E+02  0.32567203068E+03 -0.35826827163E+02  0.32886156600E+03  0.00000000000E+00 0. -1.
        -13    1    3    3    0    0 -0.65212518033E+02  0.69517968725E+03  0.57073833085E+02  0.70056041317E+03  0.00000000000E+00 0.  1.
         22    1    1    2    0    0  0.93569113031E+02 -0.10208517179E+04 -0.14833059327E+04  0.18030778960E+04  0.00000000000E+00 0.  1.
<mgrwt>
<rscale>  0 0.24259924E+04</rscale>
<asrwt>0</asrwt>
<pdfrwt beam="1">  1        2 0.33035067E+00 0.24259924E+04</pdfrwt>
<pdfrwt beam="2">  1       -2 0.10541854E+00 0.24259924E+04</pdfrwt>
<totfact> 0.36114240E+00</totfact>
</mgrwt>
</event>
<event>
 6    1  0.2003386E-005  0.2479484E+04  0.7818608E-02  0.8410331E-01
          2   -1    0    0  501    0  0.00000000000E+00  0.00000000000E+00  0.42236950258E+04  0.42236950258E+04  0.00000000000E+00 0. -1.
         -2   -1    0    0    0  501 -0.00000000000E+00 -0.00000000000E+00 -0.36389010301E+03  0.36389010301E+03  0.00000000000E+00 0.  1.
         23    2    1    2    0    0 -0.76235901035E+03 -0.20299110578E+03  0.36979936550E+04  0.37822407701E+04  0.88269595108E+02 0.  0.
         13    1    3    3    0    0 -0.13327131770E+03 -0.70869651723E+02  0.68125952189E+03  0.69778097411E+03  0.00000000000E+00 0.  1.
        -13    1    3    3    0    0 -0.62908769265E+03 -0.13212145406E+03  0.30167341331E+04  0.30844597960E+04  0.00000000000E+00 0. -1.
         22    1    1    2    0    0  0.76235901035E+03  0.20299110578E+03  0.16181126784E+03  0.80534435870E+03  0.00000000000E+00 0.  1.
<mgrwt>
<rscale>  0 0.24794845E+04</rscale>
<asrwt>0</asrwt>
<pdfrwt beam="1">  1        2 0.64979920E+00 0.24794845E+04</pdfrwt>
<pdfrwt beam="2">  1       -2 0.55983096E-01 0.24794845E+04</pdfrwt>
<totfact> 0.59637128E-01</totfact>
</mgrwt>
</event>
<event>
 6    1  0.2674094E-005  0.4562597E+04  0.7818608E-02  0.7899769E-01
          2   -1    0    0  501    0  0.00000000000E+00  0.00000000000E+00  0.27084088545E+04  0.27084088545E+04  0.00000000000E+00 0. -1.
         -2   -1    0    0    0  501 -0.00000000000E+00 -0.00000000000E+00 -0.19215422005E+04  0.19215422005E+04  0.00000000000E+00 0.  1.
         23    2    1    2    0    0  0.17984464681E+04  0.36584169784E+03 -0.97970954988E+03  0.20825913766E+04  0.95426375333E+02 0.  0.
         13    1    3    3    0    0  0.83525549021E+03  0.19266546795E+03 -0.50518397121E+03  0.99497867376E+03  0.00000000000E+00 0. -1.
        -13    1    3    3    0    0  0.96319097793E+03  0.17317622988E+03 -0.47452557867E+03  0.10876127028E+04  0.00000000000E+00 0.  1.
         22    1    1    2    0    0 -0.17984464681E+04 -0.36584169784E+03  0.17665762040E+04  0.25473596784E+04  0.00000000000E+00 0. -1.
<mgrwt>
<rscale>  0 0.45625966E+04</rscale>
<asrwt>0</asrwt>
<pdfrwt beam="1">  1        2 0.41667828E+00 0.45625966E+04</pdfrwt>
<pdfrwt beam="2">  1       -2 0.29562188E+00 0.45625966E+04</pdfrwt>
<totfact> 0.66893411E-02</totfact>
</mgrwt>
</event>
<event>
 6    1  0.2003386E-005  0.3064214E+04  0.7818608E-02  0.8225628E-01
         -2   -1    0    0    0  501 -0.00000000000E+00  0.00000000000E+00  0.10684659594E+04  0.10684659594E+04  0.00000000000E+00 0.  1.
          2   -1    0    0  501    0  0.00000000000E+00 -0.00000000000E+00 -0.21969367792E+04  0.21969367792E+04  0.00000000000E+00 0. -1.
         23    2    1    2    0    0 -0.98923375635E+03  0.76993007642E+03  0.37161991424E+03  0.13104991712E+04  0.89055992321E+02 0.  0.
         13    1    3    3    0    0 -0.56692665637E+03  0.42465849446E+03  0.25380565381E+03  0.75243470184E+03  0.00000000000E+00 0.  1.
        -13    1    3    3    0    0 -0.42230709998E+03  0.34527158196E+03  0.11781426043E+03  0.55806446936E+03  0.00000000000E+00 0. -1.
         22    1    1    2    0    0  0.98923375635E+03 -0.76993007642E+03 -0.15000907341E+04  0.19549035674E+04  0.00000000000E+00 0. -1.
<mgrwt>
<rscale>  0 0.30642142E+04</rscale>
<asrwt>0</asrwt>
<pdfrwt beam="1">  1        2 0.33799027E+00 0.30642142E+04</pdfrwt>
<pdfrwt beam="2">  1       -2 0.16437938E+00 0.30642142E+04</pdfrwt>
<totfact> 0.10327054E+00</totfact>
</mgrwt>
</event>
<event>
 6    1  0.2003386E-005  0.1354822E+04  0.7818608E-02  0.8987186E-01
          2   -1    0    0  501    0  0.00000000000E+00  0.00000000000E+00  0.29013168964E+03  0.29013168964E+03  0.00000000000E+00 0.  1.
         -2   -1    0    0    0  501 -0.00000000000E+00 -0.00000000000E+00 -0.15816460864E+04  0.15816460864E+04  0.00000000000E+00 0. -1.
         23    2    1    2    0    0 -0.55127492173E+03  0.27698635690E+03 -0.27288656120E+03  0.68088393163E+03  0.92251676569E+02 0.  0.
         11    1    3    3    0    0 -0.38839598349E+02 -0.21819605464E+01 -0.66145312395E+01  0.39459186196E+02  0.00000000000E+00 0. -1.
        -11    1    3    3    0    0 -0.51243532338E+03  0.27916831745E+03 -0.26627202996E+03  0.64142474543E+03  0.00000000000E+00 0.  1.
         22    1    1    2    0    0  0.55127492173E+03 -0.27698635690E+03 -0.10186278355E+04  0.11908938444E+04  0.00000000000E+00 0. -1.
<mgrwt>
<rscale>  0 0.13548220E+04</rscale>
<asrwt>0</asrwt>
<pdfrwt beam="1">  1        2 0.44635644E-01 0.13548220E+04</pdfrwt>
<pdfrwt beam="2">  1       -2 0.24333017E+00 0.13548220E+04</pdfrwt>
<totfact> 0.78690108E+00</totfact>
</mgrwt>
</event>
<event>
 6    1  0.2003386E-005  0.4570203E+04  0.7818608E-02  0.7898460E-01
          2   -1    0    0  501    0  0.00000000000E+00  0.00000000000E+00  0.26873374322E+04  0.26873374322E+04  0.00000000000E+00 0. -1.
         -2   -1    0    0    0  501 -0.00000000000E+00 -0.00000000000E+00 -0.19430711454E+04  0.19430711454E+04  0.00000000000E+00 0.  1.
         23    2    1    2    0    0  0.44000853610E+03 -0.71650446378E+03  0.25239145530E+04  0.26621265577E+04  0.98929166436E+02 0.  0.
         11    1    3    3    0    0  0.13660080639E+03 -0.21525845584E+03  0.62929729577E+03  0.67897795957E+03  0.00000000000E+00 0.  1.
        -11    1    3    3    0    0  0.30340772972E+03 -0.50124600794E+03  0.18946172572E+04  0.19831485981E+04  0.00000000000E+00 0. -1.
         22    1    1    2    0    0 -0.44000853610E+03  0.71650446378E+03 -0.17796482662E+04  0.19682820199E+04  0.00000000000E+00 0.  1.
<mgrwt>
<rscale>  0 0.45702025E+04</rscale>
<asrwt>0</asrwt>
<pdfrwt beam="1">  1        2 0.41343653E+00 0.45702025E+04</pdfrwt>
<pdfrwt beam="2">  1       -2 0.29893402E+00 0.45702025E+04</pdfrwt>
<totfact> 0.65677841E-02</totfact>
</mgrwt>
</event>
<event>
 6    1  0.2003386E-005  0.1682532E+04  0.7818608E-02  0.8771390E-01
         -1   -1    0    0    0  501 -0.00000000000E+00  0.00000000000E+00  0.44683828824E+03  0.44683828824E+03  0.00000000000E+00 0.  1.
          1   -1    0    0  501    0  0.00000000000E+00 -0.00000000000E+00 -0.15838589760E+04  0.15838589760E+04  0.00000000000E+00 0. -1.
         23    2    1    2    0    0 -0.25892432038E+02  0.21416280117E+03 -0.15485176136E+04  0.15660836146E+04  0.90415512145E+02 0.  0.
         11    1    3    3    0    0 -0.41593355524E+02  0.48958553312E+02 -0.56809667986E+03  0.57171739945E+03  0.00000000000E+00 0. -1.
        -11    1    3    3    0    0  0.15700923487E+02  0.16520424786E+03 -0.98042093373E+03  0.99436621514E+03  0.00000000000E+00 0.  1.
         22    1    1    2    0    0  0.25892432038E+02 -0.21416280117E+03  0.41149692585E+03  0.46461364964E+03  0.00000000000E+00 0.  1.
<mgrwt>
<rscale>  0 0.16825324E+04</rscale>
<asrwt>0</asrwt>
<pdfrwt beam="1">  1        1 0.24367061E+00 0.16825324E+04</pdfrwt>
<pdfrwt beam="2">  1       -1 0.68744352E-01 0.16825324E+04</pdfrwt>
<totfact> 0.11681622E+01</totfact>
</mgrwt>
</event>
<event>
 6    1  0.2003386E-005  0.2859586E+04  0.7818608E-02  0.8285004E-01
         -2   -1    0    0    0  501 -0.00000000000E+00  0.00000000000E+00  0.23145343545E+04  0.23145343545E+04  0.00000000000E+00 0. -1.
          2   -1    0    0  501    0  0.00000000000E+00 -0.00000000000E+00 -0.88324826035E+03  0.88324826035E+03  0.00000000000E+00 0.  1.
         23    2    1    2    0    0  0.13082752330E+04  0.54735230865E+03  0.52327295265E+03  0.15138388805E+04  0.81944725873E+02 0.  0.
         11    1    3    3    0    0  0.11431552482E+04  0.49948523502E+03  0.44018662666E+03  0.13228959474E+04  0.00000000000E+00 0. -1.
        -11    1    3    3    0    0  0.16511998485E+03  0.47867073630E+02  0.83086325993E+02  0.19094293310E+03  0.00000000000E+00 0.  1.
         22    1    1    2    0    0 -0.13082752330E+04 -0.54735230865E+03  0.90801314146E+03  0.16839437343E+04  0.00000000000E+00 0. -1.
<mgrwt>
<rscale>  0 0.28595863E+04</rscale>
<asrwt>0</asrwt>
<pdfrwt beam="1">  1        2 0.13588435E+00 0.28595863E+04</pdfrwt>
<pdfrwt beam="2">  1       -2 0.35608221E+00 0.28595863E+04</pdfrwt>
<totfact> 0.37112825E-01</totfact>
</mgrwt>
</event>
<event>
 6    1  0.2003386E-005  0.1302019E+04  0.7818608E-02  0.9027966E-01
         -2   -1    0    0    0  501 -0.00000000000E+00  0.00000000000E+00  0.11245151350E+03  0.11245151350E+03  0.00000000000E+00 0.  1.
          2   -1    0    0  501    0  0.00000000000E+00 -0.00000000000E+00 -0.37688544481E+04  0.37688544481E+04  0.00000000000E+00 0. -1.
         23    2    1    2    0    0  0.44316713531E+03  0.45177707278E+03 -0.14288919052E+04  0.15656408262E+04  0.94865623542E+02 0.  0.
         11    1    3    3    0    0  0.35578610373E+03  0.34489329219E+03 -0.12008158656E+04  0.12990357492E+04  0.00000000000E+00 0.  1.
        -11    1    3    3    0    0  0.87381031582E+02  0.10688378059E+03 -0.22807603961E+03  0.26660507699E+03  0.00000000000E+00 0. -1.
         22    1    1    2    0    0 -0.44316713531E+03 -0.45177707278E+03 -0.22275110294E+04  0.23156651355E+04  0.00000000000E+00 0. -1.
<mgrwt>
<rscale>  0 0.13020190E+04</rscale>
<asrwt>0</asrwt>
<pdfrwt beam="1">  1        2 0.57982378E+00 0.13020190E+04</pdfrwt>
<pdfrwt beam="2">  1       -2 0.17300232E-01 0.13020190E+04</pdfrwt>
<totfact> 0.14368824E+01</totfact>
</mgrwt>
</event>
<event>
 6    1  0.2003386E-005  0.2304421E+04  0.7818608E-02  0.8476180E-01
         -2   -1    0    0    0  501 -0.00000000000E+00  0.00000000000E+00  0.17127609876E+04  0.17127609876E+04  0.00000000000E+00 0.  1.
          2   -1    0    0  501    0  0.00000000000E+00 -0.00000000000E+00 -0.77511641027E+03  0.77511641027E+03  0.00000000000E+00 0. -1.
         23    2    1    2    0    0 -0.58171003296E+03  0.83970033768E+03  0.10404857896E+04  0.14612033822E+04  0.94981188797E+02 0.  0.
         13    1    3    3    0    0 -0.19264938836E+03  0.32113086731E+03  0.32677593638E+03  0.49701240766E+03  0.00000000000E+00 0. -1.
        -13    1    3    3    0    0 -0.38906064460E+03  0.51856947037E+03  0.71370985326E+03  0.96419097455E+03  0.00000000000E+00 0.  1.
         22    1    1    2    0    0  0.58171003296E+03 -0.83970033768E+03 -0.10284121227E+03  0.10266740157E+04  0.00000000000E+00 0. -1.
<mgrwt>
<rscale>  0 0.23044211E+04</rscale>
<asrwt>0</asrwt>
<pdfrwt beam="1">  1        2 0.11924868E+00 0.23044211E+04</pdfrwt>
<pdfrwt beam="2">  1       -2 0.26350169E+00 0.23044211E+04</pdfrwt>
<totfact> 0.17286959E+00</totfact>
</mgrwt>
</event>
<event>
 6    1  0.2003386E-005  0.1936023E+04  0.7818608E-02  0.8637130E-01
         -2   -1    0    0    0  501 -0.00000000000E+00  0.00000000000E+00  0.24268571253E+03  0.24268571253E+03  0.00000000000E+00 0.  1.
          2   -1    0    0  501    0  0.00000000000E+00 -0.00000000000E+00 -0.38611504181E+04  0.38611504181E+04  0.00000000000E+00 0. -1.
         23    2    1    2    0    0  0.68463650693E+03  0.26647481846E+03 -0.31426261300E+04  0.32285314263E+04  0.87064354445E+02 0.  0.
         11    1    3    3    0    0  0.34099514931E+03  0.17736274137E+03 -0.16890756540E+04  0.17322562740E+04  0.00000000000E+00 0. -1.
        -11    1    3    3    0    0  0.34364135763E+03  0.89112077083E+02 -0.14535504760E+04  0.14962751522E+04  0.00000000000E+00 0.  1.
         22    1    1    2    0    0 -0.68463650693E+03 -0.26647481846E+03 -0.47583857553E+03  0.87530470436E+03  0.00000000000E+00 0.  1.
<mgrwt>
<rscale>  0 0.19360228E+04</rscale>
<asrwt>0</asrwt>
<pdfrwt beam="1">  1        2 0.59402309E+00 0.19360228E+04</pdfrwt>
<pdfrwt beam="2">  1       -2 0.37336267E-01 0.19360228E+04</pdfrwt>
<totfact> 0.28125505E+00</totfact>
</mgrwt>
</event>
<event>
 6    1  0.2003386E-005  0.2125163E+04  0.7818608E-02  0.8550239E-01
          2   -1    0    0  501    0  0.00000000000E+00  0.00000000000E+00  0.12304710527E+04  0.12304710527E+04  0.00000000000E+00 0. -1.
         -2   -1    0    0    0  501 -0.00000000000E+00 -0.00000000000E+00 -0.91759957540E+03  0.91759957540E+03  0.00000000000E+00 0.  1.
         23    2    1    2    0    0  0.17602057743E+02 -0.77864342407E+03  0.88448093123E+03  0.11819791303E+04  0.90403166508E+02 0.  0.
         13    1    3    3    0    0  0.21083970732E+02 -0.42985144139E+03  0.42238498206E+03  0.60301398704E+03  0.00000000000E+00 0. -1.
        -13    1    3    3    0    0 -0.34819129894E+01 -0.34879198267E+03  0.46209594917E+03  0.57896514328E+03  0.00000000000E+00 0.  1.
         22    1    1    2    0    0 -0.17602057743E+02  0.77864342407E+03 -0.57160945393E+03  0.96609149779E+03  0.00000000000E+00 0.  1.
<mgrwt>
<rscale>  0 0.21251633E+04</rscale>
<asrwt>0</asrwt>
<pdfrwt beam="1">  1        2 0.18930324E+00 0.21251633E+04</pdfrwt>
<pdfrwt beam="2">  1       -2 0.14116916E+00 0.21251633E+04</pdfrwt>
<totfact> 0.58721791E+00</totfact>
</mgrwt>
</event>
<event>
 6    1  0.2003386E-005  0.2926298E+04  0.7818608E-02  0.8265096E-01
         -2   -1    0    0    0  501 -0.00000000000E+00  0.00000000000E+00  0.15314588152E+04  0.15314588152E+04  0.00000000000E+00 0.  1.
          2   -1    0    0  501    0  0.00000000000E+00 -0.00000000000E+00 -0.13978864953E+04  0.13978864953E+04  0.00000000000E+00 0. -1.
         23    2    1    2    0    0  0.12656293316E+04 -0.65693067591E+03 -0.25597789005E+03  0.14511285186E+04  0.82908259271E+02 0.  0.
         11    1    3    3    0    0  0.26682167554E+03 -0.10323055722E+03 -0.40184605332E+02  0.28890336963E+03  0.00000000000E+00 0. -1.
        -11    1    3    3    0    0  0.99880765602E+03 -0.55370011870E+03 -0.21579328472E+03  0.11622251490E+04  0.00000000000E+00 0.  1.
         22    1    1    2    0    0 -0.12656293316E+04  0.65693067591E+03  0.38955020997E+03  0.14782167919E+04  0.00000000000E+00 0.  1.
<mgrwt>
<rscale>  0 0.29262984E+04</rscale>
<asrwt>0</asrwt>
<pdfrwt beam="1">  1        2 0.21505946E+00 0.29262984E+04</pdfrwt>
<pdfrwt beam="2">  1       -2 0.23560905E+00 0.29262984E+04</pdfrwt>
<totfact> 0.98573692E-01</totfact>
</mgrwt>
</event>
<event>
 6    1  0.2003386E-005  0.2648843E+04  0.7818608E-02  0.8351797E-01
         -2   -1    0    0    0  501 -0.00000000000E+00  0.00000000000E+00  0.16451486228E+04  0.16451486228E+04  0.00000000000E+00 0.  1.
          2   -1    0    0  501    0  0.00000000000E+00 -0.00000000000E+00 -0.10662209364E+04  0.10662209364E+04  0.00000000000E+00 0. -1.
         23    2    1    2    0    0  0.13700285464E+03 -0.11291535144E+04  0.97910655618E+03  0.15055915659E+04  0.11999530726E+03 0.  0.
         11    1    3    3    0    0 -0.18258109054E+02 -0.22749750096E+03  0.21514246348E+03  0.31364749494E+03  0.00000000000E+00 0. -1.
        -11    1    3    3    0    0  0.15526096369E+03 -0.90165601346E+03  0.76396409270E+03  0.11919440710E+04  0.00000000000E+00 0.  1.
         22    1    1    2    0    0 -0.13700285464E+03  0.11291535144E+04 -0.40017886978E+03  0.12057779933E+04  0.00000000000E+00 0. -1.
<mgrwt>
<rscale>  0 0.26488427E+04</rscale>
<asrwt>0</asrwt>
<pdfrwt beam="1">  1        2 0.16403399E+00 0.26488427E+04</pdfrwt>
<pdfrwt beam="2">  1       -2 0.25309979E+00 0.26488427E+04</pdfrwt>
<totfact> 0.12388638E+00</totfact>
</mgrwt>
</event>
<event>
 6    1  0.2003386E-005  0.2164963E+04  0.7818608E-02  0.8533154E-01
         -2   -1    0    0    0  501 -0.00000000000E+00  0.00000000000E+00  0.89087079163E+03  0.89087079163E+03  0.00000000000E+00 0.  1.
          2   -1    0    0  501    0  0.00000000000E+00 -0.00000000000E+00 -0.13153042308E+04  0.13153042308E+04  0.00000000000E+00 0. -1.
         23    2    1    2    0    0  0.64421901873E+03 -0.81507543011E+03 -0.51909029650E+03  0.11629463698E+04  0.60194869691E+02 0.  0.
         13    1    3    3    0    0  0.33328485679E+03 -0.38482637550E+03 -0.27600215854E+03  0.57909181186E+03  0.00000000000E+00 0.  1.
        -13    1    3    3    0    0  0.31093416194E+03 -0.43024905461E+03 -0.24308813796E+03  0.58385455798E+03  0.00000000000E+00 0. -1.
         22    1    1    2    0    0 -0.64421901873E+03  0.81507543011E+03  0.94656857367E+02  0.10432286526E+04  0.00000000000E+00 0.  1.
<mgrwt>
<rscale>  0 0.21649629E+04</rscale>
<asrwt>0</asrwt>
<pdfrwt beam="1">  1        2 0.20235450E+00 0.21649629E+04</pdfrwt>
<pdfrwt beam="2">  1       -2 0.13705705E+00 0.21649629E+04</pdfrwt>
<totfact> 0.56348987E+00</totfact>
</mgrwt>
</event>
<event>
 6    1  0.2003386E-005  0.1645000E+04  0.7818608E-02  0.8793370E-01
          2   -1    0    0  501    0  0.00000000000E+00  0.00000000000E+00  0.24755108791E+04  0.24755108791E+04  0.00000000000E+00 0. -1.
         -2   -1    0    0    0  501 -0.00000000000E+00 -0.00000000000E+00 -0.27327957190E+03  0.27327957190E+03  0.00000000000E+00 0.  1.
         23    2    1    2    0    0  0.40549654744E+03 -0.15722001603E+03 -0.57479568825E+02  0.44760840114E+03  0.88903298639E+02 0.  0.
         13    1    3    3    0    0  0.21343023071E+03 -0.35189205509E+02 -0.30877000107E+02  0.21850430820E+03  0.00000000000E+00 0. -1.
        -13    1    3    3    0    0  0.19206631673E+03 -0.12203081052E+03 -0.26602568718E+02  0.22910409294E+03  0.00000000000E+00 0.  1.
         22    1    1    2    0    0 -0.40549654744E+03  0.15722001603E+03  0.22597108760E+04  0.23011820499E+04  0.00000000000E+00 0. -1.
<mgrwt>
<rscale>  0 0.16450004E+04</rscale>
<asrwt>0</asrwt>
<pdfrwt beam="1">  1        2 0.38084781E+00 0.16450004E+04</pdfrwt>
<pdfrwt beam="2">  1       -2 0.42043013E-01 0.16450004E+04</pdfrwt>
<totfact> 0.18461325E+01</totfact>
</mgrwt>
</event>
<event>
 6    1  0.2003386E-005  0.1076198E+04  0.7818608E-02  0.9228706E-01
         -2   -1    0    0    0  501 -0.00000000000E+00  0.00000000000E+00  0.13126997879E+03  0.13126997879E+03  0.00000000000E+00 0.  1.
          2   -1    0    0  501    0  0.00000000000E+00 -0.00000000000E+00 -0.22057650342E+04  0.22057650342E+04  0.00000000000E+00 0. -1.
         23    2    1    2    0    0  0.23653059746E+03  0.25999403085E+03 -0.17075900360E+03  0.40112319305E+03  0.90540372645E+02 0.  0.
         11    1    3    3    0    0  0.15710273486E+03  0.10714593455E+03 -0.10057091052E+03  0.21511863851E+03  0.00000000000E+00 0. -1.
        -11    1    3    3    0    0  0.79427862602E+02  0.15284809630E+03 -0.70188093086E+02  0.18600455454E+03  0.00000000000E+00 0.  1.
         22    1    1    2    0    0 -0.23653059746E+03 -0.25999403085E+03 -0.19037360518E+04  0.19359118200E+04  0.00000000000E+00 0. -1.
<mgrwt>
<rscale>  0 0.10761984E+04</rscale>
<asrwt>0</asrwt>
<pdfrwt beam="1">  1        2 0.33934847E+00 0.10761984E+04</pdfrwt>
<pdfrwt beam="2">  1       -2 0.20195381E-01 0.10761984E+04</pdfrwt>
<totfact> 0.10760226E+02</totfact>
</mgrwt>
</event>
<event>
 6    1  0.2003386E-005  0.1599442E+04  0.7818608E-02  0.8820891E-01
          2   -1    0    0  501    0  0.00000000000E+00  0.00000000000E+00  0.10034970391E+04  0.10034970391E+04  0.00000000000E+00 0. -1.
         -2   -1    0    0    0  501 -0.00000000000E+00 -0.00000000000E+00 -0.63732478848E+03  0.63732478848E+03  0.00000000000E+00 0.  1.
         23    2    1    2    0    0  0.31416505022E+03 -0.11711777299E+03  0.92555421306E+03  0.98865280703E+03  0.91474149309E+02 0.  0.
         13    1    3    3    0    0  0.12837503868E+03 -0.17176931868E+02  0.26018480179E+03  0.29063951663E+03  0.00000000000E+00 0.  1.
        -13    1    3    3    0    0  0.18579001154E+03 -0.99940841124E+02  0.66536941128E+03  0.69801329040E+03  0.00000000000E+00 0. -1.
         22    1    1    2    0    0 -0.31416505022E+03  0.11711777299E+03 -0.55938196242E+03  0.65216902058E+03  0.00000000000E+00 0.  1.
<mgrwt>
<rscale>  0 0.15994418E+04</rscale>
<asrwt>0</asrwt>
<pdfrwt beam="1">  1        2 0.15438416E+00 0.15994418E+04</pdfrwt>
<pdfrwt beam="2">  1       -2 0.98049968E-01 0.15994418E+04</pdfrwt>
<totfact> 0.20798948E+01</totfact>
</mgrwt>
</event>
<event>
 6    1  0.2003386E-005  0.3450731E+04  0.7818608E-02  0.8125566E-01
         -1   -1    0    0    0  501 -0.00000000000E+00  0.00000000000E+00  0.22902568225E+04  0.22902568225E+04  0.00000000000E+00 0.  1.
          1   -1    0    0  501    0  0.00000000000E+00 -0.00000000000E+00 -0.12998044070E+04  0.12998044070E+04  0.00000000000E+00 0. -1.
         23    2    1    2    0    0 -0.28823218925E+03 -0.13727335543E+04  0.15387041380E+04  0.20840548692E+04  0.90548702202E+02 0.  0.
         13    1    3    3    0    0 -0.27270697233E+03 -0.12721840071E+04  0.13904840850E+04  0.19042760387E+04  0.00000000000E+00 0. -1.
        -13    1    3    3    0    0 -0.15525216926E+02 -0.10054954715E+03  0.14822005301E+03  0.17977883053E+03  0.00000000000E+00 0.  1.
         22    1    1    2    0    0  0.28823218925E+03  0.13727335543E+04 -0.54825172252E+03  0.15060063603E+04  0.00000000000E+00 0. -1.
<mgrwt>
<rscale>  0 0.34507309E+04</rscale>
<asrwt>0</asrwt>
<pdfrwt beam="1">  1        1 0.19996991E+00 0.34507309E+04</pdfrwt>
<pdfrwt beam="2">  1       -1 0.35234720E+00 0.34507309E+04</pdfrwt>
<totfact> 0.11106539E-01</totfact>
</mgrwt>
</event>
<event>
 6    1  0.2003386E-005  0.1901974E+04  0.7818608E-02  0.8653874E-01
         -1   -1    0    0    0  501 -0.00000000000E+00  0.00000000000E+00  0.10352726335E+04  0.10352726335E+04  0.00000000000E+00 0.  1.
          1   -1    0    0  501    0  0.00000000000E+00 -0.00000000000E+00 -0.87356359794E+03  0.87356359794E+03  0.00000000000E+00 0. -1.
         23    2    1    2    0    0 -0.16510567389E+03  0.68525416141E+03 -0.55607894242E+03  0.90282791604E+03  0.95085784980E+02 0.  0.
         13    1    3    3    0    0 -0.14374325594E+02  0.24936827468E+03 -0.18389139714E+03  0.31017286083E+03  0.00000000000E+00 0. -1.
        -13    1    3    3    0    0 -0.15073134829E+03  0.43588588673E+03 -0.37218754529E+03  0.59265505521E+03  0.00000000000E+00 0.  1.
         22    1    1    2    0    0  0.16510567389E+03 -0.68525416141E+03  0.71778797794E+03  0.10060083153E+04  0.00000000000E+00 0.  1.
<mgrwt>
<rscale>  0 0.19019742E+04</rscale>
<asrwt>0</asrwt>
<pdfrwt beam="1">  1        1 0.13439440E+00 0.19019742E+04</pdfrwt>
<pdfrwt beam="2">  1       -1 0.15927271E+00 0.19019742E+04</pdfrwt>
<totfact> 0.52986472E+00</totfact>
</mgrwt>
</event>
<event>
 6    1  0.2003386E-005  0.2921057E+04  0.7818608E-02  0.8266640E-01
          2   -1    0    0  501    0  0.00000000000E+00  0.00000000000E+00  0.26859226551E+04  0.26859226551E+04  0.00000000000E+00 0. -1.
         -2   -1    0    0    0  501 -0.00000000000E+00 -0.00000000000E+00 -0.79419375266E+03  0.79419375266E+03  0.00000000000E+00 0.  1.
         23    2    1    2    0    0 -0.58581350602E+03 -0.89871353419E+03 -0.23142300550E+03  0.11013273241E+04  0.92205135151E+02 0.  0.
         11    1    3    3    0    0 -0.29833114269E+03 -0.37499283700E+03 -0.95021993610E+02  0.48851845182E+03  0.00000000000E+00 0.  1.
        -11    1    3    3    0    0 -0.28748236333E+03 -0.52372069719E+03 -0.13640101189E+03  0.61280887227E+03  0.00000000000E+00 0. -1.
         22    1    1    2    0    0  0.58581350602E+03  0.89871353419E+03  0.21231519080E+04  0.23787890837E+04  0.00000000000E+00 0. -1.
<mgrwt>
<rscale>  0 0.29210567E+04</rscale>
<asrwt>0</asrwt>
<pdfrwt beam="1">  1        2 0.41321887E+00 0.29210567E+04</pdfrwt>
<pdfrwt beam="2">  1       -2 0.12218366E+00 0.29210567E+04</pdfrwt>
<totfact> 0.11837011E+00</totfact>
</mgrwt>
</event>
<event>
 6    1  0.2003386E-005  0.1955849E+04  0.7818608E-02  0.8627546E-01
         -2   -1    0    0    0  501 -0.00000000000E+00  0.00000000000E+00  0.49974769286E+03  0.49974769286E+03  0.00000000000E+00 0.  1.
          2   -1    0    0  501    0  0.00000000000E+00 -0.00000000000E+00 -0.19136375952E+04  0.19136375952E+04  0.00000000000E+00 0. -1.
         23    2    1    2    0    0  0.37281319249E+03 -0.80430030845E+03 -0.12105347427E+04  0.15038568478E+04  0.10150070275E+03 0.  0.
         13    1    3    3    0    0  0.25338548413E+03 -0.42938934916E+03 -0.69402994258E+03  0.85455074626E+03  0.00000000000E+00 0. -1.
        -13    1    3    3    0    0  0.11942770837E+03 -0.37491095930E+03 -0.51650480015E+03  0.64930610155E+03  0.00000000000E+00 0.  1.
         22    1    1    2    0    0 -0.37281319249E+03  0.80430030845E+03 -0.20335515959E+03  0.90952844024E+03  0.00000000000E+00 0. -1.
<mgrwt>
<rscale>  0 0.19558486E+04</rscale>
<asrwt>0</asrwt>
<pdfrwt beam="1">  1        2 0.29440578E+00 0.19558486E+04</pdfrwt>
<pdfrwt beam="2">  1       -2 0.76884262E-01 0.19558486E+04</pdfrwt>
<totfact> 0.10512071E+01</totfact>
</mgrwt>
</event>
<event>
 6    1  0.2003386E-005  0.2110411E+04  0.7818608E-02  0.8556671E-01
          2   -1    0    0  501    0  0.00000000000E+00  0.00000000000E+00  0.59340397789E+03  0.59340397789E+03  0.00000000000E+00 0. -1.
         -2   -1    0    0    0  501 -0.00000000000E+00 -0.00000000000E+00 -0.18763923458E+04  0.18763923458E+04  0.00000000000E+00 0.  1.
         23    2    1    2    0    0  0.42997929434E+03  0.26777862010E+03 -0.17233799650E+04  0.17985792637E+04  0.90891589623E+02 0.  0.
         13    1    3    3    0    0  0.17500799839E+03  0.16237515605E+03 -0.80231505469E+03  0.83708000680E+03  0.00000000000E+00 0. -1.
        -13    1    3    3    0    0  0.25497129595E+03  0.10540346405E+03 -0.92106491031E+03  0.96149925689E+03  0.00000000000E+00 0.  1.
         22    1    1    2    0    0 -0.42997929434E+03 -0.26777862010E+03  0.44039159704E+03  0.67121706004E+03  0.00000000000E+00 0. -1.
<mgrwt>
<rscale>  0 0.21104110E+04</rscale>
<asrwt>0</asrwt>
<pdfrwt beam="1">  1        2 0.91292921E-01 0.21104110E+04</pdfrwt>
<pdfrwt beam="2">  1       -2 0.28867574E+00 0.21104110E+04</pdfrwt>
<totfact> 0.17261435E+00</totfact>
</mgrwt>
</event>
<event>
 6    1  0.2003386E-005  0.3403603E+04  0.7818608E-02  0.8137023E-01
         -2   -1    0    0    0  501 -0.00000000000E+00  0.00000000000E+00  0.16264428270E+04  0.16264428270E+04  0.00000000000E+00 0.  1.
          2   -1    0    0  501    0  0.00000000000E+00 -0.00000000000E+00 -0.17806521106E+04  0.17806521106E+04  0.00000000000E+00 0. -1.
         23    2    1    2    0    0  0.44903754863E+03  0.78384659225E+03  0.13651933230E+04  0.16394313719E+04  0.89062976626E+02 0.  0.
         11    1    3    3    0    0  0.18821219427E+03  0.25279945714E+03  0.43969843401E+03  0.54098623686E+03  0.00000000000E+00 0.  1.
        -11    1    3    3    0    0  0.26082535436E+03  0.53104713511E+03  0.92549488899E+03  0.10984451351E+04  0.00000000000E+00 0. -1.
         22    1    1    2    0    0 -0.44903754863E+03 -0.78384659225E+03 -0.15194026067E+04  0.17676635657E+04  0.00000000000E+00 0. -1.
<mgrwt>
<rscale>  0 0.34036033E+04</rscale>
<asrwt>0</asrwt>
<pdfrwt beam="1">  1        2 0.27394648E+00 0.34036033E+04</pdfrwt>
<pdfrwt beam="2">  1       -2 0.25022197E+00 0.34036033E+04</pdfrwt>
<totfact> 0.46928122E-01</totfact>
</mgrwt>
</event>
<event>
 6    1  0.2003386E-005  0.2767605E+04  0.7818608E-02  0.8313397E-01
         -2   -1    0    0    0  501 -0.00000000000E+00  0.00000000000E+00  0.11939985998E+04  0.11939985998E+04  0.00000000000E+00 0.  1.
          2   -1    0    0  501    0  0.00000000000E+00 -0.00000000000E+00 -0.16037780612E+04  0.16037780612E+04  0.00000000000E+00 0. -1.
         23    2    1    2    0    0 -0.10220470393E+04  0.77627380664E+03  0.31388753604E+03  0.13243876775E+04  0.91083267009E+02 0.  0.
         13    1    3    3    0    0 -0.45207227143E+03  0.31470547220E+03  0.94694264217E+02  0.55890596392E+03  0.00000000000E+00 0. -1.
        -13    1    3    3    0    0 -0.56997476790E+03  0.46156833444E+03  0.21919327182E+03  0.76548171357E+03  0.00000000000E+00 0.  1.
         22    1    1    2    0    0  0.10220470393E+04 -0.77627380664E+03 -0.72366699745E+03  0.14733889835E+04  0.00000000000E+00 0.  1.
<mgrwt>
<rscale>  0 0.27676046E+04</rscale>
<asrwt>0</asrwt>
<pdfrwt beam="1">  1        2 0.24673509E+00 0.27676046E+04</pdfrwt>
<pdfrwt beam="2">  1       -2 0.18369209E+00 0.27676046E+04</pdfrwt>
<totfact> 0.16562290E+00</totfact>
</mgrwt>
</event>
<event>
 6    1  0.2126663E-005  0.4799805E+04  0.7818608E-02  0.7860154E-01
         -2   -1    0    0    0  501 -0.00000000000E+00  0.00000000000E+00  0.18210523062E+04  0.18210523062E+04  0.00000000000E+00 0.  1.
          2   -1    0    0  501    0  0.00000000000E+00 -0.00000000000E+00 -0.31627493650E+04  0.31627493650E+04  0.00000000000E+00 0. -1.
         23    2    1    2    0    0 -0.12677394848E+04 -0.99145887688E+02  0.14411969978E+04  0.19241460308E+04  0.91081572306E+02 0.  0.
         13    1    3    3    0    0 -0.75534208827E+03 -0.76306075850E+02  0.92175537816E+03  0.11941512738E+04  0.00000000000E+00 0. -1.
        -13    1    3    3    0    0 -0.51239739654E+03 -0.22839811838E+02  0.51944161964E+03  0.72999475697E+03  0.00000000000E+00 0.  1.
         22    1    1    2    0    0  0.12677394848E+04  0.99145887688E+02 -0.27828940566E+04  0.30596556405E+04  0.00000000000E+00 0. -1.
<mgrwt>
<rscale>  0 0.47998050E+04</rscale>
<asrwt>0</asrwt>
<pdfrwt beam="1">  1        2 0.48657682E+00 0.47998050E+04</pdfrwt>
<pdfrwt beam="2">  1       -2 0.28016190E+00 0.47998050E+04</pdfrwt>
<totfact> 0.42577538E-02</totfact>
</mgrwt>
</event>
<event>
 6    1  0.2003386E-005  0.4833026E+04  0.7818608E-02  0.7854794E-01
         -2   -1    0    0    0  501 -0.00000000000E+00  0.00000000000E+00  0.16440862054E+04  0.16440862054E+04  0.00000000000E+00 0. -1.
          2   -1    0    0  501    0  0.00000000000E+00 -0.00000000000E+00 -0.35518422278E+04  0.35518422278E+04  0.00000000000E+00 0.  1.
         23    2    1    2    0    0 -0.44433894059E+03  0.11639505009E+04  0.12707605676E+04  0.17819592512E+04  0.91260560187E+02 0.  0.
         11    1    3    3    0    0 -0.17458945944E+03  0.35641590419E+03  0.43658693797E+03  0.59001858489E+03  0.00000000000E+00 0. -1.
        -11    1    3    3    0    0 -0.26974948115E+03  0.80753459676E+03  0.83417362962E+03  0.11919406663E+04  0.00000000000E+00 0.  1.
         22    1    1    2    0    0  0.44433894059E+03 -0.11639505009E+04 -0.31785165900E+04  0.34139691820E+04  0.00000000000E+00 0.  1.
<mgrwt>
<rscale>  0 0.48330259E+04</rscale>
<asrwt>0</asrwt>
<pdfrwt beam="1">  1        2 0.54643726E+00 0.48330259E+04</pdfrwt>
<pdfrwt beam="2">  1       -2 0.25293634E+00 0.48330259E+04</pdfrwt>
<totfact> 0.33912488E-02</totfact>
</mgrwt>
</event>
<event>
 6    1  0.2003386E-005  0.5187661E+04  0.7818608E-02  0.7800193E-01
         -2   -1    0    0    0  501 -0.00000000000E+00  0.00000000000E+00  0.29151332015E+04  0.29151332015E+04  0.00000000000E+00 0.  1.
          2   -1    0    0  501    0  0.00000000000E+00 -0.00000000000E+00 -0.23079411553E+04  0.23079411553E+04  0.00000000000E+00 0. -1.
         23    2    1    2    0    0  0.18738742865E+04  0.17895575679E+04  0.40384196467E+03  0.26239836723E+04  0.90999173811E+02 0.  0.
         13    1    3    3    0    0  0.92542564444E+03  0.86257985424E+03  0.15382317231E+03  0.12744089597E+04  0.00000000000E+00 0. -1.
        -13    1    3    3    0    0  0.94844864208E+03  0.92697771367E+03  0.25001879235E+03  0.13495747126E+04  0.00000000000E+00 0.  1.
         22    1    1    2    0    0 -0.18738742865E+04 -0.17895575679E+04  0.20335008155E+03  0.25990906845E+04  0.00000000000E+00 0. -1.
<mgrwt>
<rscale>  0 0.51876607E+04</rscale>
<asrwt>0</asrwt>
<pdfrwt beam="1">  1        2 0.35506787E+00 0.51876607E+04</pdfrwt>
<pdfrwt beam="2">  1       -2 0.44848203E+00 0.51876607E+04</pdfrwt>
<totfact> 0.11467477E-02</totfact>
</mgrwt>
</event>
<event>
 6    1  0.2003386E-005  0.2014066E+04  0.7818608E-02  0.8600073E-01
          2   -1    0    0  501    0  0.00000000000E+00  0.00000000000E+00  0.32233845938E+04  0.32233845938E+04  0.00000000000E+00 0. -1.
         -2   -1    0    0    0  501 -0.00000000000E+00 -0.00000000000E+00 -0.31461185344E+03  0.31461185344E+03  0.00000000000E+00 0.  1.
         23    2    1    2    0    0 -0.75403229288E+03 -0.52108220012E+02  0.26209876362E+04  0.27292318143E+04  0.88601026342E+02 0.  0.
         11    1    3    3    0    0 -0.48128967686E+03 -0.75789735302E+02  0.16693903928E+04  0.17390365495E+04  0.00000000000E+00 0.  1.
        -11    1    3    3    0    0 -0.27274261602E+03  0.23681515290E+02  0.95159724340E+03  0.99019526479E+03  0.00000000000E+00 0. -1.
         22    1    1    2    0    0  0.75403229288E+03  0.52108220012E+02  0.28778510415E+03  0.80876463292E+03  0.00000000000E+00 0.  1.
<mgrwt>
<rscale>  0 0.20140655E+04</rscale>
<asrwt>0</asrwt>
<pdfrwt beam="1">  1        2 0.49590530E+00 0.20140655E+04</pdfrwt>
<pdfrwt beam="2">  1       -2 0.48401826E-01 0.20140655E+04</pdfrwt>
<totfact> 0.47136124E+00</totfact>
</mgrwt>
</event>
<event>
 6    1  0.2003386E-005  0.1360025E+04  0.7818608E-02  0.8983274E-01
          1   -1    0    0  501    0  0.00000000000E+00  0.00000000000E+00  0.10893329105E+04  0.10893329105E+04  0.00000000000E+00 0. -1.
         -1   -1    0    0    0  501 -0.00000000000E+00 -0.00000000000E+00 -0.42449538436E+03  0.42449538436E+03  0.00000000000E+00 0.  1.
         23    2    1    2    0    0  0.13120146667E+03  0.27409117761E+03  0.10072352042E+04  0.10560336155E+04  0.91347916630E+02 0.  0.
         13    1    3    3    0    0  0.60653564237E+02  0.15906029457E+03  0.41376201433E+03  0.44741260227E+03  0.00000000000E+00 0. -1.
        -13    1    3    3    0    0  0.70547902437E+02  0.11503088304E+03  0.59347318988E+03  0.60862101319E+03  0.00000000000E+00 0.  1.
         22    1    1    2    0    0 -0.13120146667E+03 -0.27409117761E+03 -0.34239767810E+03  0.45779467938E+03  0.00000000000E+00 0.  1.
<mgrwt>
<rscale>  0 0.13600247E+04</rscale>
<asrwt>0</asrwt>
<pdfrwt beam="1">  1        1 0.16758968E+00 0.13600247E+04</pdfrwt>
<pdfrwt beam="2">  1       -1 0.65306983E-01 0.13600247E+04</pdfrwt>
<totfact> 0.30029947E+01</totfact>
</mgrwt>
</event>
<event>
 6    1  0.2003386E-005  0.5439379E+04  0.7818608E-02  0.7764086E-01
          2   -1    0    0  501    0  0.00000000000E+00  0.00000000000E+00  0.46014614912E+04  0.46014614912E+04  0.00000000000E+00 0. -1.
         -2   -1    0    0    0  501 -0.00000000000E+00 -0.00000000000E+00 -0.16074697896E+04  0.16074697896E+04  0.00000000000E+00 0.  1.
         23    2    1    2    0    0  0.82225095013E+03 -0.12316019490E+04  0.41003239876E+04  0.43604424081E+04  0.88663436683E+02 0.  0.
         11    1    3    3    0    0  0.54726887372E+03 -0.82043254825E+03  0.28512103328E+04  0.30169542834E+04  0.00000000000E+00 0.  1.
        -11    1    3    3    0    0  0.27498207641E+03 -0.41116940078E+03  0.12491136548E+04  0.13434881247E+04  0.00000000000E+00 0. -1.
         22    1    1    2    0    0 -0.82225095013E+03  0.12316019490E+04 -0.11063322859E+04  0.18484888728E+04  0.00000000000E+00 0.  1.
<mgrwt>
<rscale>  0 0.54393788E+04</rscale>
<asrwt>0</asrwt>
<pdfrwt beam="1">  1        2 0.70791715E+00 0.54393788E+04</pdfrwt>
<pdfrwt beam="2">  1       -2 0.24730305E+00 0.54393788E+04</pdfrwt>
<totfact> 0.45168101E-03</totfact>
</mgrwt>
</event>
<event>
 6    1  0.2003386E-005  0.2646737E+04  0.7818608E-02  0.8352497E-01
         -4   -1    0    0    0  501 -0.00000000000E+00  0.00000000000E+00  0.10862744846E+04  0.10862744846E+04  0.00000000000E+00 0.  1.
          4   -1    0    0  501    0  0.00000000000E+00 -0.00000000000E+00 -0.16122119305E+04  0.16122119305E+04  0.00000000000E+00 0. -1.
         23    2    1    2    0    0 -0.15553314159E+02 -0.12585449787E+04  0.14797392381E+03  0.12707840991E+04  0.93907270590E+02 0.  0.
         11    1    3    3    0    0  0.29463341785E+02 -0.88625266114E+03  0.11847026849E+03  0.89462118934E+03  0.00000000000E+00 0.  1.
        -11    1    3    3    0    0 -0.45016655943E+02 -0.37229231753E+03  0.29503655324E+02  0.37616290977E+03  0.00000000000E+00 0. -1.
         22    1    1    2    0    0  0.15553314159E+02  0.12585449787E+04 -0.67391136973E+03  0.14277023160E+04  0.00000000000E+00 0. -1.
<mgrwt>
<rscale>  0 0.26467374E+04</rscale>
<asrwt>0</asrwt>
<pdfrwt beam="1">  1        4 0.24803261E+00 0.26467374E+04</pdfrwt>
<pdfrwt beam="2">  1       -4 0.16711915E+00 0.26467374E+04</pdfrwt>
<totfact> 0.25296364E-02</totfact>
</mgrwt>
</event>
<event>
 6    1  0.2003386E-005  0.4524478E+04  0.7818608E-02  0.7906365E-01
         -2   -1    0    0    0  501 -0.00000000000E+00  0.00000000000E+00  0.17620332438E+04  0.17620332438E+04  0.00000000000E+00 0.  1.
          2   -1    0    0  501    0  0.00000000000E+00 -0.00000000000E+00 -0.29044429961E+04  0.29044429961E+04  0.00000000000E+00 0. -1.
         23    2    1    2    0    0 -0.57172405308E+03  0.87296630273E+03 -0.26405711184E+04  0.28407089936E+04  0.89850968324E+02 0.  0.
         11    1    3    3    0    0 -0.10109552287E+03  0.17097961259E+03 -0.41550388609E+03  0.46054078215E+03  0.00000000000E+00 0.  1.
        -11    1    3    3    0    0 -0.47062853021E+03  0.70198669014E+03 -0.22250672323E+04  0.23801682115E+04  0.00000000000E+00 0. -1.
         22    1    1    2    0    0  0.57172405308E+03 -0.87296630273E+03  0.14981613662E+04  0.18257672463E+04  0.00000000000E+00 0.  1.
<mgrwt>
<rscale>  0 0.45244779E+04</rscale>
<asrwt>0</asrwt>
<pdfrwt beam="1">  1        2 0.44683737E+00 0.45244779E+04</pdfrwt>
<pdfrwt beam="2">  1       -2 0.27108204E+00 0.45244779E+04</pdfrwt>
<totfact> 0.72040664E-02</totfact>
</mgrwt>
</event>
<event>
 6    1  0.2003386E-005  0.1850072E+04  0.7818608E-02  0.8680116E-01
          2   -1    0    0  501    0  0.00000000000E+00  0.00000000000E+00  0.10960335680E+04  0.10960335680E+04  0.00000000000E+00 0. -1.
         -2   -1    0    0    0  501 -0.00000000000E+00 -0.00000000000E+00 -0.78071670019E+03  0.78071670019E+03  0.00000000000E+00 0.  1.
         23    2    1    2    0    0  0.83364510189E+03  0.39550397712E+03  0.14488188871E+03  0.93843495131E+03  0.91004639128E+02 0.  0.
         13    1    3    3    0    0  0.54487059443E+03  0.23746893504E+03  0.13279359660E+03  0.60902347991E+03  0.00000000000E+00 0. -1.
        -13    1    3    3    0    0  0.28877450746E+03  0.15803504208E+03  0.12088292106E+02  0.32941147140E+03  0.00000000000E+00 0.  1.
         22    1    1    2    0    0 -0.83364510189E+03 -0.39550397712E+03  0.17043497911E+03  0.93831531690E+03  0.00000000000E+00 0. -1.
<mgrwt>
<rscale>  0 0.18500721E+04</rscale>
<asrwt>0</asrwt>
<pdfrwt beam="1">  1        2 0.16862055E+00 0.18500721E+04</pdfrwt>
<pdfrwt beam="2">  1       -2 0.12011026E+00 0.18500721E+04</pdfrwt>
<totfact> 0.10915824E+01</totfact>
</mgrwt>
</event>
<event>
 6    1  0.2003386E-005  0.2804635E+04  0.7818608E-02  0.8301831E-01
          2   -1    0    0  501    0  0.00000000000E+00  0.00000000000E+00  0.35845738337E+04  0.35845738337E+04  0.00000000000E+00 0. -1.
         -2   -1    0    0    0  501 -0.00000000000E+00 -0.00000000000E+00 -0.54859907338E+03  0.54859907338E+03  0.00000000000E+00 0.  1.
         23    2    1    2    0    0  0.26308722715E+03 -0.27362219041E+03  0.35067720163E+04  0.35284134108E+04  0.90372734212E+02 0.  0.
         13    1    3    3    0    0  0.12717935201E+03 -0.18547158442E+03  0.18071584009E+04  0.18210974115E+04  0.00000000000E+00 0. -1.
        -13    1    3    3    0    0  0.13590787514E+03 -0.88150605994E+02  0.16996136154E+04  0.17073159994E+04  0.00000000000E+00 0.  1.
         22    1    1    2    0    0 -0.26308722715E+03  0.27362219041E+03 -0.47079725594E+03  0.60475949631E+03  0.00000000000E+00 0.  1.
<mgrwt>
<rscale>  0 0.28046347E+04</rscale>
<asrwt>0</asrwt>
<pdfrwt beam="1">  1        2 0.55147288E+00 0.28046347E+04</pdfrwt>
<pdfrwt beam="2">  1       -2 0.84399860E-01 0.28046347E+04</pdfrwt>
<totfact> 0.75427549E-01</totfact>
</mgrwt>
</event>
<event>
 6    1  0.2003386E-005  0.6754074E+04  0.7818608E-02  0.7603344E-01
          2   -1    0    0  501    0  0.00000000000E+00  0.00000000000E+00  0.37012109871E+04  0.37012109871E+04  0.00000000000E+00 0. -1.
         -2   -1    0    0    0  501 -0.00000000000E+00 -0.00000000000E+00 -0.30812557642E+04  0.30812557642E+04  0.00000000000E+00 0.  1.
         23    2    1    2    0    0  0.10774303321E+04  0.19254366068E+04  0.28765613998E+04  0.36264512754E+04  0.91548450085E+02 0.  0.
         13    1    3    3    0    0  0.48099732728E+03  0.79134092264E+03  0.11568502443E+04  0.14818506579E+04  0.00000000000E+00 0.  1.
        -13    1    3    3    0    0  0.59643300477E+03  0.11340956842E+04  0.17197111555E+04  0.21446006175E+04  0.00000000000E+00 0. -1.
         22    1    1    2    0    0 -0.10774303321E+04 -0.19254366068E+04 -0.22566061768E+04  0.31560154759E+04  0.00000000000E+00 0.  1.
<mgrwt>
<rscale>  0 0.67540736E+04</rscale>
<asrwt>0</asrwt>
<pdfrwt beam="1">  1        2 0.56941707E+00 0.67540736E+04</pdfrwt>
<pdfrwt beam="2">  1       -2 0.47403935E+00 0.67540736E+04</pdfrwt>
<totfact> 0.89847935E-04</totfact>
</mgrwt>
</event>
<event>
 6    1  0.2003386E-005  0.3683447E+04  0.7818608E-02  0.8071640E-01
         -4   -1    0    0    0  501 -0.00000000000E+00  0.00000000000E+00  0.19796408286E+04  0.19796408286E+04  0.00000000000E+00 0.  1.
          4   -1    0    0  501    0  0.00000000000E+00 -0.00000000000E+00 -0.17134146300E+04  0.17134146300E+04  0.00000000000E+00 0. -1.
         23    2    1    2    0    0  0.98089214344E+03  0.15417657045E+04 -0.88213629714E+02  0.18316531709E+04  0.89335375268E+02 0.  0.
         13    1    3    3    0    0  0.45367747859E+03  0.78369338854E+03 -0.67340883669E+02  0.90803820208E+03  0.00000000000E+00 0. -1.
        -13    1    3    3    0    0  0.52721466485E+03  0.75807231598E+03 -0.20872746045E+02  0.92361496882E+03  0.00000000000E+00 0.  1.
         22    1    1    2    0    0 -0.98089214344E+03 -0.15417657045E+04  0.35443982839E+03  0.18614022877E+04  0.00000000000E+00 0. -1.
<mgrwt>
<rscale>  0 0.36834471E+04</rscale>
<asrwt>0</asrwt>
<pdfrwt beam="1">  1        4 0.26360225E+00 0.36834471E+04</pdfrwt>
<pdfrwt beam="2">  1       -4 0.30456013E+00 0.36834471E+04</pdfrwt>
<totfact> 0.23935820E-03</totfact>
</mgrwt>
</event>
<event>
 6    1  0.2003386E-005  0.3019079E+04  0.7818608E-02  0.8238304E-01
          1   -1    0    0  501    0  0.00000000000E+00  0.00000000000E+00  0.12258619895E+04  0.12258619895E+04  0.00000000000E+00 0. -1.
         -1   -1    0    0    0  501 -0.00000000000E+00 -0.00000000000E+00 -0.18588625926E+04  0.18588625926E+04  0.00000000000E+00 0.  1.
         23    2    1    2    0    0  0.21879527265E+03 -0.14405608004E+04 -0.71444472758E+03  0.16253685815E+04  0.91131585794E+02 0.  0.
         11    1    3    3    0    0  0.76724670587E+02 -0.30881703630E+03 -0.13011211272E+03  0.34377870624E+03  0.00000000000E+00 0.  1.
        -11    1    3    3    0    0  0.14207060207E+03 -0.11317437641E+04 -0.58433261486E+03  0.12815898753E+04  0.00000000000E+00 0. -1.
         22    1    1    2    0    0 -0.21879527265E+03  0.14405608004E+04  0.81444124447E+02  0.14593560006E+04  0.00000000000E+00 0. -1.
<mgrwt>
<rscale>  0 0.30190787E+04</rscale>
<asrwt>0</asrwt>
<pdfrwt beam="1">  1        1 0.18859415E+00 0.30190787E+04</pdfrwt>
<pdfrwt beam="2">  1       -1 0.28597886E+00 0.30190787E+04</pdfrwt>
<totfact> 0.35387302E-01</totfact>
</mgrwt>
</event>
<event>
 6    1  0.2003386E-005  0.1732384E+04  0.7818608E-02  0.8743107E-01
         -2   -1    0    0    0  501 -0.00000000000E+00  0.00000000000E+00  0.30729380833E+03  0.30729380833E+03  0.00000000000E+00 0.  1.
          2   -1    0    0  501    0  0.00000000000E+00 -0.00000000000E+00 -0.24416004495E+04  0.24416004495E+04  0.00000000000E+00 0. -1.
         23    2    1    2    0    0  0.12353533175E+02 -0.84187585737E+03 -0.13760806037E+04  0.16158389666E+04  0.91815952979E+02 0.  0.
         11    1    3    3    0    0  0.47496232981E+02 -0.46257330016E+03 -0.71671014374E+03  0.85434383026E+03  0.00000000000E+00 0. -1.
        -11    1    3    3    0    0 -0.35142699806E+02 -0.37930255722E+03 -0.65937045993E+03  0.76149513636E+03  0.00000000000E+00 0.  1.
         22    1    1    2    0    0 -0.12353533175E+02  0.84187585737E+03 -0.75822603752E+03  0.11330552912E+04  0.00000000000E+00 0.  1.
<mgrwt>
<rscale>  0 0.17323841E+04</rscale>
<asrwt>0</asrwt>
<pdfrwt beam="1">  1        2 0.37563083E+00 0.17323841E+04</pdfrwt>
<pdfrwt beam="2">  1       -2 0.47275971E-01 0.17323841E+04</pdfrwt>
<totfact> 0.15162400E+01</totfact>
</mgrwt>
</event>
<event>
 6    1  0.2003386E-005  0.3097825E+04  0.7818608E-02  0.8216335E-01
         -2   -1    0    0    0  501 -0.00000000000E+00  0.00000000000E+00  0.94633688904E+03  0.94633688904E+03  0.00000000000E+00 0.  1.
          2   -1    0    0  501    0  0.00000000000E+00 -0.00000000000E+00 -0.25351747188E+04  0.25351747188E+04  0.00000000000E+00 0. -1.
         23    2    1    2    0    0 -0.33377670271E+03  0.96790966083E+02 -0.24899869524E+04  0.25156725324E+04  0.88305653237E+02 0.  0.
         11    1    3    3    0    0 -0.12483761224E+03 -0.49287240800E+01 -0.97341710292E+03  0.98140184329E+03  0.00000000000E+00 0. -1.
        -11    1    3    3    0    0 -0.20893909047E+03  0.10171969016E+03 -0.15165698495E+04  0.15342706891E+04  0.00000000000E+00 0.  1.
         22    1    1    2    0    0  0.33377670271E+03 -0.96790966083E+02  0.90114912269E+03  0.96583907547E+03  0.00000000000E+00 0.  1.
<mgrwt>
<rscale>  0 0.30978246E+04</rscale>
<asrwt>0</asrwt>
<pdfrwt beam="1">  1        2 0.39002687E+00 0.30978246E+04</pdfrwt>
<pdfrwt beam="2">  1       -2 0.14559029E+00 0.30978246E+04</pdfrwt>
<totfact> 0.91404596E-01</totfact>
</mgrwt>
</event>
<event>
 6    1  0.2003386E-005  0.1415961E+04  0.7818608E-02  0.8942346E-01
          2   -1    0    0  501    0  0.00000000000E+00  0.00000000000E+00  0.31995306465E+04  0.31995306465E+04  0.00000000000E+00 0. -1.
         -2   -1    0    0    0  501 -0.00000000000E+00 -0.00000000000E+00 -0.15665931397E+03  0.15665931397E+03  0.00000000000E+00 0.  1.
         23    2    1    2    0    0 -0.10997433512E+03 -0.39232620400E+03  0.28923760212E+04  0.29218363678E+04  0.72625804307E+02 0.  0.
         11    1    3    3    0    0 -0.59586633573E+02 -0.21069973811E+03  0.18066721507E+04  0.18198926360E+04  0.00000000000E+00 0. -1.
        -11    1    3    3    0    0 -0.50387701543E+02 -0.18162646589E+03  0.10857038705E+04  0.11019437317E+04  0.00000000000E+00 0.  1.
         22    1    1    2    0    0  0.10997433512E+03  0.39232620400E+03  0.15049531133E+03  0.43435359267E+03  0.00000000000E+00 0.  1.
<mgrwt>
<rscale>  0 0.14159608E+04</rscale>
<asrwt>0</asrwt>
<pdfrwt beam="1">  1        2 0.49223543E+00 0.14159608E+04</pdfrwt>
<pdfrwt beam="2">  1       -2 0.24101435E-01 0.14159608E+04</pdfrwt>
<totfact> 0.19566072E+01</totfact>
</mgrwt>
</event>
<event>
 6    1  0.2003386E-005  0.6751621E+04  0.7818608E-02  0.7603608E-01
         -2   -1    0    0    0  501 -0.00000000000E+00  0.00000000000E+00  0.31226376905E+04  0.31226376905E+04  0.00000000000E+00 0. -1.
          2   -1    0    0  501    0  0.00000000000E+00 -0.00000000000E+00 -0.36495093950E+04  0.36495093950E+04  0.00000000000E+00 0.  1.
         23    2    1    2    0    0  0.87975259938E+03 -0.13061592020E+04 -0.32578542032E+04  0.36196430164E+04  0.90471323415E+02 0.  0.
         11    1    3    3    0    0  0.23505409938E+03 -0.38930821844E+03 -0.10205095051E+04  0.11172515243E+04  0.00000000000E+00 0. -1.
        -11    1    3    3    0    0  0.64469850000E+03 -0.91685098356E+03 -0.22373446981E+04  0.25023914922E+04  0.00000000000E+00 0.  1.
         22    1    1    2    0    0 -0.87975259938E+03  0.13061592020E+04  0.27309824986E+04  0.31525040690E+04  0.00000000000E+00 0. -1.
<mgrwt>
<rscale>  0 0.67516207E+04</rscale>
<asrwt>0</asrwt>
<pdfrwt beam="1">  1        2 0.56146298E+00 0.67516207E+04</pdfrwt>
<pdfrwt beam="2">  1       -2 0.48040580E+00 0.67516207E+04</pdfrwt>
<totfact> 0.89326231E-04</totfact>
</mgrwt>
</event>
<event>
 6    1  0.2003386E-005  0.1561940E+04  0.7818608E-02  0.8844277E-01
          2   -1    0    0  501    0  0.00000000000E+00  0.00000000000E+00  0.30901669483E+04  0.30901669483E+04  0.00000000000E+00 0. -1.
         -2   -1    0    0    0  501 -0.00000000000E+00 -0.00000000000E+00 -0.19737253752E+03  0.19737253752E+03  0.00000000000E+00 0.  1.
         23    2    1    2    0    0 -0.10289007205E+02 -0.50159847603E+03  0.19933627263E+03  0.54775415905E+03  0.92697218693E+02 0.  0.
         11    1    3    3    0    0 -0.44291740015E+02 -0.39929809171E+03  0.14576288286E+03  0.42737283758E+03  0.00000000000E+00 0. -1.
        -11    1    3    3    0    0  0.34002732810E+02 -0.10230038432E+03  0.53573389763E+02  0.12038132148E+03  0.00000000000E+00 0.  1.
         22    1    1    2    0    0  0.10289007205E+02  0.50159847603E+03  0.26934581381E+04  0.27397853267E+04  0.00000000000E+00 0. -1.
<mgrwt>
<rscale>  0 0.15619399E+04</rscale>
<asrwt>0</asrwt>
<pdfrwt beam="1">  1        2 0.47541027E+00 0.15619399E+04</pdfrwt>
<pdfrwt beam="2">  1       -2 0.30365008E-01 0.15619399E+04</pdfrwt>
<totfact> 0.14829619E+01</totfact>
</mgrwt>
</event>
<event>
 6    1  0.2003386E-005  0.3728695E+04  0.7818608E-02  0.8061632E-01
         -2   -1    0    0    0  501 -0.00000000000E+00  0.00000000000E+00  0.15538156359E+04  0.15538156359E+04  0.00000000000E+00 0.  1.
          2   -1    0    0  501    0  0.00000000000E+00 -0.00000000000E+00 -0.22369392089E+04  0.22369392089E+04  0.00000000000E+00 0. -1.
         23    2    1    2    0    0  0.53611635403E+03  0.17837613926E+04 -0.38823038753E+03  0.19049692149E+04  0.94654240151E+02 0.  0.
         11    1    3    3    0    0  0.22213010487E+03  0.64244602365E+03 -0.17857035897E+03  0.70282718352E+03  0.00000000000E+00 0.  1.
        -11    1    3    3    0    0  0.31398624915E+03  0.11413153690E+04 -0.20966002856E+03  0.12021420314E+04  0.00000000000E+00 0. -1.
         22    1    1    2    0    0 -0.53611635403E+03 -0.17837613926E+04 -0.29489318542E+03  0.18857856298E+04  0.00000000000E+00 0. -1.
<mgrwt>
<rscale>  0 0.37286947E+04</rscale>
<asrwt>0</asrwt>
<pdfrwt beam="1">  1        2 0.34414449E+00 0.37286947E+04</pdfrwt>
<pdfrwt beam="2">  1       -2 0.23904856E+00 0.37286947E+04</pdfrwt>
<totfact> 0.29809039E-01</totfact>
</mgrwt>
</event>
<event>
 6    1  0.2003386E-005  0.1246394E+04  0.7818608E-02  0.9073190E-01
          2   -1    0    0  501    0  0.00000000000E+00  0.00000000000E+00  0.13910131088E+04  0.13910131088E+04  0.00000000000E+00 0. -1.
         -2   -1    0    0    0  501 -0.00000000000E+00 -0.00000000000E+00 -0.27920261591E+03  0.27920261591E+03  0.00000000000E+00 0.  1.
         23    2    1    2    0    0 -0.44107159403E+03  0.32211115092E+03  0.95151699884E+03  0.11010112370E+04  0.92419696460E+02 0.  0.
         11    1    3    3    0    0 -0.29609083098E+03  0.25777131535E+03  0.62613166118E+03  0.73902414598E+03  0.00000000000E+00 0. -1.
        -11    1    3    3    0    0 -0.14498076304E+03  0.64339835568E+02  0.32538533766E+03  0.36198709101E+03  0.00000000000E+00 0.  1.
         22    1    1    2    0    0  0.44107159403E+03 -0.32211115092E+03  0.16029349404E+03  0.56920448771E+03  0.00000000000E+00 0.  1.
<mgrwt>
<rscale>  0 0.12463940E+04</rscale>
<asrwt>0</asrwt>
<pdfrwt beam="1">  1        2 0.21400201E+00 0.12463940E+04</pdfrwt>
<pdfrwt beam="2">  1       -2 0.42954249E-01 0.12463940E+04</pdfrwt>
<totfact> 0.73986231E+01</totfact>
</mgrwt>
</event>
<event>
 6    1  0.2003386E-005  0.6188285E+04  0.7818608E-02  0.7667485E-01
         -2   -1    0    0    0  501 -0.00000000000E+00  0.00000000000E+00  0.22010638475E+04  0.22010638475E+04  0.00000000000E+00 0.  1.
          2   -1    0    0  501    0  0.00000000000E+00 -0.00000000000E+00 -0.43495865998E+04  0.43495865998E+04  0.00000000000E+00 0. -1.
         23    2    1    2    0    0  0.29685880574E+04 -0.16116768005E+03 -0.16944462771E+03  0.29792025199E+04  0.91902650578E+02 0.  0.
         11    1    3    3    0    0  0.88445987253E+03 -0.89864600955E+02 -0.45776403841E+02  0.89019121079E+03  0.00000000000E+00 0. -1.
        -11    1    3    3    0    0  0.20841281848E+04 -0.71303079093E+02 -0.12366822387E+03  0.20890113091E+04  0.00000000000E+00 0.  1.
         22    1    1    2    0    0 -0.29685880574E+04  0.16116768005E+03 -0.19790781246E+04  0.35714479275E+04  0.00000000000E+00 0. -1.
<mgrwt>
<rscale>  0 0.61882850E+04</rscale>
<asrwt>0</asrwt>
<pdfrwt beam="1">  1        2 0.66916716E+00 0.61882850E+04</pdfrwt>
<pdfrwt beam="2">  1       -2 0.33862521E+00 0.61882850E+04</pdfrwt>
<totfact> 0.20600927E-03</totfact>
</mgrwt>
</event>
<event>
 6    1  0.2003386E-005  0.3595756E+04  0.7818608E-02  0.8091465E-01
          2   -1    0    0  501    0  0.00000000000E+00  0.00000000000E+00  0.21219796981E+04  0.21219796981E+04  0.00000000000E+00 0. -1.
         -2   -1    0    0    0  501 -0.00000000000E+00 -0.00000000000E+00 -0.15232780945E+04  0.15232780945E+04  0.00000000000E+00 0.  1.
         23    2    1    2    0    0  0.78886021327E+03  0.15866833795E+04  0.60250005729E+03  0.18732874172E+04  0.79591742764E+02 0.  0.
         13    1    3    3    0    0  0.70204589314E+03  0.13968201522E+04  0.50492100281E+03  0.16428390647E+04  0.00000000000E+00 0. -1.
        -13    1    3    3    0    0  0.86814320124E+02  0.18986322738E+03  0.97579054479E+02  0.23044835248E+03  0.00000000000E+00 0.  1.
         22    1    1    2    0    0 -0.78886021327E+03 -0.15866833795E+04 -0.37984536227E+01  0.17719703754E+04  0.00000000000E+00 0. -1.
<mgrwt>
<rscale>  0 0.35957559E+04</rscale>
<asrwt>0</asrwt>
<pdfrwt beam="1">  1        2 0.32645842E+00 0.35957559E+04</pdfrwt>
<pdfrwt beam="2">  1       -2 0.23435048E+00 0.35957559E+04</pdfrwt>
<totfact> 0.37402693E-01</totfact>
</mgrwt>
</event>
<event>
 6    1  0.2003386E-005  0.1765608E+04  0.7818608E-02  0.8724805E-01
          1   -1    0    0  501    0  0.00000000000E+00  0.00000000000E+00  0.76728694748E+03  0.76728694748E+03  0.00000000000E+00 0. -1.
         -1   -1    0    0    0  501 -0.00000000000E+00 -0.00000000000E+00 -0.10157128348E+04  0.10157128348E+04  0.00000000000E+00 0.  1.
         23    2    1    2    0    0  0.77646431926E+03 -0.36621750243E+03  0.73455324872E+02  0.86614667906E+03  0.88330553714E+02 0.  0.
         13    1    3    3    0    0  0.55083256316E+03 -0.21944812905E+03  0.69047131360E+02  0.59694346493E+03  0.00000000000E+00 0.  1.
        -13    1    3    3    0    0  0.22563175610E+03 -0.14676937338E+03  0.44081935125E+01  0.26920321413E+03  0.00000000000E+00 0. -1.
         22    1    1    2    0    0 -0.77646431926E+03  0.36621750243E+03 -0.32188121222E+03  0.91685310326E+03  0.00000000000E+00 0.  1.
<mgrwt>
<rscale>  0 0.17656083E+04</rscale>
<asrwt>0</asrwt>
<pdfrwt beam="1">  1        1 0.11804415E+00 0.17656083E+04</pdfrwt>
<pdfrwt beam="2">  1       -1 0.15626351E+00 0.17656083E+04</pdfrwt>
<totfact> 0.69793006E+00</totfact>
</mgrwt>
</event>
<event>
 6    1  0.2003386E-005  0.1568061E+04  0.7818608E-02  0.8840414E-01
          2   -1    0    0  501    0  0.00000000000E+00  0.00000000000E+00  0.40829948063E+03  0.40829948063E+03  0.00000000000E+00 0. -1.
         -2   -1    0    0    0  501 -0.00000000000E+00 -0.00000000000E+00 -0.15055210034E+04  0.15055210034E+04  0.00000000000E+00 0.  1.
         23    2    1    2    0    0 -0.74584097688E+02  0.49986499386E+03  0.17660837655E+03  0.54339339289E+03  0.93048702626E+02 0.  0.
         13    1    3    3    0    0  0.45451245108E+01  0.24535352148E+03  0.60948098771E+02  0.25285110125E+03  0.00000000000E+00 0.  1.
        -13    1    3    3    0    0 -0.79129222198E+02  0.25451147237E+03  0.11566027778E+03  0.29054229164E+03  0.00000000000E+00 0. -1.
         22    1    1    2    0    0  0.74584097688E+02 -0.49986499386E+03 -0.12738298994E+04  0.13704270912E+04  0.00000000000E+00 0.  1.
<mgrwt>
<rscale>  0 0.15680605E+04</rscale>
<asrwt>0</asrwt>
<pdfrwt beam="1">  1        2 0.62815304E-01 0.15680605E+04</pdfrwt>
<pdfrwt beam="2">  1       -2 0.23161862E+00 0.15680605E+04</pdfrwt>
<totfact> 0.62360814E+00</totfact>
</mgrwt>
</event>
<event>
 6    1  0.2003386E-005  0.4593705E+04  0.7818608E-02  0.7894434E-01
          2   -1    0    0  501    0  0.00000000000E+00  0.00000000000E+00  0.20489879112E+04  0.20489879112E+04  0.00000000000E+00 0. -1.
         -2   -1    0    0    0  501 -0.00000000000E+00 -0.00000000000E+00 -0.25747012323E+04  0.25747012323E+04  0.00000000000E+00 0.  1.
         23    2    1    2    0    0  0.20806486467E+04 -0.32026590223E+03 -0.11852886190E+04  0.24176273554E+04  0.91344840299E+02 0.  0.
         11    1    3    3    0    0  0.93350783025E+03 -0.17661230235E+03 -0.49830842191E+03  0.10728187442E+04  0.00000000000E+00 0.  1.
        -11    1    3    3    0    0  0.11471408165E+04 -0.14365359988E+03 -0.68698019710E+03  0.13448086112E+04  0.00000000000E+00 0. -1.
         22    1    1    2    0    0 -0.20806486467E+04  0.32026590223E+03  0.65957529787E+03  0.22060617881E+04  0.00000000000E+00 0. -1.
<mgrwt>
<rscale>  0 0.45937051E+04</rscale>
<asrwt>0</asrwt>
<pdfrwt beam="1">  1        2 0.31522891E+00 0.45937051E+04</pdfrwt>
<pdfrwt beam="2">  1       -2 0.39610788E+00 0.45937051E+04</pdfrwt>
<totfact> 0.37140247E-02</totfact>
</mgrwt>
</event>
<event>
 6    1  0.2003386E-005  0.4860854E+04  0.7818608E-02  0.7850338E-01
         -1   -1    0    0    0  501 -0.00000000000E+00  0.00000000000E+00  0.26785107238E+04  0.26785107238E+04  0.00000000000E+00 0.  1.
          1   -1    0    0  501    0  0.00000000000E+00 -0.00000000000E+00 -0.22053207189E+04  0.22053207189E+04  0.00000000000E+00 0. -1.
         23    2    1    2    0    0 -0.18316006523E+04  0.10931650022E+04  0.14053243775E+04  0.25560330923E+04  0.92724815689E+02 0.  0.
         11    1    3    3    0    0 -0.46173248639E+03  0.28123671052E+03  0.40478611968E+03  0.67538343111E+03  0.00000000000E+00 0.  1.
        -11    1    3    3    0    0 -0.13698681659E+04  0.81192829170E+03  0.10005382578E+04  0.18806496612E+04  0.00000000000E+00 0. -1.
         22    1    1    2    0    0  0.18316006523E+04 -0.10931650022E+04 -0.93213437257E+03  0.23277983504E+04  0.00000000000E+00 0. -1.
<mgrwt>
<rscale>  0 0.48608539E+04</rscale>
<asrwt>0</asrwt>
<pdfrwt beam="1">  1        1 0.33928011E+00 0.48608539E+04</pdfrwt>
<pdfrwt beam="2">  1       -1 0.41207857E+00 0.48608539E+04</pdfrwt>
<totfact> 0.93274494E-03</totfact>
</mgrwt>
</event>
<event>
 6    1  0.2003386E-005  0.1753192E+04  0.7818608E-02  0.8731595E-01
         -2   -1    0    0    0  501 -0.00000000000E+00  0.00000000000E+00  0.82280663978E+03  0.82280663978E+03  0.00000000000E+00 0.  1.
          2   -1    0    0  501    0  0.00000000000E+00 -0.00000000000E+00 -0.93390190927E+03  0.93390190927E+03  0.00000000000E+00 0. -1.
         23    2    1    2    0    0  0.50495044655E+03  0.71296388648E+03 -0.85445280791E+02  0.88266599928E+03  0.92227508871E+02 0.  0.
         13    1    3    3    0    0  0.32605725696E+03  0.45222603812E+03 -0.98690329379E+02  0.56618151284E+03  0.00000000000E+00 0. -1.
        -13    1    3    3    0    0  0.17889318959E+03  0.26073784835E+03  0.13245048588E+02  0.31648448644E+03  0.00000000000E+00 0.  1.
         22    1    1    2    0    0 -0.50495044655E+03 -0.71296388648E+03 -0.25649988698E+02  0.87404254977E+03  0.00000000000E+00 0.  1.
<mgrwt>
<rscale>  0 0.17531922E+04</rscale>
<asrwt>0</asrwt>
<pdfrwt beam="1">  1        2 0.14367722E+00 0.17531922E+04</pdfrwt>
<pdfrwt beam="2">  1       -2 0.12658564E+00 0.17531922E+04</pdfrwt>
<totfact> 0.12247099E+01</totfact>
</mgrwt>
</event>
<event>
 6    1  0.2003386E-005  0.3146779E+04  0.7818608E-02  0.8203016E-01
         -1   -1    0    0    0  501 -0.00000000000E+00  0.00000000000E+00  0.22748971750E+04  0.22748971750E+04  0.00000000000E+00 0.  1.
          1   -1    0    0  501    0  0.00000000000E+00 -0.00000000000E+00 -0.10882052938E+04  0.10882052938E+04  0.00000000000E+00 0. -1.
         23    2    1    2    0    0  0.77588594982E+03  0.12185150712E+04  0.12565795070E+04  0.19168444469E+04  0.92317876117E+02 0.  0.
         13    1    3    3    0    0  0.33664049205E+03  0.45375240156E+03  0.46402509710E+03  0.73112061491E+03  0.00000000000E+00 0. -1.
        -13    1    3    3    0    0  0.43924545777E+03  0.76476266964E+03  0.79255440990E+03  0.11857238320E+04  0.00000000000E+00 0.  1.
         22    1    1    2    0    0 -0.77588594982E+03 -0.12185150712E+04 -0.69887625757E+02  0.14462580220E+04  0.00000000000E+00 0. -1.
<mgrwt>
<rscale>  0 0.31467794E+04</rscale>
<asrwt>0</asrwt>
<pdfrwt beam="1">  1        1 0.16741620E+00 0.31467794E+04</pdfrwt>
<pdfrwt beam="2">  1       -1 0.34998418E+00 0.31467794E+04</pdfrwt>
<totfact> 0.16897915E-01</totfact>
</mgrwt>
</event>
<event>
 6    1  0.2003386E-005  0.1626449E+04  0.7818608E-02  0.8804462E-01
         -2   -1    0    0    0  501 -0.00000000000E+00  0.00000000000E+00  0.45390172865E+03  0.45390172865E+03  0.00000000000E+00 0.  1.
          2   -1    0    0  501    0  0.00000000000E+00 -0.00000000000E+00 -0.14569990197E+04  0.14569990197E+04  0.00000000000E+00 0. -1.
         23    2    1    2    0    0  0.62412038558E+03 -0.30026522709E+03 -0.99810543757E+03  0.12182894714E+04  0.91265050088E+02 0.  0.
         13    1    3    3    0    0  0.48630437072E+03 -0.27427030661E+03 -0.79411422677E+03  0.97073866063E+03  0.00000000000E+00 0. -1.
        -13    1    3    3    0    0  0.13781601486E+03 -0.25994920486E+02 -0.20399121079E+03  0.24755081079E+03  0.00000000000E+00 0.  1.
         22    1    1    2    0    0 -0.62412038558E+03  0.30026522709E+03 -0.49918534615E+01  0.69261127691E+03  0.00000000000E+00 0.  1.
<mgrwt>
<rscale>  0 0.16264494E+04</rscale>
<asrwt>0</asrwt>
<pdfrwt beam="1">  1        2 0.22415369E+00 0.16264494E+04</pdfrwt>
<pdfrwt beam="2">  1       -2 0.69831036E-01 0.16264494E+04</pdfrwt>
<totfact> 0.24010618E+01</totfact>
</mgrwt>
</event>
<event>
 6    1  0.2003386E-005  0.1957049E+04  0.7818608E-02  0.8626969E-01
          2   -1    0    0  501    0  0.00000000000E+00  0.00000000000E+00  0.76076591043E+03  0.76076591043E+03  0.00000000000E+00 0. -1.
         -2   -1    0    0    0  501 -0.00000000000E+00 -0.00000000000E+00 -0.12586136741E+04  0.12586136741E+04  0.00000000000E+00 0.  1.
         23    2    1    2    0    0 -0.52686792154E+03 -0.54505614263E+03 -0.88463341899E+03  0.11683336701E+04  0.88041315700E+02 0.  0.
         11    1    3    3    0    0 -0.28488890920E+03 -0.29538660039E+03 -0.54556948676E+03  0.68268660391E+03  0.00000000000E+00 0. -1.
        -11    1    3    3    0    0 -0.24197901234E+03 -0.24966954224E+03 -0.33906393223E+03  0.48564706617E+03  0.00000000000E+00 0.  1.
         22    1    1    2    0    0  0.52686792154E+03  0.54505614263E+03  0.38678565531E+03  0.85104591447E+03  0.00000000000E+00 0. -1.
<mgrwt>
<rscale>  0 0.19570492E+04</rscale>
<asrwt>0</asrwt>
<pdfrwt beam="1">  1        2 0.11704091E+00 0.19570492E+04</pdfrwt>
<pdfrwt beam="2">  1       -2 0.19363287E+00 0.19570492E+04</pdfrwt>
<totfact> 0.50265719E+00</totfact>
</mgrwt>
</event>
<event>
 6    1  0.2003386E-005  0.2552553E+04  0.7818608E-02  0.8384499E-01
          1   -1    0    0  501    0  0.00000000000E+00  0.00000000000E+00  0.12814924360E+04  0.12814924360E+04  0.00000000000E+00 0. -1.
         -1   -1    0    0    0  501 -0.00000000000E+00 -0.00000000000E+00 -0.12710819726E+04  0.12710819726E+04  0.00000000000E+00 0.  1.
         23    2    1    2    0    0 -0.31804720207E+03  0.94771707570E+03  0.79534269014E+03  0.12815746923E+04  0.10267433382E+03 0.  0.
         11    1    3    3    0    0 -0.68567230236E+02  0.35448232161E+03  0.30114065760E+03  0.47015409927E+03  0.00000000000E+00 0. -1.
        -11    1    3    3    0    0 -0.24947997184E+03  0.59323475409E+03  0.49420203254E+03  0.81142059302E+03  0.00000000000E+00 0.  1.
         22    1    1    2    0    0  0.31804720207E+03 -0.94771707570E+03 -0.78493222668E+03  0.12709997163E+04  0.00000000000E+00 0.  1.
<mgrwt>
<rscale>  0 0.25525532E+04</rscale>
<asrwt>0</asrwt>
<pdfrwt beam="1">  1        1 0.19715268E+00 0.25525532E+04</pdfrwt>
<pdfrwt beam="2">  1       -1 0.19555107E+00 0.25525532E+04</pdfrwt>
<totfact> 0.13327774E+00</totfact>
</mgrwt>
</event>
<event>
 6    1  0.2003386E-005  0.3487437E+04  0.7818608E-02  0.8116774E-01
          2   -1    0    0  501    0  0.00000000000E+00  0.00000000000E+00  0.29164581887E+04  0.29164581887E+04  0.00000000000E+00 0. -1.
         -2   -1    0    0    0  501 -0.00000000000E+00 -0.00000000000E+00 -0.10425500898E+04  0.10425500898E+04  0.00000000000E+00 0.  1.
         23    2    1    2    0    0 -0.11568744489E+04 -0.10091322789E+03 -0.53728741221E+03  0.12827411463E+04  0.90582089743E+02 0.  0.
         13    1    3    3    0    0 -0.74042992576E+03 -0.10617430504E+03 -0.33082164022E+03  0.81789511287E+03  0.00000000000E+00 0.  1.
        -13    1    3    3    0    0 -0.41644452314E+03  0.52610771469E+01 -0.20646577199E+03  0.46484603342E+03  0.00000000000E+00 0. -1.
         22    1    1    2    0    0  0.11568744489E+04  0.10091322789E+03  0.24111955111E+04  0.26762671322E+04  0.00000000000E+00 0. -1.
<mgrwt>
<rscale>  0 0.34874367E+04</rscale>
<asrwt>0</asrwt>
<pdfrwt beam="1">  1        2 0.44868587E+00 0.34874367E+04</pdfrwt>
<pdfrwt beam="2">  1       -2 0.16039232E+00 0.34874367E+04</pdfrwt>
<totfact> 0.40370429E-01</totfact>
</mgrwt>
</event>
<event>
 6    1  0.2003386E-005  0.1220096E+04  0.7818608E-02  0.9095446E-01
          2   -1    0    0  501    0  0.00000000000E+00  0.00000000000E+00  0.12663322052E+04  0.12663322052E+04  0.00000000000E+00 0. -1.
         -2   -1    0    0    0  501 -0.00000000000E+00 -0.00000000000E+00 -0.29388705446E+03  0.29388705446E+03  0.00000000000E+00 0.  1.
         23    2    1    2    0    0  0.35317315074E+03  0.75861377816E+02  0.11120775972E+04  0.11729423004E+04  0.92686756580E+02 0.  0.
         13    1    3    3    0    0  0.14912011173E+03  0.36571883799E+02  0.62117841760E+03  0.63987259427E+03  0.00000000000E+00 0.  1.
        -13    1    3    3    0    0  0.20405303901E+03  0.39289494017E+02  0.49089917961E+03  0.53306970614E+03  0.00000000000E+00 0. -1.
         22    1    1    2    0    0 -0.35317315074E+03 -0.75861377816E+02 -0.13963244647E+03  0.38727695924E+03  0.00000000000E+00 0.  1.
<mgrwt>
<rscale>  0 0.12200961E+04</rscale>
<asrwt>0</asrwt>
<pdfrwt beam="1">  1        2 0.19482034E+00 0.12200961E+04</pdfrwt>
<pdfrwt beam="2">  1       -2 0.45213394E-01 0.12200961E+04</pdfrwt>
<totfact> 0.79050968E+01</totfact>
</mgrwt>
</event>
<event>
 6    1  0.2003386E-005  0.1156454E+04  0.7818608E-02  0.9151850E-01
          2   -1    0    0  501    0  0.00000000000E+00  0.00000000000E+00  0.72375437000E+03  0.72375437000E+03  0.00000000000E+00 0. -1.
         -2   -1    0    0    0  501 -0.00000000000E+00 -0.00000000000E+00 -0.46196096506E+03  0.46196096506E+03  0.00000000000E+00 0.  1.
         23    2    1    2    0    0 -0.20265191557E+03  0.22848464795E+03  0.63086941523E+03  0.70666404907E+03  0.90026806845E+02 0.  0.
         11    1    3    3    0    0 -0.98075890676E+02  0.12979043631E+03  0.42907214900E+03  0.45887617800E+03  0.00000000000E+00 0.  1.
        -11    1    3    3    0    0 -0.10457602490E+03  0.98694211641E+02  0.20179726623E+03  0.24778787108E+03  0.00000000000E+00 0. -1.
         22    1    1    2    0    0  0.20265191557E+03 -0.22848464795E+03 -0.36907601029E+03  0.47905128599E+03  0.00000000000E+00 0.  1.
<mgrwt>
<rscale>  0 0.11564537E+04</rscale>
<asrwt>0</asrwt>
<pdfrwt beam="1">  1        2 0.11134683E+00 0.11564537E+04</pdfrwt>
<pdfrwt beam="2">  1       -2 0.71070917E-01 0.11564537E+04</pdfrwt>
<totfact> 0.69897603E+01</totfact>
</mgrwt>
</event>
<event>
 6    1  0.2003386E-005  0.1642898E+04  0.7818608E-02  0.8794619E-01
         -1   -1    0    0    0  501 -0.00000000000E+00  0.00000000000E+00  0.68114573816E+03  0.68114573816E+03  0.00000000000E+00 0.  1.
          1   -1    0    0  501    0  0.00000000000E+00 -0.00000000000E+00 -0.99065168331E+03  0.99065168331E+03  0.00000000000E+00 0. -1.
         23    2    1    2    0    0 -0.14094261258E+03  0.62894034421E+03 -0.66912287080E+03  0.93372214764E+03  0.93171112250E+02 0.  0.
         13    1    3    3    0    0 -0.82907193842E+02  0.26123278990E+03 -0.34104380660E+03  0.43752377230E+03  0.00000000000E+00 0.  1.
        -13    1    3    3    0    0 -0.58035418737E+02  0.36770755431E+03 -0.32807906419E+03  0.49619837534E+03  0.00000000000E+00 0. -1.
         22    1    1    2    0    0  0.14094261258E+03 -0.62894034421E+03  0.35961692565E+03  0.73807527382E+03  0.00000000000E+00 0.  1.
<mgrwt>
<rscale>  0 0.16428976E+04</rscale>
<asrwt>0</asrwt>
<pdfrwt beam="1">  1        1 0.15240795E+00 0.16428976E+04</pdfrwt>
<pdfrwt beam="2">  1       -1 0.10479165E+00 0.16428976E+04</pdfrwt>
<totfact> 0.12587823E+01</totfact>
</mgrwt>
</event>
<event>
 6    1  0.2003386E-005  0.1770353E+04  0.7818608E-02  0.8722226E-01
          2   -1    0    0  501    0  0.00000000000E+00  0.00000000000E+00  0.10529898390E+04  0.10529898390E+04  0.00000000000E+00 0. -1.
         -2   -1    0    0    0  501 -0.00000000000E+00 -0.00000000000E+00 -0.74410737164E+03  0.74410737164E+03  0.00000000000E+00 0.  1.
         23    2    1    2    0    0  0.43308524968E+03  0.58380865724E+03 -0.35374390465E+03  0.81349714422E+03  0.90815592377E+02 0.  0.
         13    1    3    3    0    0  0.32282968891E+03  0.39756272975E+03 -0.28669617162E+03  0.58691551943E+03  0.00000000000E+00 0.  1.
        -13    1    3    3    0    0  0.11025556077E+03  0.18624592749E+03 -0.67047733031E+02  0.22658162479E+03  0.00000000000E+00 0. -1.
         22    1    1    2    0    0 -0.43308524968E+03 -0.58380865724E+03  0.66262637199E+03  0.98360006639E+03  0.00000000000E+00 0. -1.
<mgrwt>
<rscale>  0 0.17703531E+04</rscale>
<asrwt>0</asrwt>
<pdfrwt beam="1">  1        2 0.16199844E+00 0.17703531E+04</pdfrwt>
<pdfrwt beam="2">  1       -2 0.11447806E+00 0.17703531E+04</pdfrwt>
<totfact> 0.13151926E+01</totfact>
</mgrwt>
</event>
<event>
 6    1  0.2003386E-005  0.6469403E+04  0.7818608E-02  0.7634778E-01
         -2   -1    0    0    0  501 -0.00000000000E+00  0.00000000000E+00  0.33819045233E+04  0.33819045233E+04  0.00000000000E+00 0.  1.
          2   -1    0    0  501    0  0.00000000000E+00 -0.00000000000E+00 -0.30939060432E+04  0.30939060432E+04  0.00000000000E+00 0. -1.
         23    2    1    2    0    0 -0.26145100476E+04 -0.42878097382E+03  0.20004785577E+04  0.33211150298E+04  0.91513218181E+02 0.  0.
         13    1    3    3    0    0 -0.16787159446E+04 -0.23281923376E+03  0.12954007554E+04  0.21331561442E+04  0.00000000000E+00 0.  1.
        -13    1    3    3    0    0 -0.93579410298E+03 -0.19596174006E+03  0.70507780225E+03  0.11879588856E+04  0.00000000000E+00 0. -1.
         22    1    1    2    0    0  0.26145100476E+04  0.42878097382E+03 -0.17124800776E+04  0.31546955366E+04  0.00000000000E+00 0. -1.
<mgrwt>
<rscale>  0 0.64694033E+04</rscale>
<asrwt>0</asrwt>
<pdfrwt beam="1">  1        2 0.47598554E+00 0.64694033E+04</pdfrwt>
<pdfrwt beam="2">  1       -2 0.52029300E+00 0.64694033E+04</pdfrwt>
<totfact> 0.12466748E-03</totfact>
</mgrwt>
</event>
<event>
 6    1  0.2003386E-005  0.1760118E+04  0.7818608E-02  0.8727800E-01
          2   -1    0    0  501    0  0.00000000000E+00  0.00000000000E+00  0.77728779839E+03  0.77728779839E+03  0.00000000000E+00 0. -1.
         -2   -1    0    0    0  501 -0.00000000000E+00 -0.00000000000E+00 -0.99641866864E+03  0.99641866864E+03  0.00000000000E+00 0.  1.
         23    2    1    2    0    0  0.43939141602E+03  0.19998213884E+03  0.62878666694E+03  0.79799041089E+03  0.91424017767E+02 0.  0.
         11    1    3    3    0    0  0.11353346306E+03  0.74353763774E+02  0.12177479430E+03  0.18233877796E+03  0.00000000000E+00 0. -1.
        -11    1    3    3    0    0  0.32585795295E+03  0.12562837506E+03  0.50701187264E+03  0.61565163293E+03  0.00000000000E+00 0.  1.
         22    1    1    2    0    0 -0.43939141602E+03 -0.19998213884E+03 -0.84791753719E+03  0.97571605614E+03  0.00000000000E+00 0.  1.
<mgrwt>
<rscale>  0 0.17601183E+04</rscale>
<asrwt>0</asrwt>
<pdfrwt beam="1">  1        2 0.11958274E+00 0.17601183E+04</pdfrwt>
<pdfrwt beam="2">  1       -2 0.15329518E+00 0.17601183E+04</pdfrwt>
<totfact> 0.95794410E+00</totfact>
</mgrwt>
</event>
<event>
 6    1  0.2003386E-005  0.2294772E+04  0.7818608E-02  0.8479985E-01
          2   -1    0    0  501    0  0.00000000000E+00  0.00000000000E+00  0.30316953615E+04  0.30316953615E+04  0.00000000000E+00 0.  1.
         -2   -1    0    0    0  501 -0.00000000000E+00 -0.00000000000E+00 -0.43424355341E+03  0.43424355341E+03  0.00000000000E+00 0. -1.
         23    2    1    2    0    0  0.37275442846E+02 -0.90747580152E+03  0.23552965883E+04  0.25259703306E+04  0.90566568952E+02 0.  0.
         11    1    3    3    0    0 -0.53344478068E+01 -0.62833599490E+03  0.17006505359E+04  0.18130214626E+04  0.00000000000E+00 0.  1.
        -11    1    3    3    0    0  0.42609890653E+02 -0.27913980662E+03  0.65464605241E+03  0.71294886798E+03  0.00000000000E+00 0. -1.
         22    1    1    2    0    0 -0.37275442846E+02  0.90747580152E+03  0.24215521981E+03  0.93996858430E+03  0.00000000000E+00 0. -1.
<mgrwt>
<rscale>  0 0.22947716E+04</rscale>
<asrwt>0</asrwt>
<pdfrwt beam="1">  1        2 0.46641466E+00 0.22947716E+04</pdfrwt>
<pdfrwt beam="2">  1       -2 0.66806702E-01 0.22947716E+04</pdfrwt>
<totfact> 0.31065551E+00</totfact>
</mgrwt>
</event>
<event>
 6    1  0.2003386E-005  0.4191237E+04  0.7818608E-02  0.7967041E-01
         -2   -1    0    0    0  501 -0.00000000000E+00  0.00000000000E+00  0.25505513699E+04  0.25505513699E+04  0.00000000000E+00 0.  1.
          2   -1    0    0  501    0  0.00000000000E+00 -0.00000000000E+00 -0.17218305881E+04  0.17218305881E+04  0.00000000000E+00 0. -1.
         23    2    1    2    0    0  0.13383050441E+04 -0.15874191132E+04  0.13253200493E+03  0.20824872928E+04  0.90712514078E+02 0.  0.
         11    1    3    3    0    0  0.77562454211E+03 -0.97073350008E+03  0.10946486811E+03  0.12473570122E+04  0.00000000000E+00 0. -1.
        -11    1    3    3    0    0  0.56268050199E+03 -0.61668561310E+03  0.23067136820E+02  0.83513028057E+03  0.00000000000E+00 0.  1.
         22    1    1    2    0    0 -0.13383050441E+04  0.15874191132E+04  0.69618877687E+03  0.21898946653E+04  0.00000000000E+00 0. -1.
<mgrwt>
<rscale>  0 0.41912372E+04</rscale>
<asrwt>0</asrwt>
<pdfrwt beam="1">  1        2 0.26489702E+00 0.41912372E+04</pdfrwt>
<pdfrwt beam="2">  1       -2 0.39239252E+00 0.41912372E+04</pdfrwt>
<totfact> 0.61628033E-02</totfact>
</mgrwt>
</event>
<event>
 6    1  0.2003386E-005  0.3114080E+04  0.7818608E-02  0.8211884E-01
         -2   -1    0    0    0  501 -0.00000000000E+00  0.00000000000E+00  0.12748536709E+04  0.12748536709E+04  0.00000000000E+00 0.  1.
          2   -1    0    0  501    0  0.00000000000E+00 -0.00000000000E+00 -0.19016879006E+04  0.19016879006E+04  0.00000000000E+00 0. -1.
         23    2    1    2    0    0  0.98040348250E+03  0.11749980343E+04 -0.59929996621E+03  0.16459960789E+04  0.91275809550E+02 0.  0.
         11    1    3    3    0    0  0.52774282428E+03  0.56128827216E+03 -0.30263866093E+03  0.82773617303E+03  0.00000000000E+00 0.  1.
        -11    1    3    3    0    0  0.45266065822E+03  0.61370976210E+03 -0.29666130527E+03  0.81825990592E+03  0.00000000000E+00 0. -1.
         22    1    1    2    0    0 -0.98040348250E+03 -0.11749980343E+04 -0.27534263454E+02  0.15305454925E+04  0.00000000000E+00 0.  1.
<mgrwt>
<rscale>  0 0.31140802E+04</rscale>
<asrwt>0</asrwt>
<pdfrwt beam="1">  1        2 0.29256737E+00 0.31140802E+04</pdfrwt>
<pdfrwt beam="2">  1       -2 0.19613133E+00 0.31140802E+04</pdfrwt>
<totfact> 0.90646591E-01</totfact>
</mgrwt>
</event>
<event>
 6    1  0.2003386E-005  0.8466813E+03  0.7818608E-02  0.9494802E-01
          1   -1    0    0  501    0  0.00000000000E+00  0.00000000000E+00  0.98002957432E+03  0.98002957432E+03  0.00000000000E+00 0. -1.
         -1   -1    0    0    0  501 -0.00000000000E+00 -0.00000000000E+00 -0.18286928474E+03  0.18286928474E+03  0.00000000000E+00 0.  1.
         23    2    1    2    0    0  0.14307357372E+03 -0.72211158964E+02  0.93428276513E+03  0.95197927183E+03  0.87725422703E+02 0.  0.
         13    1    3    3    0    0  0.83535618216E+02 -0.58807298909E+02  0.35252114955E+03  0.36702541982E+03  0.00000000000E+00 0. -1.
        -13    1    3    3    0    0  0.59537955509E+02 -0.13403860055E+02  0.58176161558E+03  0.58495385201E+03  0.00000000000E+00 0.  1.
         22    1    1    2    0    0 -0.14307357372E+03  0.72211158964E+02 -0.13712247556E+03  0.21091958724E+03  0.00000000000E+00 0.  1.
<mgrwt>
<rscale>  0 0.84668130E+03</rscale>
<asrwt>0</asrwt>
<pdfrwt beam="1">  1        1 0.15077378E+00 0.84668130E+03</pdfrwt>
<pdfrwt beam="2">  1       -1 0.28133737E-01 0.84668130E+03</pdfrwt>
<totfact> 0.18060604E+02</totfact>
</mgrwt>
</event>
<event>
 6    1  0.2003386E-005  0.3369386E+04  0.7818608E-02  0.8145461E-01
         -2   -1    0    0    0  501 -0.00000000000E+00  0.00000000000E+00  0.25868920505E+04  0.25868920505E+04  0.00000000000E+00 0.  1.
          2   -1    0    0  501    0  0.00000000000E+00 -0.00000000000E+00 -0.10971428047E+04  0.10971428047E+04  0.00000000000E+00 0. -1.
         23    2    1    2    0    0 -0.13062315670E+04  0.10386141748E+04  0.50308563875E+03  0.17453586614E+04  0.90671860647E+02 0.  0.
         13    1    3    3    0    0 -0.15719330014E+03  0.16355994394E+03  0.60926492699E+02  0.23489066900E+03  0.00000000000E+00 0.  1.
        -13    1    3    3    0    0 -0.11490382669E+04  0.87505423087E+03  0.44215914606E+03  0.15104679924E+04  0.00000000000E+00 0. -1.
         22    1    1    2    0    0  0.13062315670E+04 -0.10386141748E+04  0.98666360709E+03  0.19386761938E+04  0.00000000000E+00 0.  1.
<mgrwt>
<rscale>  0 0.33693857E+04</rscale>
<asrwt>0</asrwt>
<pdfrwt beam="1">  1        2 0.16879120E+00 0.33693857E+04</pdfrwt>
<pdfrwt beam="2">  1       -2 0.39798339E+00 0.33693857E+04</pdfrwt>
<totfact> 0.13887871E-01</totfact>
</mgrwt>
</event>
<event>
 6    1  0.2003386E-005  0.1495466E+04  0.7818608E-02  0.8887474E-01
          1   -1    0    0  501    0  0.00000000000E+00  0.00000000000E+00  0.58580673562E+03  0.58580673562E+03  0.00000000000E+00 0. -1.
         -1   -1    0    0    0  501 -0.00000000000E+00 -0.00000000000E+00 -0.95441798882E+03  0.95441798882E+03  0.00000000000E+00 0.  1.
         23    2    1    2    0    0 -0.11484704837E+03  0.32379806263E+03  0.49593008172E+03  0.60992007021E+03  0.89559009669E+02 0.  0.
         11    1    3    3    0    0 -0.58459461590E+02  0.27189227567E+03  0.39882063675E+03  0.48621067298E+03  0.00000000000E+00 0.  1.
        -11    1    3    3    0    0 -0.56387586778E+02  0.51905786963E+02  0.97109444969E+02  0.12370939724E+03  0.00000000000E+00 0. -1.
         22    1    1    2    0    0  0.11484704837E+03 -0.32379806263E+03 -0.86454133492E+03  0.93030465422E+03  0.00000000000E+00 0.  1.
<mgrwt>
<rscale>  0 0.14954658E+04</rscale>
<asrwt>0</asrwt>
<pdfrwt beam="1">  1        1 0.90124114E-01 0.14954658E+04</pdfrwt>
<pdfrwt beam="2">  1       -1 0.14683354E+00 0.14954658E+04</pdfrwt>
<totfact> 0.12677601E+01</totfact>
</mgrwt>
</event>
<event>
 6    1  0.2003386E-005  0.1921498E+04  0.7818608E-02  0.8644229E-01
          2   -1    0    0  501    0  0.00000000000E+00  0.00000000000E+00  0.31442778043E+04  0.31442778043E+04  0.00000000000E+00 0. -1.
         -2   -1    0    0    0  501 -0.00000000000E+00 -0.00000000000E+00 -0.29356151100E+03  0.29356151100E+03  0.00000000000E+00 0.  1.
         23    2    1    2    0    0 -0.87517320774E+03  0.39094216597E+03  0.14058310439E+04  0.17039254464E+04  0.90758373436E+02 0.  0.
         11    1    3    3    0    0 -0.32671259297E+03  0.10914321768E+03  0.45563330647E+03  0.57118742138E+03  0.00000000000E+00 0. -1.
        -11    1    3    3    0    0 -0.54846061477E+03  0.28179894829E+03  0.95019773739E+03  0.11327380250E+04  0.00000000000E+00 0.  1.
         22    1    1    2    0    0  0.87517320774E+03 -0.39094216597E+03  0.14448852494E+04  0.17339138689E+04  0.00000000000E+00 0. -1.
<mgrwt>
<rscale>  0 0.19214983E+04</rscale>
<asrwt>0</asrwt>
<pdfrwt beam="1">  1        2 0.48373502E+00 0.19214983E+04</pdfrwt>
<pdfrwt beam="2">  1       -2 0.45163312E-01 0.19214983E+04</pdfrwt>
<totfact> 0.61499598E+00</totfact>
</mgrwt>
</event>
<event>
 6    1  0.2003386E-005  0.3154867E+03  0.7818608E-02  0.1077745E+00
         -1   -1    0    0    0  501 -0.00000000000E+00  0.00000000000E+00  0.83858597992E+02  0.83858597992E+02  0.00000000000E+00 0.  1.
          1   -1    0    0  501    0  0.00000000000E+00 -0.00000000000E+00 -0.29672525933E+03  0.29672525933E+03  0.00000000000E+00 0. -1.
         23    2    1    2    0    0 -0.86553423742E+02  0.76321483685E+02 -0.22005095792E+03  0.26496345189E+03  0.92014904905E+02 0.  0.
         11    1    3    3    0    0 -0.59351990192E+02  0.50150075489E+01 -0.14990649017E+03  0.16130643147E+03  0.00000000000E+00 0.  1.
        -11    1    3    3    0    0 -0.27201433550E+02  0.71306476136E+02 -0.70144467752E+02  0.10365702042E+03  0.00000000000E+00 0. -1.
         22    1    1    2    0    0  0.86553423742E+02 -0.76321483685E+02  0.71842965850E+01  0.11562040543E+03  0.00000000000E+00 0.  1.
<mgrwt>
<rscale>  0 0.31548670E+03</rscale>
<asrwt>0</asrwt>
<pdfrwt beam="1">  1        1 0.45650040E-01 0.31548670E+03</pdfrwt>
<pdfrwt beam="2">  1       -1 0.12901323E-01 0.31548670E+03</pdfrwt>
<totfact> 0.36294484E+03</totfact>
</mgrwt>
</event>
<event>
 6    1  0.2003386E-005  0.1590590E+04  0.7818608E-02  0.8826350E-01
         -2   -1    0    0    0  501 -0.00000000000E+00  0.00000000000E+00  0.28618349246E+03  0.28618349246E+03  0.00000000000E+00 0.  1.
          2   -1    0    0  501    0  0.00000000000E+00 -0.00000000000E+00 -0.22101000817E+04  0.22101000817E+04  0.00000000000E+00 0. -1.
         23    2    1    2    0    0  0.27940087867E+03  0.29337501258E+02 -0.21284287281E+04  0.21487914808E+04  0.90390470719E+02 0.  0.
         13    1    3    3    0    0  0.66263732576E+02 -0.22472150818E+02 -0.71906187632E+03  0.72245820764E+03  0.00000000000E+00 0. -1.
        -13    1    3    3    0    0  0.21313714609E+03  0.51809652076E+02 -0.14093668518E+04  0.14263332731E+04  0.00000000000E+00 0.  1.
         22    1    1    2    0    0 -0.27940087867E+03 -0.29337501258E+02  0.20451213891E+03  0.34749209335E+03  0.00000000000E+00 0.  1.
<mgrwt>
<rscale>  0 0.15905900E+04</rscale>
<asrwt>0</asrwt>
<pdfrwt beam="1">  1        2 0.34001538E+00 0.15905900E+04</pdfrwt>
<pdfrwt beam="2">  1       -2 0.44028231E-01 0.15905900E+04</pdfrwt>
<totfact> 0.23946174E+01</totfact>
</mgrwt>
</event>
<event>
 6    1  0.2003386E-005  0.5510588E+04  0.7818608E-02  0.7754234E-01
         -2   -1    0    0    0  501 -0.00000000000E+00  0.00000000000E+00  0.35985807281E+04  0.35985807281E+04  0.00000000000E+00 0.  1.
          2   -1    0    0  501    0  0.00000000000E+00 -0.00000000000E+00 -0.21096222911E+04  0.21096222911E+04  0.00000000000E+00 0. -1.
         23    2    1    2    0    0  0.17386675849E+04  0.14592308241E+04  0.23611536675E+04  0.32765278582E+04  0.90931815974E+02 0.  0.
         13    1    3    3    0    0  0.46325166575E+03  0.35850690885E+03  0.56314644535E+03  0.81256583021E+03  0.00000000000E+00 0.  1.
        -13    1    3    3    0    0  0.12754159191E+04  0.11007239152E+04  0.17980072221E+04  0.24639620280E+04  0.00000000000E+00 0. -1.
         22    1    1    2    0    0 -0.17386675849E+04 -0.14592308241E+04 -0.87219523051E+03  0.24316751611E+04  0.00000000000E+00 0. -1.
<mgrwt>
<rscale>  0 0.55105884E+04</rscale>
<asrwt>0</asrwt>
<pdfrwt beam="1">  1        2 0.32455728E+00 0.55105884E+04</pdfrwt>
<pdfrwt beam="2">  1       -2 0.55362780E+00 0.55105884E+04</pdfrwt>
<totfact> 0.33688755E-03</totfact>
</mgrwt>
</event>
<event>
 6    1  0.2003386E-005  0.2207061E+04  0.7818608E-02  0.8515495E-01
          2   -1    0    0  501    0  0.00000000000E+00  0.00000000000E+00  0.97317078473E+03  0.97317078473E+03  0.00000000000E+00 0. -1.
         -2   -1    0    0    0  501 -0.00000000000E+00 -0.00000000000E+00 -0.12513523135E+04  0.12513523135E+04  0.00000000000E+00 0.  1.
         23    2    1    2    0    0  0.50459538043E+03  0.68724765559E+03 -0.84245164730E+03  0.12021109481E+04  0.91761187615E+02 0.  0.
         11    1    3    3    0    0  0.21989931909E+03  0.36436762162E+03 -0.45404359715E+03  0.62231427939E+03  0.00000000000E+00 0.  1.
        -11    1    3    3    0    0  0.28469606134E+03  0.32288003396E+03 -0.38840805014E+03  0.57979666875E+03  0.00000000000E+00 0. -1.
         22    1    1    2    0    0 -0.50459538043E+03 -0.68724765559E+03  0.56427011850E+03  0.10224121501E+04  0.00000000000E+00 0. -1.
<mgrwt>
<rscale>  0 0.22070610E+04</rscale>
<asrwt>0</asrwt>
<pdfrwt beam="1">  1        2 0.14971858E+00 0.22070610E+04</pdfrwt>
<pdfrwt beam="2">  1       -2 0.19251574E+00 0.22070610E+04</pdfrwt>
<totfact> 0.35699275E+00</totfact>
</mgrwt>
</event>
<event>
 6    1  0.2003386E-005  0.1015432E+04  0.7818608E-02  0.9291779E-01
         -2   -1    0    0    0  501 -0.00000000000E+00  0.00000000000E+00  0.10311106467E+03  0.10311106467E+03  0.00000000000E+00 0.  1.
          2   -1    0    0  501    0  0.00000000000E+00 -0.00000000000E+00 -0.24999809978E+04  0.24999809978E+04  0.00000000000E+00 0. -1.
         23    2    1    2    0    0 -0.23988687961E+03  0.27669661232E+03 -0.20946147152E+04  0.21282605692E+04  0.89305738111E+02 0.  0.
         13    1    3    3    0    0 -0.44994221788E+02  0.10804563297E+03 -0.76430200493E+03  0.77321141580E+03  0.00000000000E+00 0. -1.
        -13    1    3    3    0    0 -0.19489265782E+03  0.16865097935E+03 -0.13303127103E+04  0.13550491534E+04  0.00000000000E+00 0.  1.
         22    1    1    2    0    0  0.23988687961E+03 -0.27669661232E+03 -0.30225521796E+03  0.47483149334E+03  0.00000000000E+00 0.  1.
<mgrwt>
<rscale>  0 0.10154323E+04</rscale>
<asrwt>0</asrwt>
<pdfrwt beam="1">  1        2 0.38461250E+00 0.10154323E+04</pdfrwt>
<pdfrwt beam="2">  1       -2 0.15863239E-01 0.10154323E+04</pdfrwt>
<totfact> 0.11218578E+02</totfact>
</mgrwt>
</event>
<event>
 6    1  0.2003386E-005  0.1001475E+04  0.7818608E-02  0.9306928E-01
          1   -1    0    0  501    0  0.00000000000E+00  0.00000000000E+00  0.44870372907E+03  0.44870372907E+03  0.00000000000E+00 0. -1.
         -1   -1    0    0    0  501 -0.00000000000E+00 -0.00000000000E+00 -0.55880541791E+03  0.55880541791E+03  0.00000000000E+00 0.  1.
         23    2    1    2    0    0  0.42855741697E+03  0.32064335957E+02  0.19475255125E+03  0.48060717413E+03  0.91461020787E+02 0.  0.
         13    1    3    3    0    0  0.12262285091E+03 -0.32044340169E+02  0.59788701151E+02  0.14013526354E+03  0.00000000000E+00 0. -1.
        -13    1    3    3    0    0  0.30593456606E+03  0.64108676126E+02  0.13496385010E+03  0.34047191059E+03  0.00000000000E+00 0.  1.
         22    1    1    2    0    0 -0.42855741697E+03 -0.32064335957E+02 -0.30485424009E+03  0.52690197284E+03  0.00000000000E+00 0.  1.
<mgrwt>
<rscale>  0 0.10014751E+04</rscale>
<asrwt>0</asrwt>
<pdfrwt beam="1">  1        1 0.69031343E-01 0.10014751E+04</pdfrwt>
<pdfrwt beam="2">  1       -1 0.85970064E-01 0.10014751E+04</pdfrwt>
<totfact> 0.68879167E+01</totfact>
</mgrwt>
</event>
<event>
 6    1  0.2003386E-005  0.4311641E+04  0.7818608E-02  0.7944469E-01
         -2   -1    0    0    0  501 -0.00000000000E+00  0.00000000000E+00  0.13780023684E+04  0.13780023684E+04  0.00000000000E+00 0.  1.
          2   -1    0    0  501    0  0.00000000000E+00 -0.00000000000E+00 -0.33726811021E+04  0.33726811021E+04  0.00000000000E+00 0. -1.
         23    2    1    2    0    0  0.12315376417E+04  0.17613254990E+04 -0.82567186583E+03  0.23041492824E+04  0.91746439597E+02 0.  0.
         11    1    3    3    0    0  0.87519610428E+03  0.13096658335E+04 -0.62968771144E+03  0.16963783276E+04  0.00000000000E+00 0.  1.
        -11    1    3    3    0    0  0.35634153740E+03  0.45165966552E+03 -0.19598415439E+03  0.60777095481E+03  0.00000000000E+00 0. -1.
         22    1    1    2    0    0 -0.12315376417E+04 -0.17613254990E+04 -0.11690068678E+04  0.24465341881E+04  0.00000000000E+00 0.  1.
<mgrwt>
<rscale>  0 0.43116412E+04</rscale>
<asrwt>0</asrwt>
<pdfrwt beam="1">  1        2 0.51887402E+00 0.43116412E+04</pdfrwt>
<pdfrwt beam="2">  1       -2 0.21200036E+00 0.43116412E+04</pdfrwt>
<totfact> 0.84980907E-02</totfact>
</mgrwt>
</event>
<event>
 6    1  0.2003386E-005  0.3319919E+04  0.7818608E-02  0.8157845E-01
         -2   -1    0    0    0  501 -0.00000000000E+00  0.00000000000E+00  0.97826725382E+03  0.97826725382E+03  0.00000000000E+00 0.  1.
          2   -1    0    0  501    0  0.00000000000E+00 -0.00000000000E+00 -0.28166800978E+04  0.28166800978E+04  0.00000000000E+00 0. -1.
         23    2    1    2    0    0 -0.12688232685E+04 -0.87416318256E+03 -0.16218189487E+04  0.22389953370E+04  0.93432649653E+02 0.  0.
         11    1    3    3    0    0 -0.11598601851E+04 -0.81607643937E+03 -0.14594244455E+04  0.20349879891E+04  0.00000000000E+00 0.  1.
        -11    1    3    3    0    0 -0.10896308341E+03 -0.58086743193E+02 -0.16239450323E+03  0.20400734781E+03  0.00000000000E+00 0. -1.
         22    1    1    2    0    0  0.12688232685E+04  0.87416318256E+03 -0.21659389526E+03  0.15559520147E+04  0.00000000000E+00 0.  1.
<mgrwt>
<rscale>  0 0.33199192E+04</rscale>
<asrwt>0</asrwt>
<pdfrwt beam="1">  1        2 0.43333540E+00 0.33199192E+04</pdfrwt>
<pdfrwt beam="2">  1       -2 0.15050266E+00 0.33199192E+04</pdfrwt>
<totfact> 0.55916148E-01</totfact>
</mgrwt>
</event>
<event>
 6    1  0.2003386E-005  0.1392811E+04  0.7818608E-02  0.8959039E-01
          1   -1    0    0  501    0  0.00000000000E+00  0.00000000000E+00  0.15771619788E+04  0.15771619788E+04  0.00000000000E+00 0. -1.
         -1   -1    0    0    0  501 -0.00000000000E+00 -0.00000000000E+00 -0.30750200984E+03  0.30750200984E+03  0.00000000000E+00 0.  1.
         23    2    1    2    0    0  0.64251212092E+03  0.19647129133E+03  0.86960459757E+03  0.11027003744E+04  0.91176563094E+02 0.  0.
         13    1    3    3    0    0  0.17933070834E+03  0.24944591053E+02  0.18866290874E+03  0.26148695706E+03  0.00000000000E+00 0.  1.
        -13    1    3    3    0    0  0.46318141258E+03  0.17152670028E+03  0.68094168883E+03  0.84121341730E+03  0.00000000000E+00 0. -1.
         22    1    1    2    0    0 -0.64251212092E+03 -0.19647129133E+03  0.40005537136E+03  0.78196361424E+03  0.00000000000E+00 0. -1.
<mgrwt>
<rscale>  0 0.13928108E+04</rscale>
<asrwt>0</asrwt>
<pdfrwt beam="1">  1        1 0.24264030E+00 0.13928108E+04</pdfrwt>
<pdfrwt beam="2">  1       -1 0.47308002E-01 0.13928108E+04</pdfrwt>
<totfact> 0.25163891E+01</totfact>
</mgrwt>
</event>
<event>
 6    1  0.2003386E-005  0.3276249E+04  0.7818608E-02  0.8168965E-01
         -2   -1    0    0    0  501 -0.00000000000E+00  0.00000000000E+00  0.10763711441E+04  0.10763711441E+04  0.00000000000E+00 0.  1.
          2   -1    0    0  501    0  0.00000000000E+00 -0.00000000000E+00 -0.24930538414E+04  0.24930538414E+04  0.00000000000E+00 0. -1.
         23    2    1    2    0    0 -0.65417687049E+03 -0.51893604051E+03  0.82494355704E+03  0.11773275258E+04  0.91248226033E+02 0.  0.
         13    1    3    3    0    0 -0.50568737518E+03 -0.44378801410E+03  0.64102329072E+03  0.92928918110E+03  0.00000000000E+00 0.  1.
        -13    1    3    3    0    0 -0.14848949531E+03 -0.75148026410E+02  0.18392026632E+03  0.24803834473E+03  0.00000000000E+00 0. -1.
         22    1    1    2    0    0  0.65417687049E+03  0.51893604051E+03 -0.22416262544E+04  0.23920974597E+04  0.00000000000E+00 0. -1.
<mgrwt>
<rscale>  0 0.32762486E+04</rscale>
<asrwt>0</asrwt>
<pdfrwt beam="1">  1        2 0.38354674E+00 0.32762486E+04</pdfrwt>
<pdfrwt beam="2">  1       -2 0.16559556E+00 0.32762486E+04</pdfrwt>
<totfact> 0.67386908E-01</totfact>
</mgrwt>
</event>
<event>
 6    1  0.2003386E-005  0.2740463E+04  0.7818608E-02  0.8321994E-01
          1   -1    0    0  501    0  0.00000000000E+00  0.00000000000E+00  0.88388666808E+03  0.88388666808E+03  0.00000000000E+00 0. -1.
         -1   -1    0    0    0  501 -0.00000000000E+00 -0.00000000000E+00 -0.21241801971E+04  0.21241801971E+04  0.00000000000E+00 0.  1.
         23    2    1    2    0    0  0.51182384028E+03 -0.75935386393E+03  0.49558846338E+03  0.10454491679E+04  0.93670184472E+02 0.  0.
         13    1    3    3    0    0  0.10854056655E+03 -0.11765529854E+03  0.11683909615E+03  0.19817971201E+03  0.00000000000E+00 0.  1.
        -13    1    3    3    0    0  0.40328327373E+03 -0.64169856539E+03  0.37874936723E+03  0.84726945588E+03  0.00000000000E+00 0. -1.
         22    1    1    2    0    0 -0.51182384028E+03  0.75935386393E+03 -0.17358819924E+04  0.19626176973E+04  0.00000000000E+00 0.  1.
<mgrwt>
<rscale>  0 0.27404631E+04</rscale>
<asrwt>0</asrwt>
<pdfrwt beam="1">  1        1 0.13598257E+00 0.27404631E+04</pdfrwt>
<pdfrwt beam="2">  1       -1 0.32679695E+00 0.27404631E+04</pdfrwt>
<totfact> 0.36068829E-01</totfact>
</mgrwt>
</event>
<event>
 6    1  0.2003386E-005  0.3529746E+03  0.7818608E-02  0.1061401E+00
          2   -1    0    0  501    0  0.00000000000E+00  0.00000000000E+00  0.22749679002E+03  0.22749679002E+03  0.00000000000E+00 0. -1.
         -2   -1    0    0    0  501 -0.00000000000E+00 -0.00000000000E+00 -0.13691522648E+03  0.13691522648E+03  0.00000000000E+00 0.  1.
         23    2    1    2    0    0  0.30337177793E+02  0.14295185239E+03  0.12619713394E+03  0.21399910046E+03  0.92273083432E+02 0.  0.
         13    1    3    3    0    0 -0.25320108367E+02  0.10014704012E+02  0.10488671796E+02  0.29179006498E+02  0.00000000000E+00 0.  1.
        -13    1    3    3    0    0  0.55657286160E+02  0.13293714837E+03  0.11570846215E+03  0.18482009397E+03  0.00000000000E+00 0. -1.
         22    1    1    2    0    0 -0.30337177793E+02 -0.14295185239E+03 -0.35615570406E+02  0.15041291604E+03  0.00000000000E+00 0. -1.
<mgrwt>
<rscale>  0 0.35297464E+03</rscale>
<asrwt>0</asrwt>
<pdfrwt beam="1">  1        2 0.34999506E-01 0.35297464E+03</pdfrwt>
<pdfrwt beam="2">  1       -2 0.21063881E-01 0.35297464E+03</pdfrwt>
<totfact> 0.28536713E+03</totfact>
</mgrwt>
</event>
<event>
 6    1  0.2003386E-005  0.2365574E+04  0.7818608E-02  0.8452506E-01
          1   -1    0    0  501    0  0.00000000000E+00  0.00000000000E+00  0.16998434964E+04  0.16998434964E+04  0.00000000000E+00 0. -1.
         -1   -1    0    0    0  501 -0.00000000000E+00 -0.00000000000E+00 -0.82300845241E+03  0.82300845241E+03  0.00000000000E+00 0.  1.
         23    2    1    2    0    0 -0.92540913103E+03 -0.56053759478E+02 -0.34147407071E+03  0.99190414346E+03  0.88006846845E+02 0.  0.
         13    1    3    3    0    0 -0.57817419785E+03 -0.35957335848E+02 -0.16759872943E+03  0.60304864411E+03  0.00000000000E+00 0. -1.
        -13    1    3    3    0    0 -0.34723493319E+03 -0.20096423630E+02 -0.17387534128E+03  0.38885549935E+03  0.00000000000E+00 0.  1.
         22    1    1    2    0    0  0.92540913103E+03  0.56053759478E+02  0.12183091147E+04  0.15309478054E+04  0.00000000000E+00 0. -1.
<mgrwt>
<rscale>  0 0.23655744E+04</rscale>
<asrwt>0</asrwt>
<pdfrwt beam="1">  1        1 0.26151438E+00 0.23655744E+04</pdfrwt>
<pdfrwt beam="2">  1       -1 0.12661669E+00 0.23655744E+04</pdfrwt>
<totfact> 0.23219343E+00</totfact>
</mgrwt>
</event>
<event>
 6    1  0.2003386E-005  0.1384551E+04  0.7818608E-02  0.8965078E-01
         -2   -1    0    0    0  501 -0.00000000000E+00  0.00000000000E+00  0.10476152389E+04  0.10476152389E+04  0.00000000000E+00 0.  1.
          2   -1    0    0  501    0  0.00000000000E+00 -0.00000000000E+00 -0.45746325689E+03  0.45746325689E+03  0.00000000000E+00 0. -1.
         23    2    1    2    0    0  0.66023872826E+02  0.54612760195E+03  0.74782452917E+03  0.93282405809E+03  0.91130058269E+02 0.  0.
         11    1    3    3    0    0 -0.20407034384E+02  0.17843812600E+03  0.22710615703E+03  0.28954070253E+03  0.00000000000E+00 0.  1.
        -11    1    3    3    0    0  0.86430907210E+02  0.36768947595E+03  0.52071837214E+03  0.64328335555E+03  0.00000000000E+00 0. -1.
         22    1    1    2    0    0 -0.66023872826E+02 -0.54612760195E+03 -0.15767254712E+03  0.57225443774E+03  0.00000000000E+00 0. -1.
<mgrwt>
<rscale>  0 0.13845512E+04</rscale>
<asrwt>0</asrwt>
<pdfrwt beam="1">  1        2 0.70378963E-01 0.13845512E+04</pdfrwt>
<pdfrwt beam="2">  1       -2 0.16117158E+00 0.13845512E+04</pdfrwt>
<totfact> 0.16402855E+01</totfact>
</mgrwt>
</event>
<event>
 6    1  0.2003386E-005  0.1157797E+04  0.7818608E-02  0.9150620E-01
         -2   -1    0    0    0  501 -0.00000000000E+00  0.00000000000E+00  0.37596576655E+03  0.37596576655E+03  0.00000000000E+00 0.  1.
          2   -1    0    0  501    0  0.00000000000E+00 -0.00000000000E+00 -0.89136746028E+03  0.89136746028E+03  0.00000000000E+00 0. -1.
         23    2    1    2    0    0  0.24460368872E+03 -0.33281687675E+01  0.31100946416E+03  0.40547625312E+03  0.88555427894E+02 0.  0.
         13    1    3    3    0    0  0.11853860714E+03 -0.11708723865E+02  0.84264402452E+02  0.14590745395E+03  0.00000000000E+00 0. -1.
        -13    1    3    3    0    0  0.12606508158E+03  0.83805550978E+01  0.22674506170E+03  0.25956879917E+03  0.00000000000E+00 0.  1.
         22    1    1    2    0    0 -0.24460368872E+03  0.33281687675E+01 -0.82641115789E+03  0.86185697371E+03  0.00000000000E+00 0. -1.
<mgrwt>
<rscale>  0 0.11577973E+04</rscale>
<asrwt>0</asrwt>
<pdfrwt beam="1">  1        2 0.13713345E+00 0.11577973E+04</pdfrwt>
<pdfrwt beam="2">  1       -2 0.57840888E-01 0.11577973E+04</pdfrwt>
<totfact> 0.82292365E+01</totfact>
</mgrwt>
</event>
<event>
 6    1  0.2003386E-005  0.2097294E+04  0.7818608E-02  0.8562436E-01
          2   -1    0    0  501    0  0.00000000000E+00  0.00000000000E+00  0.33442410366E+04  0.33442410366E+04  0.00000000000E+00 0. -1.
         -2   -1    0    0    0  501 -0.00000000000E+00 -0.00000000000E+00 -0.32882208496E+03  0.32882208496E+03  0.00000000000E+00 0.  1.
         23    2    1    2    0    0 -0.46507297187E+02  0.27760734477E+03  0.32760901385E+04  0.32894249663E+04  0.91220869607E+02 0.  0.
         11    1    3    3    0    0 -0.40765512569E+02  0.24883280497E+03  0.24780316892E+04  0.24908273012E+04  0.00000000000E+00 0. -1.
        -11    1    3    3    0    0 -0.57417846180E+01  0.28774539794E+02  0.79805844927E+03  0.79859766509E+03  0.00000000000E+00 0.  1.
         22    1    1    2    0    0  0.46507297187E+02 -0.27760734477E+03 -0.26067118679E+03  0.38363815528E+03  0.00000000000E+00 0.  1.
<mgrwt>
<rscale>  0 0.20972938E+04</rscale>
<asrwt>0</asrwt>
<pdfrwt beam="1">  1        2 0.51449860E+00 0.20972938E+04</pdfrwt>
<pdfrwt beam="2">  1       -2 0.50588015E-01 0.20972938E+04</pdfrwt>
<totfact> 0.35554110E+00</totfact>
</mgrwt>
</event>
<event>
 6    1  0.2003386E-005  0.2454796E+04  0.7818608E-02  0.8419269E-01
         -2   -1    0    0    0  501 -0.00000000000E+00  0.00000000000E+00  0.13359309597E+04  0.13359309597E+04  0.00000000000E+00 0.  1.
          2   -1    0    0  501    0  0.00000000000E+00 -0.00000000000E+00 -0.11276827479E+04  0.11276827479E+04  0.00000000000E+00 0. -1.
         23    2    1    2    0    0  0.87402761722E+03  0.36026260066E+02 -0.75731559943E+03  0.11607186080E+04  0.92296276733E+02 0.  0.
         13    1    3    3    0    0  0.61636485270E+03  0.32912212427E+02 -0.58729829669E+03  0.85200242644E+03  0.00000000000E+00 0.  1.
        -13    1    3    3    0    0  0.25766276452E+03  0.31140476391E+01 -0.17001730274E+03  0.30871618154E+03  0.00000000000E+00 0. -1.
         22    1    1    2    0    0 -0.87402761722E+03 -0.36026260066E+02  0.96556381119E+03  0.13028950996E+04  0.00000000000E+00 0.  1.
<mgrwt>
<rscale>  0 0.24547964E+04</rscale>
<asrwt>0</asrwt>
<pdfrwt beam="1">  1        2 0.17348965E+00 0.24547964E+04</pdfrwt>
<pdfrwt beam="2">  1       -2 0.20552784E+00 0.24547964E+04</pdfrwt>
<totfact> 0.22949862E+00</totfact>
</mgrwt>
</event>
<event>
 6    1  0.2003386E-005  0.3048462E+04  0.7818608E-02  0.8230026E-01
          2   -1    0    0  501    0  0.00000000000E+00  0.00000000000E+00  0.18244304779E+04  0.18244304779E+04  0.00000000000E+00 0. -1.
         -2   -1    0    0    0  501 -0.00000000000E+00 -0.00000000000E+00 -0.12734274205E+04  0.12734274205E+04  0.00000000000E+00 0.  1.
         23    2    1    2    0    0 -0.11841356899E+04 -0.94735193923E+03  0.41736929731E+03  0.15755205472E+04  0.91732413144E+02 0.  0.
         13    1    3    3    0    0 -0.51264876818E+03 -0.38699426451E+03  0.21993773969E+03  0.67892998874E+03  0.00000000000E+00 0.  1.
        -13    1    3    3    0    0 -0.67148692172E+03 -0.56035767472E+03  0.19743155762E+03  0.89659055851E+03  0.00000000000E+00 0. -1.
         22    1    1    2    0    0  0.11841356899E+04  0.94735193923E+03  0.13363376013E+03  0.15223373511E+04  0.00000000000E+00 0.  1.
<mgrwt>
<rscale>  0 0.30484618E+04</rscale>
<asrwt>0</asrwt>
<pdfrwt beam="1">  1        2 0.28068161E+00 0.30484618E+04</pdfrwt>
<pdfrwt beam="2">  1       -2 0.19591191E+00 0.30484618E+04</pdfrwt>
<totfact> 0.10093446E+00</totfact>
</mgrwt>
</event>
<event>
 6    1  0.2003386E-005  0.1731951E+04  0.7818608E-02  0.8743349E-01
         -2   -1    0    0    0  501 -0.00000000000E+00  0.00000000000E+00  0.23439841228E+03  0.23439841228E+03  0.00000000000E+00 0.  1.
          2   -1    0    0  501    0  0.00000000000E+00 -0.00000000000E+00 -0.31993102113E+04  0.31993102113E+04  0.00000000000E+00 0. -1.
         23    2    1    2    0    0  0.43763499232E+03  0.47469204371E+03 -0.26231979564E+04  0.27032120301E+04  0.96596264100E+02 0.  0.
         11    1    3    3    0    0  0.21960292866E+03  0.17485232065E+03 -0.10438790388E+04  0.10809635645E+04  0.00000000000E+00 0. -1.
        -11    1    3    3    0    0  0.21803206366E+03  0.29983972307E+03 -0.15793189177E+04  0.16222484656E+04  0.00000000000E+00 0.  1.
         22    1    1    2    0    0 -0.43763499232E+03 -0.47469204371E+03 -0.34171384259E+03  0.73049659348E+03  0.00000000000E+00 0.  1.
<mgrwt>
<rscale>  0 0.17319506E+04</rscale>
<asrwt>0</asrwt>
<pdfrwt beam="1">  1        2 0.49220156E+00 0.17319506E+04</pdfrwt>
<pdfrwt beam="2">  1       -2 0.36061295E-01 0.17319506E+04</pdfrwt>
<totfact> 0.89684662E+00</totfact>
</mgrwt>
</event>
<event>
 6    1  0.2003386E-005  0.3809655E+04  0.7818608E-02  0.8044086E-01
          2   -1    0    0  501    0  0.00000000000E+00  0.00000000000E+00  0.13671648145E+04  0.13671648145E+04  0.00000000000E+00 0. -1.
         -2   -1    0    0    0  501 -0.00000000000E+00 -0.00000000000E+00 -0.26539364465E+04  0.26539364465E+04  0.00000000000E+00 0.  1.
         23    2    1    2    0    0 -0.88643424774E+02 -0.17057090420E+04 -0.15311867942E+04  0.22956912332E+04  0.91456255855E+02 0.  0.
         13    1    3    3    0    0 -0.22143816817E+02 -0.83389708395E+03 -0.69325521089E+03  0.10846554673E+04  0.00000000000E+00 0.  1.
        -13    1    3    3    0    0 -0.66499607957E+02 -0.87181195801E+03 -0.83793158330E+03  0.12110357659E+04  0.00000000000E+00 0. -1.
         22    1    1    2    0    0  0.88643424774E+02  0.17057090420E+04  0.24441516217E+03  0.17254100278E+04  0.00000000000E+00 0. -1.
<mgrwt>
<rscale>  0 0.38096554E+04</rscale>
<asrwt>0</asrwt>
<pdfrwt beam="1">  1        2 0.21033305E+00 0.38096554E+04</pdfrwt>
<pdfrwt beam="2">  1       -2 0.40829791E+00 0.38096554E+04</pdfrwt>
<totfact> 0.79235951E-02</totfact>
</mgrwt>
</event>
<event>
 6    1  0.2003386E-005  0.1733792E+04  0.7818608E-02  0.8742323E-01
          1   -1    0    0  501    0  0.00000000000E+00  0.00000000000E+00  0.34138191313E+04  0.34138191313E+04  0.00000000000E+00 0. -1.
         -1   -1    0    0    0  501 -0.00000000000E+00 -0.00000000000E+00 -0.22013715843E+03  0.22013715843E+03  0.00000000000E+00 0.  1.
         23    2    1    2    0    0 -0.10804511019E+03  0.77617606421E+03  0.83714983141E+03  0.11505379274E+04  0.93779815146E+02 0.  0.
         13    1    3    3    0    0 -0.49453920530E+02  0.41676299584E+03  0.38076770837E+03  0.56667550917E+03  0.00000000000E+00 0.  1.
        -13    1    3    3    0    0 -0.58591189656E+02  0.35941306837E+03  0.45638212304E+03  0.58386241826E+03  0.00000000000E+00 0. -1.
         22    1    1    2    0    0  0.10804511019E+03 -0.77617606421E+03  0.23565321414E+04  0.24834183623E+04  0.00000000000E+00 0. -1.
<mgrwt>
<rscale>  0 0.17337917E+04</rscale>
<asrwt>0</asrwt>
<pdfrwt beam="1">  1        1 0.52520290E+00 0.17337917E+04</pdfrwt>
<pdfrwt beam="2">  1       -1 0.33867258E-01 0.17337917E+04</pdfrwt>
<totfact> 0.22952227E+00</totfact>
</mgrwt>
</event>
<event>
 6    1  0.2003386E-005  0.2185073E+04  0.7818608E-02  0.8524667E-01
          2   -1    0    0  501    0  0.00000000000E+00  0.00000000000E+00  0.14316249587E+04  0.14316249587E+04  0.00000000000E+00 0. -1.
         -2   -1    0    0    0  501 -0.00000000000E+00 -0.00000000000E+00 -0.83376271737E+03  0.83376271737E+03  0.00000000000E+00 0.  1.
         23    2    1    2    0    0 -0.17151378510E+02 -0.10824182720E+04  0.16234827618E+03  0.10985132616E+04  0.91928982115E+02 0.  0.
         13    1    3    3    0    0 -0.49203176883E+02 -0.69269829566E+03  0.12611614920E+03  0.70580249682E+03  0.00000000000E+00 0. -1.
        -13    1    3    3    0    0  0.32051798373E+02 -0.38971997632E+03  0.36232126977E+02  0.39271076475E+03  0.00000000000E+00 0.  1.
         22    1    1    2    0    0  0.17151378510E+02  0.10824182720E+04  0.43551396510E+03  0.11668744145E+04  0.00000000000E+00 0. -1.
<mgrwt>
<rscale>  0 0.21850726E+04</rscale>
<asrwt>0</asrwt>
<pdfrwt beam="1">  1        2 0.22024999E+00 0.21850726E+04</pdfrwt>
<pdfrwt beam="2">  1       -2 0.12827119E+00 0.21850726E+04</pdfrwt>
<totfact> 0.57080873E+00</totfact>
</mgrwt>
</event>
<event>
 6    1  0.2003386E-005  0.2885558E+04  0.7818608E-02  0.8277187E-01
         -2   -1    0    0    0  501 -0.00000000000E+00  0.00000000000E+00  0.10598227086E+04  0.10598227086E+04  0.00000000000E+00 0.  1.
          2   -1    0    0  501    0  0.00000000000E+00 -0.00000000000E+00 -0.19641125809E+04  0.19641125809E+04  0.00000000000E+00 0. -1.
         23    2    1    2    0    0 -0.12479824608E+04 -0.58789771291E+03 -0.89014626594E+03  0.16443397020E+04  0.91699169311E+02 0.  0.
         11    1    3    3    0    0 -0.52480952381E+03 -0.21268417946E+03 -0.40386404528E+03  0.69553271925E+03  0.00000000000E+00 0. -1.
        -11    1    3    3    0    0 -0.72317293698E+03 -0.37521353345E+03 -0.48628222066E+03  0.94880698280E+03  0.00000000000E+00 0.  1.
         22    1    1    2    0    0  0.12479824608E+04  0.58789771291E+03 -0.14143606278E+02  0.13795955874E+04  0.00000000000E+00 0.  1.
<mgrwt>
<rscale>  0 0.28855579E+04</rscale>
<asrwt>0</asrwt>
<pdfrwt beam="1">  1        2 0.30217116E+00 0.28855579E+04</pdfrwt>
<pdfrwt beam="2">  1       -2 0.16304965E+00 0.28855579E+04</pdfrwt>
<totfact> 0.14461171E+00</totfact>
</mgrwt>
</event>
<event>
 6    1  0.2003386E-005  0.3202008E+04  0.7818608E-02  0.8188287E-01
         -2   -1    0    0    0  501 -0.00000000000E+00  0.00000000000E+00  0.64365622469E+03  0.64365622469E+03  0.00000000000E+00 0.  1.
          2   -1    0    0  501    0  0.00000000000E+00 -0.00000000000E+00 -0.39822705026E+04  0.39822705026E+04  0.00000000000E+00 0. -1.
         23    2    1    2    0    0 -0.87210920604E+03 -0.28016169886E+02  0.26641667128E+03  0.91680182812E+03  0.90489647329E+02 0.  0.
         11    1    3    3    0    0 -0.37125236709E+03 -0.46917198654E+02  0.14316529420E+03  0.40065676715E+03  0.00000000000E+00 0. -1.
        -11    1    3    3    0    0 -0.50085683895E+03  0.18901028769E+02  0.12325137708E+03  0.51614506097E+03  0.00000000000E+00 0.  1.
         22    1    1    2    0    0  0.87210920604E+03  0.28016169886E+02 -0.36050309492E+04  0.37091248992E+04  0.00000000000E+00 0. -1.
<mgrwt>
<rscale>  0 0.32020076E+04</rscale>
<asrwt>0</asrwt>
<pdfrwt beam="1">  1        2 0.61265698E+00 0.32020076E+04</pdfrwt>
<pdfrwt beam="2">  1       -2 0.99024037E-01 0.32020076E+04</pdfrwt>
<totfact> 0.25125719E-01</totfact>
</mgrwt>
</event>
<event>
 6    1  0.2003386E-005  0.1679365E+04  0.7818608E-02  0.8773221E-01
          2   -1    0    0  501    0  0.00000000000E+00  0.00000000000E+00  0.21351084090E+04  0.21351084090E+04  0.00000000000E+00 0. -1.
         -2   -1    0    0    0  501 -0.00000000000E+00 -0.00000000000E+00 -0.33022538327E+03  0.33022538327E+03  0.00000000000E+00 0.  1.
         23    2    1    2    0    0  0.65636943534E+03 -0.47527277043E+03  0.59702414752E+03  0.10108139019E+04  0.92746264072E+02 0.  0.
         11    1    3    3    0    0  0.30305056502E+03 -0.23945231368E+03  0.33825572554E+03  0.51341405449E+03  0.00000000000E+00 0. -1.
        -11    1    3    3    0    0  0.35331887032E+03 -0.23582045674E+03  0.25876842198E+03  0.49739984736E+03  0.00000000000E+00 0.  1.
         22    1    1    2    0    0 -0.65636943534E+03  0.47527277043E+03  0.12078588782E+04  0.14545198904E+04  0.00000000000E+00 0. -1.
<mgrwt>
<rscale>  0 0.16793653E+04</rscale>
<asrwt>0</asrwt>
<pdfrwt beam="1">  1        2 0.32847821E+00 0.16793653E+04</pdfrwt>
<pdfrwt beam="2">  1       -2 0.50803907E-01 0.16793653E+04</pdfrwt>
<totfact> 0.19612162E+01</totfact>
</mgrwt>
</event>
<event>
 6    1  0.2003386E-005  0.3243363E+04  0.7818608E-02  0.8177458E-01
         -2   -1    0    0    0  501 -0.00000000000E+00  0.00000000000E+00  0.28710095087E+04  0.28710095087E+04  0.00000000000E+00 0.  1.
          2   -1    0    0  501    0  0.00000000000E+00 -0.00000000000E+00 -0.91600216706E+03  0.91600216706E+03  0.00000000000E+00 0. -1.
         23    2    1    2    0    0 -0.85856123460E+03 -0.53078482469E+03 -0.50179770899E+03  0.11309335556E+04  0.91377473900E+02 0.  0.
         11    1    3    3    0    0 -0.72162003929E+03 -0.48120175760E+03 -0.41668457553E+03  0.96224562774E+03  0.00000000000E+00 0.  1.
        -11    1    3    3    0    0 -0.13694119532E+03 -0.49583067090E+02 -0.85113133457E+02  0.16868792786E+03  0.00000000000E+00 0. -1.
         22    1    1    2    0    0  0.85856123460E+03  0.53078482469E+03  0.24568050506E+04  0.26560781202E+04  0.00000000000E+00 0.  1.
<mgrwt>
<rscale>  0 0.32433630E+04</rscale>
<asrwt>0</asrwt>
<pdfrwt beam="1">  1        2 0.14092341E+00 0.32433630E+04</pdfrwt>
<pdfrwt beam="2">  1       -2 0.44169377E+00 0.32433630E+04</pdfrwt>
<totfact> 0.94407630E-02</totfact>
</mgrwt>
</event>
<event>
 6    1  0.2003386E-005  0.8184568E+03  0.7818608E-02  0.9533679E-01
          1   -1    0    0  501    0  0.00000000000E+00  0.00000000000E+00  0.54420317720E+03  0.54420317720E+03  0.00000000000E+00 0. -1.
         -1   -1    0    0    0  501 -0.00000000000E+00 -0.00000000000E+00 -0.30773042376E+03  0.30773042376E+03  0.00000000000E+00 0.  1.
         23    2    1    2    0    0 -0.17244380230E+03  0.20355174465E+03  0.43606760147E+03  0.51875454842E+03  0.88210831264E+02 0.  0.
         13    1    3    3    0    0 -0.17369670685E+03  0.16395677633E+03  0.34685789417E+03  0.42114459420E+03  0.00000000000E+00 0.  1.
        -13    1    3    3    0    0  0.12529045549E+01  0.39594968315E+02  0.89209707295E+02  0.97609954213E+02  0.00000000000E+00 0. -1.
         22    1    1    2    0    0  0.17244380230E+03 -0.20355174465E+03 -0.19959484803E+03  0.33317905255E+03  0.00000000000E+00 0.  1.
<mgrwt>
<rscale>  0 0.81845678E+03</rscale>
<asrwt>0</asrwt>
<pdfrwt beam="1">  1        1 0.83723566E-01 0.81845678E+03</pdfrwt>
<pdfrwt beam="2">  1       -1 0.47343142E-01 0.81845678E+03</pdfrwt>
<totfact> 0.17717493E+02</totfact>
</mgrwt>
</event>
<event>
 6    1  0.2003386E-005  0.1556751E+04  0.7818608E-02  0.8847567E-01
         -2   -1    0    0    0  501 -0.00000000000E+00  0.00000000000E+00  0.41611207875E+03  0.41611207875E+03  0.00000000000E+00 0.  1.
          2   -1    0    0  501    0  0.00000000000E+00 -0.00000000000E+00 -0.14560230947E+04  0.14560230947E+04  0.00000000000E+00 0. -1.
         23    2    1    2    0    0 -0.62388919695E+03  0.46075983319E+03 -0.53610202158E+03  0.94727796458E+03  0.91612284563E+02 0.  0.
         13    1    3    3    0    0 -0.21707515730E+03  0.10828202405E+03 -0.17437875543E+03  0.29875503510E+03  0.00000000000E+00 0.  1.
        -13    1    3    3    0    0 -0.40681403965E+03  0.35247780914E+03 -0.36172326614E+03  0.64852292948E+03  0.00000000000E+00 0. -1.
         22    1    1    2    0    0  0.62388919695E+03 -0.46075983319E+03 -0.50380899433E+03  0.92485720883E+03  0.00000000000E+00 0.  1.
<mgrwt>
<rscale>  0 0.15567515E+04</rscale>
<asrwt>0</asrwt>
<pdfrwt beam="1">  1        2 0.22400355E+00 0.15567515E+04</pdfrwt>
<pdfrwt beam="2">  1       -2 0.64017243E-01 0.15567515E+04</pdfrwt>
<totfact> 0.29173855E+01</totfact>
</mgrwt>
</event>
<event>
 6    1  0.2003386E-005  0.2706355E+04  0.7818608E-02  0.8332946E-01
          2   -1    0    0  501    0  0.00000000000E+00  0.00000000000E+00  0.12024779856E+04  0.12024779856E+04  0.00000000000E+00 0. -1.
         -2   -1    0    0    0  501 -0.00000000000E+00 -0.00000000000E+00 -0.15227628399E+04  0.15227628399E+04  0.00000000000E+00 0.  1.
         23    2    1    2    0    0 -0.65580400964E+03  0.33058380868E+03  0.98237877091E+03  0.12298154431E+04  0.89517713451E+02 0.  0.
         13    1    3    3    0    0 -0.25553394716E+03  0.84656207417E+02  0.38694413599E+03  0.47137038089E+03  0.00000000000E+00 0.  1.
        -13    1    3    3    0    0 -0.40027006248E+03  0.24592760126E+03  0.59543463492E+03  0.75844506225E+03  0.00000000000E+00 0. -1.
         22    1    1    2    0    0  0.65580400964E+03 -0.33058380868E+03 -0.13026636252E+04  0.14954253823E+04  0.00000000000E+00 0.  1.
<mgrwt>
<rscale>  0 0.27063546E+04</rscale>
<asrwt>0</asrwt>
<pdfrwt beam="1">  1        2 0.18499661E+00 0.27063546E+04</pdfrwt>
<pdfrwt beam="2">  1       -2 0.23427120E+00 0.27063546E+04</pdfrwt>
<totfact> 0.13307630E+00</totfact>
</mgrwt>
</event>
<event>
 6    1  0.2003386E-005  0.3370840E+03  0.7818608E-02  0.1068045E+00
         -1   -1    0    0    0  501 -0.00000000000E+00  0.00000000000E+00  0.25690891263E+02  0.25690891263E+02  0.00000000000E+00 0.  1.
          1   -1    0    0  501    0  0.00000000000E+00 -0.00000000000E+00 -0.11056996637E+04  0.11056996637E+04  0.00000000000E+00 0. -1.
         23    2    1    2    0    0  0.32535291096E+02  0.67600158482E+02 -0.10395704197E+04  0.10461638751E+04  0.90132509933E+02 0.  0.
         13    1    3    3    0    0  0.14436589025E+01 -0.22137177158E+02 -0.17935272232E+03  0.18071950024E+03  0.00000000000E+00 0. -1.
        -13    1    3    3    0    0  0.31091632193E+02  0.89737335640E+02 -0.86021769741E+03  0.86544437484E+03  0.00000000000E+00 0.  1.
         22    1    1    2    0    0 -0.32535291096E+02 -0.67600158482E+02 -0.40438352694E+02  0.85226679872E+02  0.00000000000E+00 0.  1.
<mgrwt>
<rscale>  0 0.33708402E+03</rscale>
<asrwt>0</asrwt>
<pdfrwt beam="1">  1        1 0.17010765E+00 0.33708402E+03</pdfrwt>
<pdfrwt beam="2">  1       -1 0.39524445E-02 0.33708402E+03</pdfrwt>
<totfact> 0.33541628E+03</totfact>
</mgrwt>
</event>
<event>
 6    1  0.2003386E-005  0.1445762E+04  0.7818608E-02  0.8921344E-01
          2   -1    0    0  501    0  0.00000000000E+00  0.00000000000E+00  0.13559064664E+04  0.13559064664E+04  0.00000000000E+00 0. -1.
         -2   -1    0    0    0  501 -0.00000000000E+00 -0.00000000000E+00 -0.38539304277E+03  0.38539304277E+03  0.00000000000E+00 0.  1.
         23    2    1    2    0    0 -0.51905795027E+03 -0.76703181716E+02  0.10809859608E+04  0.12051011175E+04  0.91834210094E+02 0.  0.
         11    1    3    3    0    0 -0.35790148431E+03 -0.17772893246E+02  0.78612400981E+03  0.86394462033E+03  0.00000000000E+00 0. -1.
        -11    1    3    3    0    0 -0.16115646596E+03 -0.58930288470E+02  0.29486195097E+03  0.34115649715E+03  0.00000000000E+00 0.  1.
         22    1    1    2    0    0  0.51905795027E+03  0.76703181716E+02 -0.11047253711E+03  0.53619839172E+03  0.00000000000E+00 0.  1.
<mgrwt>
<rscale>  0 0.14457620E+04</rscale>
<asrwt>0</asrwt>
<pdfrwt beam="1">  1        2 0.20860099E+00 0.14457620E+04</pdfrwt>
<pdfrwt beam="2">  1       -2 0.59291238E-01 0.14457620E+04</pdfrwt>
<totfact> 0.39520126E+01</totfact>
</mgrwt>
</event>
<event>
 6    1  0.2003386E-005  0.4268830E+04  0.7818608E-02  0.7952407E-01
          2   -1    0    0  501    0  0.00000000000E+00  0.00000000000E+00  0.52144905620E+04  0.52144905620E+04  0.00000000000E+00 0. -1.
         -2   -1    0    0    0  501 -0.00000000000E+00 -0.00000000000E+00 -0.87366679862E+03  0.87366679862E+03  0.00000000000E+00 0.  1.
         23    2    1    2    0    0 -0.14971719500E+03 -0.21171115285E+04  0.18625910447E+04  0.28253037215E+04  0.92299815649E+02 0.  0.
         13    1    3    3    0    0 -0.14063284658E+03 -0.15031213557E+04  0.12918326365E+04  0.19869531872E+04  0.00000000000E+00 0. -1.
        -13    1    3    3    0    0 -0.90843484191E+01 -0.61399017285E+03  0.57075840817E+03  0.83835053423E+03  0.00000000000E+00 0.  1.
         22    1    1    2    0    0  0.14971719500E+03  0.21171115285E+04  0.24782327187E+04  0.32628536391E+04  0.00000000000E+00 0. -1.
<mgrwt>
<rscale>  0 0.42688299E+04</rscale>
<asrwt>0</asrwt>
<pdfrwt beam="1">  1        2 0.80222930E+00 0.42688299E+04</pdfrwt>
<pdfrwt beam="2">  1       -2 0.13441028E+00 0.42688299E+04</pdfrwt>
<totfact> 0.53189177E-03</totfact>
</mgrwt>
</event>
<event>
 6    1  0.2003386E-005  0.4639629E+04  0.7818608E-02  0.7886638E-01
         -2   -1    0    0    0  501 -0.00000000000E+00  0.00000000000E+00  0.13378901035E+04  0.13378901035E+04  0.00000000000E+00 0.  1.
          2   -1    0    0  501    0  0.00000000000E+00 -0.00000000000E+00 -0.40224074108E+04  0.40224074108E+04  0.00000000000E+00 0. -1.
         23    2    1    2    0    0  0.70095666469E+03 -0.14119212933E+04 -0.33076810200E+04  0.36652473684E+04  0.91774487864E+02 0.  0.
         13    1    3    3    0    0  0.35078028651E+03 -0.75427957332E+03 -0.16503628512E+04  0.18481563853E+04  0.00000000000E+00 0. -1.
        -13    1    3    3    0    0  0.35017637818E+03 -0.65764172001E+03 -0.16573181689E+04  0.18170909830E+04  0.00000000000E+00 0.  1.
         22    1    1    2    0    0 -0.70095666469E+03  0.14119212933E+04  0.62316371274E+03  0.16950501459E+04  0.00000000000E+00 0.  1.
<mgrwt>
<rscale>  0 0.46396289E+04</rscale>
<asrwt>0</asrwt>
<pdfrwt beam="1">  1        2 0.61883190E+00 0.46396289E+04</pdfrwt>
<pdfrwt beam="2">  1       -2 0.20582925E+00 0.46396289E+04</pdfrwt>
<totfact> 0.29812146E-02</totfact>
</mgrwt>
</event>
<event>
 6    1  0.2003386E-005  0.1655365E+04  0.7818608E-02  0.8787239E-01
          1   -1    0    0  501    0  0.00000000000E+00  0.00000000000E+00  0.14575478111E+04  0.14575478111E+04  0.00000000000E+00 0. -1.
         -1   -1    0    0    0  501 -0.00000000000E+00 -0.00000000000E+00 -0.47000758809E+03  0.47000758809E+03  0.00000000000E+00 0.  1.
         23    2    1    2    0    0 -0.53868675764E+03 -0.59025448473E+03  0.25563763295E+03  0.84392022952E+03  0.90922905871E+02 0.  0.
         11    1    3    3    0    0 -0.29312564765E+03 -0.26896061106E+03  0.15695653451E+03  0.42766553443E+03  0.00000000000E+00 0. -1.
        -11    1    3    3    0    0 -0.24556111000E+03 -0.32129387367E+03  0.98681098440E+02  0.41625469509E+03  0.00000000000E+00 0.  1.
         22    1    1    2    0    0  0.53868675764E+03  0.59025448473E+03  0.73190259003E+03  0.10836351696E+04  0.00000000000E+00 0. -1.
<mgrwt>
<rscale>  0 0.16553653E+04</rscale>
<asrwt>0</asrwt>
<pdfrwt beam="1">  1        1 0.22423812E+00 0.16553653E+04</pdfrwt>
<pdfrwt beam="2">  1       -1 0.72308860E-01 0.16553653E+04</pdfrwt>
<totfact> 0.12903711E+01</totfact>
</mgrwt>
</event>
<event>
 6    1  0.2003386E-005  0.3194165E+04  0.7818608E-02  0.8190360E-01
          1   -1    0    0  501    0  0.00000000000E+00  0.00000000000E+00  0.16179311228E+04  0.16179311228E+04  0.00000000000E+00 0. -1.
         -1   -1    0    0    0  501 -0.00000000000E+00 -0.00000000000E+00 -0.15765021823E+04  0.15765021823E+04  0.00000000000E+00 0.  1.
         23    2    1    2    0    0  0.12287737112E+03 -0.11582569089E+04  0.11115714188E+04  0.16127055032E+04  0.92574865147E+02 0.  0.
         11    1    3    3    0    0  0.10381318140E+03 -0.54788738072E+03  0.51870180458E+03  0.76158342987E+03  0.00000000000E+00 0.  1.
        -11    1    3    3    0    0  0.19064189713E+02 -0.61036952823E+03  0.59286961420E+03  0.85112207336E+03  0.00000000000E+00 0. -1.
         22    1    1    2    0    0 -0.12287737112E+03  0.11582569089E+04 -0.10701424783E+04  0.15817278019E+04  0.00000000000E+00 0.  1.
<mgrwt>
<rscale>  0 0.31941646E+04</rscale>
<asrwt>0</asrwt>
<pdfrwt beam="1">  1        1 0.24891248E+00 0.31941646E+04</pdfrwt>
<pdfrwt beam="2">  1       -1 0.24253880E+00 0.31941646E+04</pdfrwt>
<totfact> 0.35424747E-01</totfact>
</mgrwt>
</event>
<event>
 6    1  0.2003386E-005  0.4617837E+04  0.7818608E-02  0.7890326E-01
          2   -1    0    0  501    0  0.00000000000E+00  0.00000000000E+00  0.24355817438E+04  0.24355817438E+04  0.00000000000E+00 0.  1.
         -2   -1    0    0    0  501 -0.00000000000E+00 -0.00000000000E+00 -0.21888426135E+04  0.21888426135E+04  0.00000000000E+00 0. -1.
         23    2    1    2    0    0  0.21007674233E+04 -0.88819711398E+03 -0.23076499819E+03  0.22941608372E+04  0.88337888619E+02 0.  0.
         13    1    3    3    0    0  0.57992474049E+03 -0.28743202012E+03 -0.56967446525E+02  0.64975007564E+03  0.00000000000E+00 0. -1.
        -13    1    3    3    0    0  0.15208426828E+04 -0.60076509386E+03 -0.17379755166E+03  0.16444107616E+04  0.00000000000E+00 0.  1.
         22    1    1    2    0    0 -0.21007674233E+04  0.88819711398E+03  0.47750412852E+03  0.23302635200E+04  0.00000000000E+00 0.  1.
<mgrwt>
<rscale>  0 0.46178372E+04</rscale>
<asrwt>0</asrwt>
<pdfrwt beam="1">  1        2 0.37470488E+00 0.46178372E+04</pdfrwt>
<pdfrwt beam="2">  1       -2 0.33674502E+00 0.46178372E+04</pdfrwt>
<totfact> 0.53640220E-02</totfact>
</mgrwt>
</event>
<event>
 6    1  0.2003386E-005  0.2835951E+04  0.7818608E-02  0.8292193E-01
         -2   -1    0    0    0  501 -0.00000000000E+00  0.00000000000E+00  0.82575813143E+03  0.82575813143E+03  0.00000000000E+00 0.  1.
          2   -1    0    0  501    0  0.00000000000E+00 -0.00000000000E+00 -0.24349188480E+04  0.24349188480E+04  0.00000000000E+00 0. -1.
         23    2    1    2    0    0 -0.10026027556E+04  0.21141017060E+03 -0.19300708429E+04  0.21869498936E+04  0.87577581145E+02 0.  0.
         13    1    3    3    0    0 -0.15919128293E+03  0.49574380455E+02 -0.25717083382E+03  0.30649032860E+03  0.00000000000E+00 0. -1.
        -13    1    3    3    0    0 -0.84341147266E+03  0.16183579015E+03 -0.16729000090E+04  0.18804595649E+04  0.00000000000E+00 0.  1.
         22    1    1    2    0    0  0.10026027556E+04 -0.21141017060E+03  0.32091012630E+03  0.10737270859E+04  0.00000000000E+00 0. -1.
<mgrwt>
<rscale>  0 0.28359507E+04</rscale>
<asrwt>0</asrwt>
<pdfrwt beam="1">  1        2 0.37460290E+00 0.28359507E+04</pdfrwt>
<pdfrwt beam="2">  1       -2 0.12703971E+00 0.28359507E+04</pdfrwt>
<totfact> 0.15158125E+00</totfact>
</mgrwt>
</event>
<event>
 6    1  0.2003386E-005  0.1911291E+04  0.7818608E-02  0.8649257E-01
         -2   -1    0    0    0  501 -0.00000000000E+00  0.00000000000E+00  0.20691655002E+03  0.20691655002E+03  0.00000000000E+00 0.  1.
          2   -1    0    0  501    0  0.00000000000E+00 -0.00000000000E+00 -0.44136545124E+04  0.44136545124E+04  0.00000000000E+00 0. -1.
         23    2    1    2    0    0 -0.27891813348E+03 -0.62511510333E+03 -0.50385159192E+03  0.85494605585E+03  0.92206909390E+02 0.  0.
         11    1    3    3    0    0 -0.14134238767E+03 -0.32089237893E+03 -0.31499550228E+03  0.47135099010E+03  0.00000000000E+00 0. -1.
        -11    1    3    3    0    0 -0.13757574581E+03 -0.30422272441E+03 -0.18885608964E+03  0.38359506576E+03  0.00000000000E+00 0.  1.
         22    1    1    2    0    0  0.27891813348E+03  0.62511510333E+03 -0.37028863705E+04  0.37656250066E+04  0.00000000000E+00 0. -1.
<mgrwt>
<rscale>  0 0.19112908E+04</rscale>
<asrwt>0</asrwt>
<pdfrwt beam="1">  1        2 0.67902378E+00 0.19112908E+04</pdfrwt>
<pdfrwt beam="2">  1       -2 0.31833315E-01 0.19112908E+04</pdfrwt>
<totfact> 0.13020191E+00</totfact>
</mgrwt>
</event>
<event>
 6    1  0.2003386E-005  0.8851137E+03  0.7818608E-02  0.9444384E-01
          2   -1    0    0  501    0  0.00000000000E+00  0.00000000000E+00  0.13299799052E+04  0.13299799052E+04  0.00000000000E+00 0. -1.
         -2   -1    0    0    0  501 -0.00000000000E+00 -0.00000000000E+00 -0.14726278996E+03  0.14726278996E+03  0.00000000000E+00 0.  1.
         23    2    1    2    0    0  0.30817646707E+03  0.30957521763E+03  0.54677989211E+03  0.70573397714E+03  0.91009042708E+02 0.  0.
         11    1    3    3    0    0  0.19642093361E+03  0.25278119230E+03  0.37457635314E+03  0.49273416633E+03  0.00000000000E+00 0. -1.
        -11    1    3    3    0    0  0.11175553345E+03  0.56794025329E+02  0.17220353897E+03  0.21299981081E+03  0.00000000000E+00 0.  1.
         22    1    1    2    0    0 -0.30817646707E+03 -0.30957521763E+03  0.63593722312E+03  0.77150871802E+03  0.00000000000E+00 0.  1.
<mgrwt>
<rscale>  0 0.88511367E+03</rscale>
<asrwt>0</asrwt>
<pdfrwt beam="1">  1        2 0.20461229E+00 0.88511367E+03</pdfrwt>
<pdfrwt beam="2">  1       -2 0.22655815E-01 0.88511367E+03</pdfrwt>
<totfact> 0.27264319E+02</totfact>
</mgrwt>
</event>
<event>
 6    1  0.2003386E-005  0.1416860E+04  0.7818608E-02  0.8941704E-01
         -2   -1    0    0    0  501 -0.00000000000E+00  0.00000000000E+00  0.19837173597E+03  0.19837173597E+03  0.00000000000E+00 0.  1.
          2   -1    0    0  501    0  0.00000000000E+00 -0.00000000000E+00 -0.25299630333E+04  0.25299630333E+04  0.00000000000E+00 0. -1.
         23    2    1    2    0    0  0.66721825582E+03  0.22714283808E+03 -0.11085525783E+04  0.13167407136E+04  0.90239781394E+02 0.  0.
         13    1    3    3    0    0  0.15336830929E+03  0.68205224567E+02 -0.33321789239E+03  0.37310582247E+03  0.00000000000E+00 0. -1.
        -13    1    3    3    0    0  0.51384994654E+03  0.15893761351E+03 -0.77533468593E+03  0.94363489113E+03  0.00000000000E+00 0.  1.
         22    1    1    2    0    0 -0.66721825582E+03 -0.22714283808E+03 -0.12230387190E+04  0.14115940556E+04  0.00000000000E+00 0. -1.
<mgrwt>
<rscale>  0 0.14168601E+04</rscale>
<asrwt>0</asrwt>
<pdfrwt beam="1">  1        2 0.38922507E+00 0.14168601E+04</pdfrwt>
<pdfrwt beam="2">  1       -2 0.30518729E-01 0.14168601E+04</pdfrwt>
<totfact> 0.32407553E+01</totfact>
</mgrwt>
</event>
<event>
 6    1  0.2003386E-005  0.2617370E+04  0.7818608E-02  0.8362325E-01
          2   -1    0    0  501    0  0.00000000000E+00  0.00000000000E+00  0.14937748944E+04  0.14937748944E+04  0.00000000000E+00 0. -1.
         -2   -1    0    0    0  501 -0.00000000000E+00 -0.00000000000E+00 -0.11465290706E+04  0.11465290706E+04  0.00000000000E+00 0.  1.
         23    2    1    2    0    0 -0.10956559909E+04 -0.69024526165E+03 -0.53086570246E+01  0.12982178152E+04  0.91873512500E+02 0.  0.
         13    1    3    3    0    0 -0.53505042769E+03 -0.29186046287E+03 -0.27775162440E+02  0.61010896536E+03  0.00000000000E+00 0.  1.
        -13    1    3    3    0    0 -0.56060556319E+03 -0.39838479878E+03  0.22466505415E+02  0.68810884985E+03  0.00000000000E+00 0. -1.
         22    1    1    2    0    0  0.10956559909E+04  0.69024526165E+03  0.35255448076E+03  0.13420861498E+04  0.00000000000E+00 0. -1.
<mgrwt>
<rscale>  0 0.26173699E+04</rscale>
<asrwt>0</asrwt>
<pdfrwt beam="1">  1        2 0.22981152E+00 0.26173699E+04</pdfrwt>
<pdfrwt beam="2">  1       -2 0.17638909E+00 0.26173699E+04</pdfrwt>
<totfact> 0.21719888E+00</totfact>
</mgrwt>
</event>
<event>
 6    1  0.2003386E-005  0.2161123E+04  0.7818608E-02  0.8534786E-01
          1   -1    0    0  501    0  0.00000000000E+00  0.00000000000E+00  0.11267218778E+04  0.11267218778E+04  0.00000000000E+00 0. -1.
         -1   -1    0    0    0  501 -0.00000000000E+00 -0.00000000000E+00 -0.10362925948E+04  0.10362925948E+04  0.00000000000E+00 0.  1.
         23    2    1    2    0    0  0.26358970474E+03  0.91040629526E+03  0.56065788418E+03  0.11049813482E+04  0.91254379632E+02 0.  0.
         13    1    3    3    0    0  0.19020022249E+03  0.57638369859E+03  0.31436494213E+03  0.68353464395E+03  0.00000000000E+00 0. -1.
        -13    1    3    3    0    0  0.73389482253E+02  0.33402259667E+03  0.24629294205E+03  0.42144670422E+03  0.00000000000E+00 0.  1.
         22    1    1    2    0    0 -0.26358970474E+03 -0.91040629526E+03 -0.47022860117E+03  0.10580331244E+04  0.00000000000E+00 0.  1.
<mgrwt>
<rscale>  0 0.21611234E+04</rscale>
<asrwt>0</asrwt>
<pdfrwt beam="1">  1        1 0.17334183E+00 0.21611234E+04</pdfrwt>
<pdfrwt beam="2">  1       -1 0.15942963E+00 0.21611234E+04</pdfrwt>
<totfact> 0.32692205E+00</totfact>
</mgrwt>
</event>
<event>
 6    1  0.2003386E-005  0.2347681E+04  0.7818608E-02  0.8459355E-01
          2   -1    0    0  501    0  0.00000000000E+00  0.00000000000E+00  0.32235125577E+04  0.32235125577E+04  0.00000000000E+00 0. -1.
         -2   -1    0    0    0  501 -0.00000000000E+00 -0.00000000000E+00 -0.42745331933E+03  0.42745331933E+03  0.00000000000E+00 0.  1.
         23    2    1    2    0    0 -0.36252034770E+03  0.10876453899E+04  0.17790322179E+04  0.21184067568E+04  0.91093678713E+02 0.  0.
         11    1    3    3    0    0 -0.25524505936E+03  0.63239425085E+03  0.10826556349E+04  0.12795373197E+04  0.00000000000E+00 0. -1.
        -11    1    3    3    0    0 -0.10727528835E+03  0.45525113903E+03  0.69637658302E+03  0.83886943707E+03  0.00000000000E+00 0.  1.
         22    1    1    2    0    0  0.36252034770E+03 -0.10876453899E+04  0.10170270205E+04  0.15325591202E+04  0.00000000000E+00 0.  1.
<mgrwt>
<rscale>  0 0.23476807E+04</rscale>
<asrwt>0</asrwt>
<pdfrwt beam="1">  1        2 0.49592499E+00 0.23476807E+04</pdfrwt>
<pdfrwt beam="2">  1       -2 0.65762051E-01 0.23476807E+04</pdfrwt>
<totfact> 0.24094562E+00</totfact>
</mgrwt>
</event>
<event>
 6    1  0.2003386E-005  0.2963460E+04  0.7818608E-02  0.8254243E-01
         -1   -1    0    0    0  501 -0.00000000000E+00  0.00000000000E+00  0.12127534438E+04  0.12127534438E+04  0.00000000000E+00 0.  1.
          1   -1    0    0  501    0  0.00000000000E+00 -0.00000000000E+00 -0.18103622807E+04  0.18103622807E+04  0.00000000000E+00 0. -1.
         23    2    1    2    0    0 -0.42143565501E+03  0.85754211266E+03  0.85443793464E+03  0.12848906777E+04  0.88844714271E+02 0.  0.
         11    1    3    3    0    0 -0.29843854660E+03  0.60808448108E+03  0.55010936783E+03  0.87261252501E+03  0.00000000000E+00 0.  1.
        -11    1    3    3    0    0 -0.12299710841E+03  0.24945763158E+03  0.30432856681E+03  0.41227815272E+03  0.00000000000E+00 0. -1.
         22    1    1    2    0    0  0.42143565501E+03 -0.85754211266E+03 -0.14520467716E+04  0.17382250467E+04  0.00000000000E+00 0. -1.
<mgrwt>
<rscale>  0 0.29634595E+04</rscale>
<asrwt>0</asrwt>
<pdfrwt beam="1">  1        1 0.27851727E+00 0.29634595E+04</pdfrwt>
<pdfrwt beam="2">  1       -1 0.18657745E+00 0.29634595E+04</pdfrwt>
<totfact> 0.63926518E-01</totfact>
</mgrwt>
</event>
<event>
 6    1  0.2003386E-005  0.2220561E+04  0.7818608E-02  0.8509919E-01
          2   -1    0    0  501    0  0.00000000000E+00  0.00000000000E+00  0.14563895470E+04  0.14563895470E+04  0.00000000000E+00 0. -1.
         -2   -1    0    0    0  501 -0.00000000000E+00 -0.00000000000E+00 -0.84642374742E+03  0.84642374742E+03  0.00000000000E+00 0.  1.
         23    2    1    2    0    0  0.98156906522E+03 -0.50731914704E+03  0.39606869994E+03  0.11773789267E+04  0.92196394828E+02 0.  0.
         13    1    3    3    0    0  0.19088132922E+03 -0.90969225647E+02  0.11450164577E+03  0.24046144960E+03  0.00000000000E+00 0.  1.
        -13    1    3    3    0    0  0.79068773599E+03 -0.41634992139E+03  0.28156705416E+03  0.93691747709E+03  0.00000000000E+00 0. -1.
         22    1    1    2    0    0 -0.98156906522E+03  0.50731914704E+03  0.21389709959E+03  0.11254343677E+04  0.00000000000E+00 0.  1.
<mgrwt>
<rscale>  0 0.22205609E+04</rscale>
<asrwt>0</asrwt>
<pdfrwt beam="1">  1        2 0.22405993E+00 0.22205609E+04</pdfrwt>
<pdfrwt beam="2">  1       -2 0.13021904E+00 0.22205609E+04</pdfrwt>
<totfact> 0.53034499E+00</totfact>
</mgrwt>
</event>
<event>
 6    1  0.2003386E-005  0.1886096E+04  0.7818608E-02  0.8661808E-01
          2   -1    0    0  501    0  0.00000000000E+00  0.00000000000E+00  0.27155559731E+04  0.27155559731E+04  0.00000000000E+00 0. -1.
         -2   -1    0    0    0  501 -0.00000000000E+00 -0.00000000000E+00 -0.32749827890E+03  0.32749827890E+03  0.00000000000E+00 0.  1.
         23    2    1    2    0    0  0.52372956073E+03  0.62414214911E+03  0.43782441407E+03  0.92946585261E+03  0.91490319332E+02 0.  0.
         11    1    3    3    0    0  0.12089201721E+03  0.15063985424E+03  0.14915132300E+03  0.24403557664E+03  0.00000000000E+00 0. -1.
        -11    1    3    3    0    0  0.40283754352E+03  0.47350229487E+03  0.28867309108E+03  0.68543027597E+03  0.00000000000E+00 0.  1.
         22    1    1    2    0    0 -0.52372956073E+03 -0.62414214911E+03  0.19502332801E+04  0.21135883994E+04  0.00000000000E+00 0. -1.
<mgrwt>
<rscale>  0 0.18860964E+04</rscale>
<asrwt>0</asrwt>
<pdfrwt beam="1">  1        2 0.41777783E+00 0.18860964E+04</pdfrwt>
<pdfrwt beam="2">  1       -2 0.50384352E-01 0.18860964E+04</pdfrwt>
<totfact> 0.90948309E+00</totfact>
</mgrwt>
</event>
<event>
 6    1  0.2003386E-005  0.7130522E+03  0.7818608E-02  0.9695168E-01
         -2   -1    0    0    0  501 -0.00000000000E+00  0.00000000000E+00  0.46667949690E+02  0.46667949690E+02  0.00000000000E+00 0.  1.
          2   -1    0    0  501    0  0.00000000000E+00 -0.00000000000E+00 -0.27237289824E+04  0.27237289824E+04  0.00000000000E+00 0. -1.
         23    2    1    2    0    0 -0.27733182831E+03  0.94148366154E+02 -0.21101575444E+04  0.21323088325E+04  0.90549637839E+02 0.  0.
         13    1    3    3    0    0 -0.18959722637E+03  0.27881742994E+02 -0.15159664900E+04  0.15280310529E+04  0.00000000000E+00 0. -1.
        -13    1    3    3    0    0 -0.87734601934E+02  0.66266623160E+02 -0.59419105440E+03  0.60427777954E+03  0.00000000000E+00 0.  1.
         22    1    1    2    0    0  0.27733182831E+03 -0.94148366154E+02 -0.56690348829E+03  0.63808809962E+03  0.00000000000E+00 0. -1.
<mgrwt>
<rscale>  0 0.71305216E+03</rscale>
<asrwt>0</asrwt>
<pdfrwt beam="1">  1        2 0.41903521E+00 0.71305216E+03</pdfrwt>
<pdfrwt beam="2">  1       -2 0.71796848E-02 0.71305216E+03</pdfrwt>
<totfact> 0.31529213E+02</totfact>
</mgrwt>
</event>
<event>
 6    1  0.2003386E-005  0.1564228E+04  0.7818608E-02  0.8842830E-01
          2   -1    0    0  501    0  0.00000000000E+00  0.00000000000E+00  0.19790870070E+04  0.19790870070E+04  0.00000000000E+00 0.  1.
         -2   -1    0    0    0  501 -0.00000000000E+00 -0.00000000000E+00 -0.30908326095E+03  0.30908326095E+03  0.00000000000E+00 0. -1.
         23    2    1    2    0    0 -0.27005187295E+03 -0.36272643953E+03 -0.91032875248E+02  0.46999853087E+03  0.90073029367E+02 0.  0.
         13    1    3    3    0    0 -0.11375588667E+03 -0.11876464356E+03 -0.72339741062E+02  0.17966212859E+03  0.00000000000E+00 0. -1.
        -13    1    3    3    0    0 -0.15629598628E+03 -0.24396179597E+03 -0.18693134186E+02  0.29033640228E+03  0.00000000000E+00 0.  1.
         22    1    1    2    0    0  0.27005187295E+03  0.36272643953E+03  0.17610366213E+04  0.18181717371E+04  0.00000000000E+00 0.  1.
<mgrwt>
<rscale>  0 0.15642285E+04</rscale>
<asrwt>0</asrwt>
<pdfrwt beam="1">  1        2 0.30447492E+00 0.15642285E+04</pdfrwt>
<pdfrwt beam="2">  1       -2 0.47551272E-01 0.15642285E+04</pdfrwt>
<totfact> 0.27661935E+01</totfact>
</mgrwt>
</event>
<event>
 6    1  0.2003386E-005  0.1430756E+04  0.7818608E-02  0.8931852E-01
         -2   -1    0    0    0  501 -0.00000000000E+00  0.00000000000E+00  0.20683961373E+03  0.20683961373E+03  0.00000000000E+00 0.  1.
          2   -1    0    0  501    0  0.00000000000E+00 -0.00000000000E+00 -0.24742153981E+04  0.24742153981E+04  0.00000000000E+00 0. -1.
         23    2    1    2    0    0 -0.48552228984E+03 -0.43149858549E+03 -0.16865499219E+04  0.18096873479E+04  0.92707792820E+02 0.  0.
         11    1    3    3    0    0 -0.27433033133E+03 -0.21899480228E+03 -0.10255461740E+04  0.10839560919E+04  0.00000000000E+00 0.  1.
        -11    1    3    3    0    0 -0.21119195851E+03 -0.21250378321E+03 -0.66100374790E+03  0.72573125601E+03  0.00000000000E+00 0. -1.
         22    1    1    2    0    0  0.48552228984E+03  0.43149858549E+03 -0.58082586241E+03  0.87136766388E+03  0.00000000000E+00 0. -1.
<mgrwt>
<rscale>  0 0.14307561E+04</rscale>
<asrwt>0</asrwt>
<pdfrwt beam="1">  1        2 0.38064853E+00 0.14307561E+04</pdfrwt>
<pdfrwt beam="2">  1       -2 0.31821478E-01 0.14307561E+04</pdfrwt>
<totfact> 0.32224199E+01</totfact>
</mgrwt>
</event>
<event>
 6    1  0.2003386E-005  0.1856695E+04  0.7818608E-02  0.8676717E-01
          2   -1    0    0  501    0  0.00000000000E+00  0.00000000000E+00  0.23209854540E+04  0.23209854540E+04  0.00000000000E+00 0. -1.
         -2   -1    0    0    0  501 -0.00000000000E+00 -0.00000000000E+00 -0.37132046426E+03  0.37132046426E+03  0.00000000000E+00 0.  1.
         23    2    1    2    0    0  0.69729510287E+03  0.45432344323E+03  0.38816053268E+03  0.92286351430E+03  0.91532591658E+02 0.  0.
         13    1    3    3    0    0  0.30280761138E+03  0.14379034498E+03  0.15638492100E+03  0.36989776471E+03  0.00000000000E+00 0.  1.
        -13    1    3    3    0    0  0.39448749149E+03  0.31053309824E+03  0.23177561168E+03  0.55296574959E+03  0.00000000000E+00 0. -1.
         22    1    1    2    0    0 -0.69729510287E+03 -0.45432344323E+03  0.15615044571E+04  0.17694424040E+04  0.00000000000E+00 0.  1.
<mgrwt>
<rscale>  0 0.18566953E+04</rscale>
<asrwt>0</asrwt>
<pdfrwt beam="1">  1        2 0.35707467E+00 0.18566953E+04</pdfrwt>
<pdfrwt beam="2">  1       -2 0.57126227E-01 0.18566953E+04</pdfrwt>
<totfact> 0.11910862E+01</totfact>
</mgrwt>
</event>
<event>
 6    1  0.2003386E-005  0.4595590E+04  0.7818608E-02  0.7894112E-01
          1   -1    0    0  501    0  0.00000000000E+00  0.00000000000E+00  0.26734614286E+04  0.26734614286E+04  0.00000000000E+00 0. -1.
         -1   -1    0    0    0  501 -0.00000000000E+00 -0.00000000000E+00 -0.19749162856E+04  0.19749162856E+04  0.00000000000E+00 0.  1.
         23    2    1    2    0    0 -0.92430304059E+03 -0.96024071502E+03 -0.15427738672E+04  0.20407141532E+04  0.89245212239E+02 0.  0.
         11    1    3    3    0    0 -0.32163309244E+03 -0.37386580322E+03 -0.62147342481E+03  0.79338055353E+03  0.00000000000E+00 0. -1.
        -11    1    3    3    0    0 -0.60266994815E+03 -0.58637491180E+03 -0.92130044243E+03  0.12473335996E+04  0.00000000000E+00 0.  1.
         22    1    1    2    0    0  0.92430304059E+03  0.96024071502E+03  0.22413190103E+04  0.26076635610E+04  0.00000000000E+00 0. -1.
<mgrwt>
<rscale>  0 0.45955903E+04</rscale>
<asrwt>0</asrwt>
<pdfrwt beam="1">  1        1 0.41130176E+00 0.45955903E+04</pdfrwt>
<pdfrwt beam="2">  1       -1 0.30383328E+00 0.45955903E+04</pdfrwt>
<totfact> 0.23827073E-02</totfact>
</mgrwt>
</event>
<event>
 6    1  0.2003386E-005  0.2149016E+04  0.7818608E-02  0.8539954E-01
          2   -1    0    0  501    0  0.00000000000E+00  0.00000000000E+00  0.20948847369E+04  0.20948847369E+04  0.00000000000E+00 0. -1.
         -2   -1    0    0    0  501 -0.00000000000E+00 -0.00000000000E+00 -0.55113630231E+03  0.55113630231E+03  0.00000000000E+00 0.  1.
         23    2    1    2    0    0 -0.29573696374E+03 -0.10174395376E+04  0.97777936228E+03  0.14447864429E+04  0.93337130292E+02 0.  0.
         13    1    3    3    0    0 -0.14985676431E+03 -0.36062175561E+03  0.34235673989E+03  0.51933923189E+03  0.00000000000E+00 0.  1.
        -13    1    3    3    0    0 -0.14588019942E+03 -0.65681778203E+03  0.63542262239E+03  0.92544721103E+03  0.00000000000E+00 0. -1.
         22    1    1    2    0    0  0.29573696374E+03  0.10174395376E+04  0.56596907228E+03  0.12012345963E+04  0.00000000000E+00 0. -1.
<mgrwt>
<rscale>  0 0.21490156E+04</rscale>
<asrwt>0</asrwt>
<pdfrwt beam="1">  1        2 0.32228995E+00 0.21490156E+04</pdfrwt>
<pdfrwt beam="2">  1       -2 0.84790202E-01 0.21490156E+04</pdfrwt>
<totfact> 0.65775921E+00</totfact>
</mgrwt>
</event>
<event>
 6    1  0.2003386E-005  0.9774228E+03  0.7818608E-02  0.9333660E-01
         -2   -1    0    0    0  501 -0.00000000000E+00  0.00000000000E+00  0.18007750918E+03  0.18007750918E+03  0.00000000000E+00 0.  1.
          2   -1    0    0  501    0  0.00000000000E+00 -0.00000000000E+00 -0.13263112838E+04  0.13263112838E+04  0.00000000000E+00 0. -1.
         23    2    1    2    0    0  0.41359931311E+03 -0.19657002908E+03 -0.33302074438E+03  0.57310448436E+03  0.88553744566E+02 0.  0.
         13    1    3    3    0    0  0.69667831177E+02 -0.73108696625E+02 -0.70495507903E+02  0.12315886025E+03  0.00000000000E+00 0. -1.
        -13    1    3    3    0    0  0.34393148193E+03 -0.12346133245E+03 -0.26252523647E+03  0.44994562412E+03  0.00000000000E+00 0.  1.
         22    1    1    2    0    0 -0.41359931311E+03  0.19657002908E+03 -0.81321303022E+03  0.93328430859E+03  0.00000000000E+00 0. -1.
<mgrwt>
<rscale>  0 0.97742280E+03</rscale>
<asrwt>0</asrwt>
<pdfrwt beam="1">  1        2 0.20404789E+00 0.97742280E+03</pdfrwt>
<pdfrwt beam="2">  1       -2 0.27704232E-01 0.97742280E+03</pdfrwt>
<totfact> 0.18934849E+02</totfact>
</mgrwt>
</event>
<event>
 6    1  0.2003386E-005  0.2760786E+04  0.7818608E-02  0.8315547E-01
          2   -1    0    0  501    0  0.00000000000E+00  0.00000000000E+00  0.20804172368E+04  0.20804172368E+04  0.00000000000E+00 0.  1.
         -2   -1    0    0    0  501 -0.00000000000E+00 -0.00000000000E+00 -0.91591453529E+03  0.91591453529E+03  0.00000000000E+00 0. -1.
         23    2    1    2    0    0 -0.11174848116E+04  0.60919600012E+03  0.64707020471E+01  0.12755964111E+04  0.84925046352E+02 0.  0.
         13    1    3    3    0    0 -0.17983269179E+03  0.99019466689E+02 -0.30229488055E+02  0.20750535841E+03  0.00000000000E+00 0.  1.
        -13    1    3    3    0    0 -0.93765211977E+03  0.51017653343E+03  0.36700190102E+02  0.10680910527E+04  0.00000000000E+00 0. -1.
         22    1    1    2    0    0  0.11174848116E+04 -0.60919600012E+03  0.11580319994E+04  0.17207353609E+04  0.00000000000E+00 0.  1.
<mgrwt>
<rscale>  0 0.27607857E+04</rscale>
<asrwt>0</asrwt>
<pdfrwt beam="1">  1        2 0.32006419E+00 0.27607857E+04</pdfrwt>
<pdfrwt beam="2">  1       -2 0.14090993E+00 0.27607857E+04</pdfrwt>
<totfact> 0.18577141E+00</totfact>
</mgrwt>
</event>
<event>
 6    1  0.2003386E-005  0.2334954E+04  0.7818608E-02  0.8464266E-01
         -1   -1    0    0    0  501 -0.00000000000E+00  0.00000000000E+00  0.79106175804E+03  0.79106175804E+03  0.00000000000E+00 0.  1.
          1   -1    0    0  501    0  0.00000000000E+00 -0.00000000000E+00 -0.17230034750E+04  0.17230034750E+04  0.00000000000E+00 0. -1.
         23    2    1    2    0    0  0.10640212412E+04 -0.55548926421E+02 -0.97528004249E+03  0.14477139329E+04  0.97352890102E+02 0.  0.
         13    1    3    3    0    0  0.51062749897E+03  0.17363134457E+01 -0.41339759885E+03  0.65699393622E+03  0.00000000000E+00 0.  1.
        -13    1    3    3    0    0  0.55339374221E+03 -0.57285239867E+02 -0.56188244364E+03  0.79071999664E+03  0.00000000000E+00 0. -1.
         22    1    1    2    0    0 -0.10640212412E+04  0.55548926421E+02  0.43338325545E+02  0.10663513002E+04  0.00000000000E+00 0.  1.
<mgrwt>
<rscale>  0 0.23349537E+04</rscale>
<asrwt>0</asrwt>
<pdfrwt beam="1">  1        1 0.26507746E+00 0.23349537E+04</pdfrwt>
<pdfrwt beam="2">  1       -1 0.12170181E+00 0.23349537E+04</pdfrwt>
<totfact> 0.24770073E+00</totfact>
</mgrwt>
</event>
<event>
 6    1  0.2003386E-005  0.9832390E+03  0.7818608E-02  0.9327121E-01
         -2   -1    0    0    0  501 -0.00000000000E+00  0.00000000000E+00  0.78478700211E+03  0.78478700211E+03  0.00000000000E+00 0.  1.
          2   -1    0    0  501    0  0.00000000000E+00 -0.00000000000E+00 -0.30796855768E+03  0.30796855768E+03  0.00000000000E+00 0. -1.
         23    2    1    2    0    0 -0.36593640202E+02 -0.38055929923E+03 -0.95815344764E+02  0.40422529083E+03  0.89738680212E+02 0.  0.
         13    1    3    3    0    0 -0.35908465339E+02 -0.52540696724E+02 -0.48356216771E+01  0.63822613016E+02  0.00000000000E+00 0. -1.
        -13    1    3    3    0    0 -0.68517486377E+00 -0.32801860250E+03 -0.90979723086E+02  0.34040267782E+03  0.00000000000E+00 0.  1.
         22    1    1    2    0    0  0.36593640202E+02  0.38055929923E+03  0.57263378919E+03  0.68853026895E+03  0.00000000000E+00 0.  1.
<mgrwt>
<rscale>  0 0.98323898E+03</rscale>
<asrwt>0</asrwt>
<pdfrwt beam="1">  1        2 0.47379778E-01 0.98323898E+03</pdfrwt>
<pdfrwt beam="2">  1       -2 0.12073646E+00 0.98323898E+03</pdfrwt>
<totfact> 0.55695348E+01</totfact>
</mgrwt>
</event>
<event>
 6    1  0.2003386E-005  0.9694170E+03  0.7818608E-02  0.9342739E-01
          2   -1    0    0  501    0  0.00000000000E+00  0.00000000000E+00  0.17065242104E+04  0.17065242104E+04  0.00000000000E+00 0. -1.
         -2   -1    0    0    0  501 -0.00000000000E+00 -0.00000000000E+00 -0.13767300821E+03  0.13767300821E+03  0.00000000000E+00 0.  1.
         23    2    1    2    0    0 -0.80130407056E+02  0.12903002640E+03  0.16584237503E+04  0.16678655106E+04  0.91303867266E+02 0.  0.
         11    1    3    3    0    0 -0.14279303250E+01  0.75811969259E+02  0.52215789388E+03  0.52763468405E+03  0.00000000000E+00 0.  1.
        -11    1    3    3    0    0 -0.78702476731E+02  0.53218057144E+02  0.11362658564E+04  0.11402308266E+04  0.00000000000E+00 0. -1.
         22    1    1    2    0    0  0.80130407056E+02 -0.12903002640E+03 -0.89572548128E+02  0.17633170794E+03  0.00000000000E+00 0.  1.
<mgrwt>
<rscale>  0 0.96941698E+03</rscale>
<asrwt>0</asrwt>
<pdfrwt beam="1">  1        2 0.26254217E+00 0.96941698E+03</pdfrwt>
<pdfrwt beam="2">  1       -2 0.21180464E-01 0.96941698E+03</pdfrwt>
<totfact> 0.18798705E+02</totfact>
</mgrwt>
</event>
<event>
 6    1  0.2003386E-005  0.2479946E+04  0.7818608E-02  0.8410165E-01
          2   -1    0    0  501    0  0.00000000000E+00  0.00000000000E+00  0.33566247355E+04  0.33566247355E+04  0.00000000000E+00 0. -1.
         -2   -1    0    0    0  501 -0.00000000000E+00 -0.00000000000E+00 -0.45805907823E+03  0.45805907823E+03  0.00000000000E+00 0.  1.
         23    2    1    2    0    0 -0.61375312114E+03  0.71513771794E+02 -0.19971763434E+03  0.65538539979E+03  0.88519916021E+02 0.  0.
         11    1    3    3    0    0 -0.30079362635E+02  0.18876608240E+02 -0.26404858692E+02  0.44252807343E+02  0.00000000000E+00 0. -1.
        -11    1    3    3    0    0 -0.58367375850E+03  0.52637163554E+02 -0.17331277565E+03  0.61113259245E+03  0.00000000000E+00 0.  1.
         22    1    1    2    0    0  0.61375312114E+03 -0.71513771794E+02  0.30982832916E+04  0.31592984140E+04  0.00000000000E+00 0. -1.
<mgrwt>
<rscale>  0 0.24799455E+04</rscale>
<asrwt>0</asrwt>
<pdfrwt beam="1">  1        2 0.51640379E+00 0.24799455E+04</pdfrwt>
<pdfrwt beam="2">  1       -2 0.70470630E-01 0.24799455E+04</pdfrwt>
<totfact> 0.16715334E+00</totfact>
</mgrwt>
</event>
<event>
 6    1  0.2003386E-005  0.4084800E+04  0.7818608E-02  0.7987655E-01
          2   -1    0    0  501    0  0.00000000000E+00  0.00000000000E+00  0.18667939881E+04  0.18667939881E+04  0.00000000000E+00 0. -1.
         -2   -1    0    0    0  501 -0.00000000000E+00 -0.00000000000E+00 -0.22345249598E+04  0.22345249598E+04  0.00000000000E+00 0.  1.
         23    2    1    2    0    0  0.30566710721E+02  0.20386982811E+04 -0.81620882958E+02  0.20424153591E+04  0.87026003659E+02 0.  0.
         11    1    3    3    0    0 -0.30481761133E+02  0.73761036188E+03 -0.34337028342E+02  0.73903803368E+03  0.00000000000E+00 0. -1.
        -11    1    3    3    0    0  0.61048471854E+02  0.13010879192E+04 -0.47283854617E+02  0.13033773254E+04  0.00000000000E+00 0.  1.
         22    1    1    2    0    0 -0.30566710721E+02 -0.20386982811E+04 -0.28611008880E+03  0.20589035888E+04  0.00000000000E+00 0.  1.
<mgrwt>
<rscale>  0 0.40848000E+04</rscale>
<asrwt>0</asrwt>
<pdfrwt beam="1">  1        2 0.28719908E+00 0.40848000E+04</pdfrwt>
<pdfrwt beam="2">  1       -2 0.34377307E+00 0.40848000E+04</pdfrwt>
<totfact> 0.10567922E-01</totfact>
</mgrwt>
</event>
<event>
 6    1  0.2003386E-005  0.1640300E+04  0.7818608E-02  0.8796166E-01
          2   -1    0    0  501    0  0.00000000000E+00  0.00000000000E+00  0.11271662685E+04  0.11271662685E+04  0.00000000000E+00 0. -1.
         -2   -1    0    0    0  501 -0.00000000000E+00 -0.00000000000E+00 -0.59675844700E+03  0.59675844700E+03  0.00000000000E+00 0.  1.
         23    2    1    2    0    0  0.21181373210E+03 -0.61478457930E+03 -0.25491431094E+03  0.70433853094E+03  0.91029249082E+02 0.  0.
         11    1    3    3    0    0  0.33645938448E+02 -0.86363349865E+02 -0.38165258727E+01  0.92764450323E+02  0.00000000000E+00 0. -1.
        -11    1    3    3    0    0  0.17816779365E+03 -0.52842122944E+03 -0.25109778507E+03  0.61157408062E+03  0.00000000000E+00 0.  1.
         22    1    1    2    0    0 -0.21181373210E+03  0.61478457930E+03  0.78532213244E+03  0.10195861846E+04  0.00000000000E+00 0. -1.
<mgrwt>
<rscale>  0 0.16403000E+04</rscale>
<asrwt>0</asrwt>
<pdfrwt beam="1">  1        2 0.17341019E+00 0.16403000E+04</pdfrwt>
<pdfrwt beam="2">  1       -2 0.91808992E-01 0.16403000E+04</pdfrwt>
<totfact> 0.20229573E+01</totfact>
</mgrwt>
</event>
<event>
 6    1  0.2003386E-005  0.4422609E+04  0.7818608E-02  0.7924328E-01
          2   -1    0    0  501    0  0.00000000000E+00  0.00000000000E+00  0.38692720958E+04  0.38692720958E+04  0.00000000000E+00 0. -1.
         -2   -1    0    0    0  501 -0.00000000000E+00 -0.00000000000E+00 -0.12637691523E+04  0.12637691523E+04  0.00000000000E+00 0.  1.
         23    2    1    2    0    0  0.45388443760E+03 -0.51369819480E+03  0.37422355098E+04  0.38056159789E+04  0.92138214832E+02 0.  0.
         13    1    3    3    0    0  0.30567700783E+03 -0.29779718490E+03  0.24877880339E+04  0.25241257691E+04  0.00000000000E+00 0. -1.
        -13    1    3    3    0    0  0.14820742978E+03 -0.21590100990E+03  0.12544474759E+04  0.12814902099E+04  0.00000000000E+00 0.  1.
         22    1    1    2    0    0 -0.45388443760E+03  0.51369819480E+03 -0.11367325662E+04  0.13274252691E+04  0.00000000000E+00 0.  1.
<mgrwt>
<rscale>  0 0.44226086E+04</rscale>
<asrwt>0</asrwt>
<pdfrwt beam="1">  1        2 0.59527262E+00 0.44226086E+04</pdfrwt>
<pdfrwt beam="2">  1       -2 0.19442603E+00 0.44226086E+04</pdfrwt>
<totfact> 0.47792613E-02</totfact>
</mgrwt>
</event>
<event>
 6    1  0.2003386E-005  0.2990812E+04  0.7818608E-02  0.8246359E-01
         -2   -1    0    0    0  501 -0.00000000000E+00  0.00000000000E+00  0.10063733767E+04  0.10063733767E+04  0.00000000000E+00 0.  1.
          2   -1    0    0  501    0  0.00000000000E+00 -0.00000000000E+00 -0.22220766585E+04  0.22220766585E+04  0.00000000000E+00 0. -1.
         23    2    1    2    0    0  0.76163641773E+03 -0.12613802851E+04 -0.87622797853E+03  0.17163608388E+04  0.83359475226E+02 0.  0.
         13    1    3    3    0    0  0.35910355251E+03 -0.55193827511E+03 -0.43225763150E+03  0.78767879301E+03  0.00000000000E+00 0.  1.
        -13    1    3    3    0    0  0.40253286522E+03 -0.70944200996E+03 -0.44397034703E+03  0.92868204576E+03  0.00000000000E+00 0. -1.
         22    1    1    2    0    0 -0.76163641773E+03  0.12613802851E+04 -0.33947530328E+03  0.15120891964E+04  0.00000000000E+00 0.  1.
<mgrwt>
<rscale>  0 0.29908118E+04</rscale>
<asrwt>0</asrwt>
<pdfrwt beam="1">  1        2 0.34185795E+00 0.29908118E+04</pdfrwt>
<pdfrwt beam="2">  1       -2 0.15482667E+00 0.29908118E+04</pdfrwt>
<totfact> 0.11836195E+00</totfact>
</mgrwt>
</event>
<event>
 6    1  0.2003386E-005  0.1044220E+04  0.7818608E-02  0.9261332E-01
         -2   -1    0    0    0  501 -0.00000000000E+00  0.00000000000E+00  0.24915185693E+03  0.24915185693E+03  0.00000000000E+00 0.  1.
          2   -1    0    0  501    0  0.00000000000E+00 -0.00000000000E+00 -0.10941064668E+04  0.10941064668E+04  0.00000000000E+00 0. -1.
         23    2    1    2    0    0 -0.31223857972E+03  0.23856378592E+03 -0.86009700346E+03  0.95002187742E+03  0.91482794015E+02 0.  0.
         11    1    3    3    0    0 -0.84144972223E+02  0.86593008437E+02 -0.36047025096E+03  0.38015460971E+03  0.00000000000E+00 0. -1.
        -11    1    3    3    0    0 -0.22809360750E+03  0.15197077749E+03 -0.49962675250E+03  0.56986726771E+03  0.00000000000E+00 0.  1.
         22    1    1    2    0    0  0.31223857972E+03 -0.23856378592E+03  0.15142393601E+02  0.39323644631E+03  0.00000000000E+00 0.  1.
<mgrwt>
<rscale>  0 0.10442196E+04</rscale>
<asrwt>0</asrwt>
<pdfrwt beam="1">  1        2 0.16832408E+00 0.10442196E+04</pdfrwt>
<pdfrwt beam="2">  1       -2 0.38331054E-01 0.10442196E+04</pdfrwt>
<totfact> 0.14051698E+02</totfact>
</mgrwt>
</event>
<event>
 6    1  0.2003386E-005  0.8041140E+03  0.7818608E-02  0.9554081E-01
         -2   -1    0    0    0  501 -0.00000000000E+00  0.00000000000E+00  0.88907579248E+03  0.88907579248E+03  0.00000000000E+00 0.  1.
          2   -1    0    0  501    0  0.00000000000E+00 -0.00000000000E+00 -0.18181784944E+03  0.18181784944E+03  0.00000000000E+00 0. -1.
         23    2    1    2    0    0 -0.28175346305E+02  0.17975188884E+03  0.82759649243E+03  0.85275158235E+03  0.95732519281E+02 0.  0.
         11    1    3    3    0    0 -0.51259264638E+02  0.81385795679E+02  0.52483594401E+03  0.53357654378E+03  0.00000000000E+00 0.  1.
        -11    1    3    3    0    0  0.23083918332E+02  0.98366093161E+02  0.30276054842E+03  0.31917503857E+03  0.00000000000E+00 0. -1.
         22    1    1    2    0    0  0.28175346305E+02 -0.17975188884E+03 -0.12033854939E+03  0.21814205956E+03  0.00000000000E+00 0. -1.
<mgrwt>
<rscale>  0 0.80411404E+03</rscale>
<asrwt>0</asrwt>
<pdfrwt beam="1">  1        2 0.27971977E-01 0.80411404E+03</pdfrwt>
<pdfrwt beam="2">  1       -2 0.13678089E+00 0.80411404E+03</pdfrwt>
<totfact> 0.74063695E+01</totfact>
</mgrwt>
</event>
<event>
 6    1  0.2003386E-005  0.4489025E+04  0.7818608E-02  0.7912561E-01
          1   -1    0    0  501    0  0.00000000000E+00  0.00000000000E+00  0.18069244531E+04  0.18069244531E+04  0.00000000000E+00 0. -1.
         -1   -1    0    0    0  501 -0.00000000000E+00 -0.00000000000E+00 -0.27880728766E+04  0.27880728766E+04  0.00000000000E+00 0.  1.
         23    2    1    2    0    0  0.87091900835E+03  0.11621055406E+04 -0.22412600702E+04  0.26722725525E+04  0.93833287029E+02 0.  0.
         11    1    3    3    0    0  0.20402996309E+03  0.33919437877E+03 -0.63081115424E+03  0.74471723811E+03  0.00000000000E+00 0.  1.
        -11    1    3    3    0    0  0.66688904526E+03  0.82291116187E+03 -0.16104489160E+04  0.19275553144E+04  0.00000000000E+00 0. -1.
         22    1    1    2    0    0 -0.87091900835E+03 -0.11621055406E+04  0.12601116467E+04  0.19227247772E+04  0.00000000000E+00 0. -1.
<mgrwt>
<rscale>  0 0.44890253E+04</rscale>
<asrwt>0</asrwt>
<pdfrwt beam="1">  1        1 0.27798838E+00 0.44890253E+04</pdfrwt>
<pdfrwt beam="2">  1       -1 0.42893429E+00 0.44890253E+04</pdfrwt>
<totfact> 0.13715334E-02</totfact>
</mgrwt>
</event>
<event>
 6    1  0.2003386E-005  0.1919618E+04  0.7818608E-02  0.8645152E-01
         -2   -1    0    0    0  501 -0.00000000000E+00  0.00000000000E+00  0.21201552501E+04  0.21201552501E+04  0.00000000000E+00 0.  1.
          2   -1    0    0  501    0  0.00000000000E+00 -0.00000000000E+00 -0.43451215864E+03  0.43451215864E+03  0.00000000000E+00 0. -1.
         23    2    1    2    0    0 -0.49635072740E+03 -0.79088132188E+03  0.56081040329E+03  0.10927830473E+04  0.88369508936E+02 0.  0.
         13    1    3    3    0    0 -0.33813564684E+03 -0.48683208572E+03  0.31718962606E+03  0.67227260411E+03  0.00000000000E+00 0. -1.
        -13    1    3    3    0    0 -0.15821508055E+03 -0.30404923615E+03  0.24362077723E+03  0.42051044317E+03  0.00000000000E+00 0.  1.
         22    1    1    2    0    0  0.49635072740E+03  0.79088132188E+03  0.11248326882E+04  0.14618843614E+04  0.00000000000E+00 0.  1.
<mgrwt>
<rscale>  0 0.19196179E+04</rscale>
<asrwt>0</asrwt>
<pdfrwt beam="1">  1        2 0.66848026E-01 0.19196179E+04</pdfrwt>
<pdfrwt beam="2">  1       -2 0.32617772E+00 0.19196179E+04</pdfrwt>
<totfact> 0.14872943E+00</totfact>
</mgrwt>
</event>
<event>
 6    1  0.2003386E-005  0.1757378E+04  0.7818608E-02  0.8729300E-01
         -2   -1    0    0    0  501 -0.00000000000E+00  0.00000000000E+00  0.78525961570E+03  0.78525961570E+03  0.00000000000E+00 0.  1.
          2   -1    0    0  501    0  0.00000000000E+00 -0.00000000000E+00 -0.98323442435E+03  0.98323442435E+03  0.00000000000E+00 0. -1.
         23    2    1    2    0    0 -0.34927565993E+03  0.77800526803E+03  0.10396228126E+03  0.86381084138E+03  0.89862840237E+02 0.  0.
         11    1    3    3    0    0 -0.23772912044E+03  0.49750703641E+03  0.25796820486E+02  0.55199081689E+03  0.00000000000E+00 0.  1.
        -11    1    3    3    0    0 -0.11154653949E+03  0.28049823161E+03  0.78165460778E+02  0.31182002449E+03  0.00000000000E+00 0. -1.
         22    1    1    2    0    0  0.34927565993E+03 -0.77800526803E+03 -0.30193708991E+03  0.90468319867E+03  0.00000000000E+00 0. -1.
<mgrwt>
<rscale>  0 0.17573779E+04</rscale>
<asrwt>0</asrwt>
<pdfrwt beam="1">  1        2 0.15126683E+00 0.17573779E+04</pdfrwt>
<pdfrwt beam="2">  1       -2 0.12080917E+00 0.17573779E+04</pdfrwt>
<totfact> 0.12774881E+01</totfact>
</mgrwt>
</event>
<event>
 6    1  0.2003386E-005  0.5703918E+04  0.7818608E-02  0.7728237E-01
         -2   -1    0    0    0  501 -0.00000000000E+00  0.00000000000E+00  0.20458558681E+04  0.20458558681E+04  0.00000000000E+00 0.  1.
          2   -1    0    0  501    0  0.00000000000E+00 -0.00000000000E+00 -0.39756810516E+04  0.39756810516E+04  0.00000000000E+00 0. -1.
         23    2    1    2    0    0 -0.87460147231E+03 -0.26631035677E+04 -0.41308935768E+03  0.28344479795E+04  0.80026143583E+02 0.  0.
         13    1    3    3    0    0 -0.39777146238E+03 -0.13144504677E+04 -0.22630393253E+03  0.13918389412E+04  0.00000000000E+00 0. -1.
        -13    1    3    3    0    0 -0.47683000993E+03 -0.13486531000E+04 -0.18678542515E+03  0.14426090383E+04  0.00000000000E+00 0.  1.
         22    1    1    2    0    0  0.87460147231E+03  0.26631035677E+04 -0.15167358258E+04  0.31870889402E+04  0.00000000000E+00 0. -1.
<mgrwt>
<rscale>  0 0.57039181E+04</rscale>
<asrwt>0</asrwt>
<pdfrwt beam="1">  1        2 0.61164323E+00 0.57039181E+04</pdfrwt>
<pdfrwt beam="2">  1       -2 0.31474706E+00 0.57039181E+04</pdfrwt>
<totfact> 0.63274602E-03</totfact>
</mgrwt>
</event>
<event>
 6    1  0.2003386E-005  0.1816882E+04  0.7818608E-02  0.8697373E-01
         -2   -1    0    0    0  501 -0.00000000000E+00  0.00000000000E+00  0.54737668138E+03  0.54737668138E+03  0.00000000000E+00 0.  1.
          2   -1    0    0  501    0  0.00000000000E+00 -0.00000000000E+00 -0.15076723888E+04  0.15076723888E+04  0.00000000000E+00 0. -1.
         23    2    1    2    0    0 -0.69914602032E+03  0.34185562155E+03 -0.10062598831E+04  0.12754446005E+04  0.92355577901E+02 0.  0.
         13    1    3    3    0    0 -0.55362682750E+03  0.22816832264E+03 -0.78242305873E+03  0.98526610132E+03  0.00000000000E+00 0. -1.
        -13    1    3    3    0    0 -0.14551919282E+03  0.11368729891E+03 -0.22383682440E+03  0.29017849915E+03  0.00000000000E+00 0.  1.
         22    1    1    2    0    0  0.69914602032E+03 -0.34185562155E+03  0.45964175710E+02  0.77960446970E+03  0.00000000000E+00 0.  1.
<mgrwt>
<rscale>  0 0.18168816E+04</rscale>
<asrwt>0</asrwt>
<pdfrwt beam="1">  1        2 0.23194960E+00 0.18168816E+04</pdfrwt>
<pdfrwt beam="2">  1       -2 0.84211798E-01 0.18168816E+04</pdfrwt>
<totfact> 0.14583050E+01</totfact>
</mgrwt>
</event>
<event>
 6    1  0.2003386E-005  0.7392605E+03  0.7818608E-02  0.9652351E-01
         -2   -1    0    0    0  501 -0.00000000000E+00  0.00000000000E+00  0.17222435507E+03  0.17222435507E+03  0.00000000000E+00 0.  1.
          2   -1    0    0  501    0  0.00000000000E+00 -0.00000000000E+00 -0.79330556459E+03  0.79330556459E+03  0.00000000000E+00 0. -1.
         23    2    1    2    0    0  0.26487213862E+03  0.22966791533E+03 -0.19856637110E+03  0.41650952857E+03  0.10557927119E+03 0.  0.
         13    1    3    3    0    0  0.63933045212E+02  0.94844932818E+02 -0.11040021276E+03  0.15896918736E+03  0.00000000000E+00 0. -1.
        -13    1    3    3    0    0  0.20093909341E+03  0.13482298251E+03 -0.88166158336E+02  0.25754034121E+03  0.00000000000E+00 0.  1.
         22    1    1    2    0    0 -0.26487213862E+03 -0.22966791533E+03 -0.42251483842E+03  0.54902039109E+03  0.00000000000E+00 0.  1.
<mgrwt>
<rscale>  0 0.73926055E+03</rscale>
<asrwt>0</asrwt>
<pdfrwt beam="1">  1        2 0.12204701E+00 0.73926055E+03</pdfrwt>
<pdfrwt beam="2">  1       -2 0.26496055E-01 0.73926055E+03</pdfrwt>
<totfact> 0.45168231E+02</totfact>
</mgrwt>
</event>
<event>
 6    1  0.2003386E-005  0.2879071E+04  0.7818608E-02  0.8279132E-01
         -2   -1    0    0    0  501 -0.00000000000E+00  0.00000000000E+00  0.76090357537E+03  0.76090357537E+03  0.00000000000E+00 0.  1.
          2   -1    0    0  501    0  0.00000000000E+00 -0.00000000000E+00 -0.27234230389E+04  0.27234230389E+04  0.00000000000E+00 0. -1.
         23    2    1    2    0    0 -0.15886112883E+03 -0.86532167745E+03 -0.23589985064E+04  0.25193322644E+04  0.90236585492E+02 0.  0.
         11    1    3    3    0    0 -0.26352262118E+02 -0.39133539305E+03 -0.10539607609E+04  0.11245759721E+04  0.00000000000E+00 0.  1.
        -11    1    3    3    0    0 -0.13250886671E+03 -0.47398628440E+03 -0.13050377455E+04  0.13947562922E+04  0.00000000000E+00 0. -1.
         22    1    1    2    0    0  0.15886112883E+03  0.86532167745E+03  0.39647904295E+03  0.96499434983E+03  0.00000000000E+00 0.  1.
<mgrwt>
<rscale>  0 0.28790709E+04</rscale>
<asrwt>0</asrwt>
<pdfrwt beam="1">  1        2 0.41898815E+00 0.28790709E+04</pdfrwt>
<pdfrwt beam="2">  1       -2 0.11706209E+00 0.28790709E+04</pdfrwt>
<totfact> 0.12545434E+00</totfact>
</mgrwt>
</event>
<event>
 6    1  0.2003386E-005  0.2363343E+04  0.7818608E-02  0.8453356E-01
         -2   -1    0    0    0  501 -0.00000000000E+00  0.00000000000E+00  0.22362038099E+04  0.22362038099E+04  0.00000000000E+00 0.  1.
          2   -1    0    0  501    0  0.00000000000E+00 -0.00000000000E+00 -0.62442769070E+03  0.62442769070E+03  0.00000000000E+00 0. -1.
         23    2    1    2    0    0 -0.48649209286E+03  0.10734935557E+04  0.73899512708E+03  0.13940676149E+04  0.90817104704E+02 0.  0.
         11    1    3    3    0    0 -0.14661360796E+03  0.26511657629E+03  0.22759467146E+03  0.37892173801E+03  0.00000000000E+00 0.  1.
        -11    1    3    3    0    0 -0.33987848490E+03  0.80837697944E+03  0.51140045562E+03  0.10151458769E+04  0.00000000000E+00 0. -1.
         22    1    1    2    0    0  0.48649209286E+03 -0.10734935557E+04  0.87278099214E+03  0.14665638857E+04  0.00000000000E+00 0.  1.
<mgrwt>
<rscale>  0 0.23633430E+04</rscale>
<asrwt>0</asrwt>
<pdfrwt beam="1">  1        2 0.96065800E-01 0.23633430E+04</pdfrwt>
<pdfrwt beam="2">  1       -2 0.34403135E+00 0.23633430E+04</pdfrwt>
<totfact> 0.72340911E-01</totfact>
</mgrwt>
</event>
<event>
 6    1  0.2003386E-005  0.1941680E+04  0.7818608E-02  0.8634383E-01
          2   -1    0    0  501    0  0.00000000000E+00  0.00000000000E+00  0.28037892423E+04  0.28037892423E+04  0.00000000000E+00 0. -1.
         -2   -1    0    0    0  501 -0.00000000000E+00 -0.00000000000E+00 -0.33616301955E+03  0.33616301955E+03  0.00000000000E+00 0.  1.
         23    2    1    2    0    0 -0.54642927775E+03 -0.74263242850E+03  0.17175524616E+04  0.19513823117E+04  0.88422781487E+02 0.  0.
         13    1    3    3    0    0 -0.14129787274E+03 -0.22621237248E+03  0.57163525884E+03  0.63079631852E+03  0.00000000000E+00 0. -1.
        -13    1    3    3    0    0 -0.40513140501E+03 -0.51642005602E+03  0.11459172028E+04  0.13205859931E+04  0.00000000000E+00 0.  1.
         22    1    1    2    0    0  0.54642927775E+03  0.74263242850E+03  0.75007376115E+03  0.11885699502E+04  0.00000000000E+00 0.  1.
<mgrwt>
<rscale>  0 0.19416800E+04</rscale>
<asrwt>0</asrwt>
<pdfrwt beam="1">  1        2 0.43135218E+00 0.19416800E+04</pdfrwt>
<pdfrwt beam="2">  1       -2 0.51717390E-01 0.19416800E+04</pdfrwt>
<totfact> 0.75954729E+00</totfact>
</mgrwt>
</event>
<event>
 6    1  0.2003386E-005  0.5135661E+04  0.7818608E-02  0.7807914E-01
          2   -1    0    0  501    0  0.00000000000E+00  0.00000000000E+00  0.48107781694E+04  0.48107781694E+04  0.00000000000E+00 0. -1.
         -2   -1    0    0    0  501 -0.00000000000E+00 -0.00000000000E+00 -0.13706210421E+04  0.13706210421E+04  0.00000000000E+00 0.  1.
         23    2    1    2    0    0  0.80214301015E+02  0.21566219388E+04  0.33937075092E+04  0.40227862105E+04  0.90031751826E+02 0.  0.
         13    1    3    3    0    0 -0.75439308580E+01  0.66722433412E+03  0.10979355131E+04  0.12847986667E+04  0.00000000000E+00 0. -1.
        -13    1    3    3    0    0  0.87758231873E+02  0.14893976047E+04  0.22957719961E+04  0.27379875438E+04  0.00000000000E+00 0.  1.
         22    1    1    2    0    0 -0.80214301015E+02 -0.21566219388E+04  0.46449618168E+02  0.21586130010E+04  0.00000000000E+00 0.  1.
<mgrwt>
<rscale>  0 0.51356611E+04</rscale>
<asrwt>0</asrwt>
<pdfrwt beam="1">  1        2 0.74011971E+00 0.51356611E+04</pdfrwt>
<pdfrwt beam="2">  1       -2 0.21086478E+00 0.51356611E+04</pdfrwt>
<totfact> 0.46439739E-03</totfact>
</mgrwt>
</event>
<event>
 6    1  0.2003386E-005  0.2493982E+04  0.7818608E-02  0.8405133E-01
         -1   -1    0    0    0  501 -0.00000000000E+00  0.00000000000E+00  0.92239584425E+03  0.92239584425E+03  0.00000000000E+00 0.  1.
          1   -1    0    0  501    0  0.00000000000E+00 -0.00000000000E+00 -0.16858121382E+04  0.16858121382E+04  0.00000000000E+00 0. -1.
         23    2    1    2    0    0 -0.28293135353E+03 -0.67151079573E+03  0.67391035323E+03  0.99672270783E+03  0.91236464906E+02 0.  0.
         11    1    3    3    0    0 -0.41621612642E+02 -0.12303230578E+03  0.77300306680E+02  0.15114444852E+03  0.00000000000E+00 0.  1.
        -11    1    3    3    0    0 -0.24130974088E+03 -0.54847848995E+03  0.59661004655E+03  0.84557825931E+03  0.00000000000E+00 0. -1.
         22    1    1    2    0    0  0.28293135353E+03  0.67151079573E+03 -0.14373266472E+04  0.16114852746E+04  0.00000000000E+00 0. -1.
<mgrwt>
<rscale>  0 0.24939816E+04</rscale>
<asrwt>0</asrwt>
<pdfrwt beam="1">  1        1 0.25935571E+00 0.24939816E+04</pdfrwt>
<pdfrwt beam="2">  1       -1 0.14190705E+00 0.24939816E+04</pdfrwt>
<totfact> 0.17523346E+00</totfact>
</mgrwt>
</event>
<event>
 6    1  0.2003386E-005  0.1731409E+04  0.7818608E-02  0.8743651E-01
         -2   -1    0    0    0  501 -0.00000000000E+00  0.00000000000E+00  0.89270877341E+03  0.89270877341E+03  0.00000000000E+00 0.  1.
          2   -1    0    0  501    0  0.00000000000E+00 -0.00000000000E+00 -0.83951694954E+03  0.83951694954E+03  0.00000000000E+00 0. -1.
         23    2    1    2    0    0 -0.44044725695E+03 -0.66454876444E+03 -0.30472224456E+03  0.85831421322E+03  0.90712710340E+02 0.  0.
         13    1    3    3    0    0 -0.20614954847E+03 -0.39261734972E+03 -0.16656562831E+03  0.47369835145E+03  0.00000000000E+00 0. -1.
        -13    1    3    3    0    0 -0.23429770849E+03 -0.27193141472E+03 -0.13815661625E+03  0.38461586177E+03  0.00000000000E+00 0.  1.
         22    1    1    2    0    0  0.44044725695E+03  0.66454876444E+03  0.35791406843E+03  0.87391150974E+03  0.00000000000E+00 0.  1.
<mgrwt>
<rscale>  0 0.17314088E+04</rscale>
<asrwt>0</asrwt>
<pdfrwt beam="1">  1        2 0.12915645E+00 0.17314088E+04</pdfrwt>
<pdfrwt beam="2">  1       -2 0.13733981E+00 0.17314088E+04</pdfrwt>
<totfact> 0.11563927E+01</totfact>
</mgrwt>
</event>
<event>
 6    1  0.2003386E-005  0.3942736E+04  0.7818608E-02  0.8016199E-01
          2   -1    0    0  501    0  0.00000000000E+00  0.00000000000E+00  0.17340682987E+04  0.17340682987E+04  0.00000000000E+00 0. -1.
         -2   -1    0    0    0  501 -0.00000000000E+00 -0.00000000000E+00 -0.22411409482E+04  0.22411409482E+04  0.00000000000E+00 0.  1.
         23    2    1    2    0    0  0.17057239599E+04 -0.44855489359E+03  0.63187925868E+03  0.18757075991E+04  0.91169511696E+02 0.  0.
         11    1    3    3    0    0  0.10026073626E+04 -0.30936135106E+03  0.38294800641E+03  0.11169490341E+04  0.00000000000E+00 0. -1.
        -11    1    3    3    0    0  0.70311659732E+03 -0.13919354253E+03  0.24893125227E+03  0.75875856507E+03  0.00000000000E+00 0.  1.
         22    1    1    2    0    0 -0.17057239599E+04  0.44855489359E+03 -0.11389519081E+04  0.20995016478E+04  0.00000000000E+00 0.  1.
<mgrwt>
<rscale>  0 0.39427358E+04</rscale>
<asrwt>0</asrwt>
<pdfrwt beam="1">  1        2 0.26677974E+00 0.39427358E+04</pdfrwt>
<pdfrwt beam="2">  1       -2 0.34479091E+00 0.39427358E+04</pdfrwt>
<totfact> 0.12480820E-01</totfact>
</mgrwt>
</event>
<event>
 6    1  0.2003386E-005  0.1729859E+04  0.7818608E-02  0.8744515E-01
         -2   -1    0    0    0  501 -0.00000000000E+00  0.00000000000E+00  0.34130542302E+03  0.34130542302E+03  0.00000000000E+00 0.  1.
          2   -1    0    0  501    0  0.00000000000E+00 -0.00000000000E+00 -0.21918885557E+04  0.21918885557E+04  0.00000000000E+00 0. -1.
         23    2    1    2    0    0  0.41015089367E+03  0.20614505586E+03 -0.19972497444E+04  0.20512908404E+04  0.89822218979E+02 0.  0.
         11    1    3    3    0    0  0.17144245389E+03  0.10900423596E+03 -0.10577947122E+04  0.10771277044E+04  0.00000000000E+00 0.  1.
        -11    1    3    3    0    0  0.23870843978E+03  0.97140819908E+02 -0.93945503222E+03  0.97416313607E+03  0.00000000000E+00 0. -1.
         22    1    1    2    0    0 -0.41015089367E+03 -0.20614505586E+03  0.14666661174E+03  0.48190313823E+03  0.00000000000E+00 0.  1.
<mgrwt>
<rscale>  0 0.17298595E+04</rscale>
<asrwt>0</asrwt>
<pdfrwt beam="1">  1        2 0.33721361E+00 0.17298595E+04</pdfrwt>
<pdfrwt beam="2">  1       -2 0.52508529E-01 0.17298595E+04</pdfrwt>
<totfact> 0.16961793E+01</totfact>
</mgrwt>
</event>
<event>
 6    1  0.2003386E-005  0.1909234E+04  0.7818608E-02  0.8650274E-01
         -2   -1    0    0    0  501 -0.00000000000E+00  0.00000000000E+00  0.10970195683E+04  0.10970195683E+04  0.00000000000E+00 0. -1.
          2   -1    0    0  501    0  0.00000000000E+00 -0.00000000000E+00 -0.83069957762E+03  0.83069957762E+03  0.00000000000E+00 0.  1.
         23    2    1    2    0    0  0.20778157251E+03 -0.68428307528E+02  0.10694032427E+04  0.10953740703E+04  0.91462797120E+02 0.  0.
         11    1    3    3    0    0  0.12436695978E+03  0.49527218416E+01  0.50230371973E+03  0.51749463475E+03  0.00000000000E+00 0. -1.
        -11    1    3    3    0    0  0.83414612725E+02 -0.73381029369E+02  0.56709952296E+03  0.57787943555E+03  0.00000000000E+00 0.  1.
         22    1    1    2    0    0 -0.20778157251E+03  0.68428307528E+02 -0.80308325204E+03  0.83234507558E+03  0.00000000000E+00 0.  1.
<mgrwt>
<rscale>  0 0.19092341E+04</rscale>
<asrwt>0</asrwt>
<pdfrwt beam="1">  1        2 0.12779993E+00 0.19092341E+04</pdfrwt>
<pdfrwt beam="2">  1       -2 0.16877224E+00 0.19092341E+04</pdfrwt>
<totfact> 0.66620110E+00</totfact>
</mgrwt>
</event>
<event>
 6    1  0.2003386E-005  0.1804331E+04  0.7818608E-02  0.8704000E-01
          2   -1    0    0  501    0  0.00000000000E+00  0.00000000000E+00  0.88395918457E+03  0.88395918457E+03  0.00000000000E+00 0. -1.
         -2   -1    0    0    0  501 -0.00000000000E+00 -0.00000000000E+00 -0.92074649867E+03  0.92074649867E+03  0.00000000000E+00 0.  1.
         23    2    1    2    0    0 -0.45652098848E+03 -0.23286597583E+03  0.72183505814E+03  0.88920260881E+03  0.83650778412E+02 0.  0.
         11    1    3    3    0    0 -0.30609501949E+03 -0.19760305435E+03  0.52307294671E+03  0.63745308504E+03  0.00000000000E+00 0. -1.
        -11    1    3    3    0    0 -0.15042596900E+03 -0.35262921481E+02  0.19876211143E+03  0.25174952377E+03  0.00000000000E+00 0.  1.
         22    1    1    2    0    0  0.45652098848E+03  0.23286597583E+03 -0.75862237224E+03  0.91550307443E+03  0.00000000000E+00 0.  1.
<mgrwt>
<rscale>  0 0.18043307E+04</rscale>
<asrwt>0</asrwt>
<pdfrwt beam="1">  1        2 0.13599372E+00 0.18043307E+04</pdfrwt>
<pdfrwt beam="2">  1       -2 0.14165331E+00 0.18043307E+04</pdfrwt>
<totfact> 0.98828043E+00</totfact>
</mgrwt>
</event>
<event>
 6    1  0.2003386E-005  0.1826176E+04  0.7818608E-02  0.8692502E-01
          2   -1    0    0  501    0  0.00000000000E+00  0.00000000000E+00  0.95985988823E+03  0.95985988823E+03  0.00000000000E+00 0. -1.
         -2   -1    0    0    0  501 -0.00000000000E+00 -0.00000000000E+00 -0.86859500431E+03  0.86859500431E+03  0.00000000000E+00 0.  1.
         23    2    1    2    0    0  0.66883506385E+03 -0.16126385212E+03  0.64320715760E+03  0.94641937959E+03  0.92993665531E+02 0.  0.
         11    1    3    3    0    0  0.58581601446E+02 -0.28307437388E+01  0.91208095365E+02  0.10843769547E+03  0.00000000000E+00 0.  1.
        -11    1    3    3    0    0  0.61025346241E+03 -0.15843310838E+03  0.55199906223E+03  0.83798168412E+03  0.00000000000E+00 0. -1.
         22    1    1    2    0    0 -0.66883506385E+03  0.16126385212E+03 -0.55194227369E+03  0.88203551296E+03  0.00000000000E+00 0.  1.
<mgrwt>
<rscale>  0 0.18261758E+04</rscale>
<asrwt>0</asrwt>
<pdfrwt beam="1">  1        2 0.14767075E+00 0.18261758E+04</pdfrwt>
<pdfrwt beam="2">  1       -2 0.13363000E+00 0.18261758E+04</pdfrwt>
<totfact> 0.10203133E+01</totfact>
</mgrwt>
</event>
<event>
 6    1  0.2003386E-005  0.1766338E+04  0.7818608E-02  0.8724408E-01
          2   -1    0    0  501    0  0.00000000000E+00  0.00000000000E+00  0.14929220943E+04  0.14929220943E+04  0.00000000000E+00 0. -1.
         -2   -1    0    0    0  501 -0.00000000000E+00 -0.00000000000E+00 -0.52245665914E+03  0.52245665914E+03  0.00000000000E+00 0.  1.
         23    2    1    2    0    0 -0.57221787096E+03  0.31846015519E+03 -0.18445136444E+03  0.68771803763E+03  0.10041728511E+03 0.  0.
         11    1    3    3    0    0 -0.30949278469E+03  0.21579676517E+03 -0.13856818894E+03  0.40193926235E+03  0.00000000000E+00 0.  1.
        -11    1    3    3    0    0 -0.26272508628E+03  0.10266339002E+03 -0.45883175505E+02  0.28577877528E+03  0.00000000000E+00 0. -1.
         22    1    1    2    0    0  0.57221787096E+03 -0.31846015519E+03  0.11549167996E+04  0.13276607158E+04  0.00000000000E+00 0. -1.
<mgrwt>
<rscale>  0 0.17663376E+04</rscale>
<asrwt>0</asrwt>
<pdfrwt beam="1">  1        2 0.22968032E+00 0.17663376E+04</pdfrwt>
<pdfrwt beam="2">  1       -2 0.80377948E-01 0.17663376E+04</pdfrwt>
<totfact> 0.16586252E+01</totfact>
</mgrwt>
</event>
<event>
 6    1  0.2003386E-005  0.1940262E+04  0.7818608E-02  0.8635071E-01
         -2   -1    0    0    0  501 -0.00000000000E+00  0.00000000000E+00  0.47829577079E+03  0.47829577079E+03  0.00000000000E+00 0.  1.
          2   -1    0    0  501    0  0.00000000000E+00 -0.00000000000E+00 -0.19677243832E+04  0.19677243832E+04  0.00000000000E+00 0. -1.
         23    2    1    2    0    0 -0.49856810441E+03  0.47236005884E+03  0.11411388356E+03  0.70158823606E+03  0.86659648274E+02 0.  0.
         13    1    3    3    0    0 -0.24607613426E+03  0.17535768179E+03  0.59310082119E+02  0.30793094397E+03  0.00000000000E+00 0.  1.
        -13    1    3    3    0    0 -0.25249197015E+03  0.29700237705E+03  0.54803801445E+02  0.39365729209E+03  0.00000000000E+00 0. -1.
         22    1    1    2    0    0  0.49856810441E+03 -0.47236005884E+03 -0.16035424960E+04  0.17444319180E+04  0.00000000000E+00 0. -1.
<mgrwt>
<rscale>  0 0.19402621E+04</rscale>
<asrwt>0</asrwt>
<pdfrwt beam="1">  1        2 0.30272683E+00 0.19402621E+04</pdfrwt>
<pdfrwt beam="2">  1       -2 0.73583965E-01 0.19402621E+04</pdfrwt>
<totfact> 0.10826756E+01</totfact>
</mgrwt>
</event>
<event>
 6    1  0.2003386E-005  0.4019030E+04  0.7818608E-02  0.8000718E-01
          2   -1    0    0  501    0  0.00000000000E+00  0.00000000000E+00  0.25303994726E+04  0.25303994726E+04  0.00000000000E+00 0. -1.
         -2   -1    0    0    0  501 -0.00000000000E+00 -0.00000000000E+00 -0.15958553440E+04  0.15958553440E+04  0.00000000000E+00 0.  1.
         23    2    1    2    0    0 -0.73987709495E+03 -0.18650524957E+04  0.56012815248E+03  0.20851702396E+04  0.91391758797E+02 0.  0.
         13    1    3    3    0    0 -0.39349456729E+03 -0.88800991483E+03  0.29676737677E+03  0.10156133414E+04  0.00000000000E+00 0. -1.
        -13    1    3    3    0    0 -0.34638252766E+03 -0.97704258087E+03  0.26336077571E+03  0.10695568982E+04  0.00000000000E+00 0.  1.
         22    1    1    2    0    0  0.73987709495E+03  0.18650524957E+04  0.37441597605E+03  0.20410845770E+04  0.00000000000E+00 0. -1.
<mgrwt>
<rscale>  0 0.40190305E+04</rscale>
<asrwt>0</asrwt>
<pdfrwt beam="1">  1        2 0.38929223E+00 0.40190305E+04</pdfrwt>
<pdfrwt beam="2">  1       -2 0.24551621E+00 0.40190305E+04</pdfrwt>
<totfact> 0.18029018E-01</totfact>
</mgrwt>
</event>
<event>
 6    1  0.2435762E-005  0.2818713E+04  0.7818608E-02  0.8297482E-01
         -2   -1    0    0    0  501 -0.00000000000E+00  0.00000000000E+00  0.11175679186E+04  0.11175679186E+04  0.00000000000E+00 0.  1.
          2   -1    0    0  501    0  0.00000000000E+00 -0.00000000000E+00 -0.17773283471E+04  0.17773283471E+04  0.00000000000E+00 0. -1.
         23    2    1    2    0    0 -0.15473981916E+03 -0.83187605995E+03 -0.14858502653E+04  0.17123622876E+04  0.92040221905E+02 0.  0.
         13    1    3    3    0    0 -0.12694664733E+03 -0.54206890767E+03 -0.90269131808E+03  0.10605686058E+04  0.00000000000E+00 0.  1.
        -13    1    3    3    0    0 -0.27793171830E+02 -0.28980715228E+03 -0.58315894720E+03  0.65179368179E+03  0.00000000000E+00 0. -1.
         22    1    1    2    0    0  0.15473981916E+03  0.83187605995E+03  0.82608983687E+03  0.11825339781E+04  0.00000000000E+00 0.  1.
<mgrwt>
<rscale>  0 0.28187126E+04</rscale>
<asrwt>0</asrwt>
<pdfrwt beam="1">  1        2 0.27343513E+00 0.28187126E+04</pdfrwt>
<pdfrwt beam="2">  1       -2 0.17193353E+00 0.28187126E+04</pdfrwt>
<totfact> 0.15939177E+00</totfact>
</mgrwt>
</event>
<event>
 6    1  0.2003386E-005  0.3894017E+04  0.7818608E-02  0.8026275E-01
          2   -1    0    0  501    0  0.00000000000E+00  0.00000000000E+00  0.25936176132E+04  0.25936176132E+04  0.00000000000E+00 0. -1.
         -2   -1    0    0    0  501 -0.00000000000E+00 -0.00000000000E+00 -0.14616039713E+04  0.14616039713E+04  0.00000000000E+00 0.  1.
         23    2    1    2    0    0 -0.41948322304E+03 -0.42467240534E+03 -0.13624796436E+04  0.14903025649E+04  0.91313357520E+02 0.  0.
         13    1    3    3    0    0 -0.34839307510E+03 -0.39384963008E+03 -0.11652585050E+04  0.12784062928E+04  0.00000000000E+00 0.  1.
        -13    1    3    3    0    0 -0.71090147947E+02 -0.30822775259E+02 -0.19722113860E+03  0.21189627208E+03  0.00000000000E+00 0. -1.
         22    1    1    2    0    0  0.41948322304E+03  0.42467240534E+03  0.24944932855E+04  0.25649190197E+04  0.00000000000E+00 0. -1.
<mgrwt>
<rscale>  0 0.38940168E+04</rscale>
<asrwt>0</asrwt>
<pdfrwt beam="1">  1        2 0.39901809E+00 0.38940168E+04</pdfrwt>
<pdfrwt beam="2">  1       -2 0.22486215E+00 0.38940168E+04</pdfrwt>
<totfact> 0.22489551E-01</totfact>
</mgrwt>
</event>
<event>
 6    1  0.2003386E-005  0.3278532E+04  0.7818608E-02  0.8168380E-01
         -2   -1    0    0    0  501 -0.00000000000E+00  0.00000000000E+00  0.84601214043E+03  0.84601214043E+03  0.00000000000E+00 0.  1.
          2   -1    0    0  501    0  0.00000000000E+00 -0.00000000000E+00 -0.31763049201E+04  0.31763049201E+04  0.00000000000E+00 0. -1.
         23    2    1    2    0    0 -0.11371258375E+04 -0.42838307617E+03  0.18150835224E+03  0.12320281586E+04  0.91547099153E+02 0.  0.
         13    1    3    3    0    0 -0.69988318502E+03 -0.21869643561E+03  0.93675818491E+02  0.73921564012E+03  0.00000000000E+00 0. -1.
        -13    1    3    3    0    0 -0.43724265245E+03 -0.20968664056E+03  0.87832533745E+02  0.49281251845E+03  0.00000000000E+00 0.  1.
         22    1    1    2    0    0  0.11371258375E+04  0.42838307617E+03 -0.25118011319E+04  0.27902889019E+04  0.00000000000E+00 0. -1.
<mgrwt>
<rscale>  0 0.32785317E+04</rscale>
<asrwt>0</asrwt>
<pdfrwt beam="1">  1        2 0.48866229E+00 0.32785317E+04</pdfrwt>
<pdfrwt beam="2">  1       -2 0.13015572E+00 0.32785317E+04</pdfrwt>
<totfact> 0.48630194E-01</totfact>
</mgrwt>
</event>
<event>
 6    1  0.2003386E-005  0.8894749E+03  0.7818608E-02  0.9438835E-01
         -4   -1    0    0    0  501 -0.00000000000E+00  0.00000000000E+00  0.19974697393E+03  0.19974697393E+03  0.00000000000E+00 0.  1.
          4   -1    0    0  501    0  0.00000000000E+00 -0.00000000000E+00 -0.99020981736E+03  0.99020981736E+03  0.00000000000E+00 0. -1.
         23    2    1    2    0    0 -0.18720109684E+03  0.36271418953E+03 -0.17844367751E+03  0.45431197659E+03  0.89170578585E+02 0.  0.
         13    1    3    3    0    0 -0.12921945625E+03  0.15330646686E+03 -0.83837145847E+02  0.21732281905E+03  0.00000000000E+00 0. -1.
        -13    1    3    3    0    0 -0.57981640586E+02  0.20940772267E+03 -0.94606531667E+02  0.23698915754E+03  0.00000000000E+00 0.  1.
         22    1    1    2    0    0  0.18720109684E+03 -0.36271418953E+03 -0.61201916592E+03  0.73564481470E+03  0.00000000000E+00 0. -1.
<mgrwt>
<rscale>  0 0.88947493E+03</rscale>
<asrwt>0</asrwt>
<pdfrwt beam="1">  1        4 0.15233997E+00 0.88947493E+03</pdfrwt>
<pdfrwt beam="2">  1       -4 0.30730304E-01 0.88947493E+03</pdfrwt>
<totfact> 0.58482323E+00</totfact>
</mgrwt>
</event>
<event>
 6    1  0.2003386E-005  0.3815406E+04  0.7818608E-02  0.8042857E-01
         -2   -1    0    0    0  501 -0.00000000000E+00  0.00000000000E+00  0.16182128623E+04  0.16182128623E+04  0.00000000000E+00 0.  1.
          2   -1    0    0  501    0  0.00000000000E+00 -0.00000000000E+00 -0.22489811185E+04  0.22489811185E+04  0.00000000000E+00 0. -1.
         23    2    1    2    0    0 -0.81931038493E+03 -0.10919890959E+04 -0.16640227869E+04  0.21550828227E+04  0.10816859579E+03 0.  0.
         13    1    3    3    0    0 -0.47390403957E+03 -0.70397373177E+03 -0.98536295006E+03  0.13004246218E+04  0.00000000000E+00 0. -1.
        -13    1    3    3    0    0 -0.34540634536E+03 -0.38801536412E+03 -0.67865983683E+03  0.85465820088E+03  0.00000000000E+00 0.  1.
         22    1    1    2    0    0  0.81931038493E+03  0.10919890959E+04  0.10332545307E+04  0.17121111581E+04  0.00000000000E+00 0.  1.
<mgrwt>
<rscale>  0 0.38154057E+04</rscale>
<asrwt>0</asrwt>
<pdfrwt beam="1">  1        2 0.34599709E+00 0.38154057E+04</pdfrwt>
<pdfrwt beam="2">  1       -2 0.24895583E+00 0.38154057E+04</pdfrwt>
<totfact> 0.25309227E-01</totfact>
</mgrwt>
</event>
<event>
 6    1  0.2003386E-005  0.2771890E+04  0.7818608E-02  0.8312049E-01
         -1   -1    0    0    0  501 -0.00000000000E+00  0.00000000000E+00  0.14142958013E+04  0.14142958013E+04  0.00000000000E+00 0.  1.
          1   -1    0    0  501    0  0.00000000000E+00 -0.00000000000E+00 -0.13581626765E+04  0.13581626765E+04  0.00000000000E+00 0. -1.
         23    2    1    2    0    0  0.10447996628E+04 -0.86140697988E+03 -0.26010738926E+03  0.13819059319E+04  0.91541412943E+02 0.  0.
         11    1    3    3    0    0  0.14744377622E+03 -0.16447620545E+03 -0.35784226815E+02  0.22376907784E+03  0.00000000000E+00 0.  1.
        -11    1    3    3    0    0  0.89735588656E+03 -0.69693077443E+03 -0.22432316245E+03  0.11581368540E+04  0.00000000000E+00 0. -1.
         22    1    1    2    0    0 -0.10447996628E+04  0.86140697988E+03  0.31624051401E+03  0.13905525459E+04  0.00000000000E+00 0. -1.
<mgrwt>
<rscale>  0 0.27718902E+04</rscale>
<asrwt>0</asrwt>
<pdfrwt beam="1">  1        1 0.20894810E+00 0.27718902E+04</pdfrwt>
<pdfrwt beam="2">  1       -1 0.21758397E+00 0.27718902E+04</pdfrwt>
<totfact> 0.81525402E-01</totfact>
</mgrwt>
</event>
<event>
 6    1  0.2003386E-005  0.3255118E+04  0.7818608E-02  0.8174410E-01
         -2   -1    0    0    0  501 -0.00000000000E+00  0.00000000000E+00  0.11512973923E+04  0.11512973923E+04  0.00000000000E+00 0.  1.
          2   -1    0    0  501    0  0.00000000000E+00 -0.00000000000E+00 -0.23008373369E+04  0.23008373369E+04  0.00000000000E+00 0. -1.
         23    2    1    2    0    0  0.52257132956E+03 -0.66212218840E+03  0.89925846049E+03  0.12364945303E+04  0.93628829664E+02 0.  0.
         13    1    3    3    0    0  0.15260789474E+03 -0.24507911245E+03  0.26288454420E+03  0.39046283367E+03  0.00000000000E+00 0. -1.
        -13    1    3    3    0    0  0.36996343483E+03 -0.41704307595E+03  0.63637391629E+03  0.84603169659E+03  0.00000000000E+00 0.  1.
         22    1    1    2    0    0 -0.52257132956E+03  0.66212218840E+03 -0.20487984050E+04  0.22156401990E+04  0.00000000000E+00 0. -1.
<mgrwt>
<rscale>  0 0.32551178E+04</rscale>
<asrwt>0</asrwt>
<pdfrwt beam="1">  1        2 0.35397497E+00 0.32551178E+04</pdfrwt>
<pdfrwt beam="2">  1       -2 0.17712268E+00 0.32551178E+04</pdfrwt>
<totfact> 0.72074531E-01</totfact>
</mgrwt>
</event>
<event>
 6    1  0.2003386E-005  0.9394437E+03  0.7818608E-02  0.9377575E-01
         -2   -1    0    0    0  501 -0.00000000000E+00  0.00000000000E+00  0.36735700034E+03  0.36735700034E+03  0.00000000000E+00 0.  1.
          2   -1    0    0  501    0  0.00000000000E+00 -0.00000000000E+00 -0.60061088068E+03  0.60061088068E+03  0.00000000000E+00 0. -1.
         23    2    1    2    0    0  0.34503071980E+03 -0.23433510338E+03  0.94460034707E+02  0.43753829248E+03  0.92509031718E+02 0.  0.
         11    1    3    3    0    0  0.26650726863E+03 -0.16678585761E+03  0.10940412556E+03  0.33288572998E+03  0.00000000000E+00 0.  1.
        -11    1    3    3    0    0  0.78523451172E+02 -0.67549245763E+02 -0.14944090856E+02  0.10465256250E+03  0.00000000000E+00 0. -1.
         22    1    1    2    0    0 -0.34503071980E+03  0.23433510338E+03 -0.32771391504E+03  0.53042958854E+03  0.00000000000E+00 0.  1.
<mgrwt>
<rscale>  0 0.93944369E+03</rscale>
<asrwt>0</asrwt>
<pdfrwt beam="1">  1        2 0.92401674E-01 0.93944369E+03</pdfrwt>
<pdfrwt beam="2">  1       -2 0.56516462E-01 0.93944369E+03</pdfrwt>
<totfact> 0.14578173E+02</totfact>
</mgrwt>
</event>
<event>
 6    1  0.2200607E-005  0.4337839E+04  0.7818608E-02  0.7939658E-01
         -2   -1    0    0    0  501 -0.00000000000E+00  0.00000000000E+00  0.17572197219E+04  0.17572197219E+04  0.00000000000E+00 0.  1.
          2   -1    0    0  501    0  0.00000000000E+00 -0.00000000000E+00 -0.26770768983E+04  0.26770768983E+04  0.00000000000E+00 0. -1.
         23    2    1    2    0    0 -0.19584169981E+04 -0.81495207542E+02  0.48674328162E+03  0.20217122267E+04  0.91447789259E+02 0.  0.
         13    1    3    3    0    0 -0.14508220942E+04 -0.10041947023E+03  0.35915512023E+03  0.14979857207E+04  0.00000000000E+00 0.  1.
        -13    1    3    3    0    0 -0.50759490389E+03  0.18924262691E+02  0.12758816139E+03  0.52372650602E+03  0.00000000000E+00 0. -1.
         22    1    1    2    0    0  0.19584169981E+04  0.81495207542E+02 -0.14066004580E+04  0.24125843935E+04  0.00000000000E+00 0. -1.
<mgrwt>
<rscale>  0 0.43378392E+04</rscale>
<asrwt>0</asrwt>
<pdfrwt beam="1">  1        2 0.41185798E+00 0.43378392E+04</pdfrwt>
<pdfrwt beam="2">  1       -2 0.27034150E+00 0.43378392E+04</pdfrwt>
<totfact> 0.10145884E-01</totfact>
</mgrwt>
</event>
<event>
 6    1  0.2003386E-005  0.2237725E+04  0.7818608E-02  0.8502888E-01
         -1   -1    0    0    0  501 -0.00000000000E+00  0.00000000000E+00  0.54225847598E+03  0.54225847598E+03  0.00000000000E+00 0.  1.
          1   -1    0    0  501    0  0.00000000000E+00 -0.00000000000E+00 -0.23085907327E+04  0.23085907327E+04  0.00000000000E+00 0. -1.
         23    2    1    2    0    0  0.15857880605E+03 -0.48459670179E+03 -0.21507851770E+04  0.22122685568E+04  0.90962017338E+02 0.  0.
         13    1    3    3    0    0  0.46928410179E+02 -0.22169770038E+03 -0.11167728402E+04  0.11395322386E+04  0.00000000000E+00 0.  1.
        -13    1    3    3    0    0  0.11165039588E+03 -0.26289900141E+03 -0.10340123368E+04  0.10727363182E+04  0.00000000000E+00 0. -1.
         22    1    1    2    0    0 -0.15857880605E+03  0.48459670179E+03  0.38445292026E+03  0.63858065192E+03  0.00000000000E+00 0.  1.
<mgrwt>
<rscale>  0 0.22377246E+04</rscale>
<asrwt>0</asrwt>
<pdfrwt beam="1">  1        1 0.35516781E+00 0.22377246E+04</pdfrwt>
<pdfrwt beam="2">  1       -1 0.83424381E-01 0.22377246E+04</pdfrwt>
<totfact> 0.23784828E+00</totfact>
</mgrwt>
</event>
<event>
 6    1  0.2003386E-005  0.1551143E+04  0.7818608E-02  0.8851138E-01
          4   -1    0    0  501    0  0.00000000000E+00  0.00000000000E+00  0.77776842339E+03  0.77776842339E+03  0.00000000000E+00 0.  1.
         -4   -1    0    0    0  501 -0.00000000000E+00 -0.00000000000E+00 -0.77338116463E+03  0.77338116463E+03  0.00000000000E+00 0. -1.
         23    2    1    2    0    0 -0.17183506880E+03  0.25156858669E+02 -0.75085476942E+03  0.77619753818E+03  0.92409821484E+02 0.  0.
         11    1    3    3    0    0 -0.17736718951E+03  0.36915593578E+02 -0.65982084536E+03  0.68424076825E+03  0.00000000000E+00 0. -1.
        -11    1    3    3    0    0  0.55321207061E+01 -0.11758734909E+02 -0.91033924057E+02  0.91956769927E+02  0.00000000000E+00 0.  1.
         22    1    1    2    0    0  0.17183506880E+03 -0.25156858669E+02  0.75524202819E+03  0.77495204984E+03  0.00000000000E+00 0.  1.
<mgrwt>
<rscale>  0 0.15511434E+04</rscale>
<asrwt>0</asrwt>
<pdfrwt beam="1">  1        4 0.11965668E+00 0.15511434E+04</pdfrwt>
<pdfrwt beam="2">  1       -4 0.11898172E+00 0.15511434E+04</pdfrwt>
<totfact> 0.55514433E-01</totfact>
</mgrwt>
</event>
<event>
 6    1  0.2003386E-005  0.2233410E+04  0.7818608E-02  0.8504649E-01
          1   -1    0    0  501    0  0.00000000000E+00  0.00000000000E+00  0.18841742199E+04  0.18841742199E+04  0.00000000000E+00 0. -1.
         -1   -1    0    0    0  501 -0.00000000000E+00 -0.00000000000E+00 -0.66184430977E+03  0.66184430977E+03  0.00000000000E+00 0.  1.
         23    2    1    2    0    0 -0.50472827765E+03 -0.70787790014E+03  0.14077819586E+04  0.16570673398E+04  0.90445397059E+02 0.  0.
         13    1    3    3    0    0 -0.12417569603E+03 -0.17072442634E+03  0.41926762260E+03  0.46941641705E+03  0.00000000000E+00 0.  1.
        -13    1    3    3    0    0 -0.38055258163E+03 -0.53715347380E+03  0.98851433599E+03  0.11876509227E+04  0.00000000000E+00 0. -1.
         22    1    1    2    0    0  0.50472827765E+03  0.70787790014E+03 -0.18545204844E+03  0.88895118991E+03  0.00000000000E+00 0.  1.
<mgrwt>
<rscale>  0 0.22334099E+04</rscale>
<asrwt>0</asrwt>
<pdfrwt beam="1">  1        1 0.28987296E+00 0.22334099E+04</pdfrwt>
<pdfrwt beam="2">  1       -1 0.10182220E+00 0.22334099E+04</pdfrwt>
<totfact> 0.29679963E+00</totfact>
</mgrwt>
</event>
<event>
 6    1  0.2003386E-005  0.3053915E+04  0.7818608E-02  0.8228501E-01
         -2   -1    0    0    0  501 -0.00000000000E+00  0.00000000000E+00  0.68600642055E+03  0.68600642055E+03  0.00000000000E+00 0.  1.
          2   -1    0    0  501    0  0.00000000000E+00 -0.00000000000E+00 -0.33988002648E+04  0.33988002648E+04  0.00000000000E+00 0. -1.
         23    2    1    2    0    0  0.14006309945E+04 -0.35804156456E+03 -0.20091745723E+04  0.24770004083E+04  0.93742283842E+02 0.  0.
         13    1    3    3    0    0  0.68752591016E+03 -0.18048151808E+03 -0.90819372028E+03  0.11532915022E+04  0.00000000000E+00 0.  1.
        -13    1    3    3    0    0  0.71310508437E+03 -0.17756004648E+03 -0.11009808520E+04  0.13237089061E+04  0.00000000000E+00 0. -1.
         22    1    1    2    0    0 -0.14006309945E+04  0.35804156456E+03 -0.70361927198E+03  0.16078062771E+04  0.00000000000E+00 0.  1.
<mgrwt>
<rscale>  0 0.30539147E+04</rscale>
<asrwt>0</asrwt>
<pdfrwt beam="1">  1        2 0.52289234E+00 0.30539147E+04</pdfrwt>
<pdfrwt beam="2">  1       -2 0.10553945E+00 0.30539147E+04</pdfrwt>
<totfact> 0.59053983E-01</totfact>
</mgrwt>
</event>
<event>
 6    1  0.2003386E-005  0.8768256E+03  0.7818608E-02  0.9455023E-01
          2   -1    0    0  501    0  0.00000000000E+00  0.00000000000E+00  0.14682031635E+04  0.14682031635E+04  0.00000000000E+00 0. -1.
         -2   -1    0    0    0  501 -0.00000000000E+00 -0.00000000000E+00 -0.13091223965E+03  0.13091223965E+03  0.00000000000E+00 0.  1.
         23    2    1    2    0    0 -0.74907082495E+02 -0.25024673401E+02  0.14535121157E+04  0.14585996719E+04  0.92618718572E+02 0.  0.
         13    1    3    3    0    0 -0.52789968514E+02  0.31180727488E+02  0.72394054956E+03  0.72653213132E+03  0.00000000000E+00 0.  1.
        -13    1    3    3    0    0 -0.22117113981E+02 -0.56205400888E+02  0.72957156618E+03  0.73206754060E+03  0.00000000000E+00 0. -1.
         22    1    1    2    0    0  0.74907082495E+02  0.25024673401E+02 -0.11622119187E+03  0.14051573124E+03  0.00000000000E+00 0.  1.
<mgrwt>
<rscale>  0 0.87682556E+03</rscale>
<asrwt>0</asrwt>
<pdfrwt beam="1">  1        2 0.22587740E+00 0.87682556E+03</pdfrwt>
<pdfrwt beam="2">  1       -2 0.20140346E-01 0.87682556E+03</pdfrwt>
<totfact> 0.28032512E+02</totfact>
</mgrwt>
</event>
<event>
 6    1  0.2003386E-005  0.2066517E+04  0.7818608E-02  0.8576138E-01
          2   -1    0    0  501    0  0.00000000000E+00  0.00000000000E+00  0.15201494333E+04  0.15201494333E+04  0.00000000000E+00 0. -1.
         -2   -1    0    0    0  501 -0.00000000000E+00 -0.00000000000E+00 -0.70231460181E+03  0.70231460181E+03  0.00000000000E+00 0.  1.
         23    2    1    2    0    0 -0.27345095041E+03 -0.46865212555E+03  0.13528438758E+04  0.14604634351E+04  0.91414746132E+02 0.  0.
         11    1    3    3    0    0 -0.24865662280E+03 -0.35412863925E+03  0.10425223958E+04  0.11287560210E+04  0.00000000000E+00 0.  1.
        -11    1    3    3    0    0 -0.24794327605E+02 -0.11452348630E+03  0.31032148001E+03  0.33170741407E+03  0.00000000000E+00 0. -1.
         22    1    1    2    0    0  0.27345095041E+03  0.46865212555E+03 -0.53500904428E+03  0.76200060008E+03  0.00000000000E+00 0.  1.
<mgrwt>
<rscale>  0 0.20665170E+04</rscale>
<asrwt>0</asrwt>
<pdfrwt beam="1">  1        2 0.23386914E+00 0.20665170E+04</pdfrwt>
<pdfrwt beam="2">  1       -2 0.10804840E+00 0.20665170E+04</pdfrwt>
<totfact> 0.78408943E+00</totfact>
</mgrwt>
</event>
<event>
 6    1  0.2003386E-005  0.4856808E+04  0.7818608E-02  0.7850984E-01
          2   -1    0    0  501    0  0.00000000000E+00  0.00000000000E+00  0.32081779397E+04  0.32081779397E+04  0.00000000000E+00 0. -1.
         -2   -1    0    0    0  501 -0.00000000000E+00 -0.00000000000E+00 -0.18381606227E+04  0.18381606227E+04  0.00000000000E+00 0.  1.
         23    2    1    2    0    0 -0.10195385346E+04  0.17202405286E+04 -0.74484059659E+03  0.21357870176E+04  0.90068700020E+02 0.  0.
         11    1    3    3    0    0 -0.70239223728E+03  0.12525803968E+04 -0.55733331498E+03  0.15404327085E+04  0.00000000000E+00 0.  1.
        -11    1    3    3    0    0 -0.31714629734E+03  0.46766013177E+03 -0.18750728161E+03  0.59535430915E+03  0.00000000000E+00 0. -1.
         22    1    1    2    0    0  0.10195385346E+04 -0.17202405286E+04  0.21148579136E+04  0.29105515447E+04  0.00000000000E+00 0. -1.
<mgrwt>
<rscale>  0 0.48568082E+04</rscale>
<asrwt>0</asrwt>
<pdfrwt beam="1">  1        2 0.49356583E+00 0.48568082E+04</pdfrwt>
<pdfrwt beam="2">  1       -2 0.28279394E+00 0.48568082E+04</pdfrwt>
<totfact> 0.38153194E-02</totfact>
</mgrwt>
</event>
<event>
 6    1  0.2003386E-005  0.1419614E+04  0.7818608E-02  0.8939742E-01
         -1   -1    0    0    0  501 -0.00000000000E+00  0.00000000000E+00  0.34316039076E+03  0.34316039076E+03  0.00000000000E+00 0.  1.
          1   -1    0    0  501    0  0.00000000000E+00 -0.00000000000E+00 -0.14681948816E+04  0.14681948816E+04  0.00000000000E+00 0. -1.
         23    2    1    2    0    0  0.45525194308E+03 -0.13916544053E+03  0.10251678205E+03  0.49472947926E+03  0.87328205799E+02 0.  0.
         11    1    3    3    0    0  0.28272203820E+03 -0.43575567147E+02  0.47672986544E+02  0.29000568026E+03  0.00000000000E+00 0.  1.
        -11    1    3    3    0    0  0.17252990488E+03 -0.95589873379E+02  0.54843795507E+02  0.20472379900E+03  0.00000000000E+00 0. -1.
         22    1    1    2    0    0 -0.45525194308E+03  0.13916544053E+03 -0.12275512729E+04  0.13166257931E+04  0.00000000000E+00 0. -1.
<mgrwt>
<rscale>  0 0.14196145E+04</rscale>
<asrwt>0</asrwt>
<pdfrwt beam="1">  1        1 0.22587614E+00 0.14196145E+04</pdfrwt>
<pdfrwt beam="2">  1       -1 0.52793906E-01 0.14196145E+04</pdfrwt>
<totfact> 0.24234054E+01</totfact>
</mgrwt>
</event>
<event>
 6    1  0.2003386E-005  0.1772416E+04  0.7818608E-02  0.8721108E-01
          2   -1    0    0  501    0  0.00000000000E+00  0.00000000000E+00  0.24580332978E+04  0.24580332978E+04  0.00000000000E+00 0.  1.
         -2   -1    0    0    0  501 -0.00000000000E+00 -0.00000000000E+00 -0.31950927903E+03  0.31950927903E+03  0.00000000000E+00 0. -1.
         23    2    1    2    0    0 -0.33256861474E+03  0.71281510102E+03  0.44074958242E+03  0.90640781725E+03  0.92777610533E+02 0.  0.
         11    1    3    3    0    0 -0.28043011543E+03  0.58675034028E+03  0.40219864137E+03  0.76464420392E+03  0.00000000000E+00 0. -1.
        -11    1    3    3    0    0 -0.52138499309E+02  0.12606476074E+03  0.38550941055E+02  0.14176361334E+03  0.00000000000E+00 0.  1.
         22    1    1    2    0    0  0.33256861474E+03 -0.71281510102E+03  0.16977744363E+04  0.18711347596E+04  0.00000000000E+00 0.  1.
<mgrwt>
<rscale>  0 0.17724158E+04</rscale>
<asrwt>0</asrwt>
<pdfrwt beam="1">  1        2 0.37815896E+00 0.17724158E+04</pdfrwt>
<pdfrwt beam="2">  1       -2 0.49155275E-01 0.17724158E+04</pdfrwt>
<totfact> 0.13662370E+01</totfact>
</mgrwt>
</event>
<event>
 6    1  0.2003386E-005  0.7441568E+03  0.7818608E-02  0.9644562E-01
         -1   -1    0    0    0  501 -0.00000000000E+00  0.00000000000E+00  0.87984508632E+02  0.87984508632E+02  0.00000000000E+00 0.  1.
          1   -1    0    0  501    0  0.00000000000E+00 -0.00000000000E+00 -0.15734853866E+04  0.15734853866E+04  0.00000000000E+00 0. -1.
         23    2    1    2    0    0  0.99477575439E+02  0.23919942502E+03 -0.17559619656E+03  0.32619373379E+03  0.91957461743E+02 0.  0.
         13    1    3    3    0    0 -0.62836908186E+01  0.90463830409E+02 -0.75779637468E+02  0.11817674406E+03  0.00000000000E+00 0. -1.
        -13    1    3    3    0    0  0.10576126626E+03  0.14873559461E+03 -0.99816559091E+02  0.20801698972E+03  0.00000000000E+00 0.  1.
         22    1    1    2    0    0 -0.99477575439E+02 -0.23919942502E+03 -0.13099046814E+04  0.13352761615E+04  0.00000000000E+00 0. -1.
<mgrwt>
<rscale>  0 0.74415681E+03</rscale>
<asrwt>0</asrwt>
<pdfrwt beam="1">  1        1 0.24207469E+00 0.74415681E+03</pdfrwt>
<pdfrwt beam="2">  1       -1 0.13536078E-01 0.74415681E+03</pdfrwt>
<totfact> 0.23075365E+02</totfact>
</mgrwt>
</event>
<event>
 6    1  0.2003386E-005  0.1364636E+04  0.7818608E-02  0.8979822E-01
         -2   -1    0    0    0  501 -0.00000000000E+00  0.00000000000E+00  0.20140695241E+04  0.20140695241E+04  0.00000000000E+00 0. -1.
          2   -1    0    0  501    0  0.00000000000E+00 -0.00000000000E+00 -0.23115297337E+03  0.23115297337E+03  0.00000000000E+00 0.  1.
         23    2    1    2    0    0  0.37387794089E+03  0.77327453146E+02 -0.29205213311E+02  0.39331819719E+03  0.89900000359E+02 0.  0.
         13    1    3    3    0    0  0.14834221735E+03 -0.11916160800E+02 -0.23772341698E+02  0.15070677677E+03  0.00000000000E+00 0.  1.
        -13    1    3    3    0    0  0.22553572355E+03  0.89243613946E+02 -0.54328716131E+01  0.24261142042E+03  0.00000000000E+00 0. -1.
         22    1    1    2    0    0 -0.37387794089E+03 -0.77327453146E+02  0.18121217640E+04  0.18519043002E+04  0.00000000000E+00 0. -1.
<mgrwt>
<rscale>  0 0.13646364E+04</rscale>
<asrwt>0</asrwt>
<pdfrwt beam="1">  1        2 0.35561997E-01 0.13646364E+04</pdfrwt>
<pdfrwt beam="2">  1       -2 0.30985684E+00 0.13646364E+04</pdfrwt>
<totfact> 0.39900744E+00</totfact>
</mgrwt>
</event>
<event>
 6    1  0.2003386E-005  0.1885998E+04  0.7818608E-02  0.8661858E-01
         -2   -1    0    0    0  501 -0.00000000000E+00  0.00000000000E+00  0.10110623914E+04  0.10110623914E+04  0.00000000000E+00 0.  1.
          2   -1    0    0  501    0  0.00000000000E+00 -0.00000000000E+00 -0.87951715528E+03  0.87951715528E+03  0.00000000000E+00 0. -1.
         23    2    1    2    0    0 -0.65504879790E+03  0.63058133283E+03  0.30849437681E+03  0.96427897810E+03  0.89125878014E+02 0.  0.
         11    1    3    3    0    0 -0.37621757277E+03  0.30111190165E+03  0.15564090407E+03  0.50639128191E+03  0.00000000000E+00 0.  1.
        -11    1    3    3    0    0 -0.27883122513E+03  0.32946943118E+03  0.15285347274E+03  0.45788769619E+03  0.00000000000E+00 0. -1.
         22    1    1    2    0    0  0.65504879790E+03 -0.63058133283E+03 -0.17694914070E+03  0.92630056857E+03  0.00000000000E+00 0. -1.
<mgrwt>
<rscale>  0 0.18859976E+04</rscale>
<asrwt>0</asrwt>
<pdfrwt beam="1">  1        2 0.13531033E+00 0.18859976E+04</pdfrwt>
<pdfrwt beam="2">  1       -2 0.15554806E+00 0.18859976E+04</pdfrwt>
<totfact> 0.77178656E+00</totfact>
</mgrwt>
</event>
<event>
 6    1  0.2003386E-005  0.2841693E+04  0.7818608E-02  0.8290440E-01
          2   -1    0    0  501    0  0.00000000000E+00  0.00000000000E+00  0.36257068903E+04  0.36257068903E+04  0.00000000000E+00 0. -1.
         -2   -1    0    0    0  501 -0.00000000000E+00 -0.00000000000E+00 -0.55680292892E+03  0.55680292892E+03  0.00000000000E+00 0.  1.
         23    2    1    2    0    0 -0.22215956534E+02  0.95629485606E+03 -0.73068446422E+01  0.96100918698E+03  0.92151326711E+02 0.  0.
         13    1    3    3    0    0 -0.17159910629E+02  0.51180542553E+03  0.41750786725E+02  0.51379216063E+03  0.00000000000E+00 0. -1.
        -13    1    3    3    0    0 -0.50560459049E+01  0.44448943053E+03 -0.49057631367E+02  0.44721702634E+03  0.00000000000E+00 0.  1.
         22    1    1    2    0    0  0.22215956534E+02 -0.95629485606E+03  0.30762108060E+04  0.32215006323E+04  0.00000000000E+00 0. -1.
<mgrwt>
<rscale>  0 0.28416926E+04</rscale>
<asrwt>0</asrwt>
<pdfrwt beam="1">  1        2 0.55780104E+00 0.28416926E+04</pdfrwt>
<pdfrwt beam="2">  1       -2 0.85661991E-01 0.28416926E+04</pdfrwt>
<totfact> 0.67896757E-01</totfact>
</mgrwt>
</event>
<event>
 6    1  0.2003386E-005  0.2074385E+04  0.7818608E-02  0.8572612E-01
         -2   -1    0    0    0  501 -0.00000000000E+00  0.00000000000E+00  0.53930566200E+03  0.53930566200E+03  0.00000000000E+00 0.  1.
          2   -1    0    0  501    0  0.00000000000E+00 -0.00000000000E+00 -0.19947289595E+04  0.19947289595E+04  0.00000000000E+00 0. -1.
         23    2    1    2    0    0  0.24817023420E+03 -0.92044652087E+03 -0.12219415204E+04  0.15525439169E+04  0.91876394459E+02 0.  0.
         13    1    3    3    0    0  0.88173915506E+02 -0.33112835421E+03 -0.51227548615E+03  0.61631712620E+03  0.00000000000E+00 0. -1.
        -13    1    3    3    0    0  0.15999631869E+03 -0.58931816666E+03 -0.70966603424E+03  0.93622679074E+03  0.00000000000E+00 0.  1.
         22    1    1    2    0    0 -0.24817023420E+03  0.92044652087E+03 -0.23348177712E+03  0.98149070457E+03  0.00000000000E+00 0.  1.
<mgrwt>
<rscale>  0 0.20743853E+04</rscale>
<asrwt>0</asrwt>
<pdfrwt beam="1">  1        2 0.30688138E+00 0.20743853E+04</pdfrwt>
<pdfrwt beam="2">  1       -2 0.82970102E-01 0.20743853E+04</pdfrwt>
<totfact> 0.79066724E+00</totfact>
</mgrwt>
</event>
<event>
 6    1  0.2003386E-005  0.3391911E+03  0.7818608E-02  0.1067141E+00
         -2   -1    0    0    0  501 -0.00000000000E+00  0.00000000000E+00  0.12420182402E+02  0.12420182402E+02  0.00000000000E+00 0.  1.
          2   -1    0    0  501    0  0.00000000000E+00 -0.00000000000E+00 -0.23157989796E+04  0.23157989796E+04  0.00000000000E+00 0. -1.
         23    2    1    2    0    0  0.12996379337E+03 -0.23939236230E+02 -0.18205389388E+04  0.18276215157E+04  0.91513399971E+02 0.  0.
         13    1    3    3    0    0  0.39463835682E+02 -0.30266257309E+02 -0.11371722735E+04  0.11382592940E+04  0.00000000000E+00 0.  1.
        -13    1    3    3    0    0  0.90499957684E+02  0.63270210794E+01 -0.68336666531E+03  0.68936222176E+03  0.00000000000E+00 0. -1.
         22    1    1    2    0    0 -0.12996379337E+03  0.23939236230E+02 -0.48283985839E+03  0.50059764629E+03  0.00000000000E+00 0.  1.
<mgrwt>
<rscale>  0 0.33919107E+03</rscale>
<asrwt>0</asrwt>
<pdfrwt beam="1">  1        2 0.35627628E+00 0.33919107E+03</pdfrwt>
<pdfrwt beam="2">  1       -2 0.19107999E-02 0.33919107E+03</pdfrwt>
<totfact> 0.41648134E+03</totfact>
</mgrwt>
</event>
<event>
 6    1  0.2003386E-005  0.2437100E+04  0.7818608E-02  0.8425743E-01
          1   -1    0    0  501    0  0.00000000000E+00  0.00000000000E+00  0.22605613980E+04  0.22605613980E+04  0.00000000000E+00 0. -1.
         -1   -1    0    0    0  501 -0.00000000000E+00 -0.00000000000E+00 -0.65685629951E+03  0.65685629951E+03  0.00000000000E+00 0.  1.
         23    2    1    2    0    0  0.92353452890E+03  0.77694952744E+03  0.98899167472E+03  0.15630029945E+04  0.91144028908E+02 0.  0.
         11    1    3    3    0    0  0.55963931066E+02  0.72452555226E+02  0.57358953090E+02  0.10803417903E+03  0.00000000000E+00 0. -1.
        -11    1    3    3    0    0  0.86757059784E+03  0.70449697222E+03  0.93163272163E+03  0.14549688155E+04  0.00000000000E+00 0.  1.
         22    1    1    2    0    0 -0.92353452890E+03 -0.77694952744E+03  0.61471342377E+03  0.13544147030E+04  0.00000000000E+00 0.  1.
<mgrwt>
<rscale>  0 0.24370999E+04</rscale>
<asrwt>0</asrwt>
<pdfrwt beam="1">  1        1 0.34777867E+00 0.24370999E+04</pdfrwt>
<pdfrwt beam="2">  1       -1 0.10105482E+00 0.24370999E+04</pdfrwt>
<totfact> 0.16455854E+00</totfact>
</mgrwt>
</event>
<event>
 6    1  0.2003386E-005  0.1422245E+04  0.7818608E-02  0.8937872E-01
          2   -1    0    0  501    0  0.00000000000E+00  0.00000000000E+00  0.74629723725E+03  0.74629723725E+03  0.00000000000E+00 0. -1.
         -2   -1    0    0    0  501 -0.00000000000E+00 -0.00000000000E+00 -0.67760570322E+03  0.67760570322E+03  0.00000000000E+00 0.  1.
         23    2    1    2    0    0  0.64236334296E+03  0.32985672710E+02  0.33017873459E+03  0.72957284964E+03  0.97672038907E+02 0.  0.
         11    1    3    3    0    0  0.32894271582E+03  0.16766260865E+02  0.22373504909E+03  0.39817306537E+03  0.00000000000E+00 0. -1.
        -11    1    3    3    0    0  0.31342062713E+03  0.16219411845E+02  0.10644368550E+03  0.33139978427E+03  0.00000000000E+00 0.  1.
         22    1    1    2    0    0 -0.64236334296E+03 -0.32985672710E+02 -0.26148720056E+03  0.69433009083E+03  0.00000000000E+00 0.  1.
<mgrwt>
<rscale>  0 0.14222451E+04</rscale>
<asrwt>0</asrwt>
<pdfrwt beam="1">  1        2 0.11481496E+00 0.14222451E+04</pdfrwt>
<pdfrwt beam="2">  1       -2 0.10424703E+00 0.14222451E+04</pdfrwt>
<totfact> 0.27433902E+01</totfact>
</mgrwt>
</event>
<event>
 6    1  0.2003386E-005  0.2997119E+04  0.7818608E-02  0.8244554E-01
          2   -1    0    0  501    0  0.00000000000E+00  0.00000000000E+00  0.12278578911E+04  0.12278578911E+04  0.00000000000E+00 0.  1.
         -2   -1    0    0    0  501 -0.00000000000E+00 -0.00000000000E+00 -0.18289421940E+04  0.18289421940E+04  0.00000000000E+00 0. -1.
         23    2    1    2    0    0  0.10586394912E+04 -0.99202884043E+03 -0.67827297952E+03  0.16039419074E+04  0.87958030140E+02 0.  0.
         13    1    3    3    0    0  0.54793873624E+03 -0.54886743188E+03 -0.40143357394E+03  0.87329332457E+03  0.00000000000E+00 0. -1.
        -13    1    3    3    0    0  0.51070075495E+03 -0.44316140855E+03 -0.27683940559E+03  0.73064858285E+03  0.00000000000E+00 0.  1.
         22    1    1    2    0    0 -0.10586394912E+04  0.99202884043E+03  0.77188676586E+02  0.14528581776E+04  0.00000000000E+00 0.  1.
<mgrwt>
<rscale>  0 0.29971194E+04</rscale>
<asrwt>0</asrwt>
<pdfrwt beam="1">  1        2 0.18890121E+00 0.29971194E+04</pdfrwt>
<pdfrwt beam="2">  1       -2 0.28137572E+00 0.29971194E+04</pdfrwt>
<totfact> 0.64472611E-01</totfact>
</mgrwt>
</event>
<event>
 6    1  0.2003386E-005  0.2646099E+04  0.7818608E-02  0.8352709E-01
         -2   -1    0    0    0  501 -0.00000000000E+00  0.00000000000E+00  0.18784312806E+04  0.18784312806E+04  0.00000000000E+00 0.  1.
          2   -1    0    0  501    0  0.00000000000E+00 -0.00000000000E+00 -0.93187330577E+03  0.93187330577E+03  0.00000000000E+00 0. -1.
         23    2    1    2    0    0  0.11695483615E+03  0.96425805558E+03 -0.47769267221E+03  0.10863666707E+04  0.92359204743E+02 0.  0.
         13    1    3    3    0    0  0.73039158819E+02  0.74687867898E+03 -0.40639674722E+03  0.85341712895E+03  0.00000000000E+00 0. -1.
        -13    1    3    3    0    0  0.43915677329E+02  0.21737937660E+03 -0.71295924988E+02  0.23294954176E+03  0.00000000000E+00 0.  1.
         22    1    1    2    0    0 -0.11695483615E+03 -0.96425805558E+03  0.14242506470E+04  0.17239379156E+04  0.00000000000E+00 0.  1.
<mgrwt>
<rscale>  0 0.26460990E+04</rscale>
<asrwt>0</asrwt>
<pdfrwt beam="1">  1        2 0.14336512E+00 0.26460990E+04</pdfrwt>
<pdfrwt beam="2">  1       -2 0.28898943E+00 0.26460990E+04</pdfrwt>
<totfact> 0.91284111E-01</totfact>
</mgrwt>
</event>
<event>
 6    1  0.2003386E-005  0.5556356E+04  0.7818608E-02  0.7747982E-01
         -2   -1    0    0    0  501 -0.00000000000E+00  0.00000000000E+00  0.44331431753E+04  0.44331431753E+04  0.00000000000E+00 0.  1.
          2   -1    0    0  501    0  0.00000000000E+00 -0.00000000000E+00 -0.17410382114E+04  0.17410382114E+04  0.00000000000E+00 0. -1.
         23    2    1    2    0    0 -0.90892393426E+03  0.12955754416E+04  0.38825793897E+04  0.41938057149E+04  0.94473348245E+02 0.  0.
         11    1    3    3    0    0 -0.68944093293E+03  0.10486206667E+04  0.30571150593E+04  0.33046764726E+04  0.00000000000E+00 0. -1.
        -11    1    3    3    0    0 -0.21948300133E+03  0.24695477496E+03  0.82546433040E+03  0.88912924230E+03  0.00000000000E+00 0.  1.
         22    1    1    2    0    0  0.90892393426E+03 -0.12955754416E+04 -0.11904744257E+04  0.19803756718E+04  0.00000000000E+00 0. -1.
<mgrwt>
<rscale>  0 0.55563555E+04</rscale>
<asrwt>0</asrwt>
<pdfrwt beam="1">  1        2 0.26785203E+00 0.55563555E+04</pdfrwt>
<pdfrwt beam="2">  1       -2 0.68202202E+00 0.55563555E+04</pdfrwt>
<totfact> 0.17284658E-03</totfact>
</mgrwt>
</event>
<event>
 6    1  0.2003386E-005  0.3832772E+04  0.7818608E-02  0.8039159E-01
         -2   -1    0    0    0  501 -0.00000000000E+00  0.00000000000E+00  0.13132086790E+04  0.13132086790E+04  0.00000000000E+00 0.  1.
          2   -1    0    0  501    0  0.00000000000E+00 -0.00000000000E+00 -0.27966115887E+04  0.27966115887E+04  0.00000000000E+00 0. -1.
         23    2    1    2    0    0  0.77311051372E+03  0.90411679480E+03  0.86790982220E+03  0.14747114259E+04  0.79870428104E+02 0.  0.
         13    1    3    3    0    0  0.33132017366E+03  0.35659318463E+03  0.39693806085E+03  0.62808564778E+03  0.00000000000E+00 0.  1.
        -13    1    3    3    0    0  0.44179034005E+03  0.54752361018E+03  0.47097176135E+03  0.84662577816E+03  0.00000000000E+00 0. -1.
         22    1    1    2    0    0 -0.77311051372E+03 -0.90411679480E+03 -0.23513127319E+04  0.26351088418E+04  0.00000000000E+00 0. -1.
<mgrwt>
<rscale>  0 0.38327716E+04</rscale>
<asrwt>0</asrwt>
<pdfrwt beam="1">  1        2 0.43024793E+00 0.38327716E+04</pdfrwt>
<pdfrwt beam="2">  1       -2 0.20203211E+00 0.38327716E+04</pdfrwt>
<totfact> 0.23955892E-01</totfact>
</mgrwt>
</event>
<event>
 6    1  0.2003386E-005  0.1141006E+04  0.7818608E-02  0.9166121E-01
         -2   -1    0    0    0  501 -0.00000000000E+00  0.00000000000E+00  0.11861078774E+03  0.11861078774E+03  0.00000000000E+00 0.  1.
          2   -1    0    0  501    0  0.00000000000E+00 -0.00000000000E+00 -0.27440482402E+04  0.27440482402E+04  0.00000000000E+00 0. -1.
         23    2    1    2    0    0  0.55662511508E+03  0.20767821924E+02 -0.10571666998E+04  0.11984066508E+04  0.91182500345E+02 0.  0.
         11    1    3    3    0    0  0.10909645344E+03 -0.85931097696E+01 -0.14221703315E+03  0.17944793731E+03  0.00000000000E+00 0. -1.
        -11    1    3    3    0    0  0.44752866164E+03  0.29360931693E+02 -0.91494966661E+03  0.10189587135E+04  0.00000000000E+00 0.  1.
         22    1    1    2    0    0 -0.55662511508E+03 -0.20767821924E+02 -0.15682707527E+04  0.16642523772E+04  0.00000000000E+00 0. -1.
<mgrwt>
<rscale>  0 0.11410061E+04</rscale>
<asrwt>0</asrwt>
<pdfrwt beam="1">  1        2 0.42216126E+00 0.11410061E+04</pdfrwt>
<pdfrwt beam="2">  1       -2 0.18247814E-01 0.11410061E+04</pdfrwt>
<totfact> 0.62842166E+01</totfact>
</mgrwt>
</event>
<event>
 6    1  0.2003386E-005  0.1492092E+04  0.7818608E-02  0.8889729E-01
          2   -1    0    0  501    0  0.00000000000E+00  0.00000000000E+00  0.16623041189E+04  0.16623041189E+04  0.00000000000E+00 0. -1.
         -2   -1    0    0    0  501 -0.00000000000E+00 -0.00000000000E+00 -0.33482722884E+03  0.33482722884E+03  0.00000000000E+00 0.  1.
         23    2    1    2    0    0 -0.50404534032E+03 -0.29307734268E+03  0.48629004895E+02  0.59163928186E+03  0.87842050501E+02 0.  0.
         11    1    3    3    0    0 -0.11443045244E+03 -0.43918265455E+02 -0.19717056062E+02  0.12414469295E+03  0.00000000000E+00 0.  1.
        -11    1    3    3    0    0 -0.38961488787E+03 -0.24915907722E+03  0.68346060957E+02  0.46749458891E+03  0.00000000000E+00 0. -1.
         22    1    1    2    0    0  0.50404534032E+03  0.29307734268E+03  0.12788478852E+04  0.14054920659E+04  0.00000000000E+00 0. -1.
<mgrwt>
<rscale>  0 0.14920921E+04</rscale>
<asrwt>0</asrwt>
<pdfrwt beam="1">  1        2 0.25573909E+00 0.14920921E+04</pdfrwt>
<pdfrwt beam="2">  1       -2 0.51511882E-01 0.14920921E+04</pdfrwt>
<totfact> 0.35421146E+01</totfact>
</mgrwt>
</event>
<event>
 6    1  0.3060521E-005  0.3232277E+04  0.7818608E-02  0.8180345E-01
         -2   -1    0    0    0  501 -0.00000000000E+00  0.00000000000E+00  0.13789902912E+04  0.13789902912E+04  0.00000000000E+00 0.  1.
          2   -1    0    0  501    0  0.00000000000E+00 -0.00000000000E+00 -0.18940692925E+04  0.18940692925E+04  0.00000000000E+00 0. -1.
         23    2    1    2    0    0  0.52411796496E+03 -0.10660471116E+04  0.84993773030E+03  0.14635218629E+04  0.91356512580E+02 0.  0.
         13    1    3    3    0    0  0.14387291353E+03 -0.30693548936E+03  0.29367896749E+03  0.44850434314E+03  0.00000000000E+00 0. -1.
        -13    1    3    3    0    0  0.38024505143E+03 -0.75911162224E+03  0.55625876281E+03  0.10150175197E+04  0.00000000000E+00 0.  1.
         22    1    1    2    0    0 -0.52411796496E+03  0.10660471116E+04 -0.13650167316E+04  0.18095377208E+04  0.00000000000E+00 0. -1.
<mgrwt>
<rscale>  0 0.32322767E+04</rscale>
<asrwt>0</asrwt>
<pdfrwt beam="1">  1        2 0.29139527E+00 0.32322767E+04</pdfrwt>
<pdfrwt beam="2">  1       -2 0.21215235E+00 0.32322767E+04</pdfrwt>
<totfact> 0.71276931E-01</totfact>
</mgrwt>
</event>
<event>
 6    1  0.3308383E-005  0.4310205E+04  0.7818608E-02  0.7944734E-01
         -2   -1    0    0    0  501 -0.00000000000E+00  0.00000000000E+00  0.21258221561E+04  0.21258221561E+04  0.00000000000E+00 0. -1.
          2   -1    0    0  501    0  0.00000000000E+00 -0.00000000000E+00 -0.21847860046E+04  0.21847860046E+04  0.00000000000E+00 0.  1.
         23    2    1    2    0    0 -0.54973746300E+03  0.20700151246E+04  0.20113567713E+03  0.21531036631E+04  0.90696908227E+02 0.  0.
         13    1    3    3    0    0 -0.35291503661E+03  0.14816119549E+04  0.15539870401E+03  0.15309708571E+04  0.00000000000E+00 0.  1.
        -13    1    3    3    0    0 -0.19682242639E+03  0.58840316967E+03  0.45736973128E+02  0.62213280602E+03  0.00000000000E+00 0. -1.
         22    1    1    2    0    0  0.54973746300E+03 -0.20700151246E+04 -0.26009952556E+03  0.21575044976E+04  0.00000000000E+00 0.  1.
<mgrwt>
<rscale>  0 0.43102049E+04</rscale>
<asrwt>0</asrwt>
<pdfrwt beam="1">  1        2 0.33612092E+00 0.43102049E+04</pdfrwt>
<pdfrwt beam="2">  1       -2 0.32704956E+00 0.43102049E+04</pdfrwt>
<totfact> 0.87740995E-02</totfact>
</mgrwt>
</event>
<event>
 6    1  0.3030833E-005  0.2490240E+04  0.7818608E-02  0.8406471E-01
          2   -1    0    0  501    0  0.00000000000E+00  0.00000000000E+00  0.17691040002E+04  0.17691040002E+04  0.00000000000E+00 0. -1.
         -2   -1    0    0    0  501 -0.00000000000E+00 -0.00000000000E+00 -0.87633293285E+03  0.87633293285E+03  0.00000000000E+00 0.  1.
         23    2    1    2    0    0  0.62867234634E+03 -0.23589239287E+02 -0.69371315917E+03  0.93876837346E+03  0.65289666444E+02 0.  0.
         11    1    3    3    0    0  0.40821214713E+03 -0.83021629492E+01 -0.49414721363E+03  0.64100511052E+03  0.00000000000E+00 0.  1.
        -11    1    3    3    0    0  0.22046019921E+03 -0.15287076338E+02 -0.19956594554E+03  0.29776326294E+03  0.00000000000E+00 0. -1.
         22    1    1    2    0    0 -0.62867234634E+03  0.23589239287E+02  0.15864842265E+04  0.17066685595E+04  0.00000000000E+00 0. -1.
<mgrwt>
<rscale>  0 0.24902402E+04</rscale>
<asrwt>0</asrwt>
<pdfrwt beam="1">  1        2 0.27216985E+00 0.24902402E+04</pdfrwt>
<pdfrwt beam="2">  1       -2 0.13482045E+00 0.24902402E+04</pdfrwt>
<totfact> 0.31721825E+00</totfact>
</mgrwt>
</event>
<event>
 6    1  0.2003386E-005  0.1093660E+04  0.7818608E-02  0.9211393E-01
          2   -1    0    0  501    0  0.00000000000E+00  0.00000000000E+00  0.12300737110E+04  0.12300737110E+04  0.00000000000E+00 0. -1.
         -2   -1    0    0    0  501 -0.00000000000E+00 -0.00000000000E+00 -0.24309366266E+03  0.24309366266E+03  0.00000000000E+00 0.  1.
         23    2    1    2    0    0 -0.32448731410E+03 -0.85709472417E+02  0.10719562538E+04  0.11269606635E+04  0.91170150603E+02 0.  0.
         13    1    3    3    0    0 -0.59899037309E+02 -0.43739542016E+02  0.32679727065E+03  0.33510818897E+03  0.00000000000E+00 0. -1.
        -13    1    3    3    0    0 -0.26458827679E+03 -0.41969930401E+02  0.74515898312E+03  0.79185247452E+03  0.00000000000E+00 0.  1.
         22    1    1    2    0    0  0.32448731410E+03  0.85709472417E+02 -0.84976205447E+02  0.34620671017E+03  0.00000000000E+00 0.  1.
<mgrwt>
<rscale>  0 0.10936601E+04</rscale>
<asrwt>0</asrwt>
<pdfrwt beam="1">  1        2 0.18924211E+00 0.10936601E+04</pdfrwt>
<pdfrwt beam="2">  1       -2 0.37399026E-01 0.10936601E+04</pdfrwt>
<totfact> 0.12159860E+02</totfact>
</mgrwt>
</event>
<event>
 6    1  0.2003386E-005  0.2922627E+04  0.7818608E-02  0.8266177E-01
         -2   -1    0    0    0  501 -0.00000000000E+00  0.00000000000E+00  0.12592648007E+04  0.12592648007E+04  0.00000000000E+00 0.  1.
          2   -1    0    0  501    0  0.00000000000E+00 -0.00000000000E+00 -0.16957810558E+04  0.16957810558E+04  0.00000000000E+00 0. -1.
         23    2    1    2    0    0  0.93254428392E+03 -0.10133175486E+04  0.27145840750E+03  0.14066016636E+04  0.91582078712E+02 0.  0.
         11    1    3    3    0    0  0.55737558641E+03 -0.54508353810E+03  0.17322271100E+03  0.79861737737E+03  0.00000000000E+00 0. -1.
        -11    1    3    3    0    0  0.37516869752E+03 -0.46823401050E+03  0.98235696499E+02  0.60798428619E+03  0.00000000000E+00 0.  1.
         22    1    1    2    0    0 -0.93254428392E+03  0.10133175486E+04 -0.70797466258E+03  0.15484441929E+04  0.00000000000E+00 0. -1.
<mgrwt>
<rscale>  0 0.29226272E+04</rscale>
<asrwt>0</asrwt>
<pdfrwt beam="1">  1        2 0.26088940E+00 0.29226272E+04</pdfrwt>
<pdfrwt beam="2">  1       -2 0.19373304E+00 0.29226272E+04</pdfrwt>
<totfact> 0.12431400E+00</totfact>
</mgrwt>
</event>
<event>
 6    1  0.2003386E-005  0.3349677E+04  0.7818608E-02  0.8150369E-01
         -1   -1    0    0    0  501 -0.00000000000E+00  0.00000000000E+00  0.18561022326E+04  0.18561022326E+04  0.00000000000E+00 0.  1.
          1   -1    0    0  501    0  0.00000000000E+00 -0.00000000000E+00 -0.15112763350E+04  0.15112763350E+04  0.00000000000E+00 0. -1.
         23    2    1    2    0    0  0.68669488133E+03  0.80437154822E+03 -0.11313756600E+04  0.15514120244E+04  0.91131431047E+02 0.  0.
         11    1    3    3    0    0  0.53579823636E+03  0.60767458327E+03 -0.91753358611E+03  0.12240163524E+04  0.00000000000E+00 0.  1.
        -11    1    3    3    0    0  0.15089664497E+03  0.19669696495E+03 -0.21384207389E+03  0.32739567201E+03  0.00000000000E+00 0. -1.
         22    1    1    2    0    0 -0.68669488133E+03 -0.80437154822E+03  0.14762015576E+04  0.18159665432E+04  0.00000000000E+00 0.  1.
<mgrwt>
<rscale>  0 0.33496766E+04</rscale>
<asrwt>0</asrwt>
<pdfrwt beam="1">  1        1 0.23250405E+00 0.33496766E+04</pdfrwt>
<pdfrwt beam="2">  1       -1 0.28555419E+00 0.33496766E+04</pdfrwt>
<totfact> 0.21745254E-01</totfact>
</mgrwt>
</event>
<event>
 6    1  0.2003386E-005  0.1419280E+04  0.7818608E-02  0.8939980E-01
         -2   -1    0    0    0  501 -0.00000000000E+00  0.00000000000E+00  0.22007293313E+03  0.22007293313E+03  0.00000000000E+00 0.  1.
          2   -1    0    0  501    0  0.00000000000E+00 -0.00000000000E+00 -0.22882816176E+04  0.22882816176E+04  0.00000000000E+00 0. -1.
         23    2    1    2    0    0 -0.61614469968E+03 -0.26080961702E+03 -0.63553857791E+03  0.92715260869E+03  0.89703559137E+02 0.  0.
         13    1    3    3    0    0 -0.48821648203E+03 -0.24063310214E+03 -0.49040761058E+03  0.73263855187E+03  0.00000000000E+00 0.  1.
        -13    1    3    3    0    0 -0.12792821765E+03 -0.20176514880E+02 -0.14513096733E+03  0.19451405683E+03  0.00000000000E+00 0. -1.
         22    1    1    2    0    0  0.61614469968E+03  0.26080961702E+03 -0.14326701066E+04  0.15812019421E+04  0.00000000000E+00 0.  1.
<mgrwt>
<rscale>  0 0.14192799E+04</rscale>
<asrwt>0</asrwt>
<pdfrwt beam="1">  1        2 0.35204333E+00 0.14192799E+04</pdfrwt>
<pdfrwt beam="2">  1       -2 0.33857374E-01 0.14192799E+04</pdfrwt>
<totfact> 0.36593412E+01</totfact>
</mgrwt>
</event>
<event>
 6    1  0.2003386E-005  0.2415297E+04  0.7818608E-02  0.8433799E-01
         -2   -1    0    0    0  501 -0.00000000000E+00  0.00000000000E+00  0.10270170634E+04  0.10270170634E+04  0.00000000000E+00 0.  1.
          2   -1    0    0  501    0  0.00000000000E+00 -0.00000000000E+00 -0.14200487642E+04  0.14200487642E+04  0.00000000000E+00 0. -1.
         23    2    1    2    0    0 -0.15816576063E+03 -0.13279102449E+03 -0.14007165530E+04  0.14184363387E+04  0.85468832041E+02 0.  0.
         13    1    3    3    0    0 -0.71756548635E+02 -0.10796414572E+03 -0.95352944906E+03  0.96230123624E+03  0.00000000000E+00 0.  1.
        -13    1    3    3    0    0 -0.86409211993E+02 -0.24826878762E+02 -0.44718710391E+03  0.45613510250E+03  0.00000000000E+00 0. -1.
         22    1    1    2    0    0  0.15816576063E+03  0.13279102449E+03  0.10076848522E+04  0.10286294888E+04  0.00000000000E+00 0.  1.
<mgrwt>
<rscale>  0 0.24152965E+04</rscale>
<asrwt>0</asrwt>
<pdfrwt beam="1">  1        2 0.21846904E+00 0.24152965E+04</pdfrwt>
<pdfrwt beam="2">  1       -2 0.15800263E+00 0.24152965E+04</pdfrwt>
<totfact> 0.32995906E+00</totfact>
</mgrwt>
</event>
<event>
 6    1  0.2003386E-005  0.2965779E+04  0.7818608E-02  0.8253571E-01
          1   -1    0    0  501    0  0.00000000000E+00  0.00000000000E+00  0.36025874033E+04  0.36025874033E+04  0.00000000000E+00 0. -1.
         -1   -1    0    0    0  501 -0.00000000000E+00 -0.00000000000E+00 -0.61038377373E+03  0.61038377373E+03  0.00000000000E+00 0.  1.
         23    2    1    2    0    0 -0.77219538470E+02  0.12569875195E+04  0.26056981172E+04  0.28956378887E+04  0.95266064270E+02 0.  0.
         11    1    3    3    0    0 -0.66154734674E+02  0.47884340905E+03  0.10638839832E+04  0.11685532033E+04  0.00000000000E+00 0.  1.
        -11    1    3    3    0    0 -0.11064803796E+02  0.77814411047E+03  0.15418141340E+04  0.17270846854E+04  0.00000000000E+00 0. -1.
         22    1    1    2    0    0  0.77219538470E+02 -0.12569875195E+04  0.38650551228E+03  0.13173332883E+04  0.00000000000E+00 0. -1.
<mgrwt>
<rscale>  0 0.29657787E+04</rscale>
<asrwt>0</asrwt>
<pdfrwt beam="1">  1        1 0.55424420E+00 0.29657787E+04</pdfrwt>
<pdfrwt beam="2">  1       -1 0.93905198E-01 0.29657787E+04</pdfrwt>
<totfact> 0.19405158E-01</totfact>
</mgrwt>
</event>
<event>
 6    1  0.2003386E-005  0.2276961E+04  0.7818608E-02  0.8487061E-01
          1   -1    0    0  501    0  0.00000000000E+00  0.00000000000E+00  0.16224472233E+04  0.16224472233E+04  0.00000000000E+00 0. -1.
         -1   -1    0    0    0  501 -0.00000000000E+00 -0.00000000000E+00 -0.79887849767E+03  0.79887849767E+03  0.00000000000E+00 0.  1.
         23    2    1    2    0    0  0.26405349979E+03 -0.10471215852E+04  0.35538392696E+02  0.10844713271E+04  0.92882813578E+02 0.  0.
         13    1    3    3    0    0  0.19461911945E+03 -0.74634929728E+03 -0.16231425266E+02  0.77147737126E+03  0.00000000000E+00 0.  1.
        -13    1    3    3    0    0  0.69434380337E+02 -0.30077228788E+03  0.51769817962E+02  0.31299395582E+03  0.00000000000E+00 0. -1.
         22    1    1    2    0    0 -0.26405349979E+03  0.10471215852E+04  0.78803033296E+03  0.13368543939E+04  0.00000000000E+00 0. -1.
<mgrwt>
<rscale>  0 0.22769613E+04</rscale>
<asrwt>0</asrwt>
<pdfrwt beam="1">  1        1 0.24960726E+00 0.22769613E+04</pdfrwt>
<pdfrwt beam="2">  1       -1 0.12290438E+00 0.22769613E+04</pdfrwt>
<totfact> 0.28466219E+00</totfact>
</mgrwt>
</event>
<event>
 6    1  0.2003386E-005  0.1569742E+04  0.7818608E-02  0.8839356E-01
         -2   -1    0    0    0  501 -0.00000000000E+00  0.00000000000E+00  0.60288971515E+03  0.60288971515E+03  0.00000000000E+00 0.  1.
          2   -1    0    0  501    0  0.00000000000E+00 -0.00000000000E+00 -0.10217824071E+04  0.10217824071E+04  0.00000000000E+00 0. -1.
         23    2    1    2    0    0 -0.11730009516E+03  0.66741982883E+03  0.19416397001E+03  0.71086305522E+03  0.91750181406E+02 0.  0.
         13    1    3    3    0    0 -0.66501840051E+02  0.21666934466E+03  0.30752018695E+02  0.22872207217E+03  0.00000000000E+00 0. -1.
        -13    1    3    3    0    0 -0.50798255114E+02  0.45075048417E+03  0.16341195131E+03  0.48214098305E+03  0.00000000000E+00 0.  1.
         22    1    1    2    0    0  0.11730009516E+03 -0.66741982883E+03 -0.61305666196E+03  0.91380906704E+03  0.00000000000E+00 0. -1.
<mgrwt>
<rscale>  0 0.15697415E+04</rscale>
<asrwt>0</asrwt>
<pdfrwt beam="1">  1        2 0.15719729E+00 0.15697415E+04</pdfrwt>
<pdfrwt beam="2">  1       -2 0.92752263E-01 0.15697415E+04</pdfrwt>
<totfact> 0.23110417E+01</totfact>
</mgrwt>
</event>
<event>
 6    1  0.2003386E-005  0.5815116E+04  0.7818608E-02  0.7713757E-01
         -2   -1    0    0    0  501 -0.00000000000E+00  0.00000000000E+00  0.17944974238E+04  0.17944974238E+04  0.00000000000E+00 0.  1.
          2   -1    0    0  501    0  0.00000000000E+00 -0.00000000000E+00 -0.47110095716E+04  0.47110095716E+04  0.00000000000E+00 0. -1.
         23    2    1    2    0    0  0.28995228855E+04  0.49195378660E+01 -0.12285388190E+04  0.31504345485E+04  0.93129207174E+02 0.  0.
         13    1    3    3    0    0  0.11279231033E+04 -0.42743638992E+02 -0.46911182231E+03  0.12223352435E+04  0.00000000000E+00 0.  1.
        -13    1    3    3    0    0  0.17715997822E+04  0.47663176858E+02 -0.75942699665E+03  0.19280993050E+04  0.00000000000E+00 0. -1.
         22    1    1    2    0    0 -0.28995228855E+04 -0.49195378660E+01 -0.16879733288E+04  0.33550724470E+04  0.00000000000E+00 0. -1.
<mgrwt>
<rscale>  0 0.58151163E+04</rscale>
<asrwt>0</asrwt>
<pdfrwt beam="1">  1        2 0.72477070E+00 0.58151163E+04</pdfrwt>
<pdfrwt beam="2">  1       -2 0.27607653E+00 0.58151163E+04</pdfrwt>
<totfact> 0.22349706E-03</totfact>
</mgrwt>
</event>
<event>
 6    1  0.2003386E-005  0.4278101E+04  0.7818608E-02  0.7950680E-01
         -2   -1    0    0    0  501 -0.00000000000E+00  0.00000000000E+00  0.17931992745E+04  0.17931992745E+04  0.00000000000E+00 0.  1.
          2   -1    0    0  501    0  0.00000000000E+00 -0.00000000000E+00 -0.25516059621E+04  0.25516059621E+04  0.00000000000E+00 0. -1.
         23    2    1    2    0    0  0.11158461496E+04  0.15781585141E+04  0.54893322738E+03  0.20113883045E+04  0.93049976665E+02 0.  0.
         13    1    3    3    0    0  0.42580127210E+03  0.67546025516E+03  0.24488215230E+03  0.83517695618E+03  0.00000000000E+00 0. -1.
        -13    1    3    3    0    0  0.69004487751E+03  0.90269825897E+03  0.30405107508E+03  0.11762113483E+04  0.00000000000E+00 0.  1.
         22    1    1    2    0    0 -0.11158461496E+04 -0.15781585141E+04 -0.13073399150E+04  0.23334169320E+04  0.00000000000E+00 0. -1.
<mgrwt>
<rscale>  0 0.42781014E+04</rscale>
<asrwt>0</asrwt>
<pdfrwt beam="1">  1        2 0.39255476E+00 0.42781014E+04</pdfrwt>
<pdfrwt beam="2">  1       -2 0.27587681E+00 0.42781014E+04</pdfrwt>
<totfact> 0.11182008E-01</totfact>
</mgrwt>
</event>
<event>
 6    1  0.2003386E-005  0.3130711E+04  0.7818608E-02  0.8207360E-01
         -2   -1    0    0    0  501 -0.00000000000E+00  0.00000000000E+00  0.60621191387E+03  0.60621191387E+03  0.00000000000E+00 0.  1.
          2   -1    0    0  501    0  0.00000000000E+00 -0.00000000000E+00 -0.40420476641E+04  0.40420476641E+04  0.00000000000E+00 0. -1.
         23    2    1    2    0    0  0.20370061738E+03 -0.15273142942E+04 -0.21172000371E+04  0.26202105059E+04  0.93724080121E+02 0.  0.
         11    1    3    3    0    0  0.11211554172E+03 -0.10008182681E+04 -0.14489215787E+04  0.17645341713E+04  0.00000000000E+00 0. -1.
        -11    1    3    3    0    0  0.91585075656E+02 -0.52649602617E+03 -0.66827845841E+03  0.85567633462E+03  0.00000000000E+00 0.  1.
         22    1    1    2    0    0 -0.20370061738E+03  0.15273142942E+04 -0.13186357131E+04  0.20280490721E+04  0.00000000000E+00 0.  1.
<mgrwt>
<rscale>  0 0.31307108E+04</rscale>
<asrwt>0</asrwt>
<pdfrwt beam="1">  1        2 0.62185347E+00 0.31307108E+04</pdfrwt>
<pdfrwt beam="2">  1       -2 0.93263373E-01 0.31307108E+04</pdfrwt>
<totfact> 0.26015027E-01</totfact>
</mgrwt>
</event>
<event>
 6    1  0.3702374E-005  0.4502223E+04  0.7818608E-02  0.7910248E-01
         -1   -1    0    0    0  501 -0.00000000000E+00  0.00000000000E+00  0.22082292194E+04  0.22082292194E+04  0.00000000000E+00 0. -1.
          1   -1    0    0  501    0  0.00000000000E+00 -0.00000000000E+00 -0.22948265087E+04  0.22948265087E+04  0.00000000000E+00 0.  1.
         23    2    1    2    0    0 -0.13338440681E+04 -0.12785596989E+04 -0.13278883842E+04  0.22771495118E+04  0.90925443669E+02 0.  0.
         11    1    3    3    0    0 -0.53602591936E+03 -0.45470237812E+03 -0.49075875831E+03  0.85727603358E+03  0.00000000000E+00 0. -1.
        -11    1    3    3    0    0 -0.79781814875E+03 -0.82385732077E+03 -0.83712962594E+03  0.14198734782E+04  0.00000000000E+00 0.  1.
         22    1    1    2    0    0  0.13338440681E+04  0.12785596989E+04  0.12412910949E+04  0.22259062164E+04  0.00000000000E+00 0. -1.
<mgrwt>
<rscale>  0 0.45022230E+04</rscale>
<asrwt>0</asrwt>
<pdfrwt beam="1">  1        1 0.35305023E+00 0.45022230E+04</pdfrwt>
<pdfrwt beam="2">  1       -1 0.33972757E+00 0.45022230E+04</pdfrwt>
<totfact> 0.25612964E-02</totfact>
</mgrwt>
</event>
<event>
 6    1  0.2003386E-005  0.1522901E+04  0.7818608E-02  0.8869365E-01
         -2   -1    0    0    0  501 -0.00000000000E+00  0.00000000000E+00  0.12891588698E+04  0.12891588698E+04  0.00000000000E+00 0.  1.
          2   -1    0    0  501    0  0.00000000000E+00 -0.00000000000E+00 -0.44975583361E+03  0.44975583361E+03  0.00000000000E+00 0. -1.
         23    2    1    2    0    0  0.36509975098E+03 -0.65184767645E+03  0.27133309996E+03  0.80034841703E+03  0.93449002461E+02 0.  0.
         13    1    3    3    0    0  0.91597231289E+00 -0.41476716862E+02  0.23108648284E+02  0.47488595182E+02  0.00000000000E+00 0. -1.
        -13    1    3    3    0    0  0.36418377867E+03 -0.61037095958E+03  0.24822445168E+03  0.75285982185E+03  0.00000000000E+00 0.  1.
         22    1    1    2    0    0 -0.36509975098E+03  0.65184767645E+03  0.56806993618E+03  0.93856628633E+03  0.00000000000E+00 0. -1.
<mgrwt>
<rscale>  0 0.15229008E+04</rscale>
<asrwt>0</asrwt>
<pdfrwt beam="1">  1        2 0.69193206E-01 0.15229008E+04</pdfrwt>
<pdfrwt beam="2">  1       -2 0.19833213E+00 0.15229008E+04</pdfrwt>
<totfact> 0.91466058E+00</totfact>
</mgrwt>
</event>
<event>
 6    1  0.2003386E-005  0.1518322E+04  0.7818608E-02  0.8872360E-01
         -2   -1    0    0    0  501 -0.00000000000E+00  0.00000000000E+00  0.22024987506E+03  0.22024987506E+03  0.00000000000E+00 0.  1.
          2   -1    0    0  501    0  0.00000000000E+00 -0.00000000000E+00 -0.26166883392E+04  0.26166883392E+04  0.00000000000E+00 0. -1.
         23    2    1    2    0    0 -0.19373621109E+03  0.46345872513E+03 -0.14538109889E+03  0.53051523244E+03  0.89347851380E+02 0.  0.
         13    1    3    3    0    0 -0.89973234130E+01  0.35142578808E+02  0.12021011343E+02  0.38215931071E+02  0.00000000000E+00 0. -1.
        -13    1    3    3    0    0 -0.18473888768E+03  0.42831614633E+03 -0.15740211023E+03  0.49229930137E+03  0.00000000000E+00 0.  1.
         22    1    1    2    0    0  0.19373621109E+03 -0.46345872513E+03 -0.22510573652E+04  0.23064229818E+04  0.00000000000E+00 0.  1.
<mgrwt>
<rscale>  0 0.15183218E+04</rscale>
<asrwt>0</asrwt>
<pdfrwt beam="1">  1        2 0.40256743E+00 0.15183218E+04</pdfrwt>
<pdfrwt beam="2">  1       -2 0.33884596E-01 0.15183218E+04</pdfrwt>
<totfact> 0.23477217E+01</totfact>
</mgrwt>
</event>
<event>
 6    1  0.2003386E-005  0.2487729E+04  0.7818608E-02  0.8407370E-01
          2   -1    0    0  501    0  0.00000000000E+00  0.00000000000E+00  0.39676479006E+04  0.39676479006E+04  0.00000000000E+00 0. -1.
         -2   -1    0    0    0  501 -0.00000000000E+00 -0.00000000000E+00 -0.38995367532E+03  0.38995367532E+03  0.00000000000E+00 0.  1.
         23    2    1    2    0    0  0.19140943863E+03 -0.11286918763E+04  0.94637186174E+03  0.14880301261E+04  0.89616018001E+02 0.  0.
         11    1    3    3    0    0  0.13780498715E+03 -0.56214976836E+03  0.49784730722E+03  0.76344909317E+03  0.00000000000E+00 0. -1.
        -11    1    3    3    0    0  0.53604451474E+02 -0.56654210793E+03  0.44852455452E+03  0.72458103294E+03  0.00000000000E+00 0.  1.
         22    1    1    2    0    0 -0.19140943863E+03  0.11286918763E+04  0.26313223636E+04  0.28695714499E+04  0.00000000000E+00 0. -1.
<mgrwt>
<rscale>  0 0.24877290E+04</rscale>
<asrwt>0</asrwt>
<pdfrwt beam="1">  1        2 0.61040734E+00 0.24877290E+04</pdfrwt>
<pdfrwt beam="2">  1       -2 0.59992876E-01 0.24877290E+04</pdfrwt>
<totfact> 0.84311546E-01</totfact>
</mgrwt>
</event>
<event>
 6    1  0.2003386E-005  0.1481940E+04  0.7818608E-02  0.8896552E-01
          1   -1    0    0  501    0  0.00000000000E+00  0.00000000000E+00  0.99345798429E+03  0.99345798429E+03  0.00000000000E+00 0. -1.
         -1   -1    0    0    0  501 -0.00000000000E+00 -0.00000000000E+00 -0.55265196612E+03  0.55265196612E+03  0.00000000000E+00 0.  1.
         23    2    1    2    0    0  0.18074604875E+03  0.20583101331E+03 -0.49381884234E+03  0.57216992655E+03  0.92118595448E+02 0.  0.
         13    1    3    3    0    0  0.11166597878E+03  0.59071123118E+02 -0.23245144191E+03  0.26456069483E+03  0.00000000000E+00 0. -1.
        -13    1    3    3    0    0  0.69080069970E+02  0.14675989019E+03 -0.26136740043E+03  0.30760923172E+03  0.00000000000E+00 0.  1.
         22    1    1    2    0    0 -0.18074604875E+03 -0.20583101331E+03  0.93462486051E+03  0.97394002385E+03  0.00000000000E+00 0. -1.
<mgrwt>
<rscale>  0 0.14819400E+04</rscale>
<asrwt>0</asrwt>
<pdfrwt beam="1">  1        1 0.15283969E+00 0.14819400E+04</pdfrwt>
<pdfrwt beam="2">  1       -1 0.85023379E-01 0.14819400E+04</pdfrwt>
<totfact> 0.20299864E+01</totfact>
</mgrwt>
</event>
<event>
 6    1  0.2003386E-005  0.2879343E+04  0.7818608E-02  0.8279050E-01
          2   -1    0    0  501    0  0.00000000000E+00  0.00000000000E+00  0.41042151627E+03  0.41042151627E+03  0.00000000000E+00 0.  1.
         -2   -1    0    0    0  501 -0.00000000000E+00 -0.00000000000E+00 -0.50500611937E+04  0.50500611937E+04  0.00000000000E+00 0. -1.
         23    2    1    2    0    0 -0.40804435932E+03  0.16733450453E+03 -0.49182887411E+04  0.49388062429E+04  0.87988233679E+02 0.  0.
         11    1    3    3    0    0 -0.15722439311E+03  0.29031670116E+02 -0.14812297497E+04  0.14898335206E+04  0.00000000000E+00 0. -1.
        -11    1    3    3    0    0 -0.25081996622E+03  0.13830283441E+03 -0.34370589914E+04  0.34489727224E+04  0.00000000000E+00 0.  1.
         22    1    1    2    0    0  0.40804435932E+03 -0.16733450453E+03  0.27864906364E+03  0.52167646703E+03  0.00000000000E+00 0.  1.
<mgrwt>
<rscale>  0 0.28793428E+04</rscale>
<asrwt>0</asrwt>
<pdfrwt beam="1">  1        2 0.63141767E-01 0.28793428E+04</pdfrwt>
<pdfrwt beam="2">  1       -2 0.77693254E+00 0.28793428E+04</pdfrwt>
<totfact> 0.70819849E-03</totfact>
</mgrwt>
</event>
<event>
 6    1  0.2003386E-005  0.3268342E+04  0.7818608E-02  0.8170998E-01
          2   -1    0    0  501    0  0.00000000000E+00  0.00000000000E+00  0.35727867140E+04  0.35727867140E+04  0.00000000000E+00 0. -1.
         -2   -1    0    0    0  501 -0.00000000000E+00 -0.00000000000E+00 -0.74745987921E+03  0.74745987921E+03  0.00000000000E+00 0.  1.
         23    2    1    2    0    0  0.10738160968E+04 -0.11044268851E+04  0.69770368256E+03  0.16935338125E+04  0.91796465721E+02 0.  0.
         11    1    3    3    0    0  0.15881408228E+03 -0.21127042401E+03  0.12920063603E+03  0.29419365925E+03  0.00000000000E+00 0.  1.
        -11    1    3    3    0    0  0.91500201457E+03 -0.89315646109E+03  0.56850304653E+03  0.13993401533E+04  0.00000000000E+00 0. -1.
         22    1    1    2    0    0 -0.10738160968E+04  0.11044268851E+04  0.21276231523E+04  0.26267127807E+04  0.00000000000E+00 0. -1.
<mgrwt>
<rscale>  0 0.32683419E+04</rscale>
<asrwt>0</asrwt>
<pdfrwt beam="1">  1        2 0.54965948E+00 0.32683419E+04</pdfrwt>
<pdfrwt beam="2">  1       -2 0.11499383E+00 0.32683419E+04</pdfrwt>
<totfact> 0.35605808E-01</totfact>
</mgrwt>
</event>
<event>
 6    1  0.2003386E-005  0.4131708E+03  0.7818608E-02  0.1039312E+00
         -2   -1    0    0    0  501 -0.00000000000E+00  0.00000000000E+00  0.38582628819E+02  0.38582628819E+02  0.00000000000E+00 0.  1.
          2   -1    0    0  501    0  0.00000000000E+00 -0.00000000000E+00 -0.11061331521E+04  0.11061331521E+04  0.00000000000E+00 0. -1.
         23    2    1    2    0    0 -0.18737278589E+01  0.54350245985E+02 -0.10829042589E+04  0.10882073985E+04  0.92499989813E+02 0.  0.
         11    1    3    3    0    0  0.34339985933E+02 -0.66397646209E+01 -0.27998748758E+03  0.28216363038E+03  0.00000000000E+00 0.  1.
        -11    1    3    3    0    0 -0.36213713792E+02  0.60990010606E+02 -0.80291677131E+03  0.80604376811E+03  0.00000000000E+00 0. -1.
         22    1    1    2    0    0  0.18737278589E+01 -0.54350245985E+02  0.15353735558E+02  0.56508382478E+02  0.00000000000E+00 0. -1.
<mgrwt>
<rscale>  0 0.41317079E+03</rscale>
<asrwt>0</asrwt>
<pdfrwt beam="1">  1        2 0.17017430E+00 0.41317079E+03</pdfrwt>
<pdfrwt beam="2">  1       -2 0.59357901E-02 0.41317079E+03</pdfrwt>
<totfact> 0.34205127E+03</totfact>
</mgrwt>
</event>
<event>
 6    1  0.2003386E-005  0.4108669E+04  0.7818608E-02  0.7982976E-01
          2   -1    0    0  501    0  0.00000000000E+00  0.00000000000E+00  0.42117623165E+04  0.42117623165E+04  0.00000000000E+00 0. -1.
         -2   -1    0    0    0  501 -0.00000000000E+00 -0.00000000000E+00 -0.10020246408E+04  0.10020246408E+04  0.00000000000E+00 0.  1.
         23    2    1    2    0    0 -0.15238773091E+04 -0.13415503009E+04  0.12166699765E+04  0.23687424732E+04  0.93251324706E+02 0.  0.
         13    1    3    3    0    0 -0.10812949257E+04 -0.90713346185E+03  0.81393479006E+03  0.16292880889E+04  0.00000000000E+00 0. -1.
        -13    1    3    3    0    0 -0.44258238336E+03 -0.43441683907E+03  0.40273518640E+03  0.73945438432E+03  0.00000000000E+00 0.  1.
         22    1    1    2    0    0  0.15238773091E+04  0.13415503009E+04  0.19930676992E+04  0.28450444842E+04  0.00000000000E+00 0. -1.
<mgrwt>
<rscale>  0 0.41086687E+04</rscale>
<asrwt>0</asrwt>
<pdfrwt beam="1">  1        2 0.64796342E+00 0.41086687E+04</pdfrwt>
<pdfrwt beam="2">  1       -2 0.15415764E+00 0.41086687E+04</pdfrwt>
<totfact> 0.49221810E-02</totfact>
</mgrwt>
</event>
<event>
 6    1  0.2003386E-005  0.1574045E+04  0.7818608E-02  0.8836653E-01
          4   -1    0    0  501    0  0.00000000000E+00  0.00000000000E+00  0.46292000050E+03  0.46292000050E+03  0.00000000000E+00 0. -1.
         -4   -1    0    0    0  501 -0.00000000000E+00 -0.00000000000E+00 -0.13380383302E+04  0.13380383302E+04  0.00000000000E+00 0.  1.
         23    2    1    2    0    0 -0.10360502023E+03 -0.13190249678E+03 -0.13158267700E+04  0.13294117283E+04  0.88335641641E+02 0.  0.
         13    1    3    3    0    0 -0.32334535949E+02 -0.92062663676E+00 -0.42142594104E+03  0.42266558122E+03  0.00000000000E+00 0. -1.
        -13    1    3    3    0    0 -0.71270484281E+02 -0.13098187015E+03 -0.89440082901E+03  0.90674614704E+03  0.00000000000E+00 0.  1.
         22    1    1    2    0    0  0.10360502023E+03  0.13190249678E+03  0.44070844035E+03  0.47154660243E+03  0.00000000000E+00 0. -1.
<mgrwt>
<rscale>  0 0.15740454E+04</rscale>
<asrwt>0</asrwt>
<pdfrwt beam="1">  1        4 0.71218463E-01 0.15740454E+04</pdfrwt>
<pdfrwt beam="2">  1       -4 0.20585205E+00 0.15740454E+04</pdfrwt>
<totfact> 0.41714015E-01</totfact>
</mgrwt>
</event>
<event>
 6    1  0.2003386E-005  0.9842182E+03  0.7818608E-02  0.9326025E-01
          2   -1    0    0  501    0  0.00000000000E+00  0.00000000000E+00  0.12957034871E+04  0.12957034871E+04  0.00000000000E+00 0. -1.
         -2   -1    0    0    0  501 -0.00000000000E+00 -0.00000000000E+00 -0.18690339496E+03  0.18690339496E+03  0.00000000000E+00 0.  1.
         23    2    1    2    0    0 -0.24880896176E+02  0.42614665489E+03  0.91477464356E+03  0.10137082734E+04  0.92583933115E+02 0.  0.
         13    1    3    3    0    0 -0.46845235439E+02  0.20301329080E+03  0.37055368029E+03  0.42511045894E+03  0.00000000000E+00 0. -1.
        -13    1    3    3    0    0  0.21964339263E+02  0.22313336409E+03  0.54422096328E+03  0.58859781450E+03  0.00000000000E+00 0.  1.
         22    1    1    2    0    0  0.24880896176E+02 -0.42614665489E+03  0.19402544856E+03  0.46889860861E+03  0.00000000000E+00 0.  1.
<mgrwt>
<rscale>  0 0.98421823E+03</rscale>
<asrwt>0</asrwt>
<pdfrwt beam="1">  1        2 0.19933899E+00 0.98421823E+03</pdfrwt>
<pdfrwt beam="2">  1       -2 0.28754369E-01 0.98421823E+03</pdfrwt>
<totfact> 0.18409272E+02</totfact>
</mgrwt>
</event>
<event>
 6    1  0.2003386E-005  0.1559177E+04  0.7818608E-02  0.8846027E-01
         -2   -1    0    0    0  501 -0.00000000000E+00  0.00000000000E+00  0.12562745666E+03  0.12562745666E+03  0.00000000000E+00 0. -1.
          2   -1    0    0  501    0  0.00000000000E+00 -0.00000000000E+00 -0.48377848743E+04  0.48377848743E+04  0.00000000000E+00 0.  1.
         23    2    1    2    0    0 -0.75786149884E+03 -0.12475222223E+03 -0.19928806544E+04  0.21377472264E+04  0.92047447819E+02 0.  0.
         11    1    3    3    0    0 -0.61197008118E+03 -0.65359899360E+02 -0.15522656733E+04  0.16698227503E+04  0.00000000000E+00 0. -1.
        -11    1    3    3    0    0 -0.14589141766E+03 -0.59392322866E+02 -0.44061498113E+03  0.46792447613E+03  0.00000000000E+00 0.  1.
         22    1    1    2    0    0  0.75786149884E+03  0.12475222223E+03 -0.27192767632E+04  0.28256651045E+04  0.00000000000E+00 0.  1.
<mgrwt>
<rscale>  0 0.15591775E+04</rscale>
<asrwt>0</asrwt>
<pdfrwt beam="1">  1        2 0.74427463E+00 0.15591775E+04</pdfrwt>
<pdfrwt beam="2">  1       -2 0.19327300E-01 0.15591775E+04</pdfrwt>
<totfact> 0.12273198E+00</totfact>
</mgrwt>
</event>
<event>
 6    1  0.2003386E-005  0.6292317E+03  0.7818608E-02  0.9846549E-01
          2   -1    0    0  501    0  0.00000000000E+00  0.00000000000E+00  0.68070666931E+03  0.68070666931E+03  0.00000000000E+00 0. -1.
         -2   -1    0    0    0  501 -0.00000000000E+00 -0.00000000000E+00 -0.14541233787E+03  0.14541233787E+03  0.00000000000E+00 0.  1.
         23    2    1    2    0    0 -0.62741191494E+02  0.23945403777E+03  0.51399077128E+03  0.57766672808E+03  0.90761459088E+02 0.  0.
         11    1    3    3    0    0 -0.35316158988E+02  0.17506108349E+03  0.26908022692E+03  0.32295167217E+03  0.00000000000E+00 0.  1.
        -11    1    3    3    0    0 -0.27425032505E+02  0.64392954282E+02  0.24491054436E+03  0.25471505591E+03  0.00000000000E+00 0. -1.
         22    1    1    2    0    0  0.62741191494E+02 -0.23945403777E+03  0.21303560155E+02  0.24845227910E+03  0.00000000000E+00 0.  1.
<mgrwt>
<rscale>  0 0.62923175E+03</rscale>
<asrwt>0</asrwt>
<pdfrwt beam="1">  1        2 0.10472410E+00 0.62923175E+03</pdfrwt>
<pdfrwt beam="2">  1       -2 0.22371129E-01 0.62923175E+03</pdfrwt>
<totfact> 0.74684857E+02</totfact>
</mgrwt>
</event>
<event>
 6    1  0.2003386E-005  0.8799083E+03  0.7818608E-02  0.9451051E-01
         -1   -1    0    0    0  501 -0.00000000000E+00  0.00000000000E+00  0.75045285316E+03  0.75045285316E+03  0.00000000000E+00 0.  1.
          1   -1    0    0  501    0  0.00000000000E+00 -0.00000000000E+00 -0.25792383105E+03  0.25792383105E+03  0.00000000000E+00 0. -1.
         23    2    1    2    0    0  0.11410040177E+03 -0.38680466065E+03  0.63523717450E+02  0.41957935183E+03  0.96823667670E+02 0.  0.
         11    1    3    3    0    0  0.21700823991E+02 -0.16861861744E+03 -0.13203715187E+02  0.17052126555E+03  0.00000000000E+00 0. -1.
        -11    1    3    3    0    0  0.92399577775E+02 -0.21818604321E+03  0.76727432636E+02  0.24905808629E+03  0.00000000000E+00 0.  1.
         22    1    1    2    0    0 -0.11410040177E+03  0.38680466065E+03  0.42900530466E+03  0.58879733237E+03  0.00000000000E+00 0. -1.
<mgrwt>
<rscale>  0 0.87990835E+03</rscale>
<asrwt>0</asrwt>
<pdfrwt beam="1">  1        1 0.39680590E-01 0.87990835E+03</pdfrwt>
<pdfrwt beam="2">  1       -1 0.11545428E+00 0.87990835E+03</pdfrwt>
<totfact> 0.73284308E+01</totfact>
</mgrwt>
</event>
<event>
 6    1  0.2003386E-005  0.2773778E+04  0.7818608E-02  0.8311456E-01
          2   -1    0    0  501    0  0.00000000000E+00  0.00000000000E+00  0.21118258202E+04  0.21118258202E+04  0.00000000000E+00 0.  1.
         -2   -1    0    0    0  501 -0.00000000000E+00 -0.00000000000E+00 -0.91080487021E+03  0.91080487021E+03  0.00000000000E+00 0. -1.
         23    2    1    2    0    0  0.13424319249E+04  0.33277901204E+03  0.51290273980E+03  0.14778420269E+04  0.89902681416E+02 0.  0.
         11    1    3    3    0    0  0.93014905270E+02  0.46918205455E+02  0.43333124845E+02  0.11283106981E+03  0.00000000000E+00 0.  1.
        -11    1    3    3    0    0  0.12494170196E+04  0.28586080658E+03  0.46956961496E+03  0.13650109571E+04  0.00000000000E+00 0. -1.
         22    1    1    2    0    0 -0.13424319249E+04 -0.33277901204E+03  0.68811821017E+03  0.15447886635E+04  0.00000000000E+00 0. -1.
<mgrwt>
<rscale>  0 0.27737781E+04</rscale>
<asrwt>0</asrwt>
<pdfrwt beam="1">  1        2 0.32489628E+00 0.27737781E+04</pdfrwt>
<pdfrwt beam="2">  1       -2 0.14012383E+00 0.27737781E+04</pdfrwt>
<totfact> 0.18083240E+00</totfact>
</mgrwt>
</event>
<event>
 6    1  0.2003386E-005  0.3866688E+04  0.7818608E-02  0.8031993E-01
         -2   -1    0    0    0  501 -0.00000000000E+00  0.00000000000E+00  0.11956460406E+04  0.11956460406E+04  0.00000000000E+00 0.  1.
          2   -1    0    0  501    0  0.00000000000E+00 -0.00000000000E+00 -0.31261915741E+04  0.31261915741E+04  0.00000000000E+00 0. -1.
         23    2    1    2    0    0 -0.16277821230E+04  0.43706195148E+03 -0.20215636220E+04  0.26339448213E+04  0.10123267443E+03 0.  0.
         11    1    3    3    0    0 -0.91560338628E+03  0.29170309100E+03 -0.11874674066E+04  0.15275794893E+04  0.00000000000E+00 0.  1.
        -11    1    3    3    0    0 -0.71217873676E+03  0.14535886048E+03 -0.83409621542E+03  0.11063653321E+04  0.00000000000E+00 0. -1.
         22    1    1    2    0    0  0.16277821230E+04 -0.43706195148E+03  0.91018088571E+02  0.16878927934E+04  0.00000000000E+00 0.  1.
<mgrwt>
<rscale>  0 0.38666878E+04</rscale>
<asrwt>0</asrwt>
<pdfrwt beam="1">  1        2 0.48095254E+00 0.38666878E+04</pdfrwt>
<pdfrwt beam="2">  1       -2 0.18394555E+00 0.38666878E+04</pdfrwt>
<totfact> 0.19649868E-01</totfact>
</mgrwt>
</event>
<event>
 6    1  0.2003386E-005  0.1789029E+04  0.7818608E-02  0.8712155E-01
         -2   -1    0    0    0  501 -0.00000000000E+00  0.00000000000E+00  0.73963850075E+03  0.73963850075E+03  0.00000000000E+00 0.  1.
          2   -1    0    0  501    0  0.00000000000E+00 -0.00000000000E+00 -0.10818209943E+04  0.10818209943E+04  0.00000000000E+00 0. -1.
         23    2    1    2    0    0 -0.65830910994E+03  0.47031939994E+03  0.21074518388E+03  0.84151039503E+03  0.95681713158E+02 0.  0.
         11    1    3    3    0    0 -0.33579915169E+03  0.27787193611E+03  0.15069412958E+03  0.46117524201E+03  0.00000000000E+00 0.  1.
        -11    1    3    3    0    0 -0.32250995824E+03  0.19244746383E+03  0.60051054304E+02  0.38033515302E+03  0.00000000000E+00 0. -1.
         22    1    1    2    0    0  0.65830910994E+03 -0.47031939994E+03 -0.55292767747E+03  0.97994910005E+03  0.00000000000E+00 0. -1.
<mgrwt>
<rscale>  0 0.17890293E+04</rscale>
<asrwt>0</asrwt>
<pdfrwt beam="1">  1        2 0.16643400E+00 0.17890293E+04</pdfrwt>
<pdfrwt beam="2">  1       -2 0.11379054E+00 0.17890293E+04</pdfrwt>
<totfact> 0.12784963E+01</totfact>
</mgrwt>
</event>
<event>
 6    1  0.2003386E-005  0.3499103E+04  0.7818608E-02  0.8114003E-01
         -2   -1    0    0    0  501 -0.00000000000E+00  0.00000000000E+00  0.11790284348E+04  0.11790284348E+04  0.00000000000E+00 0.  1.
          2   -1    0    0  501    0  0.00000000000E+00 -0.00000000000E+00 -0.25961460365E+04  0.25961460365E+04  0.00000000000E+00 0. -1.
         23    2    1    2    0    0 -0.14675196171E+04  0.18483165787E+03 -0.17147209445E+04  0.22664185872E+04  0.92783224131E+02 0.  0.
         11    1    3    3    0    0 -0.90346220215E+03  0.93031399811E+02 -0.11133676129E+04  0.14368320130E+04  0.00000000000E+00 0.  1.
        -11    1    3    3    0    0 -0.56405741495E+03  0.91800258061E+02 -0.60135333157E+03  0.82958657422E+03  0.00000000000E+00 0. -1.
         22    1    1    2    0    0  0.14675196171E+04 -0.18483165787E+03  0.29760334279E+03  0.15087558842E+04  0.00000000000E+00 0.  1.
<mgrwt>
<rscale>  0 0.34991027E+04</rscale>
<asrwt>0</asrwt>
<pdfrwt beam="1">  1        2 0.39940708E+00 0.34991027E+04</pdfrwt>
<pdfrwt beam="2">  1       -2 0.18138899E+00 0.34991027E+04</pdfrwt>
<totfact> 0.44580397E-01</totfact>
</mgrwt>
</event>
<event>
 6    1  0.2003386E-005  0.1303972E+04  0.7818608E-02  0.9026421E-01
          2   -1    0    0  501    0  0.00000000000E+00  0.00000000000E+00  0.34582399210E+04  0.34582399210E+04  0.00000000000E+00 0. -1.
         -2   -1    0    0    0  501 -0.00000000000E+00 -0.00000000000E+00 -0.12291973455E+03  0.12291973455E+03  0.00000000000E+00 0.  1.
         23    2    1    2    0    0  0.17042525488E+03 -0.42503233379E+03  0.29381321906E+04  0.29749785306E+04  0.90439126072E+02 0.  0.
         11    1    3    3    0    0  0.16659142590E+03 -0.31351039935E+03  0.22015885827E+04  0.22300299911E+04  0.00000000000E+00 0.  1.
        -11    1    3    3    0    0  0.38338289812E+01 -0.11152193444E+03  0.73654360788E+03  0.74494853944E+03  0.00000000000E+00 0. -1.
         22    1    1    2    0    0 -0.17042525488E+03  0.42503233379E+03  0.39718799585E+03  0.60618112501E+03  0.00000000000E+00 0.  1.
<mgrwt>
<rscale>  0 0.13039723E+04</rscale>
<asrwt>0</asrwt>
<pdfrwt beam="1">  1        2 0.53203684E+00 0.13039723E+04</pdfrwt>
<pdfrwt beam="2">  1       -2 0.18910731E-01 0.13039723E+04</pdfrwt>
<totfact> 0.20488890E+01</totfact>
</mgrwt>
</event>
<event>
 6    1  0.2003386E-005  0.2039903E+04  0.7818608E-02  0.8588189E-01
         -1   -1    0    0    0  501 -0.00000000000E+00  0.00000000000E+00  0.10420835033E+04  0.10420835033E+04  0.00000000000E+00 0.  1.
          1   -1    0    0  501    0  0.00000000000E+00 -0.00000000000E+00 -0.99828967700E+03  0.99828967700E+03  0.00000000000E+00 0. -1.
         23    2    1    2    0    0  0.50804315916E+03  0.62422129678E+03 -0.60130093814E+03  0.10089143425E+04  0.92656642714E+02 0.  0.
         11    1    3    3    0    0  0.21217526091E+03  0.19064749509E+03 -0.21288530003E+03  0.35592830696E+03  0.00000000000E+00 0. -1.
        -11    1    3    3    0    0  0.29586789826E+03  0.43357380169E+03 -0.38841563811E+03  0.65298603558E+03  0.00000000000E+00 0.  1.
         22    1    1    2    0    0 -0.50804315916E+03 -0.62422129678E+03  0.64509476448E+03  0.10314588378E+04  0.00000000000E+00 0.  1.
<mgrwt>
<rscale>  0 0.20399031E+04</rscale>
<asrwt>0</asrwt>
<pdfrwt beam="1">  1        1 0.15358303E+00 0.20399031E+04</pdfrwt>
<pdfrwt beam="2">  1       -1 0.16032054E+00 0.20399031E+04</pdfrwt>
<totfact> 0.40778611E+00</totfact>
</mgrwt>
</event>
<event>
 6    1  0.2060183E-005  0.3640635E+04  0.7818608E-02  0.8081247E-01
          2   -1    0    0  501    0  0.00000000000E+00  0.00000000000E+00  0.26780471700E+04  0.26780471700E+04  0.00000000000E+00 0. -1.
         -2   -1    0    0    0  501 -0.00000000000E+00 -0.00000000000E+00 -0.12373028797E+04  0.12373028797E+04  0.00000000000E+00 0.  1.
         23    2    1    2    0    0 -0.14868010533E+03 -0.17237663277E+04  0.13253734199E+04  0.21813412365E+04  0.90325862829E+02 0.  0.
         11    1    3    3    0    0 -0.11587390157E+03 -0.83281039531E+03  0.65664608957E+03  0.10668570675E+04  0.00000000000E+00 0. -1.
        -11    1    3    3    0    0 -0.32806203758E+02 -0.89095593244E+03  0.66872733029E+03  0.11144841689E+04  0.00000000000E+00 0.  1.
         22    1    1    2    0    0  0.14868010533E+03  0.17237663277E+04  0.11537087045E+03  0.17340088132E+04  0.00000000000E+00 0. -1.
<mgrwt>
<rscale>  0 0.36406348E+04</rscale>
<asrwt>0</asrwt>
<pdfrwt beam="1">  1        2 0.41200726E+00 0.36406348E+04</pdfrwt>
<pdfrwt beam="2">  1       -2 0.19035429E+00 0.36406348E+04</pdfrwt>
<totfact> 0.34261050E-01</totfact>
</mgrwt>
</event>
<event>
 6    1  0.2003386E-005  0.2508065E+04  0.7818608E-02  0.8400118E-01
          2   -1    0    0  501    0  0.00000000000E+00  0.00000000000E+00  0.18204623262E+04  0.18204623262E+04  0.00000000000E+00 0.  1.
         -2   -1    0    0    0  501 -0.00000000000E+00 -0.00000000000E+00 -0.86384519081E+03  0.86384519081E+03  0.00000000000E+00 0. -1.
         23    2    1    2    0    0  0.99044186012E+03 -0.67123234092E+03  0.83636308251E+02  0.12032189112E+04  0.95983239864E+02 0.  0.
         13    1    3    3    0    0  0.79306308304E+02 -0.73256592440E+02  0.30045658033E+02  0.11206587545E+03  0.00000000000E+00 0.  1.
        -13    1    3    3    0    0  0.91113555181E+03 -0.59797574848E+03  0.53590650218E+02  0.10911530357E+04  0.00000000000E+00 0. -1.
         22    1    1    2    0    0 -0.99044186012E+03  0.67123234092E+03  0.87298082711E+03  0.14810886058E+04  0.00000000000E+00 0.  1.
<mgrwt>
<rscale>  0 0.25080651E+04</rscale>
<asrwt>0</asrwt>
<pdfrwt beam="1">  1        2 0.28007113E+00 0.25080651E+04</pdfrwt>
<pdfrwt beam="2">  1       -2 0.13289926E+00 0.25080651E+04</pdfrwt>
<totfact> 0.30768320E+00</totfact>
</mgrwt>
</event>
<event>
 6    1  0.2003386E-005  0.1776416E+04  0.7818608E-02  0.8718942E-01
          2   -1    0    0  501    0  0.00000000000E+00  0.00000000000E+00  0.95092514860E+03  0.95092514860E+03  0.00000000000E+00 0. -1.
         -2   -1    0    0    0  501 -0.00000000000E+00 -0.00000000000E+00 -0.82962766699E+03  0.82962766699E+03  0.00000000000E+00 0.  1.
         23    2    1    2    0    0 -0.22366130335E+03 -0.83928783928E+03 -0.11243563585E+03  0.88107539732E+03  0.96039719725E+02 0.  0.
         11    1    3    3    0    0 -0.82891196825E+02 -0.44808188913E+03 -0.26015977280E+02  0.45642651210E+03  0.00000000000E+00 0. -1.
        -11    1    3    3    0    0 -0.14077010653E+03 -0.39120595016E+03 -0.86419658569E+02  0.42464888522E+03  0.00000000000E+00 0.  1.
         22    1    1    2    0    0  0.22366130335E+03  0.83928783928E+03  0.23373311745E+03  0.89947741827E+03  0.00000000000E+00 0. -1.
<mgrwt>
<rscale>  0 0.17764164E+04</rscale>
<asrwt>0</asrwt>
<pdfrwt beam="1">  1        2 0.14629618E+00 0.17764164E+04</pdfrwt>
<pdfrwt beam="2">  1       -2 0.12763503E+00 0.17764164E+04</pdfrwt>
<totfact> 0.11666110E+01</totfact>
</mgrwt>
</event>
<event>
 6    1  0.2003386E-005  0.2841626E+04  0.7818608E-02  0.8290460E-01
         -1   -1    0    0    0  501 -0.00000000000E+00  0.00000000000E+00  0.16321744180E+04  0.16321744180E+04  0.00000000000E+00 0.  1.
          1   -1    0    0  501    0  0.00000000000E+00 -0.00000000000E+00 -0.12368225480E+04  0.12368225480E+04  0.00000000000E+00 0. -1.
         23    2    1    2    0    0  0.10010217264E+04  0.10036118862E+04  0.27403398510E+03  0.14463236570E+04  0.86464912099E+02 0.  0.
         11    1    3    3    0    0  0.19010231598E+03  0.15404274021E+03  0.27009864973E+02  0.24616577577E+03  0.00000000000E+00 0. -1.
        -11    1    3    3    0    0  0.81091941037E+03  0.84956914603E+03  0.24702412012E+03  0.12001578812E+04  0.00000000000E+00 0.  1.
         22    1    1    2    0    0 -0.10010217264E+04 -0.10036118862E+04  0.12131788492E+03  0.14226733090E+04  0.00000000000E+00 0. -1.
<mgrwt>
<rscale>  0 0.28416264E+04</rscale>
<asrwt>0</asrwt>
<pdfrwt beam="1">  1        1 0.19028039E+00 0.28416264E+04</pdfrwt>
<pdfrwt beam="2">  1       -1 0.25110376E+00 0.28416264E+04</pdfrwt>
<totfact> 0.59418215E-01</totfact>
</mgrwt>
</event>
<event>
 6    1  0.2003386E-005  0.2876669E+04  0.7818608E-02  0.8279853E-01
         -2   -1    0    0    0  501 -0.00000000000E+00  0.00000000000E+00  0.11931818436E+04  0.11931818436E+04  0.00000000000E+00 0.  1.
          2   -1    0    0  501    0  0.00000000000E+00 -0.00000000000E+00 -0.17338569575E+04  0.17338569575E+04  0.00000000000E+00 0. -1.
         23    2    1    2    0    0  0.23953321112E+03 -0.25050957667E+03 -0.16894734938E+04  0.17270934170E+04  0.91650299564E+02 0.  0.
         13    1    3    3    0    0  0.14234598555E+03 -0.16424777553E+03 -0.12520827248E+04  0.12708071692E+04  0.00000000000E+00 0.  1.
        -13    1    3    3    0    0  0.97187225564E+02 -0.86261801137E+02 -0.43739076898E+03  0.45628624780E+03  0.00000000000E+00 0. -1.
         22    1    1    2    0    0 -0.23953321112E+03  0.25050957667E+03  0.11487983799E+04  0.11999453842E+04  0.00000000000E+00 0.  1.
<mgrwt>
<rscale>  0 0.28766694E+04</rscale>
<asrwt>0</asrwt>
<pdfrwt beam="1">  1        2 0.26674723E+00 0.28766694E+04</pdfrwt>
<pdfrwt beam="2">  1       -2 0.18356644E+00 0.28766694E+04</pdfrwt>
<totfact> 0.13917573E+00</totfact>
</mgrwt>
</event>
<event>
 6    1  0.2003386E-005  0.4900437E+04  0.7818608E-02  0.7844052E-01
         -2   -1    0    0    0  501 -0.00000000000E+00  0.00000000000E+00  0.23233298172E+04  0.23233298172E+04  0.00000000000E+00 0. -1.
          2   -1    0    0  501    0  0.00000000000E+00 -0.00000000000E+00 -0.25840373345E+04  0.25840373345E+04  0.00000000000E+00 0.  1.
         23    2    1    2    0    0 -0.76099883748E+03  0.19458118681E+04 -0.14105660767E+04  0.25225238103E+04  0.90147991287E+02 0.  0.
         13    1    3    3    0    0 -0.34800338840E+03  0.99559539779E+03 -0.73975998687E+03  0.12882396488E+04  0.00000000000E+00 0. -1.
        -13    1    3    3    0    0 -0.41299544908E+03  0.95021647028E+03 -0.67080608984E+03  0.12342841616E+04  0.00000000000E+00 0.  1.
         22    1    1    2    0    0  0.76099883748E+03 -0.19458118681E+04  0.11498585594E+04  0.23848433414E+04  0.00000000000E+00 0. -1.
<mgrwt>
<rscale>  0 0.49004371E+04</rscale>
<asrwt>0</asrwt>
<pdfrwt beam="1">  1        2 0.39754420E+00 0.49004371E+04</pdfrwt>
<pdfrwt beam="2">  1       -2 0.35743536E+00 0.49004371E+04</pdfrwt>
<totfact> 0.31860364E-02</totfact>
</mgrwt>
</event>
<event>
 6    1  0.2828663E-005  0.3973967E+04  0.7818608E-02  0.8009819E-01
          2   -1    0    0  501    0  0.00000000000E+00  0.00000000000E+00  0.19999009055E+04  0.19999009055E+04  0.00000000000E+00 0.  1.
         -2   -1    0    0    0  501 -0.00000000000E+00 -0.00000000000E+00 -0.19741499499E+04  0.19741499499E+04  0.00000000000E+00 0. -1.
         23    2    1    2    0    0  0.18181520169E+04  0.37561728953E+03  0.71680386217E+03  0.19930613995E+04  0.10826292278E+03 0.  0.
         13    1    3    3    0    0  0.10716246933E+04  0.17678410935E+03  0.38596528186E+03  0.11526496880E+04  0.00000000000E+00 0.  1.
        -13    1    3    3    0    0  0.74652732363E+03  0.19883318018E+03  0.33083858031E+03  0.84041171142E+03  0.00000000000E+00 0. -1.
         22    1    1    2    0    0 -0.18181520169E+04 -0.37561728953E+03 -0.69105290664E+03  0.19809894559E+04  0.00000000000E+00 0. -1.
<mgrwt>
<rscale>  0 0.39739674E+04</rscale>
<asrwt>0</asrwt>
<pdfrwt beam="1">  1        2 0.30767706E+00 0.39739674E+04</pdfrwt>
<pdfrwt beam="2">  1       -2 0.30371538E+00 0.39739674E+04</pdfrwt>
<totfact> 0.15932087E-01</totfact>
</mgrwt>
</event>
<event>
 6    1  0.2003386E-005  0.1141305E+04  0.7818608E-02  0.9165843E-01
         -2   -1    0    0    0  501 -0.00000000000E+00  0.00000000000E+00  0.12931968554E+03  0.12931968554E+03  0.00000000000E+00 0.  1.
          2   -1    0    0  501    0  0.00000000000E+00 -0.00000000000E+00 -0.25181326847E+04  0.25181326847E+04  0.00000000000E+00 0. -1.
         23    2    1    2    0    0 -0.81408471958E+02  0.72530338683E+02 -0.24927726499E+04  0.24968017868E+04  0.90640436884E+02 0.  0.
         13    1    3    3    0    0 -0.48667197912E+02  0.89869396265E+02 -0.16000183305E+04  0.16032790345E+04  0.00000000000E+00 0. -1.
        -13    1    3    3    0    0 -0.32741274047E+02 -0.17339057581E+02 -0.89275431938E+03  0.89352275221E+03  0.00000000000E+00 0.  1.
         22    1    1    2    0    0  0.81408471958E+02 -0.72530338683E+02  0.10395965073E+03  0.15065058352E+03  0.00000000000E+00 0.  1.
<mgrwt>
<rscale>  0 0.11413047E+04</rscale>
<asrwt>0</asrwt>
<pdfrwt beam="1">  1        2 0.38740502E+00 0.11413047E+04</pdfrwt>
<pdfrwt beam="2">  1       -2 0.19895337E-01 0.11413047E+04</pdfrwt>
<totfact> 0.73177650E+01</totfact>
</mgrwt>
</event>
<event>
 6    1  0.3276629E-005  0.3048989E+04  0.7818608E-02  0.8229878E-01
          2   -1    0    0  501    0  0.00000000000E+00  0.00000000000E+00  0.99052706588E+03  0.99052706588E+03  0.00000000000E+00 0. -1.
         -2   -1    0    0    0  501 -0.00000000000E+00 -0.00000000000E+00 -0.23463106542E+04  0.23463106542E+04  0.00000000000E+00 0.  1.
         23    2    1    2    0    0 -0.61110110218E+03 -0.47941008936E+03  0.75560076450E+03  0.10871216322E+04  0.87305996084E+02 0.  0.
         13    1    3    3    0    0 -0.33939704350E+03 -0.32017089737E+03  0.45916788402E+03  0.65462577277E+03  0.00000000000E+00 0. -1.
        -13    1    3    3    0    0 -0.27170405867E+03 -0.15923919199E+03  0.29643288048E+03  0.43249585940E+03  0.00000000000E+00 0.  1.
         22    1    1    2    0    0  0.61110110218E+03  0.47941008936E+03 -0.21113843528E+04  0.22497160879E+04  0.00000000000E+00 0.  1.
<mgrwt>
<rscale>  0 0.30489895E+04</rscale>
<asrwt>0</asrwt>
<pdfrwt beam="1">  1        2 0.15238878E+00 0.30489895E+04</pdfrwt>
<pdfrwt beam="2">  1       -2 0.36097087E+00 0.30489895E+04</pdfrwt>
<totfact> 0.28863663E-01</totfact>
</mgrwt>
</event>
<event>
 6    1  0.2003386E-005  0.1648150E+04  0.7818608E-02  0.8791501E-01
         -2   -1    0    0    0  501 -0.00000000000E+00  0.00000000000E+00  0.10930501348E+04  0.10930501348E+04  0.00000000000E+00 0.  1.
          2   -1    0    0  501    0  0.00000000000E+00 -0.00000000000E+00 -0.62128884638E+03  0.62128884638E+03  0.00000000000E+00 0. -1.
         23    2    1    2    0    0 -0.81213794818E+03  0.11554124431E+03  0.19544222661E+03  0.84873511687E+03  0.96103114723E+02 0.  0.
         11    1    3    3    0    0 -0.38151790210E+02  0.88361571472E+01 -0.10880383278E+02  0.40645042866E+02  0.00000000000E+00 0. -1.
        -11    1    3    3    0    0 -0.77398615797E+03  0.10670508717E+03  0.20632260989E+03  0.80809007401E+03  0.00000000000E+00 0.  1.
         22    1    1    2    0    0  0.81213794818E+03 -0.11554124431E+03  0.27631906183E+03  0.86560386433E+03  0.00000000000E+00 0.  1.
<mgrwt>
<rscale>  0 0.16481503E+04</rscale>
<asrwt>0</asrwt>
<pdfrwt beam="1">  1        2 0.95582900E-01 0.16481503E+04</pdfrwt>
<pdfrwt beam="2">  1       -2 0.16816156E+00 0.16481503E+04</pdfrwt>
<totfact> 0.99680534E+00</totfact>
</mgrwt>
</event>
<event>
 6    1  0.2003386E-005  0.1998509E+04  0.7818608E-02  0.8607318E-01
         -2   -1    0    0    0  501 -0.00000000000E+00  0.00000000000E+00  0.30183585479E+03  0.30183585479E+03  0.00000000000E+00 0.  1.
          2   -1    0    0  501    0  0.00000000000E+00 -0.00000000000E+00 -0.33081204920E+04  0.33081204920E+04  0.00000000000E+00 0. -1.
         23    2    1    2    0    0  0.69161962111E+03  0.59102747988E+03 -0.77013995003E+03  0.11958324386E+04  0.96169102160E+02 0.  0.
         13    1    3    3    0    0  0.19119396350E+03  0.12141996477E+03 -0.15723605978E+03  0.27571927393E+03  0.00000000000E+00 0. -1.
        -13    1    3    3    0    0  0.50042565762E+03  0.46960751511E+03 -0.61290389025E+03  0.92011316463E+03  0.00000000000E+00 0.  1.
         22    1    1    2    0    0 -0.69161962111E+03 -0.59102747988E+03 -0.22361446871E+04  0.24141239082E+04  0.00000000000E+00 0. -1.
<mgrwt>
<rscale>  0 0.19985088E+04</rscale>
<asrwt>0</asrwt>
<pdfrwt beam="1">  1        2 0.50894162E+00 0.19985088E+04</pdfrwt>
<pdfrwt beam="2">  1       -2 0.46436285E-01 0.19985088E+04</pdfrwt>
<totfact> 0.45130059E+00</totfact>
</mgrwt>
</event>
<event>
 6    1  0.2003386E-005  0.1579172E+04  0.7818608E-02  0.8833447E-01
          2   -1    0    0  501    0  0.00000000000E+00  0.00000000000E+00  0.36360528640E+03  0.36360528640E+03  0.00000000000E+00 0. -1.
         -2   -1    0    0    0  501 -0.00000000000E+00 -0.00000000000E+00 -0.17146221048E+04  0.17146221048E+04  0.00000000000E+00 0.  1.
         23    2    1    2    0    0 -0.44673704959E+03  0.57950693475E+03 -0.10589586848E+04  0.12903820813E+04  0.91050210107E+02 0.  0.
         13    1    3    3    0    0 -0.16068567086E+02  0.49274874936E+02 -0.10471528757E+03  0.11683964909E+03  0.00000000000E+00 0.  1.
        -13    1    3    3    0    0 -0.43066848250E+03  0.53023205982E+03 -0.95424339726E+03  0.11735424323E+04  0.00000000000E+00 0. -1.
         22    1    1    2    0    0  0.44673704959E+03 -0.57950693475E+03 -0.29205813358E+03  0.78784530987E+03  0.00000000000E+00 0.  1.
<mgrwt>
<rscale>  0 0.15791715E+04</rscale>
<asrwt>0</asrwt>
<pdfrwt beam="1">  1        2 0.55939274E-01 0.15791715E+04</pdfrwt>
<pdfrwt beam="2">  1       -2 0.26378802E+00 0.15791715E+04</pdfrwt>
<totfact> 0.45024463E+00</totfact>
</mgrwt>
</event>
<event>
 6    1  0.2003386E-005  0.4052621E+04  0.7818608E-02  0.7994015E-01
         -2   -1    0    0    0  501 -0.00000000000E+00  0.00000000000E+00  0.19082481380E+04  0.19082481380E+04  0.00000000000E+00 0.  1.
          2   -1    0    0  501    0  0.00000000000E+00 -0.00000000000E+00 -0.21516771592E+04  0.21516771592E+04  0.00000000000E+00 0. -1.
         23    2    1    2    0    0 -0.12210996241E+04  0.28527855993E+03  0.14715000997E+04  0.19354371145E+04  0.90200509283E+02 0.  0.
         13    1    3    3    0    0 -0.80255012027E+03  0.22736003155E+03  0.10035419803E+04  0.13049428285E+04  0.00000000000E+00 0.  1.
        -13    1    3    3    0    0 -0.41854950382E+03  0.57918528384E+02  0.46795811945E+03  0.63049428597E+03  0.00000000000E+00 0. -1.
         22    1    1    2    0    0  0.12210996241E+04 -0.28527855993E+03 -0.17149291210E+04  0.21244881827E+04  0.00000000000E+00 0. -1.
<mgrwt>
<rscale>  0 0.40526208E+04</rscale>
<asrwt>0</asrwt>
<pdfrwt beam="1">  1        2 0.33102726E+00 0.40526208E+04</pdfrwt>
<pdfrwt beam="2">  1       -2 0.29357664E+00 0.40526208E+04</pdfrwt>
<totfact> 0.15025105E-01</totfact>
</mgrwt>
</event>
<event>
 6    1  0.2003386E-005  0.2994236E+04  0.7818608E-02  0.8245379E-01
         -1   -1    0    0    0  501 -0.00000000000E+00  0.00000000000E+00  0.64166479644E+03  0.64166479644E+03  0.00000000000E+00 0.  1.
          1   -1    0    0  501    0  0.00000000000E+00 -0.00000000000E+00 -0.34930420391E+04  0.34930420391E+04  0.00000000000E+00 0. -1.
         23    2    1    2    0    0  0.49791048895E+03  0.55043696014E+03  0.36588505591E+03  0.83293876375E+03  0.94970563470E+02 0.  0.
         11    1    3    3    0    0  0.95665547860E+02  0.13942159895E+03  0.47682647992E+02  0.17568128591E+03  0.00000000000E+00 0. -1.
        -11    1    3    3    0    0  0.40224494109E+03  0.41101536119E+03  0.31820240791E+03  0.65725747784E+03  0.00000000000E+00 0.  1.
         22    1    1    2    0    0 -0.49791048895E+03 -0.55043696014E+03 -0.32172622986E+04  0.33017680718E+04  0.00000000000E+00 0. -1.
<mgrwt>
<rscale>  0 0.29942359E+04</rscale>
<asrwt>0</asrwt>
<pdfrwt beam="1">  1        1 0.53739108E+00 0.29942359E+04</pdfrwt>
<pdfrwt beam="2">  1       -1 0.98717662E-01 0.29942359E+04</pdfrwt>
<totfact> 0.21134878E-01</totfact>
</mgrwt>
</event>
<event>
 6    1  0.2003386E-005  0.1689223E+04  0.7818608E-02  0.8767535E-01
          2   -1    0    0  501    0  0.00000000000E+00  0.00000000000E+00  0.17123188664E+04  0.17123188664E+04  0.00000000000E+00 0. -1.
         -2   -1    0    0    0  501 -0.00000000000E+00 -0.00000000000E+00 -0.41660948859E+03  0.41660948859E+03  0.00000000000E+00 0.  1.
         23    2    1    2    0    0 -0.36649223497E+03 -0.10621187087E+03  0.15958825023E+04  0.16434374442E+04  0.91913828217E+02 0.  0.
         11    1    3    3    0    0 -0.20609307699E+03 -0.20107697963E+02  0.74121058127E+03  0.76959197091E+03  0.00000000000E+00 0.  1.
        -11    1    3    3    0    0 -0.16039915798E+03 -0.86104172907E+02  0.85467192108E+03  0.87384547327E+03  0.00000000000E+00 0. -1.
         22    1    1    2    0    0  0.36649223497E+03  0.10621187087E+03 -0.30017312453E+03  0.48549091083E+03  0.00000000000E+00 0.  1.
<mgrwt>
<rscale>  0 0.16892226E+04</rscale>
<asrwt>0</asrwt>
<pdfrwt beam="1">  1        2 0.26343367E+00 0.16892226E+04</pdfrwt>
<pdfrwt beam="2">  1       -2 0.64093768E-01 0.16892226E+04</pdfrwt>
<totfact> 0.20683030E+01</totfact>
</mgrwt>
</event>
<event>
 6    1  0.2003386E-005  0.3346334E+04  0.7818608E-02  0.8151205E-01
          1   -1    0    0  501    0  0.00000000000E+00  0.00000000000E+00  0.23416015632E+04  0.23416015632E+04  0.00000000000E+00 0. -1.
         -1   -1    0    0    0  501 -0.00000000000E+00 -0.00000000000E+00 -0.11955439966E+04  0.11955439966E+04  0.00000000000E+00 0.  1.
         23    2    1    2    0    0 -0.15319516518E+04 -0.43960519102E+03  0.39606880207E+02  0.15969492530E+04  0.92464178688E+02 0.  0.
         13    1    3    3    0    0 -0.12257434534E+04 -0.37642505861E+03  0.37970216017E+01  0.12822469558E+04  0.00000000000E+00 0.  1.
        -13    1    3    3    0    0 -0.30620819840E+03 -0.63180132414E+02  0.35809858605E+02  0.31470229722E+03  0.00000000000E+00 0. -1.
         22    1    1    2    0    0  0.15319516518E+04  0.43960519102E+03  0.11064506864E+04  0.19401963068E+04  0.00000000000E+00 0. -1.
<mgrwt>
<rscale>  0 0.33463339E+04</rscale>
<asrwt>0</asrwt>
<pdfrwt beam="1">  1        1 0.36024639E+00 0.33463339E+04</pdfrwt>
<pdfrwt beam="2">  1       -1 0.18392985E+00 0.33463339E+04</pdfrwt>
<totfact> 0.28089939E-01</totfact>
</mgrwt>
</event>
<event>
 6    1  0.2003386E-005  0.9051390E+03  0.7818608E-02  0.9419180E-01
         -2   -1    0    0    0  501 -0.00000000000E+00  0.00000000000E+00  0.29635380384E+03  0.29635380384E+03  0.00000000000E+00 0.  1.
          2   -1    0    0  501    0  0.00000000000E+00 -0.00000000000E+00 -0.69113045689E+03  0.69113045689E+03  0.00000000000E+00 0. -1.
         23    2    1    2    0    0 -0.31573686303E+03  0.26001907545E+03 -0.39903834164E+03  0.57843921643E+03  0.89781082308E+02 0.  0.
         11    1    3    3    0    0 -0.22938969116E+03  0.16700780589E+03 -0.32529368719E+03  0.43165636861E+03  0.00000000000E+00 0. -1.
        -11    1    3    3    0    0 -0.86347171870E+02  0.93011269563E+02 -0.73744654446E+02  0.14678284782E+03  0.00000000000E+00 0.  1.
         22    1    1    2    0    0  0.31573686303E+03 -0.26001907545E+03  0.42616885916E+01  0.40904504430E+03  0.00000000000E+00 0. -1.
<mgrwt>
<rscale>  0 0.90513897E+03</rscale>
<asrwt>0</asrwt>
<pdfrwt beam="1">  1        2 0.10632776E+00 0.90513897E+03</pdfrwt>
<pdfrwt beam="2">  1       -2 0.45592894E-01 0.90513897E+03</pdfrwt>
<totfact> 0.19046577E+02</totfact>
</mgrwt>
</event>
<event>
 6    1  0.2003386E-005  0.2417883E+04  0.7818608E-02  0.8432839E-01
         -2   -1    0    0    0  501 -0.00000000000E+00  0.00000000000E+00  0.83298996328E+03  0.83298996328E+03  0.00000000000E+00 0.  1.
          2   -1    0    0  501    0  0.00000000000E+00 -0.00000000000E+00 -0.17545700588E+04  0.17545700588E+04  0.00000000000E+00 0. -1.
         23    2    1    2    0    0  0.49751662099E+03  0.31658976648E+03  0.66590806206E+03  0.89408120058E+03  0.90530534708E+02 0.  0.
         11    1    3    3    0    0  0.15506631660E+03  0.14993079962E+03  0.23438396634E+03  0.31852888550E+03  0.00000000000E+00 0.  1.
        -11    1    3    3    0    0  0.34245030439E+03  0.16665896686E+03  0.43152409571E+03  0.57555231508E+03  0.00000000000E+00 0. -1.
         22    1    1    2    0    0 -0.49751662099E+03 -0.31658976648E+03 -0.15874881575E+04  0.16934788215E+04  0.00000000000E+00 0. -1.
<mgrwt>
<rscale>  0 0.24178828E+04</rscale>
<asrwt>0</asrwt>
<pdfrwt beam="1">  1        2 0.26993385E+00 0.24178828E+04</pdfrwt>
<pdfrwt beam="2">  1       -2 0.12815230E+00 0.24178828E+04</pdfrwt>
<totfact> 0.36982039E+00</totfact>
</mgrwt>
</event>
<event>
 6    1  0.2003386E-005  0.3437421E+04  0.7818608E-02  0.8128783E-01
         -2   -1    0    0    0  501 -0.00000000000E+00  0.00000000000E+00  0.15081027273E+04  0.15081027273E+04  0.00000000000E+00 0. -1.
          2   -1    0    0  501    0  0.00000000000E+00 -0.00000000000E+00 -0.19587301829E+04  0.19587301829E+04  0.00000000000E+00 0.  1.
         23    2    1    2    0    0 -0.66180316056E+01  0.15435515020E+04 -0.98523516689E+03  0.18333089763E+04  0.87968349771E+02 0.  0.
         13    1    3    3    0    0  0.93490337892E+01  0.52950259790E+03 -0.38601775076E+03  0.65533969018E+03  0.00000000000E+00 0.  1.
        -13    1    3    3    0    0 -0.15967065395E+02  0.10140489041E+04 -0.59921741613E+03  0.11779692861E+04  0.00000000000E+00 0. -1.
         22    1    1    2    0    0  0.66180316056E+01 -0.15435515020E+04  0.53460771128E+03  0.16335239339E+04  0.00000000000E+00 0. -1.
<mgrwt>
<rscale>  0 0.34374213E+04</rscale>
<asrwt>0</asrwt>
<pdfrwt beam="1">  1        2 0.30134310E+00 0.34374213E+04</pdfrwt>
<pdfrwt beam="2">  1       -2 0.23201580E+00 0.34374213E+04</pdfrwt>
<totfact> 0.48319852E-01</totfact>
</mgrwt>
</event>
<event>
 6    1  0.2003386E-005  0.1485866E+04  0.7818608E-02  0.8893907E-01
         -2   -1    0    0    0  501 -0.00000000000E+00  0.00000000000E+00  0.18927842063E+03  0.18927842063E+03  0.00000000000E+00 0.  1.
          2   -1    0    0  501    0  0.00000000000E+00 -0.00000000000E+00 -0.29160700119E+04  0.29160700119E+04  0.00000000000E+00 0. -1.
         23    2    1    2    0    0 -0.45384754669E+03 -0.58432690319E+03 -0.14256603218E+04  0.16085658479E+04  0.86955208319E+02 0.  0.
         13    1    3    3    0    0 -0.21350515847E+03 -0.22133229720E+03 -0.65019447727E+03  0.71925329110E+03  0.00000000000E+00 0. -1.
        -13    1    3    3    0    0 -0.24034238821E+03 -0.36299460599E+03 -0.77546584455E+03  0.88931255676E+03  0.00000000000E+00 0.  1.
         22    1    1    2    0    0  0.45384754669E+03  0.58432690319E+03 -0.13011312695E+04  0.14967825847E+04  0.00000000000E+00 0. -1.
<mgrwt>
<rscale>  0 0.14858656E+04</rscale>
<asrwt>0</asrwt>
<pdfrwt beam="1">  1        2 0.44862612E+00 0.14858656E+04</pdfrwt>
<pdfrwt beam="2">  1       -2 0.29119759E-01 0.14858656E+04</pdfrwt>
<totfact> 0.20725475E+01</totfact>
</mgrwt>
</event>
<event>
 6    1  0.2003386E-005  0.8906485E+03  0.7818608E-02  0.9437347E-01
         -2   -1    0    0    0  501 -0.00000000000E+00  0.00000000000E+00  0.91902963266E+02  0.91902963266E+02  0.00000000000E+00 0. -1.
          2   -1    0    0  501    0  0.00000000000E+00 -0.00000000000E+00 -0.21578595124E+04  0.21578595124E+04  0.00000000000E+00 0.  1.
         23    2    1    2    0    0 -0.30204225179E+03 -0.28206503430E+03 -0.65605544335E+03  0.78054113988E+03  0.89696827403E+02 0.  0.
         11    1    3    3    0    0 -0.10884369042E+03 -0.66747985154E+02 -0.26457324687E+03  0.29377073617E+03  0.00000000000E+00 0. -1.
        -11    1    3    3    0    0 -0.19319856137E+03 -0.21531704915E+03 -0.39148219648E+03  0.48677040372E+03  0.00000000000E+00 0.  1.
         22    1    1    2    0    0  0.30204225179E+03  0.28206503430E+03 -0.14099011058E+04  0.14692213358E+04  0.00000000000E+00 0.  1.
<mgrwt>
<rscale>  0 0.89064849E+03</rscale>
<asrwt>0</asrwt>
<pdfrwt beam="1">  1        2 0.33197837E+00 0.89064849E+03</pdfrwt>
<pdfrwt beam="2">  1       -2 0.14138918E-01 0.89064849E+03</pdfrwt>
<totfact> 0.21443383E+02</totfact>
</mgrwt>
</event>
<event>
 6    1  0.2003386E-005  0.1574656E+04  0.7818608E-02  0.8836271E-01
         -2   -1    0    0    0  501 -0.00000000000E+00  0.00000000000E+00  0.82808042036E+03  0.82808042036E+03  0.00000000000E+00 0.  1.
          2   -1    0    0  501    0  0.00000000000E+00 -0.00000000000E+00 -0.74858089899E+03  0.74858089899E+03  0.00000000000E+00 0. -1.
         23    2    1    2    0    0 -0.36678237970E+02  0.47293805910E+03 -0.58612079931E+03  0.75930820582E+03  0.89418449745E+02 0.  0.
         11    1    3    3    0    0 -0.41797347117E+02  0.19512097748E+03 -0.19067005869E+03  0.27599689375E+03  0.00000000000E+00 0. -1.
        -11    1    3    3    0    0  0.51191091473E+01  0.27781708163E+03 -0.39545074062E+03  0.48331131207E+03  0.00000000000E+00 0.  1.
         22    1    1    2    0    0  0.36678237970E+02 -0.47293805910E+03  0.66562032069E+03  0.81735311353E+03  0.00000000000E+00 0.  1.
<mgrwt>
<rscale>  0 0.15746558E+04</rscale>
<asrwt>0</asrwt>
<pdfrwt beam="1">  1        2 0.11516629E+00 0.15746558E+04</pdfrwt>
<pdfrwt beam="2">  1       -2 0.12739699E+00 0.15746558E+04</pdfrwt>
<totfact> 0.16505973E+01</totfact>
</mgrwt>
</event>
<event>
 6    1  0.2003386E-005  0.3093298E+04  0.7818608E-02  0.8217580E-01
          2   -1    0    0  501    0  0.00000000000E+00  0.00000000000E+00  0.31267044753E+04  0.31267044753E+04  0.00000000000E+00 0. -1.
         -2   -1    0    0    0  501 -0.00000000000E+00 -0.00000000000E+00 -0.76506202316E+03  0.76506202316E+03  0.00000000000E+00 0.  1.
         23    2    1    2    0    0  0.10492006041E+04 -0.86884885832E+03  0.26392920434E+03  0.13905425748E+04  0.90718141063E+02 0.  0.
         13    1    3    3    0    0  0.45278222782E+03 -0.37355635693E+03  0.68062314778E+02  0.59092180221E+03  0.00000000000E+00 0. -1.
        -13    1    3    3    0    0  0.59641837630E+03 -0.49529250139E+03  0.19586688956E+03  0.79962077259E+03  0.00000000000E+00 0.  1.
         22    1    1    2    0    0 -0.10492006041E+04  0.86884885832E+03  0.20977132478E+04  0.25012239236E+04  0.00000000000E+00 0. -1.
<mgrwt>
<rscale>  0 0.30932978E+04</rscale>
<asrwt>0</asrwt>
<pdfrwt beam="1">  1        2 0.48103145E+00 0.30932978E+04</pdfrwt>
<pdfrwt beam="2">  1       -2 0.11770185E+00 0.30932978E+04</pdfrwt>
<totfact> 0.68403052E-01</totfact>
</mgrwt>
</event>
<event>
 6    1  0.2003386E-005  0.1085833E+04  0.7818608E-02  0.9219111E-01
         -1   -1    0    0    0  501 -0.00000000000E+00  0.00000000000E+00  0.10915921215E+03  0.10915921215E+03  0.00000000000E+00 0.  1.
          1   -1    0    0  501    0  0.00000000000E+00 -0.00000000000E+00 -0.27002627145E+04  0.27002627145E+04  0.00000000000E+00 0. -1.
         23    2    1    2    0    0 -0.58270386176E+02 -0.42670929746E+03 -0.46033171891E+03  0.63556253479E+03  0.80982601548E+02 0.  0.
         13    1    3    3    0    0 -0.99530407273E+01 -0.15860748717E+03 -0.22565043413E+03  0.27599550074E+03  0.00000000000E+00 0.  1.
        -13    1    3    3    0    0 -0.48317345449E+02 -0.26810181028E+03 -0.23468128479E+03  0.35956703405E+03  0.00000000000E+00 0. -1.
         22    1    1    2    0    0  0.58270386176E+02  0.42670929746E+03 -0.21307717834E+04  0.21738593919E+04  0.00000000000E+00 0. -1.
<mgrwt>
<rscale>  0 0.10858334E+04</rscale>
<asrwt>0</asrwt>
<pdfrwt beam="1">  1        1 0.41542504E+00 0.10858334E+04</pdfrwt>
<pdfrwt beam="2">  1       -1 0.16793724E-01 0.10858334E+04</pdfrwt>
<totfact> 0.27090630E+01</totfact>
</mgrwt>
</event>
<event>
 6    1  0.2003386E-005  0.3242869E+04  0.7818608E-02  0.8177586E-01
          1   -1    0    0  501    0  0.00000000000E+00  0.00000000000E+00  0.82469649452E+03  0.82469649452E+03  0.00000000000E+00 0. -1.
         -1   -1    0    0    0  501 -0.00000000000E+00 -0.00000000000E+00 -0.31879006269E+04  0.31879006269E+04  0.00000000000E+00 0.  1.
         23    2    1    2    0    0 -0.11663425627E+04  0.41368847686E+03  0.11160758601E+03  0.12456157028E+04  0.87230134343E+02 0.  0.
         13    1    3    3    0    0 -0.10052297412E+04  0.36542897651E+03  0.67375175049E+02  0.10717110542E+04  0.00000000000E+00 0. -1.
        -13    1    3    3    0    0 -0.16111282153E+03  0.48259500348E+02  0.44232410957E+02  0.17390464863E+03  0.00000000000E+00 0.  1.
         22    1    1    2    0    0  0.11663425627E+04 -0.41368847686E+03 -0.24748117184E+04  0.27669814186E+04  0.00000000000E+00 0.  1.
<mgrwt>
<rscale>  0 0.32428694E+04</rscale>
<asrwt>0</asrwt>
<pdfrwt beam="1">  1        1 0.12687638E+00 0.32428694E+04</pdfrwt>
<pdfrwt beam="2">  1       -1 0.49044626E+00 0.32428694E+04</pdfrwt>
<totfact> 0.30135573E-02</totfact>
</mgrwt>
</event>
<event>
 6    1  0.2003386E-005  0.2750060E+04  0.7818608E-02  0.8318943E-01
          2   -1    0    0  501    0  0.00000000000E+00  0.00000000000E+00  0.17768797615E+04  0.17768797615E+04  0.00000000000E+00 0. -1.
         -2   -1    0    0    0  501 -0.00000000000E+00 -0.00000000000E+00 -0.10640601353E+04  0.10640601353E+04  0.00000000000E+00 0.  1.
         23    2    1    2    0    0  0.44111718387E+03  0.23478405369E+03  0.16784748324E+04  0.17536506533E+04  0.91131382226E+02 0.  0.
         13    1    3    3    0    0  0.36710913939E+03  0.22833208293E+03  0.13841466308E+04  0.14500919130E+04  0.00000000000E+00 0. -1.
        -13    1    3    3    0    0  0.74008044479E+02  0.64519707528E+01  0.29432820157E+03  0.30355874030E+03  0.00000000000E+00 0.  1.
         22    1    1    2    0    0 -0.44111718387E+03 -0.23478405369E+03 -0.96565520622E+03  0.10872892435E+04  0.00000000000E+00 0.  1.
<mgrwt>
<rscale>  0 0.27500596E+04</rscale>
<asrwt>0</asrwt>
<pdfrwt beam="1">  1        2 0.27336612E+00 0.27500596E+04</pdfrwt>
<pdfrwt beam="2">  1       -2 0.16370156E+00 0.27500596E+04</pdfrwt>
<totfact> 0.18376065E+00</totfact>
</mgrwt>
</event>
<event>
 6    1  0.2003386E-005  0.1785656E+04  0.7818608E-02  0.8713965E-01
         -2   -1    0    0    0  501 -0.00000000000E+00  0.00000000000E+00  0.43774009415E+03  0.43774009415E+03  0.00000000000E+00 0.  1.
          2   -1    0    0  501    0  0.00000000000E+00 -0.00000000000E+00 -0.18210390476E+04  0.18210390476E+04  0.00000000000E+00 0. -1.
         23    2    1    2    0    0  0.54614461805E+03 -0.32779884853E+03 -0.14805127413E+04  0.16144371910E+04  0.93613232982E+02 0.  0.
         11    1    3    3    0    0  0.41647642778E+03 -0.29365112852E+03 -0.11588627902E+04  0.12659567792E+04  0.00000000000E+00 0.  1.
        -11    1    3    3    0    0  0.12966819027E+03 -0.34147720011E+02 -0.32164995114E+03  0.34848041181E+03  0.00000000000E+00 0. -1.
         22    1    1    2    0    0 -0.54614461805E+03  0.32779884853E+03  0.97213787930E+02  0.64434195074E+03  0.00000000000E+00 0.  1.
<mgrwt>
<rscale>  0 0.17856560E+04</rscale>
<asrwt>0</asrwt>
<pdfrwt beam="1">  1        2 0.28015986E+00 0.17856560E+04</pdfrwt>
<pdfrwt beam="2">  1       -2 0.67344629E-01 0.17856560E+04</pdfrwt>
<totfact> 0.16053115E+01</totfact>
</mgrwt>
</event>
<event>
 6    1  0.2003386E-005  0.1687052E+04  0.7818608E-02  0.8768784E-01
          2   -1    0    0  501    0  0.00000000000E+00  0.00000000000E+00  0.16423298197E+04  0.16423298197E+04  0.00000000000E+00 0. -1.
         -2   -1    0    0    0  501 -0.00000000000E+00 -0.00000000000E+00 -0.43324776196E+03  0.43324776196E+03  0.00000000000E+00 0.  1.
         23    2    1    2    0    0 -0.61783280886E+03  0.91816746021E+02  0.12990692992E+04  0.14445107087E+04  0.94246744990E+02 0.  0.
         11    1    3    3    0    0 -0.28300949326E+03  0.89350857437E+02  0.62164111658E+03  0.68885094674E+03  0.00000000000E+00 0. -1.
        -11    1    3    3    0    0 -0.33482331560E+03  0.24658885839E+01  0.67742818258E+03  0.75565976195E+03  0.00000000000E+00 0.  1.
         22    1    1    2    0    0  0.61783280886E+03 -0.91816746021E+02 -0.89987241407E+02  0.63106687298E+03  0.00000000000E+00 0.  1.
<mgrwt>
<rscale>  0 0.16870515E+04</rscale>
<asrwt>0</asrwt>
<pdfrwt beam="1">  1        2 0.25266612E+00 0.16870515E+04</pdfrwt>
<pdfrwt beam="2">  1       -2 0.66653503E-01 0.16870515E+04</pdfrwt>
<totfact> 0.20799092E+01</totfact>
</mgrwt>
</event>
<event>
 6    1  0.2003386E-005  0.2259263E+04  0.7818608E-02  0.8494158E-01
         -2   -1    0    0    0  501 -0.00000000000E+00  0.00000000000E+00  0.43524836180E+03  0.43524836180E+03  0.00000000000E+00 0.  1.
          2   -1    0    0  501    0  0.00000000000E+00 -0.00000000000E+00 -0.29318147143E+04  0.29318147143E+04  0.00000000000E+00 0. -1.
         23    2    1    2    0    0  0.79215991055E+03  0.78391164544E+03 -0.99276382470E+03  0.14953107329E+04  0.91320230501E+02 0.  0.
         13    1    3    3    0    0  0.38315618503E+03  0.40029188274E+03 -0.55110337421E+03  0.78150955373E+03  0.00000000000E+00 0.  1.
        -13    1    3    3    0    0  0.40900372552E+03  0.38361976270E+03 -0.44166045049E+03  0.71380117915E+03  0.00000000000E+00 0. -1.
         22    1    1    2    0    0 -0.79215991055E+03 -0.78391164544E+03 -0.15038025278E+04  0.18717523432E+04  0.00000000000E+00 0. -1.
<mgrwt>
<rscale>  0 0.22592632E+04</rscale>
<asrwt>0</asrwt>
<pdfrwt beam="1">  1        2 0.45104843E+00 0.22592632E+04</pdfrwt>
<pdfrwt beam="2">  1       -2 0.66961285E-01 0.22592632E+04</pdfrwt>
<totfact> 0.35789039E+00</totfact>
</mgrwt>
</event>
<event>
 6    1  0.2003386E-005  0.1776614E+04  0.7818608E-02  0.8718836E-01
          1   -1    0    0  501    0  0.00000000000E+00  0.00000000000E+00  0.11634939513E+04  0.11634939513E+04  0.00000000000E+00 0. -1.
         -1   -1    0    0    0  501 -0.00000000000E+00 -0.00000000000E+00 -0.67820644522E+03  0.67820644522E+03  0.00000000000E+00 0.  1.
         23    2    1    2    0    0 -0.67711865811E+03 -0.53025908207E+03  0.46410694509E+03  0.98140219967E+03  0.89948039183E+02 0.  0.
         11    1    3    3    0    0 -0.26984048063E+03 -0.18497595788E+03  0.22040607478E+03  0.39447284796E+03  0.00000000000E+00 0.  1.
        -11    1    3    3    0    0 -0.40727817748E+03 -0.34528312419E+03  0.24370087031E+03  0.58692935171E+03  0.00000000000E+00 0. -1.
         22    1    1    2    0    0  0.67711865811E+03  0.53025908207E+03  0.21180560954E+02  0.86029819681E+03  0.00000000000E+00 0.  1.
<mgrwt>
<rscale>  0 0.17766137E+04</rscale>
<asrwt>0</asrwt>
<pdfrwt beam="1">  1        1 0.17899907E+00 0.17766137E+04</pdfrwt>
<pdfrwt beam="2">  1       -1 0.10433945E+00 0.17766137E+04</pdfrwt>
<totfact> 0.92870528E+00</totfact>
</mgrwt>
</event>
<event>
 6    1  0.2003386E-005  0.2500695E+04  0.7818608E-02  0.8402738E-01
         -2   -1    0    0    0  501 -0.00000000000E+00  0.00000000000E+00  0.77064020925E+03  0.77064020925E+03  0.00000000000E+00 0.  1.
          2   -1    0    0  501    0  0.00000000000E+00 -0.00000000000E+00 -0.20286625622E+04  0.20286625622E+04  0.00000000000E+00 0. -1.
         23    2    1    2    0    0  0.13859232904E+03 -0.93119372752E+02 -0.20150631349E+04  0.20240674545E+04  0.92144296676E+02 0.  0.
         13    1    3    3    0    0  0.60260699154E+02 -0.92591643150E+02 -0.10351606349E+04  0.10410389543E+04  0.00000000000E+00 0.  1.
        -13    1    3    3    0    0  0.78331629883E+02 -0.52772960182E+00 -0.97990250001E+03  0.98302850023E+03  0.00000000000E+00 0. -1.
         22    1    1    2    0    0 -0.13859232904E+03  0.93119372752E+02  0.75704078191E+03  0.77523531700E+03  0.00000000000E+00 0.  1.
<mgrwt>
<rscale>  0 0.25006951E+04</rscale>
<asrwt>0</asrwt>
<pdfrwt beam="1">  1        2 0.31210193E+00 0.25006951E+04</pdfrwt>
<pdfrwt beam="2">  1       -2 0.11856003E+00 0.25006951E+04</pdfrwt>
<totfact> 0.31426001E+00</totfact>
</mgrwt>
</event>
<event>
 6    1  0.2003386E-005  0.8160610E+03  0.7818608E-02  0.9537056E-01
         -1   -1    0    0    0  501 -0.00000000000E+00  0.00000000000E+00  0.41004557932E+03  0.41004557932E+03  0.00000000000E+00 0.  1.
          1   -1    0    0  501    0  0.00000000000E+00 -0.00000000000E+00 -0.40602533529E+03  0.40602533529E+03  0.00000000000E+00 0. -1.
         23    2    1    2    0    0  0.28774127275E+03  0.21396897752E+03  0.18571955364E+03  0.41408533962E+03  0.91635978163E+02 0.  0.
         11    1    3    3    0    0  0.11094917907E+03  0.12300971899E+03  0.12049147597E+03  0.20483971071E+03  0.00000000000E+00 0.  1.
        -11    1    3    3    0    0  0.17679209368E+03  0.90959258538E+02  0.65228077676E+02  0.20924562891E+03  0.00000000000E+00 0. -1.
         22    1    1    2    0    0 -0.28774127275E+03 -0.21396897752E+03 -0.18169930962E+03  0.40198557499E+03  0.00000000000E+00 0. -1.
<mgrwt>
<rscale>  0 0.81606101E+03</rscale>
<asrwt>0</asrwt>
<pdfrwt beam="1">  1        1 0.62465436E-01 0.81606101E+03</pdfrwt>
<pdfrwt beam="2">  1       -1 0.63083936E-01 0.81606101E+03</pdfrwt>
<totfact> 0.15163576E+02</totfact>
</mgrwt>
</event>
<event>
 6    1  0.2003386E-005  0.5093301E+04  0.7818608E-02  0.7814274E-01
          2   -1    0    0  501    0  0.00000000000E+00  0.00000000000E+00  0.30472883972E+04  0.30472883972E+04  0.00000000000E+00 0. -1.
         -2   -1    0    0    0  501 -0.00000000000E+00 -0.00000000000E+00 -0.21282620941E+04  0.21282620941E+04  0.00000000000E+00 0.  1.
         23    2    1    2    0    0 -0.71070196703E+03  0.13191043537E+04  0.25510618947E+04  0.29599977941E+04  0.92393554731E+02 0.  0.
         11    1    3    3    0    0 -0.68878264592E+03  0.12456881715E+04  0.24447990130E+04  0.28289932428E+04  0.00000000000E+00 0. -1.
        -11    1    3    3    0    0 -0.21919321107E+02  0.73416182139E+02  0.10626288164E+03  0.13100455127E+03  0.00000000000E+00 0.  1.
         22    1    1    2    0    0  0.71070196703E+03 -0.13191043537E+04 -0.16320355916E+04  0.22155526972E+04  0.00000000000E+00 0.  1.
<mgrwt>
<rscale>  0 0.50933008E+04</rscale>
<asrwt>0</asrwt>
<pdfrwt beam="1">  1        2 0.46881360E+00 0.50933008E+04</pdfrwt>
<pdfrwt beam="2">  1       -2 0.32742494E+00 0.50933008E+04</pdfrwt>
<totfact> 0.25288739E-02</totfact>
</mgrwt>
</event>
<event>
 6    1  0.2003386E-005  0.9334178E+03  0.7818608E-02  0.9384745E-01
         -1   -1    0    0    0  501 -0.00000000000E+00  0.00000000000E+00  0.13612496572E+03  0.13612496572E+03  0.00000000000E+00 0.  1.
          1   -1    0    0  501    0  0.00000000000E+00 -0.00000000000E+00 -0.16001267789E+04  0.16001267789E+04  0.00000000000E+00 0. -1.
         23    2    1    2    0    0 -0.11613763494E+03  0.28866467490E+02 -0.15696372617E+04  0.15766269622E+04  0.87579800774E+02 0.  0.
         13    1    3    3    0    0 -0.10005760458E+03  0.49915652037E+02 -0.97335149585E+03  0.97975314801E+03  0.00000000000E+00 0. -1.
        -13    1    3    3    0    0 -0.16080030359E+02 -0.21049184546E+02 -0.59628576582E+03  0.59687381419E+03  0.00000000000E+00 0.  1.
         22    1    1    2    0    0  0.11613763494E+03 -0.28866467490E+02  0.10563544847E+03  0.15962478244E+03  0.00000000000E+00 0.  1.
<mgrwt>
<rscale>  0 0.93341781E+03</rscale>
<asrwt>0</asrwt>
<pdfrwt beam="1">  1        1 0.24617333E+00 0.93341781E+03</pdfrwt>
<pdfrwt beam="2">  1       -1 0.20942304E-01 0.93341781E+03</pdfrwt>
<totfact> 0.10642970E+02</totfact>
</mgrwt>
</event>
<event>
 6    1  0.2003386E-005  0.7014962E+03  0.7818608E-02  0.9714677E-01
          2   -1    0    0  501    0  0.00000000000E+00  0.00000000000E+00  0.35662690536E+03  0.35662690536E+03  0.00000000000E+00 0. -1.
         -2   -1    0    0    0  501 -0.00000000000E+00 -0.00000000000E+00 -0.34496623115E+03  0.34496623115E+03  0.00000000000E+00 0.  1.
         23    2    1    2    0    0 -0.92670088286E+02  0.93928644302E+01 -0.32606196411E+03  0.35126107747E+03  0.91607690413E+02 0.  0.
         11    1    3    3    0    0 -0.73578764121E+02  0.41613117224E+02 -0.15922560871E+03  0.18027279474E+03  0.00000000000E+00 0. -1.
        -11    1    3    3    0    0 -0.19091324165E+02 -0.32220252793E+02 -0.16683635540E+03  0.17098828273E+03  0.00000000000E+00 0.  1.
         22    1    1    2    0    0  0.92670088286E+02 -0.93928644302E+01  0.33772263832E+03  0.35033205905E+03  0.00000000000E+00 0. -1.
<mgrwt>
<rscale>  0 0.70149623E+03</rscale>
<asrwt>0</asrwt>
<pdfrwt beam="1">  1        2 0.54865678E-01 0.70149623E+03</pdfrwt>
<pdfrwt beam="2">  1       -2 0.53071728E-01 0.70149623E+03</pdfrwt>
<totfact> 0.30578109E+02</totfact>
</mgrwt>
</event>
<event>
 6    1  0.2003386E-005  0.3037065E+04  0.7818608E-02  0.8233225E-01
         -2   -1    0    0    0  501 -0.00000000000E+00  0.00000000000E+00  0.85837678952E+03  0.85837678952E+03  0.00000000000E+00 0.  1.
          2   -1    0    0  501    0  0.00000000000E+00 -0.00000000000E+00 -0.26863965379E+04  0.26863965379E+04  0.00000000000E+00 0. -1.
         23    2    1    2    0    0 -0.12292413885E+04 -0.78464455602E+03 -0.42645366825E+03  0.15221292788E+04  0.91177518608E+02 0.  0.
         11    1    3    3    0    0 -0.10257295198E+04 -0.68381424868E+03 -0.38293764366E+03  0.12908773038E+04  0.00000000000E+00 0.  1.
        -11    1    3    3    0    0 -0.20351186869E+03 -0.10083030733E+03 -0.43516024584E+02  0.23125197506E+03  0.00000000000E+00 0. -1.
         22    1    1    2    0    0  0.12292413885E+04  0.78464455602E+03 -0.14015660801E+04  0.20226440486E+04  0.00000000000E+00 0. -1.
<mgrwt>
<rscale>  0 0.30370647E+04</rscale>
<asrwt>0</asrwt>
<pdfrwt beam="1">  1        2 0.41329177E+00 0.30370647E+04</pdfrwt>
<pdfrwt beam="2">  1       -2 0.13205797E+00 0.30370647E+04</pdfrwt>
<totfact> 0.96321805E-01</totfact>
</mgrwt>
</event>
<event>
 6    1  0.2003386E-005  0.5536431E+04  0.7818608E-02  0.7750696E-01
         -1   -1    0    0    0  501 -0.00000000000E+00  0.00000000000E+00  0.21993534644E+04  0.21993534644E+04  0.00000000000E+00 0.  1.
          1   -1    0    0  501    0  0.00000000000E+00 -0.00000000000E+00 -0.34842131282E+04  0.34842131282E+04  0.00000000000E+00 0. -1.
         23    2    1    2    0    0  0.16943704218E+04 -0.15684467835E+04  0.92366807760E+03  0.24884905021E+04  0.92227015740E+02 0.  0.
         11    1    3    3    0    0  0.59023812530E+03 -0.49060021192E+03  0.32251379448E+03  0.83251712302E+03  0.00000000000E+00 0. -1.
        -11    1    3    3    0    0  0.11041322965E+04 -0.10778465716E+04  0.60115428312E+03  0.16559733791E+04  0.00000000000E+00 0.  1.
         22    1    1    2    0    0 -0.16943704218E+04  0.15684467835E+04 -0.22085277414E+04  0.31950760904E+04  0.00000000000E+00 0. -1.
<mgrwt>
<rscale>  0 0.55364307E+04</rscale>
<asrwt>0</asrwt>
<pdfrwt beam="1">  1        1 0.53603279E+00 0.55364307E+04</pdfrwt>
<pdfrwt beam="2">  1       -1 0.33836207E+00 0.55364307E+04</pdfrwt>
<totfact> 0.32984768E-03</totfact>
</mgrwt>
</event>
<event>
 6    1  0.2003386E-005  0.7437752E+03  0.7818608E-02  0.9645167E-01
          2   -1    0    0  501    0  0.00000000000E+00  0.00000000000E+00  0.10530161863E+04  0.10530161863E+04  0.00000000000E+00 0. -1.
         -2   -1    0    0    0  501 -0.00000000000E+00 -0.00000000000E+00 -0.13133739703E+03  0.13133739703E+03  0.00000000000E+00 0.  1.
         23    2    1    2    0    0  0.13945401907E+02 -0.33480274571E+03  0.70127265970E+03  0.78327227646E+03  0.97184170821E+02 0.  0.
         13    1    3    3    0    0  0.37536469188E+02 -0.28161092801E+03  0.51554628268E+03  0.58864392537E+03  0.00000000000E+00 0.  1.
        -13    1    3    3    0    0 -0.23591067281E+02 -0.53191817703E+02  0.18572637702E+03  0.19462835109E+03  0.00000000000E+00 0. -1.
         22    1    1    2    0    0 -0.13945401907E+02  0.33480274571E+03  0.22040612956E+03  0.40108130687E+03  0.00000000000E+00 0.  1.
<mgrwt>
<rscale>  0 0.74377525E+03</rscale>
<asrwt>0</asrwt>
<pdfrwt beam="1">  1        2 0.16200248E+00 0.74377525E+03</pdfrwt>
<pdfrwt beam="2">  1       -2 0.20205754E-01 0.74377525E+03</pdfrwt>
<totfact> 0.49167291E+02</totfact>
</mgrwt>
</event>
<event>
 6    1  0.2003386E-005  0.5485714E+04  0.7818608E-02  0.7757658E-01
          2   -1    0    0  501    0  0.00000000000E+00  0.00000000000E+00  0.37030885311E+04  0.37030885311E+04  0.00000000000E+00 0. -1.
         -2   -1    0    0    0  501 -0.00000000000E+00 -0.00000000000E+00 -0.20316189448E+04  0.20316189448E+04  0.00000000000E+00 0.  1.
         23    2    1    2    0    0  0.12708753043E+04  0.80059625824E+03 -0.15623183395E+04  0.21691131697E+04  0.90193910246E+02 0.  0.
         11    1    3    3    0    0  0.30759495800E+03  0.17688745426E+03 -0.31898645857E+03  0.47713330466E+03  0.00000000000E+00 0.  1.
        -11    1    3    3    0    0  0.96328034625E+03  0.62370880399E+03 -0.12433318809E+04  0.16919798651E+04  0.00000000000E+00 0. -1.
         22    1    1    2    0    0 -0.12708753043E+04 -0.80059625824E+03  0.32337879258E+04  0.35655943062E+04  0.00000000000E+00 0. -1.
<mgrwt>
<rscale>  0 0.54857141E+04</rscale>
<asrwt>0</asrwt>
<pdfrwt beam="1">  1        2 0.56970593E+00 0.54857141E+04</pdfrwt>
<pdfrwt beam="2">  1       -2 0.31255676E+00 0.54857141E+04</pdfrwt>
<totfact> 0.10792691E-02</totfact>
</mgrwt>
</event>
<event>
 6    1  0.2003386E-005  0.1533169E+04  0.7818608E-02  0.8862691E-01
          1   -1    0    0  501    0  0.00000000000E+00  0.00000000000E+00  0.71860093653E+03  0.71860093653E+03  0.00000000000E+00 0. -1.
         -1   -1    0    0    0  501 -0.00000000000E+00 -0.00000000000E+00 -0.81777226348E+03  0.81777226348E+03  0.00000000000E+00 0.  1.
         23    2    1    2    0    0 -0.33754400931E+03  0.88132706136E+01  0.63683038632E+03  0.72661264659E+03  0.91648051184E+02 0.  0.
         13    1    3    3    0    0 -0.12675796518E+03  0.30697754859E+02  0.31877154026E+03  0.34442013409E+03  0.00000000000E+00 0. -1.
        -13    1    3    3    0    0 -0.21078604414E+03 -0.21884484245E+02  0.31805884606E+03  0.38219251250E+03  0.00000000000E+00 0.  1.
         22    1    1    2    0    0  0.33754400931E+03 -0.88132706136E+01 -0.73600171326E+03  0.80976055342E+03  0.00000000000E+00 0.  1.
<mgrwt>
<rscale>  0 0.15331692E+04</rscale>
<asrwt>0</asrwt>
<pdfrwt beam="1">  1        1 0.11055399E+00 0.15331692E+04</pdfrwt>
<pdfrwt beam="2">  1       -1 0.12581112E+00 0.15331692E+04</pdfrwt>
<totfact> 0.13907946E+01</totfact>
</mgrwt>
</event>
<event>
 6    1  0.2003386E-005  0.2072638E+04  0.7818608E-02  0.8573393E-01
         -2   -1    0    0    0  501 -0.00000000000E+00  0.00000000000E+00  0.78187970308E+03  0.78187970308E+03  0.00000000000E+00 0.  1.
          2   -1    0    0  501    0  0.00000000000E+00 -0.00000000000E+00 -0.13735572985E+04  0.13735572985E+04  0.00000000000E+00 0. -1.
         23    2    1    2    0    0 -0.69481241185E+03  0.41126295304E+03 -0.96856823686E+03  0.12643993706E+04  0.93165630188E+02 0.  0.
         11    1    3    3    0    0 -0.57810234673E+03  0.35899001884E+03 -0.76370516201E+03  0.10228986907E+04  0.00000000000E+00 0. -1.
        -11    1    3    3    0    0 -0.11671006511E+03  0.52272934201E+02 -0.20486307485E+03  0.24150067989E+03  0.00000000000E+00 0.  1.
         22    1    1    2    0    0  0.69481241185E+03 -0.41126295304E+03  0.37689064147E+03  0.89103763098E+03  0.00000000000E+00 0.  1.
<mgrwt>
<rscale>  0 0.20726375E+04</rscale>
<asrwt>0</asrwt>
<pdfrwt beam="1">  1        2 0.21131651E+00 0.20726375E+04</pdfrwt>
<pdfrwt beam="2">  1       -2 0.12028919E+00 0.20726375E+04</pdfrwt>
<totfact> 0.73068961E+00</totfact>
</mgrwt>
</event>
<event>
 6    1  0.2003386E-005  0.2975813E+04  0.7818608E-02  0.8250672E-01
          2   -1    0    0  501    0  0.00000000000E+00  0.00000000000E+00  0.15446413422E+04  0.15446413422E+04  0.00000000000E+00 0. -1.
         -2   -1    0    0    0  501 -0.00000000000E+00 -0.00000000000E+00 -0.14332550551E+04  0.14332550551E+04  0.00000000000E+00 0.  1.
         23    2    1    2    0    0  0.12196734572E+04  0.79938056157E+03  0.34359973647E+03  0.15012326880E+04  0.95006211083E+02 0.  0.
         11    1    3    3    0    0  0.63113057574E+03  0.36476640418E+03  0.14663594920E+03  0.74356064638E+03  0.00000000000E+00 0. -1.
        -11    1    3    3    0    0  0.58854288144E+03  0.43461415739E+03  0.19696378727E+03  0.75767204158E+03  0.00000000000E+00 0.  1.
         22    1    1    2    0    0 -0.12196734572E+04 -0.79938056157E+03 -0.23221344931E+03  0.14766637093E+04  0.00000000000E+00 0.  1.
<mgrwt>
<rscale>  0 0.29758125E+04</rscale>
<asrwt>0</asrwt>
<pdfrwt beam="1">  1        2 0.23763713E+00 0.29758125E+04</pdfrwt>
<pdfrwt beam="2">  1       -2 0.22050078E+00 0.29758125E+04</pdfrwt>
<totfact> 0.10081707E+00</totfact>
</mgrwt>
</event>
<event>
 6    1  0.2003386E-005  0.2252010E+04  0.7818608E-02  0.8497087E-01
          2   -1    0    0  501    0  0.00000000000E+00  0.00000000000E+00  0.16091857370E+04  0.16091857370E+04  0.00000000000E+00 0.  1.
         -2   -1    0    0    0  501 -0.00000000000E+00 -0.00000000000E+00 -0.78790606238E+03  0.78790606238E+03  0.00000000000E+00 0. -1.
         23    2    1    2    0    0 -0.17115929216E+03  0.45638684365E+03 -0.66686017544E+03  0.83115927602E+03  0.92405595993E+02 0.  0.
         13    1    3    3    0    0 -0.17579723208E+02  0.13968466567E+03 -0.23604823907E+03  0.27484472645E+03  0.00000000000E+00 0.  1.
        -13    1    3    3    0    0 -0.15357956896E+03  0.31670217798E+03 -0.43081193638E+03  0.55631454957E+03  0.00000000000E+00 0. -1.
         22    1    1    2    0    0  0.17115929216E+03 -0.45638684365E+03  0.14881398500E+04  0.15659325233E+04  0.00000000000E+00 0.  1.
<mgrwt>
<rscale>  0 0.22520099E+04</rscale>
<asrwt>0</asrwt>
<pdfrwt beam="1">  1        2 0.24756704E+00 0.22520099E+04</pdfrwt>
<pdfrwt beam="2">  1       -2 0.12121632E+00 0.22520099E+04</pdfrwt>
<totfact> 0.51948857E+00</totfact>
</mgrwt>
</event>
<event>
 6    1  0.2003386E-005  0.1098864E+04  0.7818608E-02  0.9206300E-01
          2   -1    0    0  501    0  0.00000000000E+00  0.00000000000E+00  0.80942006056E+03  0.80942006056E+03  0.00000000000E+00 0.  1.
         -2   -1    0    0    0  501 -0.00000000000E+00 -0.00000000000E+00 -0.37295298676E+03  0.37295298676E+03  0.00000000000E+00 0. -1.
         23    2    1    2    0    0 -0.17385338638E+03  0.42091599618E+03  0.54332454960E+03  0.71459767822E+03  0.89738507445E+02 0.  0.
         11    1    3    3    0    0 -0.74988648876E+02  0.25374126678E+03  0.36585614141E+03  0.45150708094E+03  0.00000000000E+00 0.  1.
        -11    1    3    3    0    0 -0.98864737507E+02  0.16717472941E+03  0.17746840819E+03  0.26309059728E+03  0.00000000000E+00 0. -1.
         22    1    1    2    0    0  0.17385338638E+03 -0.42091599618E+03 -0.10685747581E+03  0.46777536910E+03  0.00000000000E+00 0. -1.
<mgrwt>
<rscale>  0 0.10988642E+04</rscale>
<asrwt>0</asrwt>
<pdfrwt beam="1">  1        2 0.12452616E+00 0.10988642E+04</pdfrwt>
<pdfrwt beam="2">  1       -2 0.57377383E-01 0.10988642E+04</pdfrwt>
<totfact> 0.95847598E+01</totfact>
</mgrwt>
</event>
<event>
 6    1  0.2003386E-005  0.3376316E+04  0.7818608E-02  0.8143744E-01
          2   -1    0    0  501    0  0.00000000000E+00  0.00000000000E+00  0.17286483153E+04  0.17286483153E+04  0.00000000000E+00 0. -1.
         -2   -1    0    0    0  501 -0.00000000000E+00 -0.00000000000E+00 -0.16486158711E+04  0.16486158711E+04  0.00000000000E+00 0.  1.
         23    2    1    2    0    0 -0.65922764140E+03 -0.13248583064E+04  0.85007999349E+03  0.17090903815E+04  0.92321838392E+02 0.  0.
         11    1    3    3    0    0 -0.53330546251E+03 -0.11449304327E+04  0.72053681477E+03  0.14541161279E+04  0.00000000000E+00 0.  1.
        -11    1    3    3    0    0 -0.12592217889E+03 -0.17992787370E+03  0.12954317872E+03  0.25497425365E+03  0.00000000000E+00 0. -1.
         22    1    1    2    0    0  0.65922764140E+03  0.13248583064E+04 -0.77004754933E+03  0.16681738049E+04  0.00000000000E+00 0.  1.
<mgrwt>
<rscale>  0 0.33763158E+04</rscale>
<asrwt>0</asrwt>
<pdfrwt beam="1">  1        2 0.26594589E+00 0.33763158E+04</pdfrwt>
<pdfrwt beam="2">  1       -2 0.25363321E+00 0.33763158E+04</pdfrwt>
<totfact> 0.47898202E-01</totfact>
</mgrwt>
</event>
<event>
 6    1  0.2003386E-005  0.2032548E+04  0.7818608E-02  0.8591553E-01
         -1   -1    0    0    0  501 -0.00000000000E+00  0.00000000000E+00  0.41588157410E+03  0.41588157410E+03  0.00000000000E+00 0.  1.
          1   -1    0    0  501    0  0.00000000000E+00 -0.00000000000E+00 -0.24834293741E+04  0.24834293741E+04  0.00000000000E+00 0. -1.
         23    2    1    2    0    0 -0.18086097501E+03 -0.44007117496E+03 -0.23135263032E+04  0.23637003104E+04  0.91114598938E+02 0.  0.
         11    1    3    3    0    0 -0.11469196540E+03 -0.16703839471E+03 -0.90008930123E+03  0.92261412434E+03  0.00000000000E+00 0.  1.
        -11    1    3    3    0    0 -0.66169009610E+02 -0.27303278025E+03 -0.14134370020E+04  0.14410861860E+04  0.00000000000E+00 0. -1.
         22    1    1    2    0    0  0.18086097501E+03  0.44007117496E+03  0.24597850323E+03  0.53561063784E+03  0.00000000000E+00 0.  1.
<mgrwt>
<rscale>  0 0.20325477E+04</rscale>
<asrwt>0</asrwt>
<pdfrwt beam="1">  1        1 0.38206605E+00 0.20325477E+04</pdfrwt>
<pdfrwt beam="2">  1       -1 0.63981782E-01 0.20325477E+04</pdfrwt>
<totfact> 0.31890605E+00</totfact>
</mgrwt>
</event>
<event>
 6    1  0.2003386E-005  0.1379869E+04  0.7818608E-02  0.8968521E-01
          2   -1    0    0  501    0  0.00000000000E+00  0.00000000000E+00  0.20025455167E+04  0.20025455167E+04  0.00000000000E+00 0. -1.
         -2   -1    0    0    0  501 -0.00000000000E+00 -0.00000000000E+00 -0.23770214033E+03  0.23770214033E+03  0.00000000000E+00 0.  1.
         23    2    1    2    0    0 -0.54159812736E+03 -0.15810170168E+03  0.25054858465E+03  0.62426083906E+03  0.92748704960E+02 0.  0.
         11    1    3    3    0    0 -0.33265115621E+03 -0.13836517477E+03  0.18077411892E+03  0.40308931441E+03  0.00000000000E+00 0. -1.
        -11    1    3    3    0    0 -0.20894697115E+03 -0.19736526912E+02  0.69774465732E+02  0.22117152465E+03  0.00000000000E+00 0.  1.
         22    1    1    2    0    0  0.54159812736E+03  0.15810170168E+03  0.15142947917E+04  0.16159868179E+04  0.00000000000E+00 0. -1.
<mgrwt>
<rscale>  0 0.13798686E+04</rscale>
<asrwt>0</asrwt>
<pdfrwt beam="1">  1        2 0.30808391E+00 0.13798686E+04</pdfrwt>
<pdfrwt beam="2">  1       -2 0.36569561E-01 0.13798686E+04</pdfrwt>
<totfact> 0.45734971E+01</totfact>
</mgrwt>
</event>
<event>
 6    1  0.2003386E-005  0.2511117E+04  0.7818608E-02  0.8399036E-01
         -2   -1    0    0    0  501 -0.00000000000E+00  0.00000000000E+00  0.69989414325E+03  0.69989414325E+03  0.00000000000E+00 0. -1.
          2   -1    0    0  501    0  0.00000000000E+00 -0.00000000000E+00 -0.22523795173E+04  0.22523795173E+04  0.00000000000E+00 0.  1.
         23    2    1    2    0    0 -0.55353130250E+03  0.39735111861E+03 -0.20148428186E+04  0.21288301465E+04  0.89673823330E+02 0.  0.
         13    1    3    3    0    0 -0.45388393322E+03  0.32830012336E+03 -0.15386729783E+04  0.16374694287E+04  0.00000000000E+00 0.  1.
        -13    1    3    3    0    0 -0.99647369281E+02  0.69050995250E+02 -0.47616984029E+03  0.49136071776E+03  0.00000000000E+00 0. -1.
         22    1    1    2    0    0  0.55353130250E+03 -0.39735111861E+03  0.46235744456E+03  0.82344351406E+03  0.00000000000E+00 0. -1.
<mgrwt>
<rscale>  0 0.25111171E+04</rscale>
<asrwt>0</asrwt>
<pdfrwt beam="1">  1        2 0.34651993E+00 0.25111171E+04</pdfrwt>
<pdfrwt beam="2">  1       -2 0.10767602E+00 0.25111171E+04</pdfrwt>
<totfact> 0.29735921E+00</totfact>
</mgrwt>
</event>
<event>
 6    1  0.2003386E-005  0.1907513E+04  0.7818608E-02  0.8651126E-01
          2   -1    0    0  501    0  0.00000000000E+00  0.00000000000E+00  0.16714007419E+04  0.16714007419E+04  0.00000000000E+00 0.  1.
         -2   -1    0    0    0  501 -0.00000000000E+00 -0.00000000000E+00 -0.54424482841E+03  0.54424482841E+03  0.00000000000E+00 0. -1.
         23    2    1    2    0    0 -0.79109289680E+02 -0.44845617606E+03  0.15353338517E+04  0.16041061597E+04  0.92386762473E+02 0.  0.
         11    1    3    3    0    0 -0.55228383666E+02 -0.12022839533E+03  0.53068305109E+03  0.54692736457E+03  0.00000000000E+00 0. -1.
        -11    1    3    3    0    0 -0.23880906013E+02 -0.32822778074E+03  0.10046508006E+04  0.10571787951E+04  0.00000000000E+00 0.  1.
         22    1    1    2    0    0  0.79109289680E+02  0.44845617606E+03 -0.40817793817E+03  0.61153941064E+03  0.00000000000E+00 0. -1.
<mgrwt>
<rscale>  0 0.19075127E+04</rscale>
<asrwt>0</asrwt>
<pdfrwt beam="1">  1        2 0.25713857E+00 0.19075127E+04</pdfrwt>
<pdfrwt beam="2">  1       -2 0.83729974E-01 0.19075127E+04</pdfrwt>
<totfact> 0.11872886E+01</totfact>
</mgrwt>
</event>
<event>
 6    1  0.2003386E-005  0.8498635E+03  0.7818608E-02  0.9490520E-01
          2   -1    0    0  501    0  0.00000000000E+00  0.00000000000E+00  0.38142068622E+03  0.38142068622E+03  0.00000000000E+00 0. -1.
         -2   -1    0    0    0  501 -0.00000000000E+00 -0.00000000000E+00 -0.47340638906E+03  0.47340638906E+03  0.00000000000E+00 0.  1.
         23    2    1    2    0    0  0.94726992970E+02 -0.39453752571E+03 -0.15569246448E+03  0.44410622864E+03  0.91417374909E+02 0.  0.
         11    1    3    3    0    0  0.40451274462E+02 -0.32122679825E+03 -0.10889315586E+03  0.34158553967E+03  0.00000000000E+00 0. -1.
        -11    1    3    3    0    0  0.54275718508E+02 -0.73310727454E+02 -0.46799308616E+02  0.10252068897E+03  0.00000000000E+00 0.  1.
         22    1    1    2    0    0 -0.94726992970E+02  0.39453752571E+03  0.63706761642E+02  0.41072084664E+03  0.00000000000E+00 0. -1.
<mgrwt>
<rscale>  0 0.84986349E+03</rscale>
<asrwt>0</asrwt>
<pdfrwt beam="1">  1        2 0.58680106E-01 0.84986349E+03</pdfrwt>
<pdfrwt beam="2">  1       -2 0.72831752E-01 0.84986349E+03</pdfrwt>
<totfact> 0.14382431E+02</totfact>
</mgrwt>
</event>
<event>
 6    1  0.2003386E-005  0.3245167E+04  0.7818608E-02  0.8176989E-01
         -2   -1    0    0    0  501 -0.00000000000E+00  0.00000000000E+00  0.19084225149E+04  0.19084225149E+04  0.00000000000E+00 0.  1.
          2   -1    0    0  501    0  0.00000000000E+00 -0.00000000000E+00 -0.13795571714E+04  0.13795571714E+04  0.00000000000E+00 0. -1.
         23    2    1    2    0    0  0.63660025939E+03  0.13945389982E+04 -0.26877405879E+03  0.15599092237E+04  0.10525390167E+03 0.  0.
         13    1    3    3    0    0  0.20750565144E+03  0.41568599581E+03 -0.35351700310E+02  0.46594332832E+03  0.00000000000E+00 0.  1.
        -13    1    3    3    0    0  0.42909460795E+03  0.97885300240E+03 -0.23342235848E+03  0.10939658954E+04  0.00000000000E+00 0. -1.
         22    1    1    2    0    0 -0.63660025939E+03 -0.13945389982E+04  0.79763940226E+03  0.17280704626E+04  0.00000000000E+00 0.  1.
<mgrwt>
<rscale>  0 0.32451675E+04</rscale>
<asrwt>0</asrwt>
<pdfrwt beam="1">  1        2 0.21223956E+00 0.32451675E+04</pdfrwt>
<pdfrwt beam="2">  1       -2 0.29360347E+00 0.32451675E+04</pdfrwt>
<totfact> 0.43376159E-01</totfact>
</mgrwt>
</event>
<event>
 6    1  0.2003386E-005  0.1282494E+04  0.7818608E-02  0.9043564E-01
         -2   -1    0    0    0  501 -0.00000000000E+00  0.00000000000E+00  0.49851971806E+03  0.49851971806E+03  0.00000000000E+00 0.  1.
          2   -1    0    0  501    0  0.00000000000E+00 -0.00000000000E+00 -0.82483748044E+03  0.82483748044E+03  0.00000000000E+00 0. -1.
         23    2    1    2    0    0 -0.26783684820E+03  0.49260260073E+03 -0.47761225297E+03  0.74259569634E+03  0.94556885190E+02 0.  0.
         13    1    3    3    0    0 -0.10474688975E+03  0.28977324319E+03 -0.24823928347E+03  0.39568066068E+03  0.00000000000E+00 0. -1.
        -13    1    3    3    0    0 -0.16308995846E+03  0.20282935754E+03 -0.22937296950E+03  0.34691503566E+03  0.00000000000E+00 0.  1.
         22    1    1    2    0    0  0.26783684820E+03 -0.49260260073E+03  0.15129449059E+03  0.58076150215E+03  0.00000000000E+00 0.  1.
<mgrwt>
<rscale>  0 0.12824941E+04</rscale>
<asrwt>0</asrwt>
<pdfrwt beam="1">  1        2 0.12689807E+00 0.12824941E+04</pdfrwt>
<pdfrwt beam="2">  1       -2 0.76695342E-01 0.12824941E+04</pdfrwt>
<totfact> 0.49315362E+01</totfact>
</mgrwt>
</event>
<event>
 6    1  0.2003386E-005  0.3806033E+04  0.7818608E-02  0.8044862E-01
         -2   -1    0    0    0  501 -0.00000000000E+00  0.00000000000E+00  0.97472665298E+03  0.97472665298E+03  0.00000000000E+00 0.  1.
          2   -1    0    0  501    0  0.00000000000E+00 -0.00000000000E+00 -0.37153712582E+04  0.37153712582E+04  0.00000000000E+00 0. -1.
         23    2    1    2    0    0  0.82050929620E+03 -0.62730156659E+03 -0.33392279850E+04  0.34963454983E+04  0.85120780284E+02 0.  0.
         11    1    3    3    0    0  0.50055588680E+03 -0.39318343883E+03 -0.19182822114E+04  0.20211274218E+04  0.00000000000E+00 0.  1.
        -11    1    3    3    0    0  0.31995340940E+03 -0.23411812777E+03 -0.14209457736E+04  0.14752180766E+04  0.00000000000E+00 0. -1.
         22    1    1    2    0    0 -0.82050929620E+03  0.62730156659E+03  0.59858337979E+03  0.11937524128E+04  0.00000000000E+00 0.  1.
<mgrwt>
<rscale>  0 0.38060328E+04</rscale>
<asrwt>0</asrwt>
<pdfrwt beam="1">  1        2 0.57159557E+00 0.38060328E+04</pdfrwt>
<pdfrwt beam="2">  1       -2 0.14995795E+00 0.38060328E+04</pdfrwt>
<totfact> 0.13630395E-01</totfact>
</mgrwt>
</event>
<event>
 6    1  0.2003386E-005  0.5803284E+03  0.7818608E-02  0.9947080E-01
         -2   -1    0    0    0  501 -0.00000000000E+00  0.00000000000E+00  0.21251442691E+03  0.21251442691E+03  0.00000000000E+00 0.  1.
          2   -1    0    0  501    0  0.00000000000E+00 -0.00000000000E+00 -0.39618605690E+03  0.39618605690E+03  0.00000000000E+00 0. -1.
         23    2    1    2    0    0 -0.16495730951E+03 -0.19488712175E+03  0.32788247054E+02  0.27396658568E+03  0.93758822180E+02 0.  0.
         11    1    3    3    0    0 -0.61165436531E+02 -0.12783586826E+03  0.47645675656E+02  0.14951030148E+03  0.00000000000E+00 0. -1.
        -11    1    3    3    0    0 -0.10379187298E+03 -0.67051253491E+02 -0.14857428602E+02  0.12445628419E+03  0.00000000000E+00 0.  1.
         22    1    1    2    0    0  0.16495730951E+03  0.19488712175E+03 -0.21645987705E+03  0.33473389813E+03  0.00000000000E+00 0. -1.
<mgrwt>
<rscale>  0 0.58032837E+03</rscale>
<asrwt>0</asrwt>
<pdfrwt beam="1">  1        2 0.60951700E-01 0.58032837E+03</pdfrwt>
<pdfrwt beam="2">  1       -2 0.32694528E-01 0.58032837E+03</pdfrwt>
<totfact> 0.70501256E+02</totfact>
</mgrwt>
</event>
<event>
 6    1  0.2003386E-005  0.1270021E+04  0.7818608E-02  0.9053683E-01
         -2   -1    0    0    0  501 -0.00000000000E+00  0.00000000000E+00  0.22393177337E+03  0.22393177337E+03  0.00000000000E+00 0.  1.
          2   -1    0    0  501    0  0.00000000000E+00 -0.00000000000E+00 -0.18007194910E+04  0.18007194910E+04  0.00000000000E+00 0. -1.
         23    2    1    2    0    0 -0.25061359420E+03 -0.57242701430E+03 -0.64403566586E+03  0.90192856914E+03  0.90627504788E+02 0.  0.
         13    1    3    3    0    0 -0.31965436532E+02 -0.12678422919E+03 -0.94082414025E+02  0.16108237189E+03  0.00000000000E+00 0.  1.
        -13    1    3    3    0    0 -0.21864815767E+03 -0.44564278511E+03 -0.54995325184E+03  0.74084619725E+03  0.00000000000E+00 0. -1.
         22    1    1    2    0    0  0.25061359420E+03  0.57242701430E+03 -0.93275205177E+03  0.11227226952E+04  0.00000000000E+00 0.  1.
<mgrwt>
<rscale>  0 0.12700210E+04</rscale>
<asrwt>0</asrwt>
<pdfrwt beam="1">  1        2 0.27703377E+00 0.12700210E+04</pdfrwt>
<pdfrwt beam="2">  1       -2 0.34451042E-01 0.12700210E+04</pdfrwt>
<totfact> 0.66865059E+01</totfact>
</mgrwt>
</event>
<event>
 6    1  0.2003386E-005  0.2158329E+04  0.7818608E-02  0.8535975E-01
         -1   -1    0    0    0  501 -0.00000000000E+00  0.00000000000E+00  0.13145619003E+04  0.13145619003E+04  0.00000000000E+00 0.  1.
          1   -1    0    0  501    0  0.00000000000E+00 -0.00000000000E+00 -0.88591981575E+03  0.88591981575E+03  0.00000000000E+00 0. -1.
         23    2    1    2    0    0 -0.72355677854E+03 -0.37251951381E+03  0.93425198240E+03  0.12423864344E+04  0.91608327865E+02 0.  0.
         11    1    3    3    0    0 -0.37446492498E+03 -0.15590548052E+03  0.41565362326E+03  0.58077399513E+03  0.00000000000E+00 0.  1.
        -11    1    3    3    0    0 -0.34909185356E+03 -0.21661403329E+03  0.51859835914E+03  0.66161243923E+03  0.00000000000E+00 0. -1.
         22    1    1    2    0    0  0.72355677854E+03  0.37251951381E+03 -0.50560989786E+03  0.95809528167E+03  0.00000000000E+00 0. -1.
<mgrwt>
<rscale>  0 0.21583294E+04</rscale>
<asrwt>0</asrwt>
<pdfrwt beam="1">  1        1 0.13629536E+00 0.21583294E+04</pdfrwt>
<pdfrwt beam="2">  1       -1 0.20224029E+00 0.21583294E+04</pdfrwt>
<totfact> 0.24838169E+00</totfact>
</mgrwt>
</event>
<event>
 6    1  0.2003386E-005  0.3610619E+04  0.7818608E-02  0.8088064E-01
         -1   -1    0    0    0  501 -0.00000000000E+00  0.00000000000E+00  0.11292926624E+04  0.11292926624E+04  0.00000000000E+00 0.  1.
          1   -1    0    0  501    0  0.00000000000E+00 -0.00000000000E+00 -0.28860037018E+04  0.28860037018E+04  0.00000000000E+00 0. -1.
         23    2    1    2    0    0 -0.11492391672E+03  0.20850182307E+03 -0.28677481341E+04  0.28790376161E+04  0.90541247419E+02 0.  0.
         11    1    3    3    0    0 -0.65965863127E+02  0.17872216296E+03 -0.18797413324E+04  0.18893704198E+04  0.00000000000E+00 0. -1.
        -11    1    3    3    0    0 -0.48958053593E+02  0.29779660108E+02 -0.98800680174E+03  0.98966719631E+03  0.00000000000E+00 0.  1.
         22    1    1    2    0    0  0.11492391672E+03 -0.20850182307E+03  0.11110370947E+04  0.11362587481E+04  0.00000000000E+00 0.  1.
<mgrwt>
<rscale>  0 0.36106192E+04</rscale>
<asrwt>0</asrwt>
<pdfrwt beam="1">  1        1 0.44400058E+00 0.36106192E+04</pdfrwt>
<pdfrwt beam="2">  1       -1 0.17373733E+00 0.36106192E+04</pdfrwt>
<totfact> 0.13496639E-01</totfact>
</mgrwt>
</event>
<event>
 6    1  0.2003386E-005  0.2007424E+04  0.7818608E-02  0.8603157E-01
          1   -1    0    0  501    0  0.00000000000E+00  0.00000000000E+00  0.47684968535E+03  0.47684968535E+03  0.00000000000E+00 0. -1.
         -1   -1    0    0    0  501 -0.00000000000E+00 -0.00000000000E+00 -0.21126952685E+04  0.21126952685E+04  0.00000000000E+00 0.  1.
         23    2    1    2    0    0  0.25908267073E+03 -0.77661227358E+03 -0.15640958282E+04  0.17677186455E+04  0.90459914431E+02 0.  0.
         13    1    3    3    0    0  0.12813667493E+03 -0.25608012273E+03 -0.51311243731E+03  0.58760565862E+03  0.00000000000E+00 0. -1.
        -13    1    3    3    0    0  0.13094599580E+03 -0.52053215085E+03 -0.10509833909E+04  0.11801129869E+04  0.00000000000E+00 0.  1.
         22    1    1    2    0    0 -0.25908267073E+03  0.77661227358E+03 -0.71749754931E+02  0.82182630834E+03  0.00000000000E+00 0. -1.
<mgrwt>
<rscale>  0 0.20074243E+04</rscale>
<asrwt>0</asrwt>
<pdfrwt beam="1">  1        1 0.73361490E-01 0.20074243E+04</pdfrwt>
<pdfrwt beam="2">  1       -1 0.32503004E+00 0.20074243E+04</pdfrwt>
<totfact> 0.99635682E-01</totfact>
</mgrwt>
</event>
<event>
 6    1  0.2003386E-005  0.4494552E+04  0.7818608E-02  0.7911591E-01
          1   -1    0    0  501    0  0.00000000000E+00  0.00000000000E+00  0.23259182056E+04  0.23259182056E+04  0.00000000000E+00 0. -1.
         -1   -1    0    0    0  501 -0.00000000000E+00 -0.00000000000E+00 -0.21712923787E+04  0.21712923787E+04  0.00000000000E+00 0.  1.
         23    2    1    2    0    0  0.18331906517E+04  0.12793478138E+04  0.29884757430E+03  0.22570948046E+04  0.88590575058E+02 0.  0.
         11    1    3    3    0    0  0.71722296895E+03  0.45278275965E+03  0.13119954235E+03  0.85827404396E+03  0.00000000000E+00 0. -1.
        -11    1    3    3    0    0  0.11159676827E+04  0.82656505418E+03  0.16764803195E+03  0.13988207606E+04  0.00000000000E+00 0.  1.
         22    1    1    2    0    0 -0.18331906517E+04 -0.12793478138E+04 -0.14422174746E+03  0.22401157797E+04  0.00000000000E+00 0. -1.
<mgrwt>
<rscale>  0 0.44945516E+04</rscale>
<asrwt>0</asrwt>
<pdfrwt beam="1">  1        1 0.35783357E+00 0.44945516E+04</pdfrwt>
<pdfrwt beam="2">  1       -1 0.33404498E+00 0.44945516E+04</pdfrwt>
<totfact> 0.26595691E-02</totfact>
</mgrwt>
</event>
<event>
 6    1  0.2003386E-005  0.1050239E+04  0.7818608E-02  0.9255098E-01
         -1   -1    0    0    0  501 -0.00000000000E+00  0.00000000000E+00  0.41745453765E+03  0.41745453765E+03  0.00000000000E+00 0.  1.
          1   -1    0    0  501    0  0.00000000000E+00 -0.00000000000E+00 -0.66055162963E+03  0.66055162963E+03  0.00000000000E+00 0. -1.
         23    2    1    2    0    0 -0.17427829364E+03  0.11323804757E+03 -0.61158540873E+03  0.65494657499E+03  0.10827060941E+03 0.  0.
         13    1    3    3    0    0 -0.72608076524E+02  0.70001270255E+02 -0.43585089643E+03  0.44736798559E+03  0.00000000000E+00 0.  1.
        -13    1    3    3    0    0 -0.10167021712E+03  0.43236777318E+02 -0.17573451230E+03  0.20757858940E+03  0.00000000000E+00 0. -1.
         22    1    1    2    0    0  0.17427829364E+03 -0.11323804757E+03  0.36848831675E+03  0.42305959230E+03  0.00000000000E+00 0.  1.
<mgrwt>
<rscale>  0 0.10502386E+04</rscale>
<asrwt>0</asrwt>
<pdfrwt beam="1">  1        1 0.10162333E+00 0.10502386E+04</pdfrwt>
<pdfrwt beam="2">  1       -1 0.64223775E-01 0.10502386E+04</pdfrwt>
<totfact> 0.73096482E+01</totfact>
</mgrwt>
</event>
<event>
 6    1  0.2003386E-005  0.1434358E+04  0.7818608E-02  0.8929317E-01
          2   -1    0    0  501    0  0.00000000000E+00  0.00000000000E+00  0.73729883453E+03  0.73729883453E+03  0.00000000000E+00 0. -1.
         -2   -1    0    0    0  501 -0.00000000000E+00 -0.00000000000E+00 -0.69760855552E+03  0.69760855552E+03  0.00000000000E+00 0.  1.
         23    2    1    2    0    0 -0.52837762318E+03  0.44012871935E+03  0.21349758189E+03  0.72560831293E+03  0.89610289844E+02 0.  0.
         13    1    3    3    0    0 -0.35333964226E+03  0.26053827863E+03  0.99553845502E+02  0.45015560152E+03  0.00000000000E+00 0. -1.
        -13    1    3    3    0    0 -0.17503798092E+03  0.17959044072E+03  0.11394373638E+03  0.27545271141E+03  0.00000000000E+00 0.  1.
         22    1    1    2    0    0  0.52837762318E+03 -0.44012871935E+03 -0.17380730287E+03  0.70929907712E+03  0.00000000000E+00 0.  1.
<mgrwt>
<rscale>  0 0.14343584E+04</rscale>
<asrwt>0</asrwt>
<pdfrwt beam="1">  1        2 0.11343059E+00 0.14343584E+04</pdfrwt>
<pdfrwt beam="2">  1       -2 0.10732439E+00 0.14343584E+04</pdfrwt>
<totfact> 0.25959861E+01</totfact>
</mgrwt>
</event>
<event>
 6    1  0.2003386E-005  0.1400363E+04  0.7818608E-02  0.8953556E-01
         -2   -1    0    0    0  501 -0.00000000000E+00  0.00000000000E+00  0.32448311037E+03  0.32448311037E+03  0.00000000000E+00 0. -1.
          2   -1    0    0  501    0  0.00000000000E+00 -0.00000000000E+00 -0.15108778193E+04  0.15108778193E+04  0.00000000000E+00 0.  1.
         23    2    1    2    0    0 -0.59224217754E+03  0.35802716379E+03 -0.70713552771E+03  0.99356308598E+03  0.90513559251E+02 0.  0.
         13    1    3    3    0    0 -0.13016498347E+03  0.11441690009E+03 -0.14257524371E+03  0.22441446047E+03  0.00000000000E+00 0. -1.
        -13    1    3    3    0    0 -0.46207719407E+03  0.24361026370E+03 -0.56456028401E+03  0.76914862552E+03  0.00000000000E+00 0.  1.
         22    1    1    2    0    0  0.59224217754E+03 -0.35802716379E+03 -0.47925918123E+03  0.84179784370E+03  0.00000000000E+00 0. -1.
<mgrwt>
<rscale>  0 0.14003633E+04</rscale>
<asrwt>0</asrwt>
<pdfrwt beam="1">  1        2 0.23244274E+00 0.14003633E+04</pdfrwt>
<pdfrwt beam="2">  1       -2 0.49920478E-01 0.14003633E+04</pdfrwt>
<totfact> 0.46235878E+01</totfact>
</mgrwt>
</event>
<event>
 6    1  0.2003386E-005  0.2484584E+04  0.7818608E-02  0.8408498E-01
         -2   -1    0    0    0  501 -0.00000000000E+00  0.00000000000E+00  0.98388709283E+03  0.98388709283E+03  0.00000000000E+00 0. -1.
          2   -1    0    0  501    0  0.00000000000E+00 -0.00000000000E+00 -0.15685637900E+04  0.15685637900E+04  0.00000000000E+00 0.  1.
         23    2    1    2    0    0 -0.10396376712E+04  0.24053277541E+03 -0.94310609830E+03  0.14267625871E+04  0.86601753438E+02 0.  0.
         13    1    3    3    0    0 -0.61691880983E+03  0.13637756715E+03 -0.61392577494E+03  0.88096113188E+03  0.00000000000E+00 0.  1.
        -13    1    3    3    0    0 -0.42271886141E+03  0.10415520826E+03 -0.32918032335E+03  0.54580145519E+03  0.00000000000E+00 0. -1.
         22    1    1    2    0    0  0.10396376712E+04 -0.24053277541E+03  0.35842940117E+03  0.11256882957E+04  0.00000000000E+00 0. -1.
<mgrwt>
<rscale>  0 0.24845842E+04</rscale>
<asrwt>0</asrwt>
<pdfrwt beam="1">  1        2 0.24131750E+00 0.24845842E+04</pdfrwt>
<pdfrwt beam="2">  1       -2 0.15136725E+00 0.24845842E+04</pdfrwt>
<totfact> 0.30338921E+00</totfact>
</mgrwt>
</event>
<event>
 6    1  0.2003386E-005  0.2078304E+04  0.7818608E-02  0.8570861E-01
         -2   -1    0    0    0  501 -0.00000000000E+00  0.00000000000E+00  0.89125314379E+03  0.89125314379E+03  0.00000000000E+00 0. -1.
          2   -1    0    0  501    0  0.00000000000E+00 -0.00000000000E+00 -0.12115938337E+04  0.12115938337E+04  0.00000000000E+00 0.  1.
         23    2    1    2    0    0  0.15066096214E+02 -0.61925604698E+03 -0.10023790910E+04  0.11814993669E+04  0.86439995975E+02 0.  0.
         13    1    3    3    0    0  0.36864426018E+02 -0.40060827140E+03 -0.58778064127E+03  0.71227245859E+03  0.00000000000E+00 0.  1.
        -13    1    3    3    0    0 -0.21798329804E+02 -0.21864777558E+03 -0.41459844971E+03  0.46922690828E+03  0.00000000000E+00 0. -1.
         22    1    1    2    0    0 -0.15066096214E+02  0.61925604698E+03  0.68203840110E+03  0.92134761060E+03  0.00000000000E+00 0. -1.
<mgrwt>
<rscale>  0 0.20783039E+04</rscale>
<asrwt>0</asrwt>
<pdfrwt beam="1">  1        2 0.18639905E+00 0.20783039E+04</pdfrwt>
<pdfrwt beam="2">  1       -2 0.13711587E+00 0.20783039E+04</pdfrwt>
<totfact> 0.65244238E+00</totfact>
</mgrwt>
</event>
<event>
 6    1  0.2003386E-005  0.5649185E+04  0.7818608E-02  0.7735488E-01
          2   -1    0    0  501    0  0.00000000000E+00  0.00000000000E+00  0.44511667181E+04  0.44511667181E+04  0.00000000000E+00 0. -1.
         -2   -1    0    0    0  501 -0.00000000000E+00 -0.00000000000E+00 -0.17924115488E+04  0.17924115488E+04  0.00000000000E+00 0.  1.
         23    2    1    2    0    0 -0.22771229666E+04 -0.31073466227E+03  0.31432154442E+04  0.38948452482E+04  0.90394379372E+02 0.  0.
         13    1    3    3    0    0 -0.12664539854E+04 -0.14532296920E+03  0.16822970620E+04  0.21107221199E+04  0.00000000000E+00 0.  1.
        -13    1    3    3    0    0 -0.10106689812E+04 -0.16541169307E+03  0.14609183822E+04  0.17841231284E+04  0.00000000000E+00 0. -1.
         22    1    1    2    0    0  0.22771229666E+04  0.31073466227E+03 -0.48446027491E+03  0.23487330187E+04  0.00000000000E+00 0.  1.
<mgrwt>
<rscale>  0 0.56491849E+04</rscale>
<asrwt>0</asrwt>
<pdfrwt beam="1">  1        2 0.68479488E+00 0.56491849E+04</pdfrwt>
<pdfrwt beam="2">  1       -2 0.27575562E+00 0.56491849E+04</pdfrwt>
<totfact> 0.41989832E-03</totfact>
</mgrwt>
</event>
<event>
 6    1  0.2003386E-005  0.2280089E+04  0.7818608E-02  0.8485813E-01
          2   -1    0    0  501    0  0.00000000000E+00  0.00000000000E+00  0.22398843565E+04  0.22398843565E+04  0.00000000000E+00 0.  1.
         -2   -1    0    0    0  501 -0.00000000000E+00 -0.00000000000E+00 -0.58025390965E+03  0.58025390965E+03  0.00000000000E+00 0. -1.
         23    2    1    2    0    0  0.62290895067E+03  0.34376607880E+03 -0.26809555893E+03  0.76531023657E+03  0.87371916098E+02 0.  0.
         13    1    3    3    0    0  0.19455627284E+02  0.31962870250E+02 -0.17527958806E+02  0.41320404736E+02  0.00000000000E+00 0. -1.
        -13    1    3    3    0    0  0.60345332339E+03  0.31180320855E+03 -0.25056760013E+03  0.72398983184E+03  0.00000000000E+00 0.  1.
         22    1    1    2    0    0 -0.62290895067E+03 -0.34376607880E+03  0.19277260058E+04  0.20548280296E+04  0.00000000000E+00 0.  1.
<mgrwt>
<rscale>  0 0.22800892E+04</rscale>
<asrwt>0</asrwt>
<pdfrwt beam="1">  1        2 0.34459759E+00 0.22800892E+04</pdfrwt>
<pdfrwt beam="2">  1       -2 0.89269833E-01 0.22800892E+04</pdfrwt>
<totfact> 0.47941676E+00</totfact>
</mgrwt>
</event>
<event>
 6    1  0.2003386E-005  0.1113724E+04  0.7818608E-02  0.9191918E-01
         -2   -1    0    0    0  501 -0.00000000000E+00  0.00000000000E+00  0.14206544138E+03  0.14206544138E+03  0.00000000000E+00 0.  1.
          2   -1    0    0  501    0  0.00000000000E+00 -0.00000000000E+00 -0.21827648622E+04  0.21827648622E+04  0.00000000000E+00 0. -1.
         23    2    1    2    0    0  0.38426054724E+03 -0.39040119398E+03 -0.87123289401E+03  0.10334274936E+04  0.94108280253E+02 0.  0.
         13    1    3    3    0    0  0.11083474038E+03 -0.62640764083E+02 -0.16791370526E+03  0.21072070950E+03  0.00000000000E+00 0.  1.
        -13    1    3    3    0    0  0.27342580685E+03 -0.32776042990E+03 -0.70331918876E+03  0.82270678406E+03  0.00000000000E+00 0. -1.
         22    1    1    2    0    0 -0.38426054724E+03  0.39040119398E+03 -0.11694665268E+04  0.12914028100E+04  0.00000000000E+00 0.  1.
<mgrwt>
<rscale>  0 0.11137243E+04</rscale>
<asrwt>0</asrwt>
<pdfrwt beam="1">  1        2 0.33580997E+00 0.11137243E+04</pdfrwt>
<pdfrwt beam="2">  1       -2 0.21856223E-01 0.11137243E+04</pdfrwt>
<totfact> 0.96073925E+01</totfact>
</mgrwt>
</event>
<event>
 6    1  0.2003386E-005  0.3298368E+04  0.7818608E-02  0.8163311E-01
          2   -1    0    0  501    0  0.00000000000E+00  0.00000000000E+00  0.14982280325E+04  0.14982280325E+04  0.00000000000E+00 0. -1.
         -2   -1    0    0    0  501 -0.00000000000E+00 -0.00000000000E+00 -0.18153496202E+04  0.18153496202E+04  0.00000000000E+00 0.  1.
         23    2    1    2    0    0  0.52424255173E+03 -0.13807135429E+04 -0.89321853223E+03  0.17283054899E+04  0.89444841758E+02 0.  0.
         11    1    3    3    0    0  0.44906921101E+02 -0.20227045113E+03 -0.13505023574E+03  0.24732273073E+03  0.00000000000E+00 0. -1.
        -11    1    3    3    0    0  0.47933563062E+03 -0.11784430917E+04 -0.75816829649E+03  0.14809827592E+04  0.00000000000E+00 0.  1.
         22    1    1    2    0    0 -0.52424255173E+03  0.13807135429E+04  0.57609694454E+03  0.15852721627E+04  0.00000000000E+00 0. -1.
<mgrwt>
<rscale>  0 0.32983679E+04</rscale>
<asrwt>0</asrwt>
<pdfrwt beam="1">  1        2 0.23049662E+00 0.32983679E+04</pdfrwt>
<pdfrwt beam="2">  1       -2 0.27928455E+00 0.32983679E+04</pdfrwt>
<totfact> 0.45206921E-01</totfact>
</mgrwt>
</event>
<event>
 6    1  0.2003386E-005  0.3029284E+04  0.7818608E-02  0.8235418E-01
          2   -1    0    0  501    0  0.00000000000E+00  0.00000000000E+00  0.26821883654E+04  0.26821883654E+04  0.00000000000E+00 0. -1.
         -2   -1    0    0    0  501 -0.00000000000E+00 -0.00000000000E+00 -0.85532385057E+03  0.85532385057E+03  0.00000000000E+00 0.  1.
         23    2    1    2    0    0 -0.55413044425E+03 -0.12674984019E+04  0.19772145278E+03  0.14002897510E+04  0.90027028047E+02 0.  0.
         13    1    3    3    0    0 -0.28044921405E+03 -0.62807820347E+03  0.14345747340E+03  0.70264787626E+03  0.00000000000E+00 0. -1.
        -13    1    3    3    0    0 -0.27368123021E+03 -0.63942019845E+03  0.54263979381E+02  0.69764187475E+03  0.00000000000E+00 0.  1.
         22    1    1    2    0    0  0.55413044425E+03  0.12674984019E+04  0.16291430621E+04  0.21372224650E+04  0.00000000000E+00 0. -1.
<mgrwt>
<rscale>  0 0.30292835E+04</rscale>
<asrwt>0</asrwt>
<pdfrwt beam="1">  1        2 0.41264436E+00 0.30292835E+04</pdfrwt>
<pdfrwt beam="2">  1       -2 0.13158829E+00 0.30292835E+04</pdfrwt>
<totfact> 0.97823072E-01</totfact>
</mgrwt>
</event>
<event>
 6    1  0.2003386E-005  0.1485247E+04  0.7818608E-02  0.8894323E-01
          2   -1    0    0  501    0  0.00000000000E+00  0.00000000000E+00  0.21162142837E+04  0.21162142837E+04  0.00000000000E+00 0. -1.
         -2   -1    0    0    0  501 -0.00000000000E+00 -0.00000000000E+00 -0.26060183554E+03  0.26060183554E+03  0.00000000000E+00 0.  1.
         23    2    1    2    0    0 -0.75115124960E+02 -0.24384733455E+03  0.20426036731E+04  0.20604784472E+04  0.90762664300E+02 0.  0.
         13    1    3    3    0    0 -0.73186285918E+02 -0.18685218595E+03  0.18052812391E+04  0.18164003755E+04  0.00000000000E+00 0. -1.
        -13    1    3    3    0    0 -0.19288390426E+01 -0.56995148593E+02  0.23732243404E+03  0.24407807169E+03  0.00000000000E+00 0.  1.
         22    1    1    2    0    0  0.75115124960E+02  0.24384733455E+03 -0.18699122496E+03  0.31633767208E+03  0.00000000000E+00 0.  1.
<mgrwt>
<rscale>  0 0.14852465E+04</rscale>
<asrwt>0</asrwt>
<pdfrwt beam="1">  1        2 0.32557142E+00 0.14852465E+04</pdfrwt>
<pdfrwt beam="2">  1       -2 0.40092591E-01 0.14852465E+04</pdfrwt>
<totfact> 0.32795980E+01</totfact>
</mgrwt>
</event>
<event>
 6    1  0.2003386E-005  0.4018145E+04  0.7818608E-02  0.8000896E-01
         -2   -1    0    0    0  501 -0.00000000000E+00  0.00000000000E+00  0.12160860515E+04  0.12160860515E+04  0.00000000000E+00 0. -1.
          2   -1    0    0  501    0  0.00000000000E+00 -0.00000000000E+00 -0.33191504096E+04  0.33191504096E+04  0.00000000000E+00 0.  1.
         23    2    1    2    0    0 -0.87327251186E+03  0.69780562185E+03 -0.29348804141E+04  0.31418752312E+04  0.91210511412E+02 0.  0.
         11    1    3    3    0    0 -0.15814024560E+03  0.96040321976E+02 -0.42045194987E+03  0.45936034099E+03  0.00000000000E+00 0. -1.
        -11    1    3    3    0    0 -0.71513226626E+03  0.60176529987E+03 -0.25144284643E+04  0.26825148902E+04  0.00000000000E+00 0.  1.
         22    1    1    2    0    0  0.87327251186E+03 -0.69780562185E+03  0.83181605604E+03  0.13933612299E+04  0.00000000000E+00 0. -1.
<mgrwt>
<rscale>  0 0.40181451E+04</rscale>
<asrwt>0</asrwt>
<pdfrwt beam="1">  1        2 0.51063853E+00 0.40181451E+04</pdfrwt>
<pdfrwt beam="2">  1       -2 0.18709016E+00 0.40181451E+04</pdfrwt>
<totfact> 0.13796765E-01</totfact>
</mgrwt>
</event>
<event>
 6    1  0.2003386E-005  0.1508307E+04  0.7818608E-02  0.8878948E-01
         -2   -1    0    0    0  501 -0.00000000000E+00  0.00000000000E+00  0.14399684133E+04  0.14399684133E+04  0.00000000000E+00 0.  1.
          2   -1    0    0  501    0  0.00000000000E+00 -0.00000000000E+00 -0.39497227224E+03  0.39497227224E+03  0.00000000000E+00 0. -1.
         23    2    1    2    0    0 -0.68811763160E+03  0.30095302726E+03  0.53827032964E+03  0.92893315383E+03  0.95410989826E+02 0.  0.
         11    1    3    3    0    0 -0.31070194892E+03  0.15646774064E+03  0.19568204740E+03  0.39913571451E+03  0.00000000000E+00 0. -1.
        -11    1    3    3    0    0 -0.37741568268E+03  0.14448528662E+03  0.34258828224E+03  0.52979743932E+03  0.00000000000E+00 0.  1.
         22    1    1    2    0    0  0.68811763160E+03 -0.30095302726E+03  0.50672581137E+03  0.90600753167E+03  0.00000000000E+00 0.  1.
<mgrwt>
<rscale>  0 0.15083071E+04</rscale>
<asrwt>0</asrwt>
<pdfrwt beam="1">  1        2 0.60764965E-01 0.15083071E+04</pdfrwt>
<pdfrwt beam="2">  1       -2 0.22153360E+00 0.15083071E+04</pdfrwt>
<totfact> 0.75236815E+00</totfact>
</mgrwt>
</event>
<event>
 6    1  0.2003386E-005  0.5567773E+03  0.7818608E-02  0.9999373E-01
          2   -1    0    0  501    0  0.00000000000E+00  0.00000000000E+00  0.13433131838E+04  0.13433131838E+04  0.00000000000E+00 0. -1.
         -2   -1    0    0    0  501 -0.00000000000E+00 -0.00000000000E+00 -0.57693346598E+02  0.57693346598E+02  0.00000000000E+00 0.  1.
         23    2    1    2    0    0 -0.13013102796E+03 -0.71194869490E+02  0.12304738891E+04  0.12427539807E+04  0.91480440251E+02 0.  0.
         13    1    3    3    0    0 -0.76394576240E+02  0.37366376192E+01  0.40616606591E+03  0.41330493202E+03  0.00000000000E+00 0.  1.
        -13    1    3    3    0    0 -0.53736451718E+02 -0.74931507109E+02  0.82430782321E+03  0.82944904871E+03  0.00000000000E+00 0. -1.
         22    1    1    2    0    0  0.13013102796E+03  0.71194869490E+02  0.55145948054E+02  0.15825254964E+03  0.00000000000E+00 0.  1.
<mgrwt>
<rscale>  0 0.55677727E+03</rscale>
<asrwt>0</asrwt>
<pdfrwt beam="1">  1        2 0.20666354E+00 0.55677727E+03</pdfrwt>
<pdfrwt beam="2">  1       -2 0.88759005E-02 0.55677727E+03</pdfrwt>
<totfact> 0.13190104E+03</totfact>
</mgrwt>
</event>
<event>
 6    1  0.2003386E-005  0.5100599E+04  0.7818608E-02  0.7813174E-01
         -2   -1    0    0    0  501 -0.00000000000E+00  0.00000000000E+00  0.40224583742E+04  0.40224583742E+04  0.00000000000E+00 0. -1.
          2   -1    0    0  501    0  0.00000000000E+00 -0.00000000000E+00 -0.16169285929E+04  0.16169285929E+04  0.00000000000E+00 0.  1.
         23    2    1    2    0    0  0.18714367881E+04  0.78846100679E+02  0.31156225970E+04  0.36362084512E+04  0.80096031044E+02 0.  0.
         13    1    3    3    0    0  0.10927062256E+04  0.45837650571E+02  0.18952519421E+04  0.21881699910E+04  0.00000000000E+00 0. -1.
        -13    1    3    3    0    0  0.77873056249E+03  0.33008450108E+02  0.12203706549E+04  0.14480384602E+04  0.00000000000E+00 0.  1.
         22    1    1    2    0    0 -0.18714367881E+04 -0.78846100679E+02 -0.71009281570E+03  0.20031785159E+04  0.00000000000E+00 0.  1.
<mgrwt>
<rscale>  0 0.51005992E+04</rscale>
<asrwt>0</asrwt>
<pdfrwt beam="1">  1        2 0.24875825E+00 0.51005992E+04</pdfrwt>
<pdfrwt beam="2">  1       -2 0.61883975E+00 0.51005992E+04</pdfrwt>
<totfact> 0.34354901E-03</totfact>
</mgrwt>
</event>
<event>
 6    1  0.2003386E-005  0.1615815E+04  0.7818608E-02  0.8810891E-01
          2   -1    0    0  501    0  0.00000000000E+00  0.00000000000E+00  0.24173817477E+04  0.24173817477E+04  0.00000000000E+00 0. -1.
         -2   -1    0    0    0  501 -0.00000000000E+00 -0.00000000000E+00 -0.27000893728E+03  0.27000893728E+03  0.00000000000E+00 0.  1.
         23    2    1    2    0    0 -0.75288365650E+03  0.18963261626E+03  0.14370703107E+04  0.16350960634E+04  0.74657413581E+02 0.  0.
         13    1    3    3    0    0 -0.38704853571E+03  0.69401929719E+02  0.67250575821E+03  0.77902964749E+03  0.00000000000E+00 0. -1.
        -13    1    3    3    0    0 -0.36583512079E+03  0.12023068654E+03  0.76456455250E+03  0.85606641596E+03  0.00000000000E+00 0.  1.
         22    1    1    2    0    0  0.75288365650E+03 -0.18963261626E+03  0.71030249968E+03  0.10522946215E+04  0.00000000000E+00 0.  1.
<mgrwt>
<rscale>  0 0.16158152E+04</rscale>
<asrwt>0</asrwt>
<pdfrwt beam="1">  1        2 0.37190487E+00 0.16158152E+04</pdfrwt>
<pdfrwt beam="2">  1       -2 0.41539838E-01 0.16158152E+04</pdfrwt>
<totfact> 0.20465075E+01</totfact>
</mgrwt>
</event>
<event>
 6    1  0.2003386E-005  0.1620723E+04  0.7818608E-02  0.8807917E-01
          2   -1    0    0  501    0  0.00000000000E+00  0.00000000000E+00  0.11708131431E+04  0.11708131431E+04  0.00000000000E+00 0. -1.
         -2   -1    0    0    0  501 -0.00000000000E+00 -0.00000000000E+00 -0.56088023874E+03  0.56088023874E+03  0.00000000000E+00 0.  1.
         23    2    1    2    0    0 -0.69362743452E+03 -0.39810625838E+03  0.18193619677E+03  0.82461632192E+03  0.85344524097E+02 0.  0.
         11    1    3    3    0    0 -0.35504991583E+03 -0.22999334610E+03  0.59096260498E+02  0.42714137002E+03  0.00000000000E+00 0.  1.
        -11    1    3    3    0    0 -0.33857751869E+03 -0.16811291229E+03  0.12283993628E+03  0.39747495190E+03  0.00000000000E+00 0. -1.
         22    1    1    2    0    0  0.69362743452E+03  0.39810625838E+03  0.42799670754E+03  0.90707705988E+03  0.00000000000E+00 0.  1.
<mgrwt>
<rscale>  0 0.16207232E+04</rscale>
<asrwt>0</asrwt>
<pdfrwt beam="1">  1        2 0.18012510E+00 0.16207232E+04</pdfrwt>
<pdfrwt beam="2">  1       -2 0.86289268E-01 0.16207232E+04</pdfrwt>
<totfact> 0.21985592E+01</totfact>
</mgrwt>
</event>
<event>
 6    1  0.2003386E-005  0.9702227E+03  0.7818608E-02  0.9341821E-01
          2   -1    0    0  501    0  0.00000000000E+00  0.00000000000E+00  0.13955439769E+04  0.13955439769E+04  0.00000000000E+00 0. -1.
         -2   -1    0    0    0  501 -0.00000000000E+00 -0.00000000000E+00 -0.16863175757E+03  0.16863175757E+03  0.00000000000E+00 0.  1.
         23    2    1    2    0    0  0.10865655811E+02 -0.21429597662E+03  0.13126201901E+04  0.13331201474E+04  0.90535827145E+02 0.  0.
         13    1    3    3    0    0 -0.18081446264E+02 -0.10592382590E+03  0.42209989936E+03  0.43556299273E+03  0.00000000000E+00 0. -1.
        -13    1    3    3    0    0  0.28947102074E+02 -0.10837215071E+03  0.89052029069E+03  0.89755715467E+03  0.00000000000E+00 0.  1.
         22    1    1    2    0    0 -0.10865655811E+02  0.21429597662E+03 -0.85707970723E+02  0.23105558707E+03  0.00000000000E+00 0.  1.
<mgrwt>
<rscale>  0 0.97022272E+03</rscale>
<asrwt>0</asrwt>
<pdfrwt beam="1">  1        2 0.21469907E+00 0.97022272E+03</pdfrwt>
<pdfrwt beam="2">  1       -2 0.25943348E-01 0.97022272E+03</pdfrwt>
<totfact> 0.19493297E+02</totfact>
</mgrwt>
</event>
<event>
 6    1  0.2003386E-005  0.2323718E+04  0.7818608E-02  0.8468628E-01
         -2   -1    0    0    0  501 -0.00000000000E+00  0.00000000000E+00  0.79084459074E+03  0.79084459074E+03  0.00000000000E+00 0.  1.
          2   -1    0    0  501    0  0.00000000000E+00 -0.00000000000E+00 -0.17069298382E+04  0.17069298382E+04  0.00000000000E+00 0. -1.
         23    2    1    2    0    0 -0.26673538858E+03  0.63325949006E+03 -0.14633557186E+04  0.16193267539E+04  0.92972186958E+02 0.  0.
         13    1    3    3    0    0 -0.23687911000E+03  0.47249522538E+03 -0.10733011951E+04  0.11963857681E+04  0.00000000000E+00 0.  1.
        -13    1    3    3    0    0 -0.29856278574E+02  0.16076426468E+03 -0.39005452353E+03  0.42294098583E+03  0.00000000000E+00 0. -1.
         22    1    1    2    0    0  0.26673538858E+03 -0.63325949006E+03  0.54727047110E+03  0.87844767505E+03  0.00000000000E+00 0.  1.
<mgrwt>
<rscale>  0 0.23237179E+04</rscale>
<asrwt>0</asrwt>
<pdfrwt beam="1">  1        2 0.26260459E+00 0.23237179E+04</pdfrwt>
<pdfrwt beam="2">  1       -2 0.12166840E+00 0.23237179E+04</pdfrwt>
<totfact> 0.45129286E+00</totfact>
</mgrwt>
</event>
<event>
 6    1  0.2003386E-005  0.2122185E+04  0.7818608E-02  0.8551533E-01
          2   -1    0    0  501    0  0.00000000000E+00  0.00000000000E+00  0.34140146045E+04  0.34140146045E+04  0.00000000000E+00 0. -1.
         -2   -1    0    0    0  501 -0.00000000000E+00 -0.00000000000E+00 -0.32979263161E+03  0.32979263161E+03  0.00000000000E+00 0.  1.
         23    2    1    2    0    0 -0.43223442975E+03 -0.78832648959E+03  0.25323409404E+04  0.26888864190E+04  0.95259010419E+02 0.  0.
         11    1    3    3    0    0 -0.14539759061E+03 -0.34976386661E+03  0.11331509660E+04  0.11947829650E+04  0.00000000000E+00 0. -1.
        -11    1    3    3    0    0 -0.28683683914E+03 -0.43856262297E+03  0.13991899745E+04  0.14941034540E+04  0.00000000000E+00 0.  1.
         22    1    1    2    0    0  0.43223442975E+03  0.78832648959E+03  0.55188103246E+03  0.10549208171E+04  0.00000000000E+00 0.  1.
<mgrwt>
<rscale>  0 0.21221846E+04</rscale>
<asrwt>0</asrwt>
<pdfrwt beam="1">  1        2 0.52523299E+00 0.21221846E+04</pdfrwt>
<pdfrwt beam="2">  1       -2 0.50737330E-01 0.21221846E+04</pdfrwt>
<totfact> 0.31623834E+00</totfact>
</mgrwt>
</event>
<event>
 6    1  0.2003386E-005  0.1533676E+04  0.7818608E-02  0.8862362E-01
         -2   -1    0    0    0  501 -0.00000000000E+00  0.00000000000E+00  0.24229278226E+03  0.24229278226E+03  0.00000000000E+00 0.  1.
          2   -1    0    0  501    0  0.00000000000E+00 -0.00000000000E+00 -0.24269841130E+04  0.24269841130E+04  0.00000000000E+00 0. -1.
         23    2    1    2    0    0  0.65902115129E+03  0.23727379302E+02 -0.17682685594E+04  0.18893539562E+04  0.89514285831E+02 0.  0.
         13    1    3    3    0    0  0.37508890384E+03  0.35827152285E+02 -0.11150540004E+04  0.11769964717E+04  0.00000000000E+00 0.  1.
        -13    1    3    3    0    0  0.28393224745E+03 -0.12099772984E+02 -0.65321455903E+03  0.71235748454E+03  0.00000000000E+00 0. -1.
         22    1    1    2    0    0 -0.65902115129E+03 -0.23727379302E+02 -0.41642277139E+03  0.77992293908E+03  0.00000000000E+00 0.  1.
<mgrwt>
<rscale>  0 0.15336763E+04</rscale>
<asrwt>0</asrwt>
<pdfrwt beam="1">  1        2 0.37338218E+00 0.15336763E+04</pdfrwt>
<pdfrwt beam="2">  1       -2 0.37275812E-01 0.15336763E+04</pdfrwt>
<totfact> 0.25139134E+01</totfact>
</mgrwt>
</event>
<event>
 6    1  0.2003386E-005  0.4536358E+04  0.7818608E-02  0.7904302E-01
         -2   -1    0    0    0  501 -0.00000000000E+00  0.00000000000E+00  0.18198329056E+04  0.18198329056E+04  0.00000000000E+00 0.  1.
          2   -1    0    0  501    0  0.00000000000E+00 -0.00000000000E+00 -0.28269825375E+04  0.28269825375E+04  0.00000000000E+00 0. -1.
         23    2    1    2    0    0 -0.19702113604E+04 -0.55919791471E+03  0.49277770263E+03  0.21082691817E+04  0.86798420705E+02 0.  0.
         11    1    3    3    0    0 -0.48234413282E+03 -0.10536424763E+03  0.14078562128E+03  0.51339855698E+03  0.00000000000E+00 0.  1.
        -11    1    3    3    0    0 -0.14878672276E+04 -0.45383366708E+03  0.35199208135E+03  0.15948706247E+04  0.00000000000E+00 0. -1.
         22    1    1    2    0    0  0.19702113604E+04  0.55919791471E+03 -0.14999273346E+04  0.25385462614E+04  0.00000000000E+00 0. -1.
<mgrwt>
<rscale>  0 0.45363579E+04</rscale>
<asrwt>0</asrwt>
<pdfrwt beam="1">  1        2 0.43492039E+00 0.45363579E+04</pdfrwt>
<pdfrwt beam="2">  1       -2 0.27997429E+00 0.45363579E+04</pdfrwt>
<totfact> 0.70855660E-02</totfact>
</mgrwt>
</event>
<event>
 6    1  0.2003386E-005  0.1346993E+04  0.7818608E-02  0.8993108E-01
         -2   -1    0    0    0  501 -0.00000000000E+00  0.00000000000E+00  0.32464400187E+03  0.32464400187E+03  0.00000000000E+00 0.  1.
          2   -1    0    0  501    0  0.00000000000E+00 -0.00000000000E+00 -0.13972148631E+04  0.13972148631E+04  0.00000000000E+00 0. -1.
         23    2    1    2    0    0  0.27932895463E+03  0.27868770142E+03  0.15017812992E+03  0.43702167872E+03  0.11288479588E+03 0.  0.
         13    1    3    3    0    0  0.15382343414E+03  0.22489749578E+03  0.11682712575E+03  0.29646097519E+03  0.00000000000E+00 0.  1.
        -13    1    3    3    0    0  0.12550552049E+03  0.53790205640E+02  0.33351004176E+02  0.14056070353E+03  0.00000000000E+00 0. -1.
         22    1    1    2    0    0 -0.27932895463E+03 -0.27868770142E+03 -0.12227489912E+04  0.12848371863E+04  0.00000000000E+00 0. -1.
<mgrwt>
<rscale>  0 0.13469928E+04</rscale>
<asrwt>0</asrwt>
<pdfrwt beam="1">  1        2 0.21495613E+00 0.13469928E+04</pdfrwt>
<pdfrwt beam="2">  1       -2 0.49945231E-01 0.13469928E+04</pdfrwt>
<totfact> 0.53803456E+01</totfact>
</mgrwt>
</event>
<event>
 6    1  0.2003386E-005  0.1588122E+04  0.7818608E-02  0.8827878E-01
         -2   -1    0    0    0  501 -0.00000000000E+00  0.00000000000E+00  0.50800171551E+03  0.50800171551E+03  0.00000000000E+00 0.  1.
          2   -1    0    0  501    0  0.00000000000E+00 -0.00000000000E+00 -0.12412026052E+04  0.12412026052E+04  0.00000000000E+00 0. -1.
         23    2    1    2    0    0  0.13279044022E+03 -0.25722351045E+03 -0.11792185940E+04  0.12174816225E+04  0.88925661800E+02 0.  0.
         11    1    3    3    0    0  0.96532664405E+02 -0.10284064090E+03 -0.46776790161E+03  0.48857093906E+03  0.00000000000E+00 0.  1.
        -11    1    3    3    0    0  0.36257775814E+02 -0.15438286955E+03 -0.71145069237E+03  0.72891068341E+03  0.00000000000E+00 0. -1.
         22    1    1    2    0    0 -0.13279044022E+03  0.25722351045E+03  0.44601770426E+03  0.53172269827E+03  0.00000000000E+00 0.  1.
<mgrwt>
<rscale>  0 0.15881222E+04</rscale>
<asrwt>0</asrwt>
<pdfrwt beam="1">  1        2 0.19095425E+00 0.15881222E+04</pdfrwt>
<pdfrwt beam="2">  1       -2 0.78154110E-01 0.15881222E+04</pdfrwt>
<totfact> 0.25030200E+01</totfact>
</mgrwt>
</event>
<event>
 6    1  0.2003386E-005  0.2758971E+04  0.7818608E-02  0.8316120E-01
         -2   -1    0    0    0  501 -0.00000000000E+00  0.00000000000E+00  0.10315876407E+04  0.10315876407E+04  0.00000000000E+00 0.  1.
          2   -1    0    0  501    0  0.00000000000E+00 -0.00000000000E+00 -0.18447107913E+04  0.18447107913E+04  0.00000000000E+00 0. -1.
         23    2    1    2    0    0 -0.12325076110E+04 -0.31889879868E+03  0.14279252831E+03  0.12842726030E+04  0.90526005527E+02 0.  0.
         13    1    3    3    0    0 -0.84539515806E+03 -0.25732681815E+03  0.80125219630E+02  0.88731624319E+03  0.00000000000E+00 0.  1.
        -13    1    3    3    0    0 -0.38711245295E+03 -0.61571980537E+02  0.62667308684E+02  0.39695635981E+03  0.00000000000E+00 0. -1.
         22    1    1    2    0    0  0.12325076110E+04  0.31889879868E+03 -0.95591567898E+03  0.15920258290E+04  0.00000000000E+00 0. -1.
<mgrwt>
<rscale>  0 0.27589714E+04</rscale>
<asrwt>0</asrwt>
<pdfrwt beam="1">  1        2 0.28380166E+00 0.27589714E+04</pdfrwt>
<pdfrwt beam="2">  1       -2 0.15870579E+00 0.27589714E+04</pdfrwt>
<totfact> 0.18325538E+00</totfact>
</mgrwt>
</event>
<event>
 6    1  0.2003386E-005  0.2308332E+04  0.7818608E-02  0.8474643E-01
         -2   -1    0    0    0  501 -0.00000000000E+00  0.00000000000E+00  0.72821598011E+03  0.72821598011E+03  0.00000000000E+00 0.  1.
          2   -1    0    0  501    0  0.00000000000E+00 -0.00000000000E+00 -0.18292634269E+04  0.18292634269E+04  0.00000000000E+00 0. -1.
         23    2    1    2    0    0  0.69292293457E+03 -0.52838330129E+03 -0.13869170748E+04  0.16403902344E+04  0.89498841593E+02 0.  0.
         13    1    3    3    0    0  0.35220441803E+03 -0.21637773635E+03 -0.68597180166E+03  0.80088987355E+03  0.00000000000E+00 0. -1.
        -13    1    3    3    0    0  0.34071851654E+03 -0.31200556494E+03 -0.70094527311E+03  0.83950036090E+03  0.00000000000E+00 0.  1.
         22    1    1    2    0    0 -0.69292293457E+03  0.52838330129E+03  0.28586962793E+03  0.91708917260E+03  0.00000000000E+00 0.  1.
<mgrwt>
<rscale>  0 0.23083317E+04</rscale>
<asrwt>0</asrwt>
<pdfrwt beam="1">  1        2 0.28142514E+00 0.23083317E+04</pdfrwt>
<pdfrwt beam="2">  1       -2 0.11203323E+00 0.23083317E+04</pdfrwt>
<totfact> 0.47327584E+00</totfact>
</mgrwt>
</event>
<event>
 6    1  0.2003386E-005  0.1351379E+04  0.7818608E-02  0.8989785E-01
         -2   -1    0    0    0  501 -0.00000000000E+00  0.00000000000E+00  0.18884727289E+03  0.18884727289E+03  0.00000000000E+00 0.  1.
          2   -1    0    0  501    0  0.00000000000E+00 -0.00000000000E+00 -0.24175949367E+04  0.24175949367E+04  0.00000000000E+00 0. -1.
         23    2    1    2    0    0 -0.59161448191E+03 -0.29478710546E+03 -0.13596867978E+04  0.15145750374E+04  0.91006720677E+02 0.  0.
         13    1    3    3    0    0 -0.77492553826E+02 -0.75817799154E+02 -0.22215011195E+03  0.24719244893E+03  0.00000000000E+00 0.  1.
        -13    1    3    3    0    0 -0.51412192809E+03 -0.21896930631E+03 -0.11375366858E+04  0.12673825885E+04  0.00000000000E+00 0. -1.
         22    1    1    2    0    0  0.59161448191E+03  0.29478710546E+03 -0.86906086604E+03  0.10918671722E+04  0.00000000000E+00 0.  1.
<mgrwt>
<rscale>  0 0.13513789E+04</rscale>
<asrwt>0</asrwt>
<pdfrwt beam="1">  1        2 0.37193764E+00 0.13513789E+04</pdfrwt>
<pdfrwt beam="2">  1       -2 0.29053430E-01 0.13513789E+04</pdfrwt>
<totfact> 0.41437664E+01</totfact>
</mgrwt>
</event>
<event>
 6    1  0.2003386E-005  0.3413794E+04  0.7818608E-02  0.8134529E-01
         -2   -1    0    0    0  501 -0.00000000000E+00  0.00000000000E+00  0.83399033928E+03  0.83399033928E+03  0.00000000000E+00 0.  1.
          2   -1    0    0  501    0  0.00000000000E+00 -0.00000000000E+00 -0.34934424362E+04  0.34934424362E+04  0.00000000000E+00 0. -1.
         23    2    1    2    0    0 -0.16719743688E+02  0.16616054231E+04 -0.84273727267E+03  0.18653879171E+04  0.90850638769E+02 0.  0.
         11    1    3    3    0    0 -0.49752480242E+02  0.12863301141E+04 -0.66248971035E+03  0.14477614058E+04  0.00000000000E+00 0. -1.
        -11    1    3    3    0    0  0.33032736554E+02  0.37527530898E+03 -0.18024756232E+03  0.41762651129E+03  0.00000000000E+00 0.  1.
         22    1    1    2    0    0  0.16719743688E+02 -0.16616054231E+04 -0.18167148242E+04  0.24620448584E+04  0.00000000000E+00 0.  1.
<mgrwt>
<rscale>  0 0.34137939E+04</rscale>
<asrwt>0</asrwt>
<pdfrwt beam="1">  1        2 0.53745269E+00 0.34137939E+04</pdfrwt>
<pdfrwt beam="2">  1       -2 0.12830620E+00 0.34137939E+04</pdfrwt>
<totfact> 0.30477740E-01</totfact>
</mgrwt>
</event>
<event>
 6    1  0.2003386E-005  0.7743897E+03  0.7818608E-02  0.9597845E-01
          2   -1    0    0  501    0  0.00000000000E+00  0.00000000000E+00  0.17800358763E+04  0.17800358763E+04  0.00000000000E+00 0. -1.
         -2   -1    0    0    0  501 -0.00000000000E+00 -0.00000000000E+00 -0.84222936749E+02  0.84222936749E+02  0.00000000000E+00 0.  1.
         23    2    1    2    0    0  0.93937538790E+02 -0.34028626428E+03  0.12089085197E+04  0.12628480409E+04  0.93307890443E+02 0.  0.
         11    1    3    3    0    0  0.28481635718E+02 -0.13388993947E+02  0.91147481525E+02  0.96427859669E+02  0.00000000000E+00 0. -1.
        -11    1    3    3    0    0  0.65455903071E+02 -0.32689727033E+03  0.11177610382E+04  0.11664201812E+04  0.00000000000E+00 0.  1.
         22    1    1    2    0    0 -0.93937538790E+02  0.34028626428E+03  0.48690441986E+03  0.60141077221E+03  0.00000000000E+00 0. -1.
<mgrwt>
<rscale>  0 0.77438969E+03</rscale>
<asrwt>0</asrwt>
<pdfrwt beam="1">  1        2 0.27385165E+00 0.77438969E+03</pdfrwt>
<pdfrwt beam="2">  1       -2 0.12957376E-01 0.77438969E+03</pdfrwt>
<totfact> 0.40319026E+02</totfact>
</mgrwt>
</event>
<event>
 6    1  0.2003386E-005  0.1316737E+04  0.7818608E-02  0.9016397E-01
          1   -1    0    0  501    0  0.00000000000E+00  0.00000000000E+00  0.21102595071E+04  0.21102595071E+04  0.00000000000E+00 0. -1.
         -1   -1    0    0    0  501 -0.00000000000E+00 -0.00000000000E+00 -0.20540097127E+03  0.20540097127E+03  0.00000000000E+00 0.  1.
         23    2    1    2    0    0  0.15457704971E+03  0.39498113812E+03  0.18352261651E+04  0.18858316393E+04  0.91660958267E+02 0.  0.
         11    1    3    3    0    0  0.44358835789E+02  0.13612382967E+03  0.81708135850E+03  0.82952959545E+03  0.00000000000E+00 0.  1.
        -11    1    3    3    0    0  0.11021821392E+03  0.25885730845E+03  0.10181448066E+04  0.10563020439E+04  0.00000000000E+00 0. -1.
         22    1    1    2    0    0 -0.15457704971E+03 -0.39498113812E+03  0.69632370729E+02  0.42982883898E+03  0.00000000000E+00 0.  1.
<mgrwt>
<rscale>  0 0.13167374E+04</rscale>
<asrwt>0</asrwt>
<pdfrwt beam="1">  1        1 0.32465529E+00 0.13167374E+04</pdfrwt>
<pdfrwt beam="2">  1       -1 0.31600151E-01 0.13167374E+04</pdfrwt>
<totfact> 0.22952065E+01</totfact>
</mgrwt>
</event>
<event>
 6    1  0.2003386E-005  0.1149907E+04  0.7818608E-02  0.9157870E-01
          2   -1    0    0  501    0  0.00000000000E+00  0.00000000000E+00  0.10824737370E+04  0.10824737370E+04  0.00000000000E+00 0. -1.
         -2   -1    0    0    0  501 -0.00000000000E+00 -0.00000000000E+00 -0.30538506098E+03  0.30538506098E+03  0.00000000000E+00 0.  1.
         23    2    1    2    0    0 -0.19334936606E+03 -0.96266523061E+00  0.10398410654E+04  0.10616323088E+04  0.91699584249E+02 0.  0.
         13    1    3    3    0    0 -0.32536051385E+02 -0.18068353442E+02  0.39779416573E+03  0.39953129830E+03  0.00000000000E+00 0. -1.
        -13    1    3    3    0    0 -0.16081331467E+03  0.17105688212E+02  0.64204689966E+03  0.66210101050E+03  0.00000000000E+00 0.  1.
         22    1    1    2    0    0  0.19334936606E+03  0.96266523061E+00 -0.26275238940E+03  0.32622648914E+03  0.00000000000E+00 0.  1.
<mgrwt>
<rscale>  0 0.11499066E+04</rscale>
<asrwt>0</asrwt>
<pdfrwt beam="1">  1        2 0.16653442E+00 0.11499066E+04</pdfrwt>
<pdfrwt beam="2">  1       -2 0.46982317E-01 0.11499066E+04</pdfrwt>
<totfact> 0.94919713E+01</totfact>
</mgrwt>
</event>
<event>
 6    1  0.2003386E-005  0.1463528E+04  0.7818608E-02  0.8909075E-01
         -2   -1    0    0    0  501 -0.00000000000E+00  0.00000000000E+00  0.24650035508E+03  0.24650035508E+03  0.00000000000E+00 0.  1.
          2   -1    0    0  501    0  0.00000000000E+00 -0.00000000000E+00 -0.21723238114E+04  0.21723238114E+04  0.00000000000E+00 0. -1.
         23    2    1    2    0    0  0.61753017864E+03  0.13926202812E+03 -0.15637995747E+04  0.16895788546E+04  0.92033483969E+02 0.  0.
         11    1    3    3    0    0  0.35869031298E+03  0.11595138964E+03 -0.84619989384E+03  0.92636802930E+03  0.00000000000E+00 0. -1.
        -11    1    3    3    0    0  0.25883986567E+03  0.23310638482E+02 -0.71759968086E+03  0.76321082533E+03  0.00000000000E+00 0.  1.
         22    1    1    2    0    0 -0.61753017864E+03 -0.13926202812E+03 -0.36202388164E+03  0.72924531187E+03  0.00000000000E+00 0.  1.
<mgrwt>
<rscale>  0 0.14635281E+04</rscale>
<asrwt>0</asrwt>
<pdfrwt beam="1">  1        2 0.33420368E+00 0.14635281E+04</pdfrwt>
<pdfrwt beam="2">  1       -2 0.37923130E-01 0.14635281E+04</pdfrwt>
<totfact> 0.34067692E+01</totfact>
</mgrwt>
</event>
<event>
 6    1  0.2003386E-005  0.1934998E+04  0.7818608E-02  0.8637629E-01
         -2   -1    0    0    0  501 -0.00000000000E+00  0.00000000000E+00  0.69738208707E+03  0.69738208707E+03  0.00000000000E+00 0.  1.
          2   -1    0    0  501    0  0.00000000000E+00 -0.00000000000E+00 -0.13422409025E+04  0.13422409025E+04  0.00000000000E+00 0. -1.
         23    2    1    2    0    0 -0.95521456593E+03  0.70519111980E+02 -0.45120681347E+03  0.10624285821E+04  0.88085704925E+02 0.  0.
         13    1    3    3    0    0 -0.48078751089E+03  0.64600939074E+02 -0.26467710054E+03  0.55261548975E+03  0.00000000000E+00 0. -1.
        -13    1    3    3    0    0 -0.47442705504E+03  0.59181729057E+01 -0.18652971292E+03  0.50981309235E+03  0.00000000000E+00 0.  1.
         22    1    1    2    0    0  0.95521456593E+03 -0.70519111980E+02 -0.19365200196E+03  0.97719440747E+03  0.00000000000E+00 0. -1.
<mgrwt>
<rscale>  0 0.19349985E+04</rscale>
<asrwt>0</asrwt>
<pdfrwt beam="1">  1        2 0.20649860E+00 0.19349985E+04</pdfrwt>
<pdfrwt beam="2">  1       -2 0.10728955E+00 0.19349985E+04</pdfrwt>
<totfact> 0.10184148E+01</totfact>
</mgrwt>
</event>
<event>
 6    1  0.2003386E-005  0.3952366E+04  0.7818608E-02  0.8014225E-01
          2   -1    0    0  501    0  0.00000000000E+00  0.00000000000E+00  0.29359706404E+04  0.29359706404E+04  0.00000000000E+00 0. -1.
         -2   -1    0    0    0  501 -0.00000000000E+00 -0.00000000000E+00 -0.13301564167E+04  0.13301564167E+04  0.00000000000E+00 0.  1.
         23    2    1    2    0    0  0.61925317056E+03 -0.69899992236E+03 -0.10752687862E+04  0.14270635694E+04  0.90730853329E+02 0.  0.
         11    1    3    3    0    0  0.42246479909E+03 -0.41082030589E+03 -0.67816007054E+03  0.89841577873E+03  0.00000000000E+00 0. -1.
        -11    1    3    3    0    0  0.19678837147E+03 -0.28817961647E+03 -0.39710871571E+03  0.52864779068E+03  0.00000000000E+00 0.  1.
         22    1    1    2    0    0 -0.61925317056E+03  0.69899992236E+03  0.26810830100E+04  0.28390634877E+04  0.00000000000E+00 0. -1.
<mgrwt>
<rscale>  0 0.39523665E+04</rscale>
<asrwt>0</asrwt>
<pdfrwt beam="1">  1        2 0.45168779E+00 0.39523665E+04</pdfrwt>
<pdfrwt beam="2">  1       -2 0.20463945E+00 0.39523665E+04</pdfrwt>
<totfact> 0.18739052E-01</totfact>
</mgrwt>
</event>
<event>
 6    1  0.2003386E-005  0.2855812E+04  0.7818608E-02  0.8286148E-01
         -1   -1    0    0    0  501 -0.00000000000E+00  0.00000000000E+00  0.14871383779E+04  0.14871383779E+04  0.00000000000E+00 0.  1.
          1   -1    0    0  501    0  0.00000000000E+00 -0.00000000000E+00 -0.13710324757E+04  0.13710324757E+04  0.00000000000E+00 0. -1.
         23    2    1    2    0    0 -0.66554727156E+03  0.20069624697E+03 -0.11885061248E+04  0.13799135367E+04  0.91555479012E+02 0.  0.
         13    1    3    3    0    0 -0.40219654747E+03  0.14315486802E+03 -0.64921273127E+03  0.77700228409E+03  0.00000000000E+00 0. -1.
        -13    1    3    3    0    0 -0.26335072409E+03  0.57541378947E+02 -0.53929339355E+03  0.60291125259E+03  0.00000000000E+00 0.  1.
         22    1    1    2    0    0  0.66554727156E+03 -0.20069624697E+03  0.13046120270E+04  0.14782573170E+04  0.00000000000E+00 0.  1.
<mgrwt>
<rscale>  0 0.28558116E+04</rscale>
<asrwt>0</asrwt>
<pdfrwt beam="1">  1        1 0.21092807E+00 0.28558116E+04</pdfrwt>
<pdfrwt beam="2">  1       -1 0.22879052E+00 0.28558116E+04</pdfrwt>
<totfact> 0.66715040E-01</totfact>
</mgrwt>
</event>
<event>
 6    1  0.2003386E-005  0.3027416E+04  0.7818608E-02  0.8235945E-01
         -2   -1    0    0    0  501 -0.00000000000E+00  0.00000000000E+00  0.13411441711E+04  0.13411441711E+04  0.00000000000E+00 0.  1.
          2   -1    0    0  501    0  0.00000000000E+00 -0.00000000000E+00 -0.17084751259E+04  0.17084751259E+04  0.00000000000E+00 0. -1.
         23    2    1    2    0    0 -0.14819614448E+04  0.90737757366E+02 -0.47311872805E+03  0.15611186697E+04  0.93846180254E+02 0.  0.
         13    1    3    3    0    0 -0.43373299984E+03 -0.10056659816E+02 -0.16122847828E+03  0.46283914459E+03  0.00000000000E+00 0.  1.
        -13    1    3    3    0    0 -0.10482284449E+04  0.10079441718E+03 -0.31189024977E+03  0.10982795251E+04  0.00000000000E+00 0. -1.
         22    1    1    2    0    0  0.14819614448E+04 -0.90737757366E+02  0.10578777330E+03  0.14885006273E+04  0.00000000000E+00 0.  1.
<mgrwt>
<rscale>  0 0.30274157E+04</rscale>
<asrwt>0</asrwt>
<pdfrwt beam="1">  1        2 0.26284233E+00 0.30274157E+04</pdfrwt>
<pdfrwt beam="2">  1       -2 0.20632987E+00 0.30274157E+04</pdfrwt>
<totfact> 0.10020937E+00</totfact>
</mgrwt>
</event>
<event>
 6    1  0.2003386E-005  0.2055701E+04  0.7818608E-02  0.8581012E-01
         -2   -1    0    0    0  501 -0.00000000000E+00  0.00000000000E+00  0.14542265840E+04  0.14542265840E+04  0.00000000000E+00 0.  1.
          2   -1    0    0  501    0  0.00000000000E+00 -0.00000000000E+00 -0.72648705871E+03  0.72648705871E+03  0.00000000000E+00 0. -1.
         23    2    1    2    0    0  0.51417769397E+03  0.32495750938E+03 -0.51216962450E+03  0.79964493203E+03  0.84487923326E+02 0.  0.
         13    1    3    3    0    0  0.24103627915E+03  0.20216087163E+03 -0.26636231442E+03  0.41220915617E+03  0.00000000000E+00 0. -1.
        -13    1    3    3    0    0  0.27314141481E+03  0.12279663775E+03 -0.24580731008E+03  0.38743577586E+03  0.00000000000E+00 0.  1.
         22    1    1    2    0    0 -0.51417769397E+03 -0.32495750938E+03  0.12399091498E+04  0.13810687107E+04  0.00000000000E+00 0.  1.
<mgrwt>
<rscale>  0 0.20557011E+04</rscale>
<asrwt>0</asrwt>
<pdfrwt beam="1">  1        2 0.11176724E+00 0.20557011E+04</pdfrwt>
<pdfrwt beam="2">  1       -2 0.22372717E+00 0.20557011E+04</pdfrwt>
<totfact> 0.33817053E+00</totfact>
</mgrwt>
</event>
<event>
 6    1  0.2003386E-005  0.2233362E+04  0.7818608E-02  0.8504669E-01
          2   -1    0    0  501    0  0.00000000000E+00  0.00000000000E+00  0.12878089866E+04  0.12878089866E+04  0.00000000000E+00 0. -1.
         -2   -1    0    0    0  501 -0.00000000000E+00 -0.00000000000E+00 -0.96829296123E+03  0.96829296123E+03  0.00000000000E+00 0.  1.
         23    2    1    2    0    0  0.65972870810E+03  0.34016508296E+03 -0.68023223417E+03  0.10109309417E+04  0.91165918077E+02 0.  0.
         11    1    3    3    0    0  0.36042865544E+03  0.23643515859E+03 -0.38865969006E+03  0.58040223514E+03  0.00000000000E+00 0.  1.
        -11    1    3    3    0    0  0.29930005266E+03  0.10372992437E+03 -0.29157254411E+03  0.43052870660E+03  0.00000000000E+00 0. -1.
         22    1    1    2    0    0 -0.65972870810E+03 -0.34016508296E+03  0.99974825956E+03  0.12451710061E+04  0.00000000000E+00 0. -1.
<mgrwt>
<rscale>  0 0.22333619E+04</rscale>
<asrwt>0</asrwt>
<pdfrwt beam="1">  1        2 0.19812446E+00 0.22333619E+04</pdfrwt>
<pdfrwt beam="2">  1       -2 0.14896815E+00 0.22333619E+04</pdfrwt>
<totfact> 0.46750997E+00</totfact>
</mgrwt>
</event>
<event>
 6    1  0.2003386E-005  0.1350812E+04  0.7818608E-02  0.8990214E-01
         -2   -1    0    0    0  501 -0.00000000000E+00  0.00000000000E+00  0.52553031431E+03  0.52553031431E+03  0.00000000000E+00 0. -1.
          2   -1    0    0  501    0  0.00000000000E+00 -0.00000000000E+00 -0.86802435548E+03  0.86802435548E+03  0.00000000000E+00 0.  1.
         23    2    1    2    0    0 -0.15153595133E+02 -0.66838801725E+03 -0.10125313312E+03  0.68280200623E+03  0.94837807352E+02 0.  0.
         11    1    3    3    0    0 -0.44962598746E+02 -0.50362735062E+03 -0.52137851094E+02  0.50831141940E+03  0.00000000000E+00 0. -1.
        -11    1    3    3    0    0  0.29809003612E+02 -0.16476066663E+03 -0.49115282025E+02  0.17449058683E+03  0.00000000000E+00 0.  1.
         22    1    1    2    0    0  0.15153595133E+02  0.66838801725E+03 -0.24124090805E+03  0.71075266356E+03  0.00000000000E+00 0. -1.
<mgrwt>
<rscale>  0 0.13508118E+04</rscale>
<asrwt>0</asrwt>
<pdfrwt beam="1">  1        2 0.13354221E+00 0.13508118E+04</pdfrwt>
<pdfrwt beam="2">  1       -2 0.80850818E-01 0.13508118E+04</pdfrwt>
<totfact> 0.40666498E+01</totfact>
</mgrwt>
</event>
<event>
 6    1  0.2003386E-005  0.4931695E+04  0.7818608E-02  0.7839131E-01
          2   -1    0    0  501    0  0.00000000000E+00  0.00000000000E+00  0.27144603691E+04  0.27144603691E+04  0.00000000000E+00 0. -1.
         -2   -1    0    0    0  501 -0.00000000000E+00 -0.00000000000E+00 -0.22400049620E+04  0.22400049620E+04  0.00000000000E+00 0.  1.
         23    2    1    2    0    0 -0.20747055066E+04 -0.11744676630E+04 -0.39204384883E+03  0.24178143517E+04  0.91381779424E+02 0.  0.
         11    1    3    3    0    0 -0.50181959023E+03 -0.25250550798E+03 -0.64687226116E+02  0.56547888548E+03  0.00000000000E+00 0. -1.
        -11    1    3    3    0    0 -0.15728859164E+04 -0.92196215500E+03 -0.32735662272E+03  0.18523354663E+04  0.00000000000E+00 0.  1.
         22    1    1    2    0    0  0.20747055066E+04  0.11744676630E+04  0.86649925597E+03  0.25366509794E+04  0.00000000000E+00 0. -1.
<mgrwt>
<rscale>  0 0.49316953E+04</rscale>
<asrwt>0</asrwt>
<pdfrwt beam="1">  1        2 0.41760929E+00 0.49316953E+04</pdfrwt>
<pdfrwt beam="2">  1       -2 0.34461615E+00 0.49316953E+04</pdfrwt>
<totfact> 0.32051413E-02</totfact>
</mgrwt>
</event>
<event>
 6    1  0.2003386E-005  0.2619089E+04  0.7818608E-02  0.8361746E-01
         -2   -1    0    0    0  501 -0.00000000000E+00  0.00000000000E+00  0.78058689537E+03  0.78058689537E+03  0.00000000000E+00 0.  1.
          2   -1    0    0  501    0  0.00000000000E+00 -0.00000000000E+00 -0.21969450741E+04  0.21969450741E+04  0.00000000000E+00 0. -1.
         23    2    1    2    0    0 -0.81615555964E+03  0.10121147306E+04 -0.87083286188E+03  0.15675376444E+04  0.91314116030E+02 0.  0.
         11    1    3    3    0    0 -0.55675273882E+03  0.62073289026E+03 -0.56026521166E+03  0.10045795342E+04  0.00000000000E+00 0.  1.
        -11    1    3    3    0    0 -0.25940282081E+03  0.39138184036E+03 -0.31056765023E+03  0.56295811014E+03  0.00000000000E+00 0. -1.
         22    1    1    2    0    0  0.81615555964E+03 -0.10121147306E+04 -0.54552531686E+03  0.14099943251E+04  0.00000000000E+00 0. -1.
<mgrwt>
<rscale>  0 0.26190888E+04</rscale>
<asrwt>0</asrwt>
<pdfrwt beam="1">  1        2 0.33799154E+00 0.26190888E+04</pdfrwt>
<pdfrwt beam="2">  1       -2 0.12009029E+00 0.26190888E+04</pdfrwt>
<totfact> 0.24264914E+00</totfact>
</mgrwt>
</event>
<event>
 6    1  0.2003386E-005  0.3155930E+04  0.7818608E-02  0.8200554E-01
          1   -1    0    0  501    0  0.00000000000E+00  0.00000000000E+00  0.27121660752E+04  0.27121660752E+04  0.00000000000E+00 0. -1.
         -1   -1    0    0    0  501 -0.00000000000E+00 -0.00000000000E+00 -0.91807534996E+03  0.91807534996E+03  0.00000000000E+00 0.  1.
         23    2    1    2    0    0  0.11476824125E+04 -0.46329157296E+03  0.20210931352E+04  0.23719314095E+04  0.97093505090E+02 0.  0.
         13    1    3    3    0    0  0.75403635682E+03 -0.26371432090E+03  0.13531330626E+04  0.15713322868E+04  0.00000000000E+00 0.  1.
        -13    1    3    3    0    0  0.39364605565E+03 -0.19957725205E+03  0.66796007266E+03  0.80059912274E+03  0.00000000000E+00 0. -1.
         22    1    1    2    0    0 -0.11476824125E+04  0.46329157296E+03 -0.22700240994E+03  0.12583100157E+04  0.00000000000E+00 0.  1.
<mgrwt>
<rscale>  0 0.31559295E+04</rscale>
<asrwt>0</asrwt>
<pdfrwt beam="1">  1        1 0.41725632E+00 0.31559295E+04</pdfrwt>
<pdfrwt beam="2">  1       -1 0.14124236E+00 0.31559295E+04</pdfrwt>
<totfact> 0.33074291E-01</totfact>
</mgrwt>
</event>
<event>
 6    1  0.2003386E-005  0.1100109E+04  0.7818608E-02  0.9205085E-01
         -1   -1    0    0    0  501 -0.00000000000E+00  0.00000000000E+00  0.15513096323E+03  0.15513096323E+03  0.00000000000E+00 0.  1.
          1   -1    0    0  501    0  0.00000000000E+00 -0.00000000000E+00 -0.19503524741E+04  0.19503524741E+04  0.00000000000E+00 0. -1.
         23    2    1    2    0    0  0.30659283428E+03  0.41660590690E+02 -0.17653318278E+04  0.17946327272E+04  0.92603414054E+02 0.  0.
         13    1    3    3    0    0  0.43522376674E+02  0.37864609384E+02 -0.40549420326E+03  0.40957719027E+03  0.00000000000E+00 0. -1.
        -13    1    3    3    0    0  0.26307045760E+03  0.37959813060E+01 -0.13598376245E+04  0.13850555369E+04  0.00000000000E+00 0.  1.
         22    1    1    2    0    0 -0.30659283428E+03 -0.41660590690E+02 -0.29889683044E+02  0.31085071015E+03  0.00000000000E+00 0.  1.
<mgrwt>
<rscale>  0 0.11001092E+04</rscale>
<asrwt>0</asrwt>
<pdfrwt beam="1">  1        1 0.30005421E+00 0.11001092E+04</pdfrwt>
<pdfrwt beam="2">  1       -1 0.23866303E-01 0.11001092E+04</pdfrwt>
<totfact> 0.48791829E+01</totfact>
</mgrwt>
</event>
<event>
 6    1  0.2003386E-005  0.1288615E+04  0.7818608E-02  0.9038643E-01
         -2   -1    0    0    0  501 -0.00000000000E+00  0.00000000000E+00  0.13765352460E+04  0.13765352460E+04  0.00000000000E+00 0.  1.
          2   -1    0    0  501    0  0.00000000000E+00 -0.00000000000E+00 -0.30157755872E+03  0.30157755872E+03  0.00000000000E+00 0. -1.
         23    2    1    2    0    0 -0.38629510544E+03 -0.27984910137E+03 -0.17675831087E+02  0.48589326391E+03  0.90776653889E+02 0.  0.
         13    1    3    3    0    0 -0.13741697413E+03 -0.51357636415E+02  0.90467029588E+01  0.14697916325E+03  0.00000000000E+00 0. -1.
        -13    1    3    3    0    0 -0.24887813131E+03 -0.22849146495E+03 -0.26722534046E+02  0.33891410066E+03  0.00000000000E+00 0.  1.
         22    1    1    2    0    0  0.38629510544E+03  0.27984910137E+03  0.10926335184E+04  0.11922195408E+04  0.00000000000E+00 0.  1.
<mgrwt>
<rscale>  0 0.12886150E+04</rscale>
<asrwt>0</asrwt>
<pdfrwt beam="1">  1        2 0.46396548E-01 0.12886150E+04</pdfrwt>
<pdfrwt beam="2">  1       -2 0.21177465E+00 0.12886150E+04</pdfrwt>
<totfact> 0.11937350E+01</totfact>
</mgrwt>
</event>
<event>
 6    1  0.2003386E-005  0.3540474E+04  0.7818608E-02  0.8104265E-01
          2   -1    0    0  501    0  0.00000000000E+00  0.00000000000E+00  0.26566053024E+04  0.26566053024E+04  0.00000000000E+00 0. -1.
         -2   -1    0    0    0  501 -0.00000000000E+00 -0.00000000000E+00 -0.11796029321E+04  0.11796029321E+04  0.00000000000E+00 0.  1.
         23    2    1    2    0    0  0.89279381249E+03  0.87666977069E+03 -0.61584553217E+03  0.13978393081E+04  0.95175276800E+02 0.  0.
         13    1    3    3    0    0  0.56925056204E+03  0.61525087261E+03 -0.43359633508E+03  0.94370844037E+03  0.00000000000E+00 0.  1.
        -13    1    3    3    0    0  0.32354325045E+03  0.26141889808E+03 -0.18224919708E+03  0.45413086773E+03  0.00000000000E+00 0. -1.
         22    1    1    2    0    0 -0.89279381249E+03 -0.87666977069E+03  0.20928479024E+04  0.24383689264E+04  0.00000000000E+00 0. -1.
<mgrwt>
<rscale>  0 0.35404742E+04</rscale>
<asrwt>0</asrwt>
<pdfrwt beam="1">  1        2 0.40870851E+00 0.35404742E+04</pdfrwt>
<pdfrwt beam="2">  1       -2 0.18147737E+00 0.35404742E+04</pdfrwt>
<totfact> 0.40868247E-01</totfact>
</mgrwt>
</event>
<event>
 6    1  0.2003386E-005  0.2686235E+04  0.7818608E-02  0.8339485E-01
          2   -1    0    0  501    0  0.00000000000E+00  0.00000000000E+00  0.26135629490E+04  0.26135629490E+04  0.00000000000E+00 0. -1.
         -2   -1    0    0    0  501 -0.00000000000E+00 -0.00000000000E+00 -0.69023200979E+03  0.69023200979E+03  0.00000000000E+00 0.  1.
         23    2    1    2    0    0  0.58277518270E+03  0.27838836889E+03 -0.48330196210E+03  0.81200666136E+03  0.92989429614E+02 0.  0.
         13    1    3    3    0    0  0.52891054534E+03  0.26210510564E+03 -0.40618435978E+03  0.71654112618E+03  0.00000000000E+00 0. -1.
        -13    1    3    3    0    0  0.53864637361E+02  0.16283263251E+02 -0.77117602324E+02  0.95465535186E+02  0.00000000000E+00 0.  1.
         22    1    1    2    0    0 -0.58277518270E+03 -0.27838836889E+03  0.24066329013E+04  0.24917882974E+04  0.00000000000E+00 0. -1.
<mgrwt>
<rscale>  0 0.26862351E+04</rscale>
<asrwt>0</asrwt>
<pdfrwt beam="1">  1        2 0.40208660E+00 0.26862351E+04</pdfrwt>
<pdfrwt beam="2">  1       -2 0.10618954E+00 0.26862351E+04</pdfrwt>
<totfact> 0.18768851E+00</totfact>
</mgrwt>
</event>
<event>
 6    1  0.2003386E-005  0.5846724E+04  0.7818608E-02  0.7709702E-01
          2   -1    0    0  501    0  0.00000000000E+00  0.00000000000E+00  0.25393716361E+04  0.25393716361E+04  0.00000000000E+00 0. -1.
         -2   -1    0    0    0  501 -0.00000000000E+00 -0.00000000000E+00 -0.33654169048E+04  0.33654169048E+04  0.00000000000E+00 0.  1.
         23    2    1    2    0    0  0.24320348254E+04 -0.35970112799E+03 -0.20092181775E+04  0.31764050588E+04  0.91723058224E+02 0.  0.
         13    1    3    3    0    0  0.20131469772E+04 -0.30276389955E+03 -0.17070858730E+04  0.26567967383E+04  0.00000000000E+00 0. -1.
        -13    1    3    3    0    0  0.41888784821E+03 -0.56937228441E+02 -0.30213230448E+03  0.51960832054E+03  0.00000000000E+00 0.  1.
         22    1    1    2    0    0 -0.24320348254E+04  0.35970112799E+03  0.11831729088E+04  0.27283834821E+04  0.00000000000E+00 0. -1.
<mgrwt>
<rscale>  0 0.58467236E+04</rscale>
<asrwt>0</asrwt>
<pdfrwt beam="1">  1        2 0.39067256E+00 0.58467236E+04</pdfrwt>
<pdfrwt beam="2">  1       -2 0.51775645E+00 0.58467236E+04</pdfrwt>
<totfact> 0.29353706E-03</totfact>
</mgrwt>
</event>
<event>
 6    1  0.2003386E-005  0.2372722E+04  0.7818608E-02  0.8449787E-01
          2   -1    0    0  501    0  0.00000000000E+00  0.00000000000E+00  0.16377894498E+04  0.16377894498E+04  0.00000000000E+00 0. -1.
         -2   -1    0    0    0  501 -0.00000000000E+00 -0.00000000000E+00 -0.85936076914E+03  0.85936076914E+03  0.00000000000E+00 0.  1.
         23    2    1    2    0    0 -0.45412459441E+03  0.57528031212E+03  0.13692355843E+04  0.15557526503E+04  0.91562213591E+02 0.  0.
         11    1    3    3    0    0 -0.13681292991E+03  0.17274699933E+03  0.50442904387E+03  0.55046159164E+03  0.00000000000E+00 0.  1.
        -11    1    3    3    0    0 -0.31731166450E+03  0.40253331279E+03  0.86480654043E+03  0.10052910587E+04  0.00000000000E+00 0. -1.
         22    1    1    2    0    0  0.45412459441E+03 -0.57528031212E+03 -0.59080690365E+03  0.94139756860E+03  0.00000000000E+00 0.  1.
<mgrwt>
<rscale>  0 0.23727216E+04</rscale>
<asrwt>0</asrwt>
<pdfrwt beam="1">  1        2 0.25196761E+00 0.23727216E+04</pdfrwt>
<pdfrwt beam="2">  1       -2 0.13220935E+00 0.23727216E+04</pdfrwt>
<totfact> 0.39841040E+00</totfact>
</mgrwt>
</event>
<event>
 6    1  0.2003386E-005  0.2999285E+04  0.7818608E-02  0.8243935E-01
         -2   -1    0    0    0  501 -0.00000000000E+00  0.00000000000E+00  0.74880456151E+03  0.74880456151E+03  0.00000000000E+00 0.  1.
          2   -1    0    0  501    0  0.00000000000E+00 -0.00000000000E+00 -0.30033574661E+04  0.30033574661E+04  0.00000000000E+00 0. -1.
         23    2    1    2    0    0  0.14280296982E+04  0.29301333934E+02 -0.56232876648E+03  0.15377208068E+04  0.90797857225E+02 0.  0.
         11    1    3    3    0    0  0.57047479845E+03 -0.23235812576E+02 -0.25414679877E+03  0.62495759375E+03  0.00000000000E+00 0.  1.
        -11    1    3    3    0    0  0.85755489972E+03  0.52537146510E+02 -0.30818196771E+03  0.91276321300E+03  0.00000000000E+00 0. -1.
         22    1    1    2    0    0 -0.14280296982E+04 -0.29301333934E+02 -0.16922241381E+04  0.22144412209E+04  0.00000000000E+00 0. -1.
<mgrwt>
<rscale>  0 0.29992851E+04</rscale>
<asrwt>0</asrwt>
<pdfrwt beam="1">  1        2 0.46205500E+00 0.29992851E+04</pdfrwt>
<pdfrwt beam="2">  1       -2 0.11520070E+00 0.29992851E+04</pdfrwt>
<totfact> 0.87039987E-01</totfact>
</mgrwt>
</event>
<event>
 6    1  0.2003386E-005  0.5280618E+03  0.7818608E-02  0.1006703E+00
          2   -1    0    0  501    0  0.00000000000E+00  0.00000000000E+00  0.15263490679E+03  0.15263490679E+03  0.00000000000E+00 0. -1.
         -2   -1    0    0    0  501 -0.00000000000E+00 -0.00000000000E+00 -0.45672596275E+03  0.45672596275E+03  0.00000000000E+00 0.  1.
         23    2    1    2    0    0 -0.91938706924E+02  0.11361175017E+03 -0.39948610343E+03  0.43483129987E+03  0.90159619046E+02 0.  0.
         13    1    3    3    0    0 -0.12093708483E+02  0.82451278417E+02 -0.23528273977E+03  0.24960456472E+03  0.00000000000E+00 0. -1.
        -13    1    3    3    0    0 -0.79844998441E+02  0.31160471750E+02 -0.16420336366E+03  0.18522673515E+03  0.00000000000E+00 0.  1.
         22    1    1    2    0    0  0.91938706924E+02 -0.11361175017E+03  0.95395047476E+02  0.17452956967E+03  0.00000000000E+00 0. -1.
<mgrwt>
<rscale>  0 0.52806183E+03</rscale>
<asrwt>0</asrwt>
<pdfrwt beam="1">  1        2 0.23482294E-01 0.52806183E+03</pdfrwt>
<pdfrwt beam="2">  1       -2 0.70265531E-01 0.52806183E+03</pdfrwt>
<totfact> 0.43841273E+02</totfact>
</mgrwt>
</event>
<event>
 6    1  0.2003386E-005  0.1070931E+04  0.7818608E-02  0.9233997E-01
         -2   -1    0    0    0  501 -0.00000000000E+00  0.00000000000E+00  0.12753204146E+03  0.12753204146E+03  0.00000000000E+00 0. -1.
          2   -1    0    0  501    0  0.00000000000E+00 -0.00000000000E+00 -0.22482460044E+04  0.22482460044E+04  0.00000000000E+00 0.  1.
         23    2    1    2    0    0 -0.52913971654E+03 -0.24911281011E+02 -0.11268033546E+04  0.12495153283E+04  0.10484914988E+03 0.  0.
         11    1    3    3    0    0 -0.42949028414E+03 -0.48350782292E+02 -0.97404363229E+03  0.10656269047E+04  0.00000000000E+00 0.  1.
        -11    1    3    3    0    0 -0.99649432399E+02  0.23439501281E+02 -0.15275972228E+03  0.18388842364E+03  0.00000000000E+00 0. -1.
         22    1    1    2    0    0  0.52913971654E+03  0.24911281011E+02 -0.99391060839E+03  0.11262627176E+04  0.00000000000E+00 0.  1.
<mgrwt>
<rscale>  0 0.10709312E+04</rscale>
<asrwt>0</asrwt>
<pdfrwt beam="1">  1        2 0.34588398E+00 0.10709312E+04</pdfrwt>
<pdfrwt beam="2">  1       -2 0.19620315E-01 0.10709312E+04</pdfrwt>
<totfact> 0.10723738E+02</totfact>
</mgrwt>
</event>
<event>
 6    1  0.2003386E-005  0.2362702E+04  0.7818608E-02  0.8453601E-01
          2   -1    0    0  501    0  0.00000000000E+00  0.00000000000E+00  0.17222380604E+04  0.17222380604E+04  0.00000000000E+00 0. -1.
         -2   -1    0    0    0  501 -0.00000000000E+00 -0.00000000000E+00 -0.81033517433E+03  0.81033517433E+03  0.00000000000E+00 0.  1.
         23    2    1    2    0    0 -0.54102265692E+03 -0.69992032452E+03  0.12929776635E+04  0.15693432716E+04  0.91940686412E+02 0.  0.
         11    1    3    3    0    0 -0.29961803041E+03 -0.36810676497E+03  0.61487405885E+03  0.77675199569E+03  0.00000000000E+00 0. -1.
        -11    1    3    3    0    0 -0.24140462652E+03 -0.33181355954E+03  0.67810360466E+03  0.79259127592E+03  0.00000000000E+00 0.  1.
         22    1    1    2    0    0  0.54102265692E+03  0.69992032452E+03 -0.38107477740E+03  0.96322996317E+03  0.00000000000E+00 0.  1.
<mgrwt>
<rscale>  0 0.23627019E+04</rscale>
<asrwt>0</asrwt>
<pdfrwt beam="1">  1        2 0.26495970E+00 0.23627019E+04</pdfrwt>
<pdfrwt beam="2">  1       -2 0.12466695E+00 0.23627019E+04</pdfrwt>
<totfact> 0.41503748E+00</totfact>
</mgrwt>
</event>
<event>
 6    1  0.2003386E-005  0.3515669E+04  0.7818608E-02  0.8110087E-01
          2   -1    0    0  501    0  0.00000000000E+00  0.00000000000E+00  0.40368685825E+04  0.40368685825E+04  0.00000000000E+00 0. -1.
         -2   -1    0    0    0  501 -0.00000000000E+00 -0.00000000000E+00 -0.76544025492E+03  0.76544025492E+03  0.00000000000E+00 0.  1.
         23    2    1    2    0    0 -0.49356067374E+03  0.38683437047E+03  0.38782374442E+04  0.39296919267E+04  0.92249644482E+02 0.  0.
         13    1    3    3    0    0 -0.38902871623E+03  0.27442531165E+03  0.27236456749E+04  0.27649409318E+04  0.00000000000E+00 0. -1.
        -13    1    3    3    0    0 -0.10453195751E+03  0.11240905881E+03  0.11545917693E+04  0.11647509950E+04  0.00000000000E+00 0.  1.
         22    1    1    2    0    0  0.49356067374E+03 -0.38683437047E+03 -0.60680911658E+03  0.87261691068E+03  0.00000000000E+00 0.  1.
<mgrwt>
<rscale>  0 0.35156688E+04</rscale>
<asrwt>0</asrwt>
<pdfrwt beam="1">  1        2 0.62105669E+00 0.35156688E+04</pdfrwt>
<pdfrwt beam="2">  1       -2 0.11776004E+00 0.35156688E+04</pdfrwt>
<totfact> 0.14535254E-01</totfact>
</mgrwt>
</event>
<event>
 6    1  0.2003386E-005  0.2713013E+04  0.7818608E-02  0.8330795E-01
          2   -1    0    0  501    0  0.00000000000E+00  0.00000000000E+00  0.17724232951E+04  0.17724232951E+04  0.00000000000E+00 0. -1.
         -2   -1    0    0    0  501 -0.00000000000E+00 -0.00000000000E+00 -0.10381886220E+04  0.10381886220E+04  0.00000000000E+00 0.  1.
         23    2    1    2    0    0  0.92259030762E+03  0.58288540636E+03 -0.46459381701E+03  0.11894647858E+04  0.89726189874E+02 0.  0.
         13    1    3    3    0    0  0.76388794811E+03  0.44931680762E+03 -0.35326078882E+03  0.95404589816E+03  0.00000000000E+00 0.  1.
        -13    1    3    3    0    0  0.15870235951E+03  0.13356859873E+03 -0.11133302819E+03  0.23541888762E+03  0.00000000000E+00 0. -1.
         22    1    1    2    0    0 -0.92259030762E+03 -0.58288540636E+03  0.11988284901E+04  0.16211471313E+04  0.00000000000E+00 0. -1.
<mgrwt>
<rscale>  0 0.27130129E+04</rscale>
<asrwt>0</asrwt>
<pdfrwt beam="1">  1        2 0.27268051E+00 0.27130129E+04</pdfrwt>
<pdfrwt beam="2">  1       -2 0.15972133E+00 0.27130129E+04</pdfrwt>
<totfact> 0.19828620E+00</totfact>
</mgrwt>
</event>
<event>
 6    1  0.2003386E-005  0.3525201E+04  0.7818608E-02  0.8107843E-01
          2   -1    0    0  501    0  0.00000000000E+00  0.00000000000E+00  0.13045857547E+04  0.13045857547E+04  0.00000000000E+00 0. -1.
         -2   -1    0    0    0  501 -0.00000000000E+00 -0.00000000000E+00 -0.23814157522E+04  0.23814157522E+04  0.00000000000E+00 0.  1.
         23    2    1    2    0    0  0.17582086567E+04 -0.29340126161E+01 -0.42704847390E+03  0.18115623062E+04  0.89896056522E+02 0.  0.
         11    1    3    3    0    0  0.65753179458E+03  0.38422923083E+02 -0.17853523377E+03  0.68242157908E+03  0.00000000000E+00 0. -1.
        -11    1    3    3    0    0  0.11006768622E+04 -0.41356935699E+02 -0.24851324013E+03  0.11291407271E+04  0.00000000000E+00 0.  1.
         22    1    1    2    0    0 -0.17582086567E+04  0.29340126161E+01 -0.64978152354E+03  0.18744392008E+04  0.00000000000E+00 0. -1.
<mgrwt>
<rscale>  0 0.35252013E+04</rscale>
<asrwt>0</asrwt>
<pdfrwt beam="1">  1        2 0.20070550E+00 0.35252013E+04</pdfrwt>
<pdfrwt beam="2">  1       -2 0.36637165E+00 0.35252013E+04</pdfrwt>
<totfact> 0.16491192E-01</totfact>
</mgrwt>
</event>
<event>
 6    1  0.2003386E-005  0.3384841E+04  0.7818608E-02  0.8141637E-01
         -2   -1    0    0    0  501 -0.00000000000E+00  0.00000000000E+00  0.11291960535E+04  0.11291960535E+04  0.00000000000E+00 0.  1.
          2   -1    0    0  501    0  0.00000000000E+00 -0.00000000000E+00 -0.25365724625E+04  0.25365724625E+04  0.00000000000E+00 0. -1.
         23    2    1    2    0    0 -0.68446548670E+03 -0.75949289075E+03  0.75261402005E+03  0.12760235281E+04  0.12839675841E+03 0.  0.
         11    1    3    3    0    0 -0.10625684591E+03 -0.57675764392E+02  0.80057864113E+02  0.14500438858E+03  0.00000000000E+00 0.  1.
        -11    1    3    3    0    0 -0.57820864079E+03 -0.70181712635E+03  0.67255615594E+03  0.11310191395E+04  0.00000000000E+00 0. -1.
         22    1    1    2    0    0  0.68446548670E+03  0.75949289075E+03 -0.21599904291E+04  0.23897449879E+04  0.00000000000E+00 0. -1.
<mgrwt>
<rscale>  0 0.33848413E+04</rscale>
<asrwt>0</asrwt>
<pdfrwt beam="1">  1        2 0.39024191E+00 0.33848413E+04</pdfrwt>
<pdfrwt beam="2">  1       -2 0.17372247E+00 0.33848413E+04</pdfrwt>
<totfact> 0.55142128E-01</totfact>
</mgrwt>
</event>
<event>
 6    1  0.2003386E-005  0.4537218E+04  0.7818608E-02  0.7904153E-01
          2   -1    0    0  501    0  0.00000000000E+00  0.00000000000E+00  0.17226041373E+04  0.17226041373E+04  0.00000000000E+00 0.  1.
         -2   -1    0    0    0  501 -0.00000000000E+00 -0.00000000000E+00 -0.29876778099E+04  0.29876778099E+04  0.00000000000E+00 0. -1.
         23    2    1    2    0    0 -0.13964598407E+03 -0.19292762225E+04 -0.18615072707E+04  0.26860930281E+04  0.90987324779E+02 0.  0.
         13    1    3    3    0    0 -0.63813686821E+02 -0.10727154890E+04 -0.10935702558E+04  0.15331949033E+04  0.00000000000E+00 0.  1.
        -13    1    3    3    0    0 -0.75832297250E+02 -0.85656073345E+03 -0.76793701480E+03  0.11528981248E+04  0.00000000000E+00 0. -1.
         22    1    1    2    0    0  0.13964598407E+03  0.19292762225E+04  0.59643359799E+03  0.20241889191E+04  0.00000000000E+00 0.  1.
<mgrwt>
<rscale>  0 0.45372177E+04</rscale>
<asrwt>0</asrwt>
<pdfrwt beam="1">  1        2 0.26501602E+00 0.45372177E+04</pdfrwt>
<pdfrwt beam="2">  1       -2 0.45964273E+00 0.45372177E+04</pdfrwt>
<totfact> 0.21615526E-02</totfact>
</mgrwt>
</event>
<event>
 6    1  0.2070978E-005  0.2225843E+04  0.7818608E-02  0.8507748E-01
          2   -1    0    0  501    0  0.00000000000E+00  0.00000000000E+00  0.13885762102E+04  0.13885762102E+04  0.00000000000E+00 0. -1.
         -2   -1    0    0    0  501 -0.00000000000E+00 -0.00000000000E+00 -0.89198854492E+03  0.89198854492E+03  0.00000000000E+00 0.  1.
         23    2    1    2    0    0 -0.33099426873E+03 -0.25893508688E+03  0.13025644731E+04  0.13716075506E+04  0.89601792161E+02 0.  0.
         11    1    3    3    0    0 -0.12772485434E+03 -0.15633475831E+03  0.62814855463E+03  0.65979148354E+03  0.00000000000E+00 0. -1.
        -11    1    3    3    0    0 -0.20326941439E+03 -0.10260032857E+03  0.67441591843E+03  0.71181606703E+03  0.00000000000E+00 0.  1.
         22    1    1    2    0    0  0.33099426873E+03  0.25893508688E+03 -0.80597680774E+03  0.90895720459E+03  0.00000000000E+00 0.  1.
<mgrwt>
<rscale>  0 0.22258428E+04</rscale>
<asrwt>0</asrwt>
<pdfrwt beam="1">  1        2 0.21362711E+00 0.22258428E+04</pdfrwt>
<pdfrwt beam="2">  1       -2 0.13722901E+00 0.22258428E+04</pdfrwt>
<totfact> 0.50695338E+00</totfact>
</mgrwt>
</event>
<event>
 6    1  0.2003386E-005  0.9729156E+03  0.7818608E-02  0.9338760E-01
         -2   -1    0    0    0  501 -0.00000000000E+00  0.00000000000E+00  0.46671165410E+03  0.46671165410E+03  0.00000000000E+00 0.  1.
          2   -1    0    0  501    0  0.00000000000E+00 -0.00000000000E+00 -0.50703938450E+03  0.50703938450E+03  0.00000000000E+00 0. -1.
         23    2    1    2    0    0  0.39531279301E+03 -0.27609945132E+03 -0.14884286759E+02  0.49089445517E+03  0.90844442786E+02 0.  0.
         13    1    3    3    0    0  0.21189193871E+03 -0.11588823499E+03 -0.44447691145E+02  0.24556847100E+03  0.00000000000E+00 0.  1.
        -13    1    3    3    0    0  0.18342085430E+03 -0.16021121633E+03  0.29563404386E+02  0.24532598417E+03  0.00000000000E+00 0. -1.
         22    1    1    2    0    0 -0.39531279301E+03  0.27609945132E+03 -0.25443443642E+02  0.48285658343E+03  0.00000000000E+00 0. -1.
<mgrwt>
<rscale>  0 0.97291560E+03</rscale>
<asrwt>0</asrwt>
<pdfrwt beam="1">  1        2 0.78006059E-01 0.97291560E+03</pdfrwt>
<pdfrwt beam="2">  1       -2 0.71801793E-01 0.97291560E+03</pdfrwt>
<totfact> 0.10657864E+02</totfact>
</mgrwt>
</event>
<event>
 6    1  0.2003386E-005  0.4112745E+04  0.7818608E-02  0.7982181E-01
         -2   -1    0    0    0  501 -0.00000000000E+00  0.00000000000E+00  0.26723789765E+04  0.26723789765E+04  0.00000000000E+00 0.  1.
          2   -1    0    0  501    0  0.00000000000E+00 -0.00000000000E+00 -0.15823610090E+04  0.15823610090E+04  0.00000000000E+00 0. -1.
         23    2    1    2    0    0  0.57267962798E+03 -0.27371842738E+03  0.25676818563E+04  0.26465191355E+04  0.90496882977E+02 0.  0.
         11    1    3    3    0    0  0.36642938299E+02 -0.37554218815E+02  0.29095887101E+03  0.29565197259E+03  0.00000000000E+00 0. -1.
        -11    1    3    3    0    0  0.53603668969E+03 -0.23616420857E+03  0.22767229853E+04  0.23508671629E+04  0.00000000000E+00 0.  1.
         22    1    1    2    0    0 -0.57267962798E+03  0.27371842738E+03 -0.14776638888E+04  0.16082208499E+04  0.00000000000E+00 0. -1.
<mgrwt>
<rscale>  0 0.41127452E+04</rscale>
<asrwt>0</asrwt>
<pdfrwt beam="1">  1        2 0.24344015E+00 0.41127452E+04</pdfrwt>
<pdfrwt beam="2">  1       -2 0.41113523E+00 0.41127452E+04</pdfrwt>
<totfact> 0.55929735E-02</totfact>
</mgrwt>
</event>
<event>
 6    1  0.2003386E-005  0.1211299E+04  0.7818608E-02  0.9103024E-01
          1   -1    0    0  501    0  0.00000000000E+00  0.00000000000E+00  0.73323882682E+03  0.73323882682E+03  0.00000000000E+00 0. -1.
         -1   -1    0    0    0  501 -0.00000000000E+00 -0.00000000000E+00 -0.50026135641E+03  0.50026135641E+03  0.00000000000E+00 0.  1.
         23    2    1    2    0    0 -0.14456251334E+03  0.58059353732E+03  0.47007304200E+02  0.60694445662E+03  0.90469392241E+02 0.  0.
         13    1    3    3    0    0 -0.63537352048E+02  0.42413390754E+03  0.37191196166E+02  0.43047619179E+03  0.00000000000E+00 0.  1.
        -13    1    3    3    0    0 -0.81025161292E+02  0.15645962978E+03  0.98161080338E+01  0.17646826483E+03  0.00000000000E+00 0. -1.
         22    1    1    2    0    0  0.14456251334E+03 -0.58059353732E+03  0.18597016621E+03  0.62655572662E+03  0.00000000000E+00 0. -1.
<mgrwt>
<rscale>  0 0.12112986E+04</rscale>
<asrwt>0</asrwt>
<pdfrwt beam="1">  1        1 0.11280597E+00 0.12112986E+04</pdfrwt>
<pdfrwt beam="2">  1       -1 0.76963286E-01 0.12112986E+04</pdfrwt>
<totfact> 0.42502935E+01</totfact>
</mgrwt>
</event>
<event>
 6    1  0.2003386E-005  0.1521283E+04  0.7818608E-02  0.8870422E-01
         -2   -1    0    0    0  501 -0.00000000000E+00  0.00000000000E+00  0.15523681823E+04  0.15523681823E+04  0.00000000000E+00 0.  1.
          2   -1    0    0  501    0  0.00000000000E+00 -0.00000000000E+00 -0.37270501076E+03  0.37270501076E+03  0.00000000000E+00 0. -1.
         23    2    1    2    0    0  0.41599626861E+02 -0.29226176744E+03 -0.29130665406E+03  0.42477332387E+03  0.91789652532E+02 0.  0.
         11    1    3    3    0    0  0.38335553482E+02 -0.10860448703E+03 -0.61457628462E+02  0.13054343859E+03  0.00000000000E+00 0.  1.
        -11    1    3    3    0    0  0.32640733784E+01 -0.18365728041E+03 -0.22984902560E+03  0.29422988528E+03  0.00000000000E+00 0. -1.
         22    1    1    2    0    0 -0.41599626861E+02  0.29226176744E+03  0.14709698256E+04  0.15002998692E+04  0.00000000000E+00 0.  1.
<mgrwt>
<rscale>  0 0.15212829E+04</rscale>
<asrwt>0</asrwt>
<pdfrwt beam="1">  1        2 0.57339233E-01 0.15212829E+04</pdfrwt>
<pdfrwt beam="2">  1       -2 0.23882587E+00 0.15212829E+04</pdfrwt>
<totfact> 0.62574821E+00</totfact>
</mgrwt>
</event>
<event>
 6    1  0.2003386E-005  0.6903418E+04  0.7818608E-02  0.7587479E-01
          2   -1    0    0  501    0  0.00000000000E+00  0.00000000000E+00  0.49040926254E+04  0.49040926254E+04  0.00000000000E+00 0. -1.
         -2   -1    0    0    0  501 -0.00000000000E+00 -0.00000000000E+00 -0.24294592965E+04  0.24294592965E+04  0.00000000000E+00 0.  1.
         23    2    1    2    0    0 -0.94120511216E+03 -0.17181222052E+04 -0.17806834368E+04  0.26489460953E+04  0.90944700810E+02 0.  0.
         13    1    3    3    0    0 -0.82023371632E+03 -0.15350883600E+04 -0.15504634133E+04  0.23309260860E+04  0.00000000000E+00 0.  1.
        -13    1    3    3    0    0 -0.12097139584E+03 -0.18303384515E+03 -0.23022002352E+03  0.31802000930E+03  0.00000000000E+00 0. -1.
         22    1    1    2    0    0  0.94120511216E+03  0.17181222052E+04  0.42553167656E+04  0.46846058266E+04  0.00000000000E+00 0. -1.
<mgrwt>
<rscale>  0 0.69034175E+04</rscale>
<asrwt>0</asrwt>
<pdfrwt beam="1">  1        2 0.75447579E+00 0.69034175E+04</pdfrwt>
<pdfrwt beam="2">  1       -2 0.37376297E+00 0.69034175E+04</pdfrwt>
<totfact> 0.30420129E-04</totfact>
</mgrwt>
</event>
<event>
 6    1  0.2003386E-005  0.3030841E+04  0.7818608E-02  0.8234978E-01
          2   -1    0    0  501    0  0.00000000000E+00  0.00000000000E+00  0.21493107381E+04  0.21493107381E+04  0.00000000000E+00 0. -1.
         -2   -1    0    0    0  501 -0.00000000000E+00 -0.00000000000E+00 -0.10684818902E+04  0.10684818902E+04  0.00000000000E+00 0.  1.
         23    2    1    2    0    0 -0.79412210124E+03  0.12319633615E+04  0.94387284142E+03  0.17456783041E+04  0.90184061074E+02 0.  0.
         11    1    3    3    0    0 -0.59266758817E+03  0.84680836420E+03  0.65005077857E+03  0.12210263267E+04  0.00000000000E+00 0. -1.
        -11    1    3    3    0    0 -0.20145451307E+03  0.38515499734E+03  0.29382206285E+03  0.52465197744E+03  0.00000000000E+00 0.  1.
         22    1    1    2    0    0  0.79412210124E+03 -0.12319633615E+04  0.13695600645E+03  0.14721143242E+04  0.00000000000E+00 0. -1.
<mgrwt>
<rscale>  0 0.30308412E+04</rscale>
<asrwt>0</asrwt>
<pdfrwt beam="1">  1        2 0.33066319E+00 0.30308412E+04</pdfrwt>
<pdfrwt beam="2">  1       -2 0.16438183E+00 0.30308412E+04</pdfrwt>
<totfact> 0.11013340E+00</totfact>
</mgrwt>
</event>
<event>
 6    1  0.2003386E-005  0.3500126E+04  0.7818608E-02  0.8113760E-01
         -2   -1    0    0    0  501 -0.00000000000E+00  0.00000000000E+00  0.17037321644E+04  0.17037321644E+04  0.00000000000E+00 0.  1.
          2   -1    0    0  501    0  0.00000000000E+00 -0.00000000000E+00 -0.17976538412E+04  0.17976538412E+04  0.00000000000E+00 0. -1.
         23    2    1    2    0    0 -0.50083296144E+03 -0.16714697878E+04  0.75264622875E+02  0.17483118741E+04  0.79276343418E+02 0.  0.
         13    1    3    3    0    0 -0.68350448982E+02 -0.15848580306E+03 -0.51847056435E+01  0.17267430272E+03  0.00000000000E+00 0. -1.
        -13    1    3    3    0    0 -0.43248251246E+03 -0.15129839848E+04  0.80449328519E+02  0.15756375713E+04  0.00000000000E+00 0.  1.
         22    1    1    2    0    0  0.50083296144E+03  0.16714697878E+04 -0.16918629966E+03  0.17530741316E+04  0.00000000000E+00 0. -1.
<mgrwt>
<rscale>  0 0.35001261E+04</rscale>
<asrwt>0</asrwt>
<pdfrwt beam="1">  1        2 0.27656213E+00 0.35001261E+04</pdfrwt>
<pdfrwt beam="2">  1       -2 0.26211264E+00 0.35001261E+04</pdfrwt>
<totfact> 0.38515622E-01</totfact>
</mgrwt>
</event>
<event>
 6    1  0.2003386E-005  0.5856035E+03  0.7818608E-02  0.9935733E-01
         -1   -1    0    0    0  501 -0.00000000000E+00  0.00000000000E+00  0.16606095552E+03  0.16606095552E+03  0.00000000000E+00 0.  1.
          1   -1    0    0  501    0  0.00000000000E+00 -0.00000000000E+00 -0.51627348522E+03  0.51627348522E+03  0.00000000000E+00 0. -1.
         23    2    1    2    0    0 -0.95599774990E+02 -0.12483702156E+03 -0.45732278177E+03  0.49208143806E+03  0.90974809842E+02 0.  0.
         13    1    3    3    0    0 -0.26182143523E+02 -0.64447623892E+02 -0.91932804090E+02  0.11528504384E+03  0.00000000000E+00 0. -1.
        -13    1    3    3    0    0 -0.69417631466E+02 -0.60389397671E+02 -0.36538997768E+03  0.37679639422E+03  0.00000000000E+00 0.  1.
         22    1    1    2    0    0  0.95599774990E+02  0.12483702156E+03  0.10711025207E+03  0.19025300268E+03  0.00000000000E+00 0.  1.
<mgrwt>
<rscale>  0 0.58560351E+03</rscale>
<asrwt>0</asrwt>
<pdfrwt beam="1">  1        1 0.79426690E-01 0.58560351E+03</pdfrwt>
<pdfrwt beam="2">  1       -1 0.25547839E-01 0.58560351E+03</pdfrwt>
<totfact> 0.57742251E+02</totfact>
</mgrwt>
</event>
<event>
 6    1  0.2003386E-005  0.2628905E+04  0.7818608E-02  0.8358448E-01
         -2   -1    0    0    0  501 -0.00000000000E+00  0.00000000000E+00  0.12300191446E+04  0.12300191446E+04  0.00000000000E+00 0.  1.
          2   -1    0    0  501    0  0.00000000000E+00 -0.00000000000E+00 -0.14046820887E+04  0.14046820887E+04  0.00000000000E+00 0. -1.
         23    2    1    2    0    0 -0.11654605452E+04 -0.39483335526E+03  0.37119979685E+03  0.12885371300E+04  0.91361837318E+02 0.  0.
         13    1    3    3    0    0 -0.43344012555E+03 -0.15720332051E+03  0.18434475833E+03  0.49655434379E+03  0.00000000000E+00 0.  1.
        -13    1    3    3    0    0 -0.73202041969E+03 -0.23763003475E+03  0.18685503853E+03  0.79198278623E+03  0.00000000000E+00 0. -1.
         22    1    1    2    0    0  0.11654605452E+04  0.39483335526E+03 -0.54586274092E+03  0.13461641032E+04  0.00000000000E+00 0. -1.
<mgrwt>
<rscale>  0 0.26289054E+04</rscale>
<asrwt>0</asrwt>
<pdfrwt beam="1">  1        2 0.21610494E+00 0.26289054E+04</pdfrwt>
<pdfrwt beam="2">  1       -2 0.18923371E+00 0.26289054E+04</pdfrwt>
<totfact> 0.19907955E+00</totfact>
</mgrwt>
</event>
<event>
 6    1  0.2003386E-005  0.4421835E+04  0.7818608E-02  0.7924466E-01
         -2   -1    0    0    0  501 -0.00000000000E+00  0.00000000000E+00  0.15290498693E+04  0.15290498693E+04  0.00000000000E+00 0.  1.
          2   -1    0    0  501    0  0.00000000000E+00 -0.00000000000E+00 -0.31968592189E+04  0.31968592189E+04  0.00000000000E+00 0. -1.
         23    2    1    2    0    0 -0.20120986441E+04  0.52746435254E+03 -0.37666085101E+02  0.20831592589E+04  0.10664974108E+03 0.  0.
         11    1    3    3    0    0 -0.12947858220E+04  0.28754817307E+03 -0.34574489514E+02  0.13267816971E+04  0.00000000000E+00 0. -1.
        -11    1    3    3    0    0 -0.71731282217E+03  0.23991617948E+03 -0.30915955866E+01  0.75637756179E+03  0.00000000000E+00 0.  1.
         22    1    1    2    0    0  0.20120986441E+04 -0.52746435254E+03 -0.16301432645E+04  0.26427498292E+04  0.00000000000E+00 0.  1.
<mgrwt>
<rscale>  0 0.44218354E+04</rscale>
<asrwt>0</asrwt>
<pdfrwt beam="1">  1        2 0.49182449E+00 0.44218354E+04</pdfrwt>
<pdfrwt beam="2">  1       -2 0.23523844E+00 0.44218354E+04</pdfrwt>
<totfact> 0.78700295E-02</totfact>
</mgrwt>
</event>
<event>
 6    1  0.2003386E-005  0.5203927E+04  0.7818608E-02  0.7797797E-01
         -2   -1    0    0    0  501 -0.00000000000E+00  0.00000000000E+00  0.15331316776E+04  0.15331316776E+04  0.00000000000E+00 0.  1.
          2   -1    0    0  501    0  0.00000000000E+00 -0.00000000000E+00 -0.44159371358E+04  0.44159371358E+04  0.00000000000E+00 0. -1.
         23    2    1    2    0    0 -0.10230295142E+04  0.55523759174E+03 -0.41010663421E+04  0.42641243777E+04  0.95568802415E+02 0.  0.
         13    1    3    3    0    0 -0.77233577108E+03  0.39195268661E+03 -0.29186767460E+04  0.30444709556E+04  0.00000000000E+00 0. -1.
        -13    1    3    3    0    0 -0.25069374309E+03  0.16328490514E+03 -0.11823895961E+04  0.12196534221E+04  0.00000000000E+00 0.  1.
         22    1    1    2    0    0  0.10230295142E+04 -0.55523759174E+03  0.12182608839E+04  0.16849444357E+04  0.00000000000E+00 0.  1.
<mgrwt>
<rscale>  0 0.52039266E+04</rscale>
<asrwt>0</asrwt>
<pdfrwt beam="1">  1        2 0.67937494E+00 0.52039266E+04</pdfrwt>
<pdfrwt beam="2">  1       -2 0.23586641E+00 0.52039266E+04</pdfrwt>
<totfact> 0.82710890E-03</totfact>
</mgrwt>
</event>
<event>
 6    1  0.2003386E-005  0.4153855E+04  0.7818608E-02  0.7974208E-01
         -2   -1    0    0    0  501 -0.00000000000E+00  0.00000000000E+00  0.17911573627E+04  0.17911573627E+04  0.00000000000E+00 0.  1.
          2   -1    0    0  501    0  0.00000000000E+00 -0.00000000000E+00 -0.24082911092E+04  0.24082911092E+04  0.00000000000E+00 0. -1.
         23    2    1    2    0    0 -0.19179665867E+04  0.76941563472E+02 -0.11078814635E+04  0.22181990798E+04  0.92141134319E+02 0.  0.
         13    1    3    3    0    0 -0.10435732956E+04  0.20472618752E+02 -0.64907637223E+03  0.12291315993E+04  0.00000000000E+00 0. -1.
        -13    1    3    3    0    0 -0.87439329108E+03  0.56468944721E+02 -0.45880509127E+03  0.98906748050E+03  0.00000000000E+00 0.  1.
         22    1    1    2    0    0  0.19179665867E+04 -0.76941563472E+02  0.49074771694E+03  0.19812493921E+04  0.00000000000E+00 0. -1.
<mgrwt>
<rscale>  0 0.41538552E+04</rscale>
<asrwt>0</asrwt>
<pdfrwt beam="1">  1        2 0.37050632E+00 0.41538552E+04</pdfrwt>
<pdfrwt beam="2">  1       -2 0.27556267E+00 0.41538552E+04</pdfrwt>
<totfact> 0.13732885E-01</totfact>
</mgrwt>
</event>
<event>
 6    1  0.2003386E-005  0.3892184E+03  0.7818608E-02  0.1047578E+00
          2   -1    0    0  501    0  0.00000000000E+00  0.00000000000E+00  0.69127318506E+03  0.69127318506E+03  0.00000000000E+00 0.  1.
         -2   -1    0    0    0  501 -0.00000000000E+00 -0.00000000000E+00 -0.54786950760E+02  0.54786950760E+02  0.00000000000E+00 0. -1.
         23    2    1    2    0    0  0.15092723611E+03 -0.10479249571E+03  0.32458256053E+03  0.38405958407E+03  0.91582901024E+02 0.  0.
         11    1    3    3    0    0  0.10191994521E+03 -0.36976756306E+02  0.11332351823E+03  0.15683486705E+03  0.00000000000E+00 0.  1.
        -11    1    3    3    0    0  0.49007290901E+02 -0.67815739404E+02  0.21125904230E+03  0.22722471702E+03  0.00000000000E+00 0. -1.
         22    1    1    2    0    0 -0.15092723611E+03  0.10479249571E+03  0.31190367378E+03  0.36200055175E+03  0.00000000000E+00 0.  1.
<mgrwt>
<rscale>  0 0.38921845E+03</rscale>
<asrwt>0</asrwt>
<pdfrwt beam="1">  1        2 0.10634971E+00 0.38921845E+03</pdfrwt>
<pdfrwt beam="2">  1       -2 0.84287622E-02 0.38921845E+03</pdfrwt>
<totfact> 0.37289065E+03</totfact>
</mgrwt>
</event>
<event>
 6    1  0.2003386E-005  0.4129362E+04  0.7818608E-02  0.7978947E-01
         -2   -1    0    0    0  501 -0.00000000000E+00  0.00000000000E+00  0.23886076649E+04  0.23886076649E+04  0.00000000000E+00 0.  1.
          2   -1    0    0  501    0  0.00000000000E+00 -0.00000000000E+00 -0.17846826800E+04  0.17846826800E+04  0.00000000000E+00 0. -1.
         23    2    1    2    0    0 -0.11414616432E+04  0.42699357547E+03  0.19851881904E+04  0.23312408778E+04  0.91943910024E+02 0.  0.
         13    1    3    3    0    0 -0.94847159430E+03  0.31871311323E+03  0.16451032712E+04  0.19254976465E+04  0.00000000000E+00 0.  1.
        -13    1    3    3    0    0 -0.19299004889E+03  0.10828046223E+03  0.34008491923E+03  0.40574323132E+03  0.00000000000E+00 0. -1.
         22    1    1    2    0    0  0.11414616432E+04 -0.42699357547E+03 -0.13812632055E+04  0.18420494671E+04  0.00000000000E+00 0. -1.
<mgrwt>
<rscale>  0 0.41293616E+04</rscale>
<asrwt>0</asrwt>
<pdfrwt beam="1">  1        2 0.27456657E+00 0.41293616E+04</pdfrwt>
<pdfrwt beam="2">  1       -2 0.36747810E+00 0.41293616E+04</pdfrwt>
<totfact> 0.82753200E-02</totfact>
</mgrwt>
</event>
<event>
 6    1  0.2003386E-005  0.1715841E+04  0.7818608E-02  0.8752381E-01
         -2   -1    0    0    0  501 -0.00000000000E+00  0.00000000000E+00  0.90181810690E+03  0.90181810690E+03  0.00000000000E+00 0.  1.
          2   -1    0    0  501    0  0.00000000000E+00 -0.00000000000E+00 -0.81615986913E+03  0.81615986913E+03  0.00000000000E+00 0. -1.
         23    2    1    2    0    0  0.42570993639E+03 -0.13278769577E+03 -0.68800543157E+03  0.82499589595E+03  0.91680054388E+02 0.  0.
         11    1    3    3    0    0  0.38604328546E+03 -0.12194873798E+03 -0.56334173610E+03  0.69372532358E+03  0.00000000000E+00 0. -1.
        -11    1    3    3    0    0  0.39666650930E+02 -0.10838957795E+02 -0.12466369547E+03  0.13127057237E+03  0.00000000000E+00 0.  1.
         22    1    1    2    0    0 -0.42570993639E+03  0.13278769577E+03  0.77366366934E+03  0.89298208008E+03  0.00000000000E+00 0.  1.
<mgrwt>
<rscale>  0 0.17158412E+04</rscale>
<asrwt>0</asrwt>
<pdfrwt beam="1">  1        2 0.12556306E+00 0.17158412E+04</pdfrwt>
<pdfrwt beam="2">  1       -2 0.13874125E+00 0.17158412E+04</pdfrwt>
<totfact> 0.11715699E+01</totfact>
</mgrwt>
</event>
<event>
 6    1  0.2003386E-005  0.1119931E+04  0.7818608E-02  0.9185981E-01
         -1   -1    0    0    0  501 -0.00000000000E+00  0.00000000000E+00  0.31581923264E+03  0.31581923264E+03  0.00000000000E+00 0.  1.
          1   -1    0    0  501    0  0.00000000000E+00 -0.00000000000E+00 -0.99285042364E+03  0.99285042364E+03  0.00000000000E+00 0. -1.
         23    2    1    2    0    0 -0.46210881632E+03 -0.30685780226E+03 -0.27527444583E+03  0.62375013456E+03  0.74712387908E+02 0.  0.
         11    1    3    3    0    0 -0.96480803250E+02 -0.49568968608E+02 -0.85252590683E+02  0.13796243062E+03  0.00000000000E+00 0.  1.
        -11    1    3    3    0    0 -0.36562801308E+03 -0.25728883366E+03 -0.19002185514E+03  0.48578770394E+03  0.00000000000E+00 0. -1.
         22    1    1    2    0    0  0.46210881632E+03  0.30685780226E+03 -0.40175674518E+03  0.68491952172E+03  0.00000000000E+00 0.  1.
<mgrwt>
<rscale>  0 0.11199308E+04</rscale>
<asrwt>0</asrwt>
<pdfrwt beam="1">  1        1 0.15274622E+00 0.11199308E+04</pdfrwt>
<pdfrwt beam="2">  1       -1 0.48587574E-01 0.11199308E+04</pdfrwt>
<totfact> 0.64629892E+01</totfact>
</mgrwt>
</event>
<event>
 6    1  0.2003386E-005  0.1526519E+04  0.7818608E-02  0.8867007E-01
         -2   -1    0    0    0  501 -0.00000000000E+00  0.00000000000E+00  0.30785183012E+03  0.30785183012E+03  0.00000000000E+00 0.  1.
          2   -1    0    0  501    0  0.00000000000E+00 -0.00000000000E+00 -0.18923548875E+04  0.18923548875E+04  0.00000000000E+00 0. -1.
         23    2    1    2    0    0  0.70348936926E+03 -0.28891075326E+03 -0.80876465362E+03  0.11138657090E+04  0.90718447106E+02 0.  0.
         11    1    3    3    0    0  0.22158186682E+03 -0.95226005304E+02 -0.19732627058E+03  0.31161542461E+03  0.00000000000E+00 0. -1.
        -11    1    3    3    0    0  0.48190750244E+03 -0.19368474796E+03 -0.61143838304E+03  0.80225028436E+03  0.00000000000E+00 0.  1.
         22    1    1    2    0    0 -0.70348936926E+03  0.28891075326E+03 -0.77573840376E+03  0.10863410087E+04  0.00000000000E+00 0.  1.
<mgrwt>
<rscale>  0 0.15265188E+04</rscale>
<asrwt>0</asrwt>
<pdfrwt beam="1">  1        2 0.29113152E+00 0.15265188E+04</pdfrwt>
<pdfrwt beam="2">  1       -2 0.47361820E-01 0.15265188E+04</pdfrwt>
<totfact> 0.31243131E+01</totfact>
</mgrwt>
</event>
<event>
 6    1  0.2003386E-005  0.2691417E+04  0.7818608E-02  0.8337795E-01
         -2   -1    0    0    0  501 -0.00000000000E+00  0.00000000000E+00  0.62364167388E+03  0.62364167388E+03  0.00000000000E+00 0.  1.
          2   -1    0    0  501    0  0.00000000000E+00 -0.00000000000E+00 -0.29038012432E+04  0.29038012432E+04  0.00000000000E+00 0. -1.
         23    2    1    2    0    0 -0.84972102656E+03  0.47033171757E+03  0.76769904225E+02  0.97825593085E+03  0.88618849666E+02 0.  0.
         13    1    3    3    0    0 -0.70540938257E+03  0.38711153427E+03  0.29911052311E+02  0.80520333335E+03  0.00000000000E+00 0. -1.
        -13    1    3    3    0    0 -0.14431164399E+03  0.83220183304E+02  0.46858851914E+02  0.17305259751E+03  0.00000000000E+00 0.  1.
         22    1    1    2    0    0  0.84972102656E+03 -0.47033171757E+03 -0.23569294736E+04  0.25491869863E+04  0.00000000000E+00 0. -1.
<mgrwt>
<rscale>  0 0.26914171E+04</rscale>
<asrwt>0</asrwt>
<pdfrwt beam="1">  1        2 0.44673864E+00 0.26914171E+04</pdfrwt>
<pdfrwt beam="2">  1       -2 0.95944875E-01 0.26914171E+04</pdfrwt>
<totfact> 0.15970779E+00</totfact>
</mgrwt>
</event>
<event>
 6    1  0.2003386E-005  0.2439196E+04  0.7818608E-02  0.8424973E-01
          2   -1    0    0  501    0  0.00000000000E+00  0.00000000000E+00  0.94568691531E+03  0.94568691531E+03  0.00000000000E+00 0. -1.
         -2   -1    0    0    0  501 -0.00000000000E+00 -0.00000000000E+00 -0.15728448957E+04  0.15728448957E+04  0.00000000000E+00 0.  1.
         23    2    1    2    0    0  0.10797113252E+04 -0.34445559015E+03 -0.77407923936E+03  0.13757229663E+04  0.94809344715E+02 0.  0.
         13    1    3    3    0    0  0.10479114485E+04 -0.33648813255E+03 -0.72963478869E+03  0.13204959644E+04  0.00000000000E+00 0. -1.
        -13    1    3    3    0    0  0.31799876700E+02 -0.79674575972E+01 -0.44444450667E+02  0.55227001854E+02  0.00000000000E+00 0.  1.
         22    1    1    2    0    0 -0.10797113252E+04  0.34445559015E+03  0.14692125897E+03  0.11428088447E+04  0.00000000000E+00 0. -1.
<mgrwt>
<rscale>  0 0.24391956E+04</rscale>
<asrwt>0</asrwt>
<pdfrwt beam="1">  1        2 0.14549029E+00 0.24391956E+04</pdfrwt>
<pdfrwt beam="2">  1       -2 0.24197614E+00 0.24391956E+04</pdfrwt>
<totfact> 0.17638483E+00</totfact>
</mgrwt>
</event>
<event>
 6    1  0.2003386E-005  0.1742738E+04  0.7818608E-02  0.8737358E-01
          1   -1    0    0  501    0  0.00000000000E+00  0.00000000000E+00  0.12951807236E+04  0.12951807236E+04  0.00000000000E+00 0. -1.
         -1   -1    0    0    0  501 -0.00000000000E+00 -0.00000000000E+00 -0.58623782801E+03  0.58623782801E+03  0.00000000000E+00 0.  1.
         23    2    1    2    0    0 -0.41491160376E+02  0.77088644607E+03 -0.75015113913E+02  0.78115604212E+03  0.92682607319E+02 0.  0.
         11    1    3    3    0    0  0.73657290100E+01  0.31585356783E+03 -0.69407020159E+02  0.32347343743E+03  0.00000000000E+00 0. -1.
        -11    1    3    3    0    0 -0.48856889386E+02  0.45503287825E+03 -0.56080937534E+01  0.45768260470E+03  0.00000000000E+00 0.  1.
         22    1    1    2    0    0  0.41491160376E+02 -0.77088644607E+03  0.78395800949E+03  0.11002625095E+04  0.00000000000E+00 0. -1.
<mgrwt>
<rscale>  0 0.17427380E+04</rscale>
<asrwt>0</asrwt>
<pdfrwt beam="1">  1        1 0.19925857E+00 0.17427380E+04</pdfrwt>
<pdfrwt beam="2">  1       -1 0.90190435E-01 0.17427380E+04</pdfrwt>
<totfact> 0.10395113E+01</totfact>
</mgrwt>
</event>
<event>
 6    1  0.2003386E-005  0.1141946E+04  0.7818608E-02  0.9165246E-01
          3   -1    0    0  501    0  0.00000000000E+00  0.00000000000E+00  0.13488475032E+03  0.13488475032E+03  0.00000000000E+00 0. -1.
         -3   -1    0    0    0  501 -0.00000000000E+00 -0.00000000000E+00 -0.24169516720E+04  0.24169516720E+04  0.00000000000E+00 0.  1.
         23    2    1    2    0    0 -0.40800490136E+03  0.22413207764E+03 -0.42340591311E+03  0.63576650383E+03  0.90682370836E+02 0.  0.
         11    1    3    3    0    0 -0.68605640575E+02  0.53676344153E+02 -0.12696390423E+03  0.15397310421E+03  0.00000000000E+00 0. -1.
        -11    1    3    3    0    0 -0.33939926078E+03  0.17045573349E+03 -0.29644200887E+03  0.48179339963E+03  0.00000000000E+00 0.  1.
         22    1    1    2    0    0  0.40800490136E+03 -0.22413207764E+03 -0.18586610086E+04  0.19160699185E+04  0.00000000000E+00 0.  1.
<mgrwt>
<rscale>  0 0.11419456E+04</rscale>
<asrwt>0</asrwt>
<pdfrwt beam="1">  1        3 0.20751501E-01 0.11419456E+04</pdfrwt>
<pdfrwt beam="2">  1       -3 0.37183870E+00 0.11419456E+04</pdfrwt>
<totfact> 0.86084550E-01</totfact>
</mgrwt>
</event>
<event>
 6    1  0.2003386E-005  0.2643783E+04  0.7818608E-02  0.8353479E-01
         -2   -1    0    0    0  501 -0.00000000000E+00  0.00000000000E+00  0.84782302131E+03  0.84782302131E+03  0.00000000000E+00 0.  1.
          2   -1    0    0  501    0  0.00000000000E+00 -0.00000000000E+00 -0.20610406881E+04  0.20610406881E+04  0.00000000000E+00 0. -1.
         23    2    1    2    0    0  0.68105130947E+03 -0.66840066191E+03  0.39696316097E+03  0.10371605735E+04  0.86786940619E+02 0.  0.
         11    1    3    3    0    0  0.36590805396E+03 -0.40296142787E+03  0.19394606790E+03  0.57782496792E+03  0.00000000000E+00 0. -1.
        -11    1    3    3    0    0  0.31514325551E+03 -0.26543923404E+03  0.20301709306E+03  0.45933560556E+03  0.00000000000E+00 0.  1.
         22    1    1    2    0    0 -0.68105130947E+03  0.66840066191E+03 -0.16101808278E+04  0.18717031360E+04  0.00000000000E+00 0. -1.
<mgrwt>
<rscale>  0 0.26437835E+04</rscale>
<asrwt>0</asrwt>
<pdfrwt beam="1">  1        2 0.31708318E+00 0.26437835E+04</pdfrwt>
<pdfrwt beam="2">  1       -2 0.13043431E+00 0.26437835E+04</pdfrwt>
<totfact> 0.23448417E+00</totfact>
</mgrwt>
</event>
<event>
 6    1  0.2003386E-005  0.5178694E+03  0.7818608E-02  0.1009217E+00
         -2   -1    0    0    0  501 -0.00000000000E+00  0.00000000000E+00  0.27562851645E+03  0.27562851645E+03  0.00000000000E+00 0.  1.
          2   -1    0    0  501    0  0.00000000000E+00 -0.00000000000E+00 -0.24325192211E+03  0.24325192211E+03  0.00000000000E+00 0. -1.
         23    2    1    2    0    0 -0.13007476070E+03  0.47741481088E+02 -0.19268302044E+03  0.25458794416E+03  0.92138930725E+02 0.  0.
         11    1    3    3    0    0 -0.15201741992E+02 -0.24366890495E+02 -0.19946894103E+02  0.34967369022E+02  0.00000000000E+00 0. -1.
        -11    1    3    3    0    0 -0.11487301871E+03  0.72108371582E+02 -0.17273612634E+03  0.21962057514E+03  0.00000000000E+00 0.  1.
         22    1    1    2    0    0  0.13007476070E+03 -0.47741481088E+02  0.22505961478E+03  0.26429249440E+03  0.00000000000E+00 0.  1.
<mgrwt>
<rscale>  0 0.51786935E+03</rscale>
<asrwt>0</asrwt>
<pdfrwt beam="1">  1        2 0.37423373E-01 0.51786935E+03</pdfrwt>
<pdfrwt beam="2">  1       -2 0.42404387E-01 0.51786935E+03</pdfrwt>
<totfact> 0.73514131E+02</totfact>
</mgrwt>
</event>
<event>
 6    1  0.2003386E-005  0.2738340E+04  0.7818608E-02  0.8322671E-01
          2   -1    0    0  501    0  0.00000000000E+00  0.00000000000E+00  0.11817654299E+04  0.11817654299E+04  0.00000000000E+00 0. -1.
         -2   -1    0    0    0  501 -0.00000000000E+00 -0.00000000000E+00 -0.15862928959E+04  0.15862928959E+04  0.00000000000E+00 0.  1.
         23    2    1    2    0    0 -0.57001827554E+03 -0.12215185574E+04 -0.43604902751E+03  0.14197178534E+04  0.91823788573E+02 0.  0.
         13    1    3    3    0    0 -0.18316469374E+03 -0.34333612561E+03 -0.16400282336E+03  0.42228654519E+03  0.00000000000E+00 0.  1.
        -13    1    3    3    0    0 -0.38685358180E+03 -0.87818243183E+03 -0.27204620415E+03  0.99743130818E+03  0.00000000000E+00 0. -1.
         22    1    1    2    0    0  0.57001827554E+03  0.12215185574E+04  0.31521561508E+02  0.13483404724E+04  0.00000000000E+00 0.  1.
<mgrwt>
<rscale>  0 0.27383397E+04</rscale>
<asrwt>0</asrwt>
<pdfrwt beam="1">  1        2 0.18181007E+00 0.27383397E+04</pdfrwt>
<pdfrwt beam="2">  1       -2 0.24404506E+00 0.27383397E+04</pdfrwt>
<totfact> 0.11878862E+00</totfact>
</mgrwt>
</event>
<event>
 6    1  0.2003386E-005  0.1895328E+04  0.7818608E-02  0.8657185E-01
          2   -1    0    0  501    0  0.00000000000E+00  0.00000000000E+00  0.13308795166E+04  0.13308795166E+04  0.00000000000E+00 0.  1.
         -2   -1    0    0    0  501 -0.00000000000E+00 -0.00000000000E+00 -0.67479234995E+03  0.67479234995E+03  0.00000000000E+00 0. -1.
         23    2    1    2    0    0 -0.11615669319E+01 -0.50584832978E+03  0.11740387498E+04  0.12816844879E+04  0.92001404697E+02 0.  0.
         13    1    3    3    0    0  0.44604627583E+02 -0.26846977818E+03  0.64157442163E+03  0.69690984574E+03  0.00000000000E+00 0.  1.
        -13    1    3    3    0    0 -0.45766194515E+02 -0.23737855160E+03  0.53246432817E+03  0.58477464214E+03  0.00000000000E+00 0. -1.
         22    1    1    2    0    0  0.11615669319E+01  0.50584832978E+03 -0.51795158315E+03  0.72398737866E+03  0.00000000000E+00 0. -1.
<mgrwt>
<rscale>  0 0.18953283E+04</rscale>
<asrwt>0</asrwt>
<pdfrwt beam="1">  1        2 0.20475070E+00 0.18953283E+04</pdfrwt>
<pdfrwt beam="2">  1       -2 0.10381421E+00 0.18953283E+04</pdfrwt>
<totfact> 0.11227460E+01</totfact>
</mgrwt>
</event>
<event>
 6    1  0.2003386E-005  0.1507932E+04  0.7818608E-02  0.8879195E-01
          1   -1    0    0  501    0  0.00000000000E+00  0.00000000000E+00  0.46538423788E+03  0.46538423788E+03  0.00000000000E+00 0. -1.
         -1   -1    0    0    0  501 -0.00000000000E+00 -0.00000000000E+00 -0.12214953843E+04  0.12214953843E+04  0.00000000000E+00 0.  1.
         23    2    1    2    0    0 -0.42458641189E+03 -0.59976705375E+03 -0.55349100161E+03  0.92461387912E+03  0.92544025541E+02 0.  0.
         11    1    3    3    0    0 -0.17086276890E+03 -0.26299884712E+03 -0.29164935185E+03  0.42827774145E+03  0.00000000000E+00 0.  1.
        -11    1    3    3    0    0 -0.25372364299E+03 -0.33676820663E+03 -0.26184164976E+03  0.49633613767E+03  0.00000000000E+00 0. -1.
         22    1    1    2    0    0  0.42458641189E+03  0.59976705375E+03 -0.20262014479E+03  0.76226574303E+03  0.00000000000E+00 0. -1.
<mgrwt>
<rscale>  0 0.15079320E+04</rscale>
<asrwt>0</asrwt>
<pdfrwt beam="1">  1        1 0.71597575E-01 0.15079320E+04</pdfrwt>
<pdfrwt beam="2">  1       -1 0.18792237E+00 0.15079320E+04</pdfrwt>
<totfact> 0.86403501E+00</totfact>
</mgrwt>
</event>
<event>
 6    1  0.2003386E-005  0.1982449E+04  0.7818608E-02  0.8614871E-01
          2   -1    0    0  501    0  0.00000000000E+00  0.00000000000E+00  0.34161095816E+04  0.34161095816E+04  0.00000000000E+00 0. -1.
         -2   -1    0    0    0  501 -0.00000000000E+00 -0.00000000000E+00 -0.28761538361E+03  0.28761538361E+03  0.00000000000E+00 0.  1.
         23    2    1    2    0    0 -0.96589718531E+03 -0.74899654019E+02  0.19398040665E+04  0.21702480141E+04  0.92570490556E+02 0.  0.
         11    1    3    3    0    0 -0.68022118487E+03 -0.41606236232E+02  0.12697195109E+04  0.14410480823E+04  0.00000000000E+00 0. -1.
        -11    1    3    3    0    0 -0.28567600043E+03 -0.33293417787E+02  0.67008455560E+03  0.72919993181E+03  0.00000000000E+00 0.  1.
         22    1    1    2    0    0  0.96589718531E+03  0.74899654019E+02  0.11886901315E+04  0.15334769511E+04  0.00000000000E+00 0.  1.
<mgrwt>
<rscale>  0 0.19824487E+04</rscale>
<asrwt>0</asrwt>
<pdfrwt beam="1">  1        2 0.52555529E+00 0.19824487E+04</pdfrwt>
<pdfrwt beam="2">  1       -2 0.44248523E-01 0.19824487E+04</pdfrwt>
<totfact> 0.42103501E+00</totfact>
</mgrwt>
</event>
<event>
 6    1  0.2003386E-005  0.5707974E+04  0.7818608E-02  0.7727703E-01
          2   -1    0    0  501    0  0.00000000000E+00  0.00000000000E+00  0.38842001463E+04  0.38842001463E+04  0.00000000000E+00 0. -1.
         -2   -1    0    0    0  501 -0.00000000000E+00 -0.00000000000E+00 -0.20970187109E+04  0.20970187109E+04  0.00000000000E+00 0.  1.
         23    2    1    2    0    0 -0.19577816672E+04 -0.17363339800E+04  0.20859097609E+04  0.33473996989E+04  0.79375483019E+02 0.  0.
         13    1    3    3    0    0 -0.12632758442E+04 -0.11337427285E+04  0.13994688710E+04  0.21999435342E+04  0.00000000000E+00 0. -1.
        -13    1    3    3    0    0 -0.69450582296E+03 -0.60259125150E+03  0.68644088986E+03  0.11474561647E+04  0.00000000000E+00 0.  1.
         22    1    1    2    0    0  0.19577816672E+04  0.17363339800E+04 -0.29872832551E+03  0.26338191583E+04  0.00000000000E+00 0.  1.
<mgrwt>
<rscale>  0 0.57079735E+04</rscale>
<asrwt>0</asrwt>
<pdfrwt beam="1">  1        2 0.59756925E+00 0.57079735E+04</pdfrwt>
<pdfrwt beam="2">  1       -2 0.32261826E+00 0.57079735E+04</pdfrwt>
<totfact> 0.66875740E-03</totfact>
</mgrwt>
</event>
<event>
 6    1  0.2003386E-005  0.1366552E+04  0.7818608E-02  0.8978392E-01
          2   -1    0    0  501    0  0.00000000000E+00  0.00000000000E+00  0.21481816090E+04  0.21481816090E+04  0.00000000000E+00 0. -1.
         -2   -1    0    0    0  501 -0.00000000000E+00 -0.00000000000E+00 -0.21733089872E+03  0.21733089872E+03  0.00000000000E+00 0.  1.
         23    2    1    2    0    0  0.37143506861E+03  0.22613134049E+03  0.64878041242E+02  0.44953928376E+03  0.93685719608E+02 0.  0.
         13    1    3    3    0    0  0.34296023794E+03  0.23375094626E+03  0.56334098912E+02  0.41884932898E+03  0.00000000000E+00 0.  1.
        -13    1    3    3    0    0  0.28474830670E+02 -0.76196057674E+01  0.85439423296E+01  0.30689954778E+02  0.00000000000E+00 0. -1.
         22    1    1    2    0    0 -0.37143506861E+03 -0.22613134049E+03  0.18659726690E+04  0.19159732239E+04  0.00000000000E+00 0. -1.
<mgrwt>
<rscale>  0 0.13665522E+04</rscale>
<asrwt>0</asrwt>
<pdfrwt beam="1">  1        2 0.33048947E+00 0.13665522E+04</pdfrwt>
<pdfrwt beam="2">  1       -2 0.33435524E-01 0.13665522E+04</pdfrwt>
<totfact> 0.45098931E+01</totfact>
</mgrwt>
</event>
<event>
 6    1  0.2003386E-005  0.4107852E+04  0.7818608E-02  0.7983136E-01
          2   -1    0    0  501    0  0.00000000000E+00  0.00000000000E+00  0.21563380652E+04  0.21563380652E+04  0.00000000000E+00 0. -1.
         -2   -1    0    0    0  501 -0.00000000000E+00 -0.00000000000E+00 -0.19563780619E+04  0.19563780619E+04  0.00000000000E+00 0.  1.
         23    2    1    2    0    0  0.12420929436E+04  0.84320421176E+03  0.15019236391E+04  0.21255328108E+04  0.91251789503E+02 0.  0.
         11    1    3    3    0    0  0.59202824902E+03  0.44178652199E+03  0.78284731461E+03  0.10763469221E+04  0.00000000000E+00 0.  1.
        -11    1    3    3    0    0  0.65006469460E+03  0.40141768976E+03  0.71907632445E+03  0.10491858888E+04  0.00000000000E+00 0. -1.
         22    1    1    2    0    0 -0.12420929436E+04 -0.84320421176E+03 -0.13019636358E+04  0.19871833162E+04  0.00000000000E+00 0.  1.
<mgrwt>
<rscale>  0 0.41078522E+04</rscale>
<asrwt>0</asrwt>
<pdfrwt beam="1">  1        2 0.33174432E+00 0.41078522E+04</pdfrwt>
<pdfrwt beam="2">  1       -2 0.30098124E+00 0.41078522E+04</pdfrwt>
<totfact> 0.13395470E-01</totfact>
</mgrwt>
</event>
<event>
 6    1  0.2003386E-005  0.2616580E+04  0.7818608E-02  0.8362591E-01
         -1   -1    0    0    0  501 -0.00000000000E+00  0.00000000000E+00  0.22006097693E+04  0.22006097693E+04  0.00000000000E+00 0.  1.
          1   -1    0    0  501    0  0.00000000000E+00 -0.00000000000E+00 -0.77779460186E+03  0.77779460186E+03  0.00000000000E+00 0. -1.
         23    2    1    2    0    0  0.28684860154E+03 -0.11236052252E+04  0.13976715544E+04  0.18184892779E+04  0.92987405443E+02 0.  0.
         11    1    3    3    0    0  0.92716203582E+02 -0.21632240251E+03  0.26971333959E+03  0.35796223514E+03  0.00000000000E+00 0. -1.
        -11    1    3    3    0    0  0.19413239796E+03 -0.90728282267E+03  0.11279582148E+04  0.14605270427E+04  0.00000000000E+00 0.  1.
         22    1    1    2    0    0 -0.28684860154E+03  0.11236052252E+04  0.25143613031E+02  0.11599150932E+04  0.00000000000E+00 0. -1.
<mgrwt>
<rscale>  0 0.26165798E+04</rscale>
<asrwt>0</asrwt>
<pdfrwt beam="1">  1        1 0.11966071E+00 0.26165798E+04</pdfrwt>
<pdfrwt beam="2">  1       -1 0.33855535E+00 0.26165798E+04</pdfrwt>
<totfact> 0.37622507E-01</totfact>
</mgrwt>
</event>
<event>
 6    1  0.2003386E-005  0.2579232E+04  0.7818608E-02  0.8375290E-01
          2   -1    0    0  501    0  0.00000000000E+00  0.00000000000E+00  0.14574999779E+04  0.14574999779E+04  0.00000000000E+00 0.  1.
         -2   -1    0    0    0  501 -0.00000000000E+00 -0.00000000000E+00 -0.11410695526E+04  0.11410695526E+04  0.00000000000E+00 0. -1.
         23    2    1    2    0    0  0.92960958845E+03 -0.87434739132E+03 -0.18336047362E+02  0.12792037970E+04  0.85841690670E+02 0.  0.
         11    1    3    3    0    0  0.76864137980E+03 -0.72837869801E+03  0.16892074303E+02  0.10590705551E+04  0.00000000000E+00 0.  1.
        -11    1    3    3    0    0  0.16096820865E+03 -0.14596869331E+03 -0.35228121665E+02  0.22013324188E+03  0.00000000000E+00 0. -1.
         22    1    1    2    0    0 -0.92960958845E+03  0.87434739132E+03  0.33476647262E+03  0.13193657335E+04  0.00000000000E+00 0.  1.
<mgrwt>
<rscale>  0 0.25792316E+04</rscale>
<asrwt>0</asrwt>
<pdfrwt beam="1">  1        2 0.22423077E+00 0.25792316E+04</pdfrwt>
<pdfrwt beam="2">  1       -2 0.17554916E+00 0.25792316E+04</pdfrwt>
<totfact> 0.23156354E+00</totfact>
</mgrwt>
</event>
<event>
 6    1  0.2003386E-005  0.2306405E+04  0.7818608E-02  0.8475400E-01
         -2   -1    0    0    0  501 -0.00000000000E+00  0.00000000000E+00  0.66759573837E+03  0.66759573837E+03  0.00000000000E+00 0. -1.
          2   -1    0    0  501    0  0.00000000000E+00 -0.00000000000E+00 -0.19920380877E+04  0.19920380877E+04  0.00000000000E+00 0.  1.
         23    2    1    2    0    0 -0.90829017301E+02 -0.92775575095E+03  0.11601438455E+03  0.94385521390E+03  0.91775179541E+02 0.  0.
         11    1    3    3    0    0  0.18613627673E+02 -0.16973097816E+03  0.16864151263E+02  0.17157934514E+03  0.00000000000E+00 0.  1.
        -11    1    3    3    0    0 -0.10944264497E+03 -0.75802477279E+03  0.99150233284E+02  0.77227586876E+03  0.00000000000E+00 0. -1.
         22    1    1    2    0    0  0.90829017301E+02  0.92775575095E+03 -0.14404567338E+04  0.17157786121E+04  0.00000000000E+00 0.  1.
<mgrwt>
<rscale>  0 0.23064051E+04</rscale>
<asrwt>0</asrwt>
<pdfrwt beam="1">  1        2 0.30646739E+00 0.23064051E+04</pdfrwt>
<pdfrwt beam="2">  1       -2 0.10270704E+00 0.23064051E+04</pdfrwt>
<totfact> 0.47400495E+00</totfact>
</mgrwt>
</event>
<event>
 6    1  0.2003386E-005  0.4890841E+04  0.7818608E-02  0.7845570E-01
          2   -1    0    0  501    0  0.00000000000E+00  0.00000000000E+00  0.28267632456E+04  0.28267632456E+04  0.00000000000E+00 0. -1.
         -2   -1    0    0    0  501 -0.00000000000E+00 -0.00000000000E+00 -0.21155228932E+04  0.21155228932E+04  0.00000000000E+00 0.  1.
         23    2    1    2    0    0  0.16244894531E+04  0.13362585768E+04 -0.90292629145E+03  0.22908550305E+04  0.90487103680E+02 0.  0.
         13    1    3    3    0    0  0.22446325027E+03  0.22149819277E+03 -0.11884505733E+03  0.33700051598E+03  0.00000000000E+00 0. -1.
        -13    1    3    3    0    0  0.14000262028E+04  0.11147603840E+04 -0.78408123412E+03  0.19538545146E+04  0.00000000000E+00 0.  1.
         22    1    1    2    0    0 -0.16244894531E+04 -0.13362585768E+04  0.16141666439E+04  0.26514311082E+04  0.00000000000E+00 0. -1.
<mgrwt>
<rscale>  0 0.48908414E+04</rscale>
<asrwt>0</asrwt>
<pdfrwt beam="1">  1        2 0.43488665E+00 0.48908414E+04</pdfrwt>
<pdfrwt beam="2">  1       -2 0.32546506E+00 0.48908414E+04</pdfrwt>
<totfact> 0.36223918E-02</totfact>
</mgrwt>
</event>
<event>
 6    1  0.2003386E-005  0.3194932E+04  0.7818608E-02  0.8190157E-01
          1   -1    0    0  501    0  0.00000000000E+00  0.00000000000E+00  0.23798153378E+04  0.23798153378E+04  0.00000000000E+00 0. -1.
         -1   -1    0    0    0  501 -0.00000000000E+00 -0.00000000000E+00 -0.10723090661E+04  0.10723090661E+04  0.00000000000E+00 0.  1.
         23    2    1    2    0    0  0.55644012402E+02 -0.92136029864E+03  0.20605355622E+04  0.22608838034E+04  0.11742109459E+03 0.  0.
         11    1    3    3    0    0 -0.16594033679E+02 -0.32138873121E+03  0.61484765927E+03  0.69397674501E+03  0.00000000000E+00 0.  1.
        -11    1    3    3    0    0  0.72238046081E+02 -0.59997156743E+03  0.14456879029E+04  0.15669070584E+04  0.00000000000E+00 0. -1.
         22    1    1    2    0    0 -0.55644012402E+02  0.92136029864E+03 -0.75302929042E+03  0.11912406005E+04  0.00000000000E+00 0.  1.
<mgrwt>
<rscale>  0 0.31949320E+04</rscale>
<asrwt>0</asrwt>
<pdfrwt beam="1">  1        1 0.36612544E+00 0.31949320E+04</pdfrwt>
<pdfrwt beam="2">  1       -1 0.16497063E+00 0.31949320E+04</pdfrwt>
<totfact> 0.36806157E-01</totfact>
</mgrwt>
</event>
<event>
 6    1  0.2003386E-005  0.1609036E+04  0.7818608E-02  0.8815016E-01
          2   -1    0    0  501    0  0.00000000000E+00  0.00000000000E+00  0.47416724846E+03  0.47416724846E+03  0.00000000000E+00 0. -1.
         -2   -1    0    0    0  501 -0.00000000000E+00 -0.00000000000E+00 -0.13650236209E+04  0.13650236209E+04  0.00000000000E+00 0.  1.
         23    2    1    2    0    0 -0.68269763618E+03 -0.38302192579E+03 -0.64573904760E+03  0.10189077713E+04  0.91718431602E+02 0.  0.
         13    1    3    3    0    0 -0.25195976431E+03 -0.19287037129E+03 -0.25736460038E+03  0.40855751184E+03  0.00000000000E+00 0. -1.
        -13    1    3    3    0    0 -0.43073787188E+03 -0.19015155450E+03 -0.38837444722E+03  0.61035025944E+03  0.00000000000E+00 0.  1.
         22    1    1    2    0    0  0.68269763618E+03  0.38302192579E+03 -0.24511732488E+03  0.82028309811E+03  0.00000000000E+00 0. -1.
<mgrwt>
<rscale>  0 0.16090364E+04</rscale>
<asrwt>0</asrwt>
<pdfrwt beam="1">  1        2 0.72948809E-01 0.16090364E+04</pdfrwt>
<pdfrwt beam="2">  1       -2 0.21000363E+00 0.16090364E+04</pdfrwt>
<totfact> 0.71793367E+00</totfact>
</mgrwt>
</event>
<event>
 6    1  0.2003386E-005  0.1991718E+04  0.7818608E-02  0.8610503E-01
          1   -1    0    0  501    0  0.00000000000E+00  0.00000000000E+00  0.13205007895E+04  0.13205007895E+04  0.00000000000E+00 0. -1.
         -1   -1    0    0    0  501 -0.00000000000E+00 -0.00000000000E+00 -0.75102934468E+03  0.75102934468E+03  0.00000000000E+00 0.  1.
         23    2    1    2    0    0 -0.97663914098E+03 -0.18327807464E+03  0.26997136133E+03  0.10336885450E+04  0.90623439294E+02 0.  0.
         13    1    3    3    0    0 -0.25236169658E+03 -0.27806926960E+02  0.10512417804E+03  0.27479218311E+03  0.00000000000E+00 0.  1.
        -13    1    3    3    0    0 -0.72427744440E+03 -0.15547114768E+03  0.16484718329E+03  0.75889636187E+03  0.00000000000E+00 0. -1.
         22    1    1    2    0    0  0.97663914098E+03  0.18327807464E+03  0.29950008353E+03  0.10378415892E+04  0.00000000000E+00 0.  1.
<mgrwt>
<rscale>  0 0.19917177E+04</rscale>
<asrwt>0</asrwt>
<pdfrwt beam="1">  1        1 0.20315397E+00 0.19917177E+04</pdfrwt>
<pdfrwt beam="2">  1       -1 0.11554298E+00 0.19917177E+04</pdfrwt>
<totfact> 0.55102446E+00</totfact>
</mgrwt>
</event>
<event>
 6    1  0.2003386E-005  0.2649551E+04  0.7818608E-02  0.8351562E-01
         -2   -1    0    0    0  501 -0.00000000000E+00  0.00000000000E+00  0.11217359186E+04  0.11217359186E+04  0.00000000000E+00 0. -1.
          2   -1    0    0  501    0  0.00000000000E+00 -0.00000000000E+00 -0.15645666458E+04  0.15645666458E+04  0.00000000000E+00 0.  1.
         23    2    1    2    0    0  0.33539043297E+03  0.11826223702E+04 -0.71807623701E+03  0.14266031940E+04  0.92091139340E+02 0.  0.
         13    1    3    3    0    0  0.29072534068E+03  0.90498151567E+03 -0.57749437231E+03  0.11122106444E+04  0.00000000000E+00 0. -1.
        -13    1    3    3    0    0  0.44665092283E+02  0.27764085455E+03 -0.14058186470E+03  0.31439254964E+03  0.00000000000E+00 0.  1.
         22    1    1    2    0    0 -0.33539043297E+03 -0.11826223702E+04  0.27524550988E+03  0.12596993704E+04  0.00000000000E+00 0.  1.
<mgrwt>
<rscale>  0 0.26495514E+04</rscale>
<asrwt>0</asrwt>
<pdfrwt beam="1">  1        2 0.24070256E+00 0.26495514E+04</pdfrwt>
<pdfrwt beam="2">  1       -2 0.17257476E+00 0.26495514E+04</pdfrwt>
<totfact> 0.21020315E+00</totfact>
</mgrwt>
</event>
<event>
 6    1  0.2003386E-005  0.3683904E+04  0.7818608E-02  0.8071538E-01
         -2   -1    0    0    0  501 -0.00000000000E+00  0.00000000000E+00  0.15646390233E+04  0.15646390233E+04  0.00000000000E+00 0.  1.
          2   -1    0    0  501    0  0.00000000000E+00 -0.00000000000E+00 -0.21684158184E+04  0.21684158184E+04  0.00000000000E+00 0. -1.
         23    2    1    2    0    0 -0.12196615041E+04  0.40426803105E+03  0.10338990260E+04  0.16514715693E+04  0.86048374492E+02 0.  0.
         11    1    3    3    0    0 -0.72107939795E+03  0.20844327872E+03  0.56344450797E+03  0.93854877985E+03  0.00000000000E+00 0. -1.
        -11    1    3    3    0    0 -0.49858210614E+03  0.19582475232E+03  0.47045451799E+03  0.71292278942E+03  0.00000000000E+00 0.  1.
         22    1    1    2    0    0  0.12196615041E+04 -0.40426803105E+03 -0.16376758210E+04  0.20815832724E+04  0.00000000000E+00 0. -1.
<mgrwt>
<rscale>  0 0.36839045E+04</rscale>
<asrwt>0</asrwt>
<pdfrwt beam="1">  1        2 0.33360243E+00 0.36839045E+04</pdfrwt>
<pdfrwt beam="2">  1       -2 0.24071370E+00 0.36839045E+04</pdfrwt>
<totfact> 0.31930741E-01</totfact>
</mgrwt>
</event>
<event>
 6    1  0.2003386E-005  0.4176144E+04  0.7818608E-02  0.7969926E-01
         -2   -1    0    0    0  501 -0.00000000000E+00  0.00000000000E+00  0.16534978209E+04  0.16534978209E+04  0.00000000000E+00 0.  1.
          2   -1    0    0  501    0  0.00000000000E+00 -0.00000000000E+00 -0.26368615288E+04  0.26368615288E+04  0.00000000000E+00 0. -1.
         23    2    1    2    0    0 -0.73273112810E+03  0.16205847706E+04  0.63013129138E+03  0.18889939011E+04  0.89680595225E+02 0.  0.
         11    1    3    3    0    0 -0.40595763502E+03  0.90075019660E+03  0.39721323364E+03  0.10648619024E+04  0.00000000000E+00 0. -1.
        -11    1    3    3    0    0 -0.32677349308E+03  0.71983457401E+03  0.23291805774E+03  0.82413199874E+03  0.00000000000E+00 0.  1.
         22    1    1    2    0    0  0.73273112810E+03 -0.16205847706E+04 -0.16134949993E+04  0.24013654486E+04  0.00000000000E+00 0. -1.
<mgrwt>
<rscale>  0 0.41761441E+04</rscale>
<asrwt>0</asrwt>
<pdfrwt beam="1">  1        2 0.40567100E+00 0.41761441E+04</pdfrwt>
<pdfrwt beam="2">  1       -2 0.25438428E+00 0.41761441E+04</pdfrwt>
<totfact> 0.13596556E-01</totfact>
</mgrwt>
</event>
<event>
 6    1  0.2003386E-005  0.1011230E+04  0.7818608E-02  0.9296313E-01
         -1   -1    0    0    0  501 -0.00000000000E+00  0.00000000000E+00  0.48693930598E+03  0.48693930598E+03  0.00000000000E+00 0.  1.
          1   -1    0    0  501    0  0.00000000000E+00 -0.00000000000E+00 -0.52500718703E+03  0.52500718703E+03  0.00000000000E+00 0. -1.
         23    2    1    2    0    0 -0.28102213046E+03  0.32830291317E+03 -0.27407783624E+03  0.51954732613E+03  0.89746995314E+02 0.  0.
         11    1    3    3    0    0 -0.16078025521E+03  0.23765096802E+03 -0.14639903682E+03  0.32211946704E+03  0.00000000000E+00 0. -1.
        -11    1    3    3    0    0 -0.12024187525E+03  0.90651945151E+02 -0.12767879942E+03  0.19742785909E+03  0.00000000000E+00 0.  1.
         22    1    1    2    0    0  0.28102213046E+03 -0.32830291317E+03  0.23600995519E+03  0.49239916689E+03  0.00000000000E+00 0.  1.
<mgrwt>
<rscale>  0 0.10112302E+04</rscale>
<asrwt>0</asrwt>
<pdfrwt beam="1">  1        1 0.80770336E-01 0.10112302E+04</pdfrwt>
<pdfrwt beam="2">  1       -1 0.74913740E-01 0.10112302E+04</pdfrwt>
<totfact> 0.74407870E+01</totfact>
</mgrwt>
</event>
<event>
 6    1  0.2003386E-005  0.2495707E+04  0.7818608E-02  0.8404517E-01
         -2   -1    0    0    0  501 -0.00000000000E+00  0.00000000000E+00  0.16217045379E+04  0.16217045379E+04  0.00000000000E+00 0.  1.
          2   -1    0    0  501    0  0.00000000000E+00 -0.00000000000E+00 -0.96018584969E+03  0.96018584969E+03  0.00000000000E+00 0. -1.
         23    2    1    2    0    0 -0.31944968473E+03  0.33339157661E+03  0.15285892313E+04  0.15995414827E+04  0.93540753528E+02 0.  0.
         11    1    3    3    0    0 -0.23688882184E+02  0.45976187016E+02  0.27607227403E+03  0.28087519186E+03  0.00000000000E+00 0. -1.
        -11    1    3    3    0    0 -0.29576080255E+03  0.28741538959E+03  0.12525169572E+04  0.13186662909E+04  0.00000000000E+00 0.  1.
         22    1    1    2    0    0  0.31944968473E+03 -0.33339157661E+03 -0.86707054301E+03  0.98234890491E+03  0.00000000000E+00 0. -1.
<mgrwt>
<rscale>  0 0.24957065E+04</rscale>
<asrwt>0</asrwt>
<pdfrwt beam="1">  1        2 0.14772090E+00 0.24957065E+04</pdfrwt>
<pdfrwt beam="2">  1       -2 0.24949301E+00 0.24957065E+04</pdfrwt>
<totfact> 0.15436465E+00</totfact>
</mgrwt>
</event>
<event>
 6    1  0.2003386E-005  0.5127293E+04  0.7818608E-02  0.7809166E-01
          2   -1    0    0  501    0  0.00000000000E+00  0.00000000000E+00  0.34464960613E+04  0.34464960613E+04  0.00000000000E+00 0. -1.
         -2   -1    0    0    0  501 -0.00000000000E+00 -0.00000000000E+00 -0.19069461515E+04  0.19069461515E+04  0.00000000000E+00 0.  1.
         23    2    1    2    0    0  0.98921255055E+03  0.20299572227E+03  0.32294133245E+04  0.33848419249E+04  0.91080744844E+02 0.  0.
         13    1    3    3    0    0  0.18740761869E+03  0.75451304530E+02  0.65043160102E+03  0.68108426976E+03  0.00000000000E+00 0. -1.
        -13    1    3    3    0    0  0.80180493186E+03  0.12754441774E+03  0.25789817235E+04  0.27037576551E+04  0.00000000000E+00 0.  1.
         22    1    1    2    0    0 -0.98921255055E+03 -0.20299572227E+03 -0.16898634147E+04  0.19686002880E+04  0.00000000000E+00 0.  1.
<mgrwt>
<rscale>  0 0.51272926E+04</rscale>
<asrwt>0</asrwt>
<pdfrwt beam="1">  1        2 0.53023016E+00 0.51272926E+04</pdfrwt>
<pdfrwt beam="2">  1       -2 0.29337633E+00 0.51272926E+04</pdfrwt>
<totfact> 0.22234592E-02</totfact>
</mgrwt>
</event>
<event>
 6    1  0.2003386E-005  0.2718228E+04  0.7818608E-02  0.8329115E-01
         -2   -1    0    0    0  501 -0.00000000000E+00  0.00000000000E+00  0.13579527001E+04  0.13579527001E+04  0.00000000000E+00 0.  1.
          2   -1    0    0  501    0  0.00000000000E+00 -0.00000000000E+00 -0.13602758751E+04  0.13602758751E+04  0.00000000000E+00 0. -1.
         23    2    1    2    0    0 -0.81587020192E+03  0.47233597630E+03  0.97576242809E+03  0.13597747085E+04  0.90163634296E+02 0.  0.
         11    1    3    3    0    0 -0.62887330796E+03  0.40498226257E+03  0.75714189394E+03  0.10643101606E+04  0.00000000000E+00 0. -1.
        -11    1    3    3    0    0 -0.18699689395E+03  0.67353713734E+02  0.21862053415E+03  0.29546454788E+03  0.00000000000E+00 0.  1.
         22    1    1    2    0    0  0.81587020192E+03 -0.47233597630E+03 -0.97808560307E+03  0.13584538667E+04  0.00000000000E+00 0. -1.
<mgrwt>
<rscale>  0 0.27182276E+04</rscale>
<asrwt>0</asrwt>
<pdfrwt beam="1">  1        2 0.20927321E+00 0.27182276E+04</pdfrwt>
<pdfrwt beam="2">  1       -2 0.20891580E+00 0.27182276E+04</pdfrwt>
<totfact> 0.15548156E+00</totfact>
</mgrwt>
</event>
<event>
 6    1  0.5968105E-005  0.3294221E+04  0.7818608E-02  0.8164367E-01
          2   -1    0    0  501    0  0.00000000000E+00  0.00000000000E+00  0.17695994597E+04  0.17695994597E+04  0.00000000000E+00 0. -1.
         -2   -1    0    0    0  501 -0.00000000000E+00 -0.00000000000E+00 -0.15331003554E+04  0.15331003554E+04  0.00000000000E+00 0.  1.
         23    2    1    2    0    0 -0.13027393989E+03  0.12881013311E+04 -0.90032190155E+03  0.15797551446E+04  0.94183076053E+02 0.  0.
         11    1    3    3    0    0 -0.11835777394E+03  0.71254967102E+03 -0.49098652640E+03  0.87338614910E+03  0.00000000000E+00 0. -1.
        -11    1    3    3    0    0 -0.11916165945E+02  0.57555166005E+03 -0.40933537515E+03  0.70636899546E+03  0.00000000000E+00 0.  1.
         22    1    1    2    0    0  0.13027393989E+03 -0.12881013311E+04  0.11368210058E+04  0.17229446705E+04  0.00000000000E+00 0. -1.
<mgrwt>
<rscale>  0 0.32942213E+04</rscale>
<asrwt>0</asrwt>
<pdfrwt beam="1">  1        2 0.27224607E+00 0.32942213E+04</pdfrwt>
<pdfrwt beam="2">  1       -2 0.23586159E+00 0.32942213E+04</pdfrwt>
<totfact> 0.58915453E-01</totfact>
</mgrwt>
</event>
<event>
 6    1  0.2003386E-005  0.2156712E+04  0.7818608E-02  0.8536665E-01
          2   -1    0    0  501    0  0.00000000000E+00  0.00000000000E+00  0.93920014071E+03  0.93920014071E+03  0.00000000000E+00 0. -1.
         -2   -1    0    0    0  501 -0.00000000000E+00 -0.00000000000E+00 -0.12381301281E+04  0.12381301281E+04  0.00000000000E+00 0.  1.
         23    2    1    2    0    0  0.10021951932E+04 -0.19703126665E+03  0.19334899211E+03  0.10435070379E+04  0.91140441002E+02 0.  0.
         13    1    3    3    0    0  0.15690442520E+03 -0.38917330639E+02 -0.18951632452E+01  0.16166987634E+03  0.00000000000E+00 0. -1.
        -13    1    3    3    0    0  0.84529076801E+03 -0.15811393601E+03  0.19524415536E+03  0.88183716152E+03  0.00000000000E+00 0.  1.
         22    1    1    2    0    0 -0.10021951932E+04  0.19703126665E+03 -0.49227897945E+03  0.11338232309E+04  0.00000000000E+00 0.  1.
<mgrwt>
<rscale>  0 0.21567123E+04</rscale>
<asrwt>0</asrwt>
<pdfrwt beam="1">  1        2 0.14449233E+00 0.21567123E+04</pdfrwt>
<pdfrwt beam="2">  1       -2 0.19048156E+00 0.21567123E+04</pdfrwt>
<totfact> 0.38939120E+00</totfact>
</mgrwt>
</event>
<event>
 6    1  0.2003386E-005  0.1152169E+04  0.7818608E-02  0.9155785E-01
         -2   -1    0    0    0  501 -0.00000000000E+00  0.00000000000E+00  0.53010673777E+03  0.53010673777E+03  0.00000000000E+00 0.  1.
          2   -1    0    0  501    0  0.00000000000E+00 -0.00000000000E+00 -0.62604957453E+03  0.62604957453E+03  0.00000000000E+00 0. -1.
         23    2    1    2    0    0 -0.10822751808E+03  0.50134329832E+03 -0.30358950713E+03  0.60282509308E+03  0.90405782808E+02 0.  0.
         11    1    3    3    0    0 -0.11128764570E+03  0.35134908168E+03 -0.24045536976E+03  0.44005670331E+03  0.00000000000E+00 0.  1.
        -11    1    3    3    0    0  0.30601276130E+01  0.14999421664E+03 -0.63134137378E+02  0.16276838978E+03  0.00000000000E+00 0. -1.
         22    1    1    2    0    0  0.10822751808E+03 -0.50134329832E+03  0.20764667037E+03  0.55333121922E+03  0.00000000000E+00 0.  1.
<mgrwt>
<rscale>  0 0.11521686E+04</rscale>
<asrwt>0</asrwt>
<pdfrwt beam="1">  1        2 0.96315319E-01 0.11521686E+04</pdfrwt>
<pdfrwt beam="2">  1       -2 0.81554883E-01 0.11521686E+04</pdfrwt>
<totfact> 0.61723824E+01</totfact>
</mgrwt>
</event>
<event>
 6    1  0.2003386E-005  0.9535855E+03  0.7818608E-02  0.9360969E-01
         -1   -1    0    0    0  501 -0.00000000000E+00  0.00000000000E+00  0.19841129582E+03  0.19841129582E+03  0.00000000000E+00 0.  1.
          1   -1    0    0  501    0  0.00000000000E+00 -0.00000000000E+00 -0.11457580996E+04  0.11457580996E+04  0.00000000000E+00 0. -1.
         23    2    1    2    0    0  0.19345631049E+03  0.10615123650E+03 -0.10668109596E+04  0.10932408924E+04  0.91632943031E+02 0.  0.
         13    1    3    3    0    0  0.39632247326E+02  0.28708889721E+02 -0.10142740758E+03  0.11261631491E+03  0.00000000000E+00 0.  1.
        -13    1    3    3    0    0  0.15382406316E+03  0.77442346783E+02 -0.96538355203E+03  0.98062457751E+03  0.00000000000E+00 0. -1.
         22    1    1    2    0    0 -0.19345631049E+03 -0.10615123650E+03  0.11946415584E+03  0.25092850298E+03  0.00000000000E+00 0.  1.
<mgrwt>
<rscale>  0 0.95358555E+03</rscale>
<asrwt>0</asrwt>
<pdfrwt beam="1">  1        1 0.17627048E+00 0.95358555E+03</pdfrwt>
<pdfrwt beam="2">  1       -1 0.30524814E-01 0.95358555E+03</pdfrwt>
<totfact> 0.11641572E+02</totfact>
</mgrwt>
</event>
<event>
 6    1  0.2003386E-005  0.2581895E+04  0.7818608E-02  0.8374377E-01
         -2   -1    0    0    0  501 -0.00000000000E+00  0.00000000000E+00  0.13305976502E+04  0.13305976502E+04  0.00000000000E+00 0.  1.
          2   -1    0    0  501    0  0.00000000000E+00 -0.00000000000E+00 -0.12524792144E+04  0.12524792144E+04  0.00000000000E+00 0. -1.
         23    2    1    2    0    0  0.48369173774E+03  0.68499104751E+03 -0.94074942896E+03  0.12635079358E+04  0.90952643207E+02 0.  0.
         13    1    3    3    0    0  0.23280409831E+03  0.30385317095E+03 -0.49367648111E+03  0.62469269700E+03  0.00000000000E+00 0.  1.
        -13    1    3    3    0    0  0.25088763943E+03  0.38113787655E+03 -0.44707294785E+03  0.63881523875E+03  0.00000000000E+00 0. -1.
         22    1    1    2    0    0 -0.48369173774E+03 -0.68499104751E+03  0.10188678647E+04  0.13195689289E+04  0.00000000000E+00 0.  1.
<mgrwt>
<rscale>  0 0.25818954E+04</rscale>
<asrwt>0</asrwt>
<pdfrwt beam="1">  1        2 0.19268911E+00 0.25818954E+04</pdfrwt>
<pdfrwt beam="2">  1       -2 0.20470733E+00 0.25818954E+04</pdfrwt>
<totfact> 0.19349206E+00</totfact>
</mgrwt>
</event>
<event>
 6    1  0.2003386E-005  0.2035543E+04  0.7818608E-02  0.8590181E-01
         -2   -1    0    0    0  501 -0.00000000000E+00  0.00000000000E+00  0.28326089334E+03  0.28326089334E+03  0.00000000000E+00 0.  1.
          2   -1    0    0  501    0  0.00000000000E+00 -0.00000000000E+00 -0.36569055043E+04  0.36569055043E+04  0.00000000000E+00 0. -1.
         23    2    1    2    0    0  0.21236259294E+03  0.46087994286E+03 -0.33933846259E+04  0.34323299468E+04  0.91221994273E+02 0.  0.
         11    1    3    3    0    0  0.15784590775E+03  0.27230791615E+03 -0.23043141549E+04  0.23257107852E+04  0.00000000000E+00 0.  1.
        -11    1    3    3    0    0  0.54516685186E+02  0.18857202671E+03 -0.10890704710E+04  0.11066191617E+04  0.00000000000E+00 0. -1.
         22    1    1    2    0    0 -0.21236259294E+03 -0.46087994286E+03  0.19740014884E+02  0.50783645084E+03  0.00000000000E+00 0.  1.
<mgrwt>
<rscale>  0 0.20355425E+04</rscale>
<asrwt>0</asrwt>
<pdfrwt beam="1">  1        2 0.56260088E+00 0.20355425E+04</pdfrwt>
<pdfrwt beam="2">  1       -2 0.43578596E-01 0.20355425E+04</pdfrwt>
<totfact> 0.29232179E+00</totfact>
</mgrwt>
</event>
<event>
 6    1  0.2003386E-005  0.4087916E+04  0.7818608E-02  0.7987042E-01
         -2   -1    0    0    0  501 -0.00000000000E+00  0.00000000000E+00  0.18059422018E+04  0.18059422018E+04  0.00000000000E+00 0. -1.
          2   -1    0    0  501    0  0.00000000000E+00 -0.00000000000E+00 -0.23133427506E+04  0.23133427506E+04  0.00000000000E+00 0.  1.
         23    2    1    2    0    0 -0.16359742878E+04  0.10921436362E+04  0.30208148158E+03  0.19922093190E+04  0.91951926333E+02 0.  0.
         13    1    3    3    0    0 -0.11448882894E+04  0.81083023618E+03  0.23070083040E+03  0.14217727457E+04  0.00000000000E+00 0. -1.
        -13    1    3    3    0    0 -0.49108599841E+03  0.28131339998E+03  0.71380651181E+02  0.57043657334E+03  0.00000000000E+00 0.  1.
         22    1    1    2    0    0  0.16359742878E+04 -0.10921436362E+04 -0.80948203035E+03  0.21270756333E+04  0.00000000000E+00 0.  1.
<mgrwt>
<rscale>  0 0.40879155E+04</rscale>
<asrwt>0</asrwt>
<pdfrwt beam="1">  1        2 0.35589888E+00 0.40879155E+04</pdfrwt>
<pdfrwt beam="2">  1       -2 0.27783726E+00 0.40879155E+04</pdfrwt>
<totfact> 0.15150524E-01</totfact>
</mgrwt>
</event>
<event>
 6    1  0.2003386E-005  0.2951142E+04  0.7818608E-02  0.8257822E-01
          2   -1    0    0  501    0  0.00000000000E+00  0.00000000000E+00  0.17200737100E+04  0.17200737100E+04  0.00000000000E+00 0. -1.
         -2   -1    0    0    0  501 -0.00000000000E+00 -0.00000000000E+00 -0.12658231915E+04  0.12658231915E+04  0.00000000000E+00 0.  1.
         23    2    1    2    0    0  0.83607897958E+03  0.12140429084E+04  0.24884373570E+03  0.14975689168E+04  0.88663476489E+02 0.  0.
         13    1    3    3    0    0  0.25552145625E+03  0.34806548642E+03  0.34304988601E+02  0.43314850765E+03  0.00000000000E+00 0.  1.
        -13    1    3    3    0    0  0.58055752333E+03  0.86597742202E+03  0.21453874709E+03  0.10644204091E+04  0.00000000000E+00 0. -1.
         22    1    1    2    0    0 -0.83607897958E+03 -0.12140429084E+04  0.20540678287E+03  0.14883279847E+04  0.00000000000E+00 0. -1.
<mgrwt>
<rscale>  0 0.29511416E+04</rscale>
<asrwt>0</asrwt>
<pdfrwt beam="1">  1        2 0.26462672E+00 0.29511416E+04</pdfrwt>
<pdfrwt beam="2">  1       -2 0.19474203E+00 0.29511416E+04</pdfrwt>
<totfact> 0.11837513E+00</totfact>
</mgrwt>
</event>
<event>
 6    1  0.2003386E-005  0.1803372E+04  0.7818608E-02  0.8704509E-01
         -2   -1    0    0    0  501 -0.00000000000E+00  0.00000000000E+00  0.12685312894E+04  0.12685312894E+04  0.00000000000E+00 0.  1.
          2   -1    0    0  501    0  0.00000000000E+00 -0.00000000000E+00 -0.64092801068E+03  0.64092801068E+03  0.00000000000E+00 0. -1.
         23    2    1    2    0    0  0.62198300322E+03  0.58428448470E+03  0.92989512950E+01  0.85563224755E+03  0.61391018832E+02 0.  0.
         13    1    3    3    0    0  0.40334566988E+02  0.48991288638E+02  0.14690199389E+02  0.65136975787E+02  0.00000000000E+00 0.  1.
        -13    1    3    3    0    0  0.58164843624E+03  0.53529319606E+03 -0.53912480937E+01  0.79049527176E+03  0.00000000000E+00 0. -1.
         22    1    1    2    0    0 -0.62198300322E+03 -0.58428448470E+03  0.61830432743E+03  0.10538270525E+04  0.00000000000E+00 0.  1.
<mgrwt>
<rscale>  0 0.18033715E+04</rscale>
<asrwt>0</asrwt>
<pdfrwt beam="1">  1        2 0.98604310E-01 0.18033715E+04</pdfrwt>
<pdfrwt beam="2">  1       -2 0.19515866E+00 0.18033715E+04</pdfrwt>
<totfact> 0.61771403E+00</totfact>
</mgrwt>
</event>
<event>
 6    1  0.2003386E-005  0.5440257E+04  0.7818608E-02  0.7763964E-01
          2   -1    0    0  501    0  0.00000000000E+00  0.00000000000E+00  0.27181817646E+04  0.27181817646E+04  0.00000000000E+00 0. -1.
         -2   -1    0    0    0  501 -0.00000000000E+00 -0.00000000000E+00 -0.27220769007E+04  0.27220769007E+04  0.00000000000E+00 0.  1.
         23    2    1    2    0    0 -0.76488383826E+03  0.13558314436E+03  0.26040815019E+04  0.27190508051E+04  0.92556669500E+02 0.  0.
         11    1    3    3    0    0 -0.11714060888E+03  0.24276697160E+02  0.52970281062E+03  0.54304359664E+03  0.00000000000E+00 0. -1.
        -11    1    3    3    0    0 -0.64774322938E+03  0.11130644720E+03  0.20743786912E+04  0.21760072084E+04  0.00000000000E+00 0.  1.
         22    1    1    2    0    0  0.76488383826E+03 -0.13558314436E+03 -0.26079766379E+04  0.27212078603E+04  0.00000000000E+00 0.  1.
<mgrwt>
<rscale>  0 0.54402573E+04</rscale>
<asrwt>0</asrwt>
<pdfrwt beam="1">  1        2 0.41818181E+00 0.54402573E+04</pdfrwt>
<pdfrwt beam="2">  1       -2 0.41878106E+00 0.54402573E+04</pdfrwt>
<totfact> 0.10188669E-02</totfact>
</mgrwt>
</event>
<event>
 6    1  0.2003386E-005  0.2712743E+04  0.7818608E-02  0.8330882E-01
         -2   -1    0    0    0  501 -0.00000000000E+00  0.00000000000E+00  0.49151243198E+03  0.49151243198E+03  0.00000000000E+00 0.  1.
          2   -1    0    0  501    0  0.00000000000E+00 -0.00000000000E+00 -0.37430266005E+04  0.37430266005E+04  0.00000000000E+00 0. -1.
         23    2    1    2    0    0 -0.11775677921E+04  0.57293147263E+03 -0.10878686692E+04  0.17054525919E+04  0.10096496628E+03 0.  0.
         13    1    3    3    0    0 -0.53708253614E+03  0.23778056279E+03 -0.42882364376E+03  0.72724615098E+03  0.00000000000E+00 0.  1.
        -13    1    3    3    0    0 -0.64048525597E+03  0.33515090984E+03 -0.65904502547E+03  0.97820644093E+03  0.00000000000E+00 0. -1.
         22    1    1    2    0    0  0.11775677921E+04 -0.57293147263E+03 -0.21636454993E+04  0.25290864406E+04  0.00000000000E+00 0. -1.
<mgrwt>
<rscale>  0 0.27127433E+04</rscale>
<asrwt>0</asrwt>
<pdfrwt beam="1">  1        2 0.57585024E+00 0.27127433E+04</pdfrwt>
<pdfrwt beam="2">  1       -2 0.75617299E-01 0.27127433E+04</pdfrwt>
<totfact> 0.74560345E-01</totfact>
</mgrwt>
</event>
<event>
 6    1  0.2003386E-005  0.3350123E+04  0.7818608E-02  0.8150258E-01
         -1   -1    0    0    0  501 -0.00000000000E+00  0.00000000000E+00  0.26512735796E+04  0.26512735796E+04  0.00000000000E+00 0.  1.
          1   -1    0    0  501    0  0.00000000000E+00 -0.00000000000E+00 -0.10582953292E+04  0.10582953292E+04  0.00000000000E+00 0. -1.
         23    2    1    2    0    0  0.13433321055E+04  0.87725919631E+03  0.13252763819E+04  0.20829807208E+04  0.91248842928E+02 0.  0.
         11    1    3    3    0    0  0.69946551827E+03  0.41872476937E+03  0.71515467741E+03  0.10844485494E+04  0.00000000000E+00 0.  1.
        -11    1    3    3    0    0  0.64386658725E+03  0.45853442694E+03  0.61012170453E+03  0.99853217134E+03  0.00000000000E+00 0. -1.
         22    1    1    2    0    0 -0.13433321055E+04 -0.87725919631E+03  0.26770186844E+03  0.16265881881E+04  0.00000000000E+00 0. -1.
<mgrwt>
<rscale>  0 0.33501227E+04</rscale>
<asrwt>0</asrwt>
<pdfrwt beam="1">  1        1 0.16281467E+00 0.33501227E+04</pdfrwt>
<pdfrwt beam="2">  1       -1 0.40788824E+00 0.33501227E+04</pdfrwt>
<totfact> 0.71105051E-02</totfact>
</mgrwt>
</event>
<event>
 6    1  0.2003386E-005  0.1636031E+04  0.7818608E-02  0.8798714E-01
          2   -1    0    0  501    0  0.00000000000E+00  0.00000000000E+00  0.11325473623E+04  0.11325473623E+04  0.00000000000E+00 0. -1.
         -2   -1    0    0    0  501 -0.00000000000E+00 -0.00000000000E+00 -0.59083561654E+03  0.59083561654E+03  0.00000000000E+00 0.  1.
         23    2    1    2    0    0  0.77837688678E+03  0.12367652167E+03  0.49350110380E+03  0.93376868954E+03  0.84936247996E+02 0.  0.
         11    1    3    3    0    0  0.37148628728E+03  0.60009156445E+02  0.28571358601E+03  0.47247795052E+03  0.00000000000E+00 0. -1.
        -11    1    3    3    0    0  0.40689059951E+03  0.63667365221E+02  0.20778751779E+03  0.46129073902E+03  0.00000000000E+00 0.  1.
         22    1    1    2    0    0 -0.77837688678E+03 -0.12367652167E+03  0.48210641972E+02  0.78961428931E+03  0.00000000000E+00 0. -1.
<mgrwt>
<rscale>  0 0.16360310E+04</rscale>
<asrwt>0</asrwt>
<pdfrwt beam="1">  1        2 0.17423806E+00 0.16360310E+04</pdfrwt>
<pdfrwt beam="2">  1       -2 0.90897787E-01 0.16360310E+04</pdfrwt>
<totfact> 0.20553118E+01</totfact>
</mgrwt>
</event>
<event>
 6    1  0.2003386E-005  0.2286327E+04  0.7818608E-02  0.8483332E-01
         -2   -1    0    0    0  501 -0.00000000000E+00  0.00000000000E+00  0.78793876864E+03  0.78793876864E+03  0.00000000000E+00 0.  1.
          2   -1    0    0  501    0  0.00000000000E+00 -0.00000000000E+00 -0.16585340137E+04  0.16585340137E+04  0.00000000000E+00 0. -1.
         23    2    1    2    0    0  0.65443902530E+03 -0.24199860835E+03 -0.14027342959E+04  0.15689616806E+04  0.84400746639E+02 0.  0.
         13    1    3    3    0    0  0.20476936107E+03 -0.46357706206E+02 -0.36191765677E+03  0.41840640344E+03  0.00000000000E+00 0.  1.
        -13    1    3    3    0    0  0.44966966422E+03 -0.19564090214E+03 -0.10408166392E+04  0.11505552772E+04  0.00000000000E+00 0. -1.
         22    1    1    2    0    0 -0.65443902530E+03  0.24199860835E+03  0.53213905083E+03  0.87751110175E+03  0.00000000000E+00 0.  1.
<mgrwt>
<rscale>  0 0.22863274E+04</rscale>
<asrwt>0</asrwt>
<pdfrwt beam="1">  1        2 0.25515908E+00 0.22863274E+04</pdfrwt>
<pdfrwt beam="2">  1       -2 0.12122135E+00 0.22863274E+04</pdfrwt>
<totfact> 0.48611911E+00</totfact>
</mgrwt>
</event>
<event>
 6    1  0.2003386E-005  0.2997972E+04  0.7818608E-02  0.8244310E-01
          2   -1    0    0  501    0  0.00000000000E+00  0.00000000000E+00  0.13918815748E+04  0.13918815748E+04  0.00000000000E+00 0. -1.
         -2   -1    0    0    0  501 -0.00000000000E+00 -0.00000000000E+00 -0.16143325745E+04  0.16143325745E+04  0.00000000000E+00 0.  1.
         23    2    1    2    0    0 -0.28721727591E+03  0.15456089926E+03  0.13543651705E+04  0.13960178663E+04  0.90432476790E+02 0.  0.
         11    1    3    3    0    0 -0.21066856647E+03  0.10956204348E+03  0.79691253745E+03  0.83153753891E+03  0.00000000000E+00 0. -1.
        -11    1    3    3    0    0 -0.76548709433E+02  0.44998855777E+02  0.55745263302E+03  0.56448032738E+03  0.00000000000E+00 0.  1.
         22    1    1    2    0    0  0.28721727591E+03 -0.15456089926E+03 -0.15768161702E+04  0.16101962830E+04  0.00000000000E+00 0.  1.
<mgrwt>
<rscale>  0 0.29979725E+04</rscale>
<asrwt>0</asrwt>
<pdfrwt beam="1">  1        2 0.21413563E+00 0.29979725E+04</pdfrwt>
<pdfrwt beam="2">  1       -2 0.24835886E+00 0.29979725E+04</pdfrwt>
<totfact> 0.82369355E-01</totfact>
</mgrwt>
</event>
<event>
 6    1  0.2003386E-005  0.2159194E+04  0.7818608E-02  0.8535607E-01
         -2   -1    0    0    0  501 -0.00000000000E+00  0.00000000000E+00  0.43951292795E+03  0.43951292795E+03  0.00000000000E+00 0.  1.
          2   -1    0    0  501    0  0.00000000000E+00 -0.00000000000E+00 -0.26518674261E+04  0.26518674261E+04  0.00000000000E+00 0. -1.
         23    2    1    2    0    0  0.79869703757E+03 -0.55992007110E+03 -0.17636511030E+04  0.20177127236E+04  0.96291110648E+02 0.  0.
         11    1    3    3    0    0  0.43370328815E+03 -0.33129785268E+03 -0.89792313333E+03  0.10507724600E+04  0.00000000000E+00 0.  1.
        -11    1    3    3    0    0  0.36499374941E+03 -0.22862221842E+03 -0.86572796967E+03  0.96694026359E+03  0.00000000000E+00 0. -1.
         22    1    1    2    0    0 -0.79869703757E+03  0.55992007110E+03 -0.44870339512E+03  0.10736676304E+04  0.00000000000E+00 0.  1.
<mgrwt>
<rscale>  0 0.21591943E+04</rscale>
<asrwt>0</asrwt>
<pdfrwt beam="1">  1        2 0.40797961E+00 0.21591943E+04</pdfrwt>
<pdfrwt beam="2">  1       -2 0.67617373E-01 0.21591943E+04</pdfrwt>
<totfact> 0.52165405E+00</totfact>
</mgrwt>
</event>
<event>
 6    1  0.2003386E-005  0.1172987E+04  0.7818608E-02  0.9136835E-01
         -2   -1    0    0    0  501 -0.00000000000E+00  0.00000000000E+00  0.45323830005E+03  0.45323830005E+03  0.00000000000E+00 0.  1.
          2   -1    0    0  501    0  0.00000000000E+00 -0.00000000000E+00 -0.75892649421E+03  0.75892649421E+03  0.00000000000E+00 0. -1.
         23    2    1    2    0    0  0.40086487840E+03  0.34124272439E+03 -0.41306103741E+03  0.67488630488E+03  0.87822868318E+02 0.  0.
         11    1    3    3    0    0  0.31021242638E+03  0.22314875633E+03 -0.26582115665E+03  0.46549758781E+03  0.00000000000E+00 0. -1.
        -11    1    3    3    0    0  0.90652452018E+02  0.11809396806E+03 -0.14723988076E+03  0.20938871707E+03  0.00000000000E+00 0.  1.
         22    1    1    2    0    0 -0.40086487840E+03 -0.34124272439E+03  0.10737284325E+03  0.53727848938E+03  0.00000000000E+00 0.  1.
<mgrwt>
<rscale>  0 0.11729869E+04</rscale>
<asrwt>0</asrwt>
<pdfrwt beam="1">  1        2 0.11675792E+00 0.11729869E+04</pdfrwt>
<pdfrwt beam="2">  1       -2 0.69728970E-01 0.11729869E+04</pdfrwt>
<totfact> 0.68461562E+01</totfact>
</mgrwt>
</event>
<event>
 6    1  0.2003386E-005  0.1309274E+04  0.7818608E-02  0.9022243E-01
          2   -1    0    0  501    0  0.00000000000E+00  0.00000000000E+00  0.15323102055E+04  0.15323102055E+04  0.00000000000E+00 0. -1.
         -2   -1    0    0    0  501 -0.00000000000E+00 -0.00000000000E+00 -0.27967558058E+03  0.27967558058E+03  0.00000000000E+00 0.  1.
         23    2    1    2    0    0 -0.18915953143E+03  0.55610831362E+03  0.10194575166E+04  0.11799973774E+04  0.89790855832E+02 0.  0.
         11    1    3    3    0    0 -0.16276201688E+03  0.45059957888E+03  0.75663631857E+03  0.89556126156E+03  0.00000000000E+00 0.  1.
        -11    1    3    3    0    0 -0.26397514559E+02  0.10550873474E+03  0.26282119803E+03  0.28443611588E+03  0.00000000000E+00 0. -1.
         22    1    1    2    0    0  0.18915953143E+03 -0.55610831362E+03  0.23317710833E+03  0.63198840864E+03  0.00000000000E+00 0. -1.
<mgrwt>
<rscale>  0 0.13092742E+04</rscale>
<asrwt>0</asrwt>
<pdfrwt beam="1">  1        2 0.23574003E+00 0.13092742E+04</pdfrwt>
<pdfrwt beam="2">  1       -2 0.43027013E-01 0.13092742E+04</pdfrwt>
<totfact> 0.61040253E+01</totfact>
</mgrwt>
</event>
<event>
 6    1  0.2054316E-005  0.3321100E+04  0.7818608E-02  0.8157547E-01
          2   -1    0    0  501    0  0.00000000000E+00  0.00000000000E+00  0.17205948930E+04  0.17205948930E+04  0.00000000000E+00 0. -1.
         -2   -1    0    0    0  501 -0.00000000000E+00 -0.00000000000E+00 -0.16026007111E+04  0.16026007111E+04  0.00000000000E+00 0.  1.
         23    2    1    2    0    0 -0.42257242518E+02  0.15906400096E+04  0.52987844926E+03  0.16795502760E+04  0.90535319201E+02 0.  0.
         13    1    3    3    0    0  0.20121121270E+02  0.92380826157E+03  0.30916324147E+03  0.97437594056E+03  0.00000000000E+00 0.  1.
        -13    1    3    3    0    0 -0.62378363789E+02  0.66683174800E+03  0.22071520779E+03  0.70517433544E+03  0.00000000000E+00 0. -1.
         22    1    1    2    0    0  0.42257242518E+02 -0.15906400096E+04 -0.41188426736E+03  0.16436453280E+04  0.00000000000E+00 0.  1.
<mgrwt>
<rscale>  0 0.33211002E+04</rscale>
<asrwt>0</asrwt>
<pdfrwt beam="1">  1        2 0.26470691E+00 0.33211002E+04</pdfrwt>
<pdfrwt beam="2">  1       -2 0.24655395E+00 0.33211002E+04</pdfrwt>
<totfact> 0.53743769E-01</totfact>
</mgrwt>
</event>
<event>
 6    1  0.2003386E-005  0.3262381E+04  0.7818608E-02  0.8172534E-01
         -2   -1    0    0    0  501 -0.00000000000E+00  0.00000000000E+00  0.21191237386E+04  0.21191237386E+04  0.00000000000E+00 0.  1.
          2   -1    0    0  501    0  0.00000000000E+00 -0.00000000000E+00 -0.12556052219E+04  0.12556052219E+04  0.00000000000E+00 0. -1.
         23    2    1    2    0    0  0.15574166077E+04  0.13290367240E+03 -0.45807020615E+02  0.15663919319E+04  0.90969913150E+02 0.  0.
         11    1    3    3    0    0  0.80731190687E+03  0.85963287063E+02 -0.65951108986E+02  0.81455002945E+03  0.00000000000E+00 0. -1.
        -11    1    3    3    0    0  0.75010470087E+03  0.46940385341E+02  0.20144088371E+02  0.75184190249E+03  0.00000000000E+00 0.  1.
         22    1    1    2    0    0 -0.15574166077E+04 -0.13290367240E+03  0.90932553727E+03  0.18083370286E+04  0.00000000000E+00 0.  1.
<mgrwt>
<rscale>  0 0.32623812E+04</rscale>
<asrwt>0</asrwt>
<pdfrwt beam="1">  1        2 0.19317003E+00 0.32623812E+04</pdfrwt>
<pdfrwt beam="2">  1       -2 0.32601904E+00 0.32623812E+04</pdfrwt>
<totfact> 0.32307475E-01</totfact>
</mgrwt>
</event>
<event>
 6    1  0.2003386E-005  0.9208774E+03  0.7818608E-02  0.9399853E-01
          2   -1    0    0  501    0  0.00000000000E+00  0.00000000000E+00  0.47859317289E+03  0.47859317289E+03  0.00000000000E+00 0. -1.
         -2   -1    0    0    0  501 -0.00000000000E+00 -0.00000000000E+00 -0.44297287757E+03  0.44297287757E+03  0.00000000000E+00 0.  1.
         23    2    1    2    0    0 -0.20972481226E+03 -0.32919280693E+03 -0.21792450861E+03  0.45612285456E+03  0.90579059310E+02 0.  0.
         11    1    3    3    0    0 -0.86555229714E+02 -0.13668234585E+03 -0.14210982390E+03  0.21533479400E+03  0.00000000000E+00 0. -1.
        -11    1    3    3    0    0 -0.12316958255E+03 -0.19251046108E+03 -0.75814684710E+02  0.24078806056E+03  0.00000000000E+00 0.  1.
         22    1    1    2    0    0  0.20972481226E+03  0.32919280693E+03  0.25354480393E+03  0.46544319590E+03  0.00000000000E+00 0. -1.
<mgrwt>
<rscale>  0 0.92087740E+03</rscale>
<asrwt>0</asrwt>
<pdfrwt beam="1">  1        2 0.73629719E-01 0.92087740E+03</pdfrwt>
<pdfrwt beam="2">  1       -2 0.68149673E-01 0.92087740E+03</pdfrwt>
<totfact> 0.12807522E+02</totfact>
</mgrwt>
</event>
<event>
 6    1  0.2003386E-005  0.2804392E+03  0.7818608E-02  0.1095449E+00
         -2   -1    0    0    0  501 -0.00000000000E+00  0.00000000000E+00  0.14156346275E+03  0.14156346275E+03  0.00000000000E+00 0.  1.
          2   -1    0    0  501    0  0.00000000000E+00 -0.00000000000E+00 -0.13888850942E+03  0.13888850942E+03  0.00000000000E+00 0. -1.
         23    2    1    2    0    0 -0.73582263347E+02 -0.30988583009E+02  0.98039794692E+02  0.15607715669E+03  0.91507572049E+02 0.  0.
         11    1    3    3    0    0 -0.71063139401E+02 -0.19290639708E+02  0.18878306896E+02  0.76016373455E+02  0.00000000000E+00 0. -1.
        -11    1    3    3    0    0 -0.25191239459E+01 -0.11697943301E+02  0.79161487796E+02  0.80060783240E+02  0.00000000000E+00 0.  1.
         22    1    1    2    0    0  0.73582263347E+02  0.30988583009E+02 -0.95364841364E+02  0.12437481548E+03  0.00000000000E+00 0. -1.
<mgrwt>
<rscale>  0 0.28043922E+03</rscale>
<asrwt>0</asrwt>
<pdfrwt beam="1">  1        2 0.21367463E-01 0.28043922E+03</pdfrwt>
<pdfrwt beam="2">  1       -2 0.21778994E-01 0.28043922E+03</pdfrwt>
<totfact> 0.46384853E+03</totfact>
</mgrwt>
</event>
<event>
 6    1  0.2003386E-005  0.3218161E+04  0.7818608E-02  0.8184037E-01
         -2   -1    0    0    0  501 -0.00000000000E+00  0.00000000000E+00  0.19797607046E+04  0.19797607046E+04  0.00000000000E+00 0.  1.
          2   -1    0    0  501    0  0.00000000000E+00 -0.00000000000E+00 -0.13078046447E+04  0.13078046447E+04  0.00000000000E+00 0. -1.
         23    2    1    2    0    0 -0.99874966197E+02 -0.11253795637E+04  0.15047336412E+04  0.18840082000E+04  0.93858380490E+02 0.  0.
         11    1    3    3    0    0 -0.73933195337E+02 -0.43660072591E+03  0.54004185566E+03  0.69837777535E+03  0.00000000000E+00 0. -1.
        -11    1    3    3    0    0 -0.25941770860E+02 -0.68877883782E+03  0.96469178549E+03  0.11856304247E+04  0.00000000000E+00 0.  1.
         22    1    1    2    0    0  0.99874966197E+02  0.11253795637E+04 -0.83277758132E+03  0.14035571493E+04  0.00000000000E+00 0. -1.
<mgrwt>
<rscale>  0 0.32181611E+04</rscale>
<asrwt>0</asrwt>
<pdfrwt beam="1">  1        2 0.20120071E+00 0.32181611E+04</pdfrwt>
<pdfrwt beam="2">  1       -2 0.30457857E+00 0.32181611E+04</pdfrwt>
<totfact> 0.40976233E-01</totfact>
</mgrwt>
</event>
<event>
 6    1  0.2003386E-005  0.3162883E+04  0.7818608E-02  0.8198689E-01
         -1   -1    0    0    0  501 -0.00000000000E+00  0.00000000000E+00  0.16197732431E+04  0.16197732431E+04  0.00000000000E+00 0.  1.
          1   -1    0    0  501    0  0.00000000000E+00 -0.00000000000E+00 -0.15440166659E+04  0.15440166659E+04  0.00000000000E+00 0. -1.
         23    2    1    2    0    0 -0.26624896341E+03 -0.54337887268E+03 -0.14221584593E+04  0.15482718600E+04  0.91988909095E+02 0.  0.
         13    1    3    3    0    0 -0.14724345450E+03 -0.34811966077E+03 -0.78342362845E+03  0.86983936145E+03  0.00000000000E+00 0. -1.
        -13    1    3    3    0    0 -0.11900550891E+03 -0.19525921191E+03 -0.63873483086E+03  0.67843249859E+03  0.00000000000E+00 0.  1.
         22    1    1    2    0    0  0.26624896341E+03  0.54337887268E+03  0.14979150365E+04  0.16155180489E+04  0.00000000000E+00 0.  1.
<mgrwt>
<rscale>  0 0.31628828E+04</rscale>
<asrwt>0</asrwt>
<pdfrwt beam="1">  1        1 0.23754102E+00 0.31628828E+04</pdfrwt>
<pdfrwt beam="2">  1       -1 0.24919589E+00 0.31628828E+04</pdfrwt>
<totfact> 0.36120002E-01</totfact>
</mgrwt>
</event>
<event>
 6    1  0.2003386E-005  0.3434643E+04  0.7818608E-02  0.8129456E-01
          2   -1    0    0  501    0  0.00000000000E+00  0.00000000000E+00  0.16628522168E+04  0.16628522168E+04  0.00000000000E+00 0. -1.
         -2   -1    0    0    0  501 -0.00000000000E+00 -0.00000000000E+00 -0.17735754651E+04  0.17735754651E+04  0.00000000000E+00 0.  1.
         23    2    1    2    0    0 -0.15994388563E+04 -0.55345553704E+03  0.22857161316E+03  0.17102646856E+04  0.90788907875E+02 0.  0.
         11    1    3    3    0    0 -0.69556678224E+03 -0.19974178456E+03  0.12064087018E+03  0.73366487487E+03  0.00000000000E+00 0.  1.
        -11    1    3    3    0    0 -0.90387207408E+03 -0.35371375248E+03  0.10793074298E+03  0.97659981071E+03  0.00000000000E+00 0. -1.
         22    1    1    2    0    0  0.15994388563E+04  0.55345553704E+03 -0.33929486148E+03  0.17261629962E+04  0.00000000000E+00 0.  1.
<mgrwt>
<rscale>  0 0.34346434E+04</rscale>
<asrwt>0</asrwt>
<pdfrwt beam="1">  1        2 0.25582342E+00 0.34346434E+04</pdfrwt>
<pdfrwt beam="2">  1       -2 0.27285776E+00 0.34346434E+04</pdfrwt>
<totfact> 0.39560042E-01</totfact>
</mgrwt>
</event>
<event>
 6    1  0.2003386E-005  0.2618990E+04  0.7818608E-02  0.8361779E-01
         -2   -1    0    0    0  501 -0.00000000000E+00  0.00000000000E+00  0.64804302956E+03  0.64804302956E+03  0.00000000000E+00 0.  1.
          2   -1    0    0  501    0  0.00000000000E+00 -0.00000000000E+00 -0.26460850375E+04  0.26460850375E+04  0.00000000000E+00 0. -1.
         23    2    1    2    0    0  0.67935289965E+02 -0.10193664550E+04  0.26988805350E+02  0.10259850010E+04  0.90518802573E+02 0.  0.
         11    1    3    3    0    0 -0.70919935839E+01 -0.31653350369E+03 -0.22620790746E+02  0.31741999859E+03  0.00000000000E+00 0. -1.
        -11    1    3    3    0    0  0.75027283549E+02 -0.70283295128E+03  0.49609596097E+02  0.70856500246E+03  0.00000000000E+00 0.  1.
         22    1    1    2    0    0 -0.67935289965E+02  0.10193664550E+04 -0.20250308133E+04  0.22681430661E+04  0.00000000000E+00 0. -1.
<mgrwt>
<rscale>  0 0.26189899E+04</rscale>
<asrwt>0</asrwt>
<pdfrwt beam="1">  1        2 0.40709001E+00 0.26189899E+04</pdfrwt>
<pdfrwt beam="2">  1       -2 0.99698927E-01 0.26189899E+04</pdfrwt>
<totfact> 0.20998907E+00</totfact>
</mgrwt>
</event>
<event>
 6    1  0.2003386E-005  0.1423988E+04  0.7818608E-02  0.8936636E-01
          1   -1    0    0  501    0  0.00000000000E+00  0.00000000000E+00  0.16576766639E+04  0.16576766639E+04  0.00000000000E+00 0. -1.
         -1   -1    0    0    0  501 -0.00000000000E+00 -0.00000000000E+00 -0.30581067642E+03  0.30581067642E+03  0.00000000000E+00 0.  1.
         23    2    1    2    0    0  0.41404255580E+02  0.65963328385E+03  0.32490642197E+03  0.74222719983E+03  0.92231510863E+02 0.  0.
         13    1    3    3    0    0 -0.20498418751E+02  0.31010536765E+03  0.17724092907E+03  0.35777069633E+03  0.00000000000E+00 0.  1.
        -13    1    3    3    0    0  0.61902674331E+02  0.34952791620E+03  0.14766549290E+03  0.38445650350E+03  0.00000000000E+00 0. -1.
         22    1    1    2    0    0 -0.41404255580E+02 -0.65963328385E+03  0.10269595655E+04  0.12212601405E+04  0.00000000000E+00 0. -1.
<mgrwt>
<rscale>  0 0.14239877E+04</rscale>
<asrwt>0</asrwt>
<pdfrwt beam="1">  1        1 0.25502718E+00 0.14239877E+04</pdfrwt>
<pdfrwt beam="2">  1       -1 0.47047797E-01 0.14239877E+04</pdfrwt>
<totfact> 0.22336024E+01</totfact>
</mgrwt>
</event>
<event>
 6    1  0.2003386E-005  0.4303565E+04  0.7818608E-02  0.7945959E-01
         -2   -1    0    0    0  501 -0.00000000000E+00  0.00000000000E+00  0.15832267409E+04  0.15832267409E+04  0.00000000000E+00 0.  1.
          2   -1    0    0  501    0  0.00000000000E+00 -0.00000000000E+00 -0.29245138032E+04  0.29245138032E+04  0.00000000000E+00 0. -1.
         23    2    1    2    0    0  0.55823066345E+03 -0.10986724379E+03 -0.28435414421E+04  0.29013593606E+04  0.92010442504E+02 0.  0.
         11    1    3    3    0    0  0.52288554541E+03 -0.78103178358E+02 -0.26251021064E+04  0.26778107605E+04  0.00000000000E+00 0.  1.
        -11    1    3    3    0    0  0.35345118043E+02 -0.31764065435E+02 -0.21843933571E+03  0.22354860010E+03  0.00000000000E+00 0. -1.
         22    1    1    2    0    0 -0.55823066345E+03  0.10986724379E+03  0.15022543798E+04  0.16063811835E+04  0.00000000000E+00 0.  1.
<mgrwt>
<rscale>  0 0.43035652E+04</rscale>
<asrwt>0</asrwt>
<pdfrwt beam="1">  1        2 0.44992519E+00 0.43035652E+04</pdfrwt>
<pdfrwt beam="2">  1       -2 0.24357335E+00 0.43035652E+04</pdfrwt>
<totfact> 0.10510717E-01</totfact>
</mgrwt>
</event>
<event>
 6    1  0.2003386E-005  0.1137152E+04  0.7818608E-02  0.9169719E-01
          2   -1    0    0  501    0  0.00000000000E+00  0.00000000000E+00  0.10284070087E+04  0.10284070087E+04  0.00000000000E+00 0. -1.
         -2   -1    0    0    0  501 -0.00000000000E+00 -0.00000000000E+00 -0.31434890843E+03  0.31434890843E+03  0.00000000000E+00 0.  1.
         23    2    1    2    0    0  0.53786882327E+02 -0.47182166779E+03 -0.27306725342E+01  0.48293334257E+03  0.87797732813E+02 0.  0.
         11    1    3    3    0    0 -0.12054980035E+02 -0.84100305676E+02  0.25346453630E+02  0.88660175220E+02  0.00000000000E+00 0. -1.
        -11    1    3    3    0    0  0.65841862361E+02 -0.38772136212E+03 -0.28077126164E+02  0.39427316735E+03  0.00000000000E+00 0.  1.
         22    1    1    2    0    0 -0.53786882327E+02  0.47182166779E+03  0.71678877278E+03  0.85982257454E+03  0.00000000000E+00 0. -1.
<mgrwt>
<rscale>  0 0.11371519E+04</rscale>
<asrwt>0</asrwt>
<pdfrwt beam="1">  1        2 0.15821646E+00 0.11371519E+04</pdfrwt>
<pdfrwt beam="2">  1       -2 0.48361371E-01 0.11371519E+04</pdfrwt>
<totfact> 0.96891206E+01</totfact>
</mgrwt>
</event>
<event>
 6    1  0.2003386E-005  0.2028250E+04  0.7818608E-02  0.8593526E-01
         -2   -1    0    0    0  501 -0.00000000000E+00  0.00000000000E+00  0.76539748714E+03  0.76539748714E+03  0.00000000000E+00 0.  1.
          2   -1    0    0  501    0  0.00000000000E+00 -0.00000000000E+00 -0.13436801407E+04  0.13436801407E+04  0.00000000000E+00 0. -1.
         23    2    1    2    0    0  0.72759363144E+03  0.19631248715E+03 -0.99163178189E+03  0.12495495091E+04  0.10054501331E+03 0.  0.
         13    1    3    3    0    0  0.49398962813E+03  0.13640966594E+03 -0.59418051058E+03  0.78465522926E+03  0.00000000000E+00 0. -1.
        -13    1    3    3    0    0  0.23360400331E+03  0.59902821210E+02 -0.39745127132E+03  0.46489427984E+03  0.00000000000E+00 0.  1.
         22    1    1    2    0    0 -0.72759363144E+03 -0.19631248715E+03  0.41334912829E+03  0.85952811879E+03  0.00000000000E+00 0.  1.
<mgrwt>
<rscale>  0 0.20282499E+04</rscale>
<asrwt>0</asrwt>
<pdfrwt beam="1">  1        2 0.20672002E+00 0.20282499E+04</pdfrwt>
<pdfrwt beam="2">  1       -2 0.11775346E+00 0.20282499E+04</pdfrwt>
<totfact> 0.80439441E+00</totfact>
</mgrwt>
</event>
<event>
 6    1  0.2003386E-005  0.3908977E+04  0.7818608E-02  0.8023165E-01
          2   -1    0    0  501    0  0.00000000000E+00  0.00000000000E+00  0.22446963148E+04  0.22446963148E+04  0.00000000000E+00 0. -1.
         -2   -1    0    0    0  501 -0.00000000000E+00 -0.00000000000E+00 -0.17018008856E+04  0.17018008856E+04  0.00000000000E+00 0.  1.
         23    2    1    2    0    0  0.54702021720E+02  0.88627270941E+03  0.20282411338E+04  0.22159702609E+04  0.91052037349E+02 0.  0.
         13    1    3    3    0    0  0.78410883675E+02  0.65788020599E+03  0.14746441262E+04  0.16166415592E+04  0.00000000000E+00 0. -1.
        -13    1    3    3    0    0 -0.23708861954E+02  0.22839250341E+03  0.55359700762E+03  0.59932870163E+03  0.00000000000E+00 0.  1.
         22    1    1    2    0    0 -0.54702021720E+02 -0.88627270941E+03 -0.14853457046E+04  0.17305269396E+04  0.00000000000E+00 0.  1.
<mgrwt>
<rscale>  0 0.39089775E+04</rscale>
<asrwt>0</asrwt>
<pdfrwt beam="1">  1        2 0.34533789E+00 0.39089775E+04</pdfrwt>
<pdfrwt beam="2">  1       -2 0.26181552E+00 0.39089775E+04</pdfrwt>
<totfact> 0.21060348E-01</totfact>
</mgrwt>
</event>
<event>
 6    1  0.2160681E-005  0.2882446E+04  0.7818608E-02  0.8278120E-01
         -2   -1    0    0    0  501 -0.00000000000E+00  0.00000000000E+00  0.14479993543E+04  0.14479993543E+04  0.00000000000E+00 0.  1.
          2   -1    0    0  501    0  0.00000000000E+00 -0.00000000000E+00 -0.14344780043E+04  0.14344780043E+04  0.00000000000E+00 0. -1.
         23    2    1    2    0    0 -0.35199929644E+02 -0.71695266144E+03 -0.12413506877E+04  0.14368065854E+04  0.90562024160E+02 0.  0.
         13    1    3    3    0    0  0.28195785153E+02 -0.14326633442E+03 -0.26793225324E+03  0.30513593234E+03  0.00000000000E+00 0. -1.
        -13    1    3    3    0    0 -0.63395714797E+02 -0.57368632703E+03 -0.97341843443E+03  0.11316706530E+04  0.00000000000E+00 0.  1.
         22    1    1    2    0    0  0.35199929644E+02  0.71695266144E+03  0.12548720376E+04  0.14456707732E+04  0.00000000000E+00 0.  1.
<mgrwt>
<rscale>  0 0.28824456E+04</rscale>
<asrwt>0</asrwt>
<pdfrwt beam="1">  1        2 0.22068892E+00 0.28824456E+04</pdfrwt>
<pdfrwt beam="2">  1       -2 0.22276913E+00 0.28824456E+04</pdfrwt>
<totfact> 0.11346642E+00</totfact>
</mgrwt>
</event>
<event>
 6    1  0.2003386E-005  0.3992683E+04  0.7818608E-02  0.8006024E-01
          2   -1    0    0  501    0  0.00000000000E+00  0.00000000000E+00  0.27245432040E+04  0.27245432040E+04  0.00000000000E+00 0. -1.
         -2   -1    0    0    0  501 -0.00000000000E+00 -0.00000000000E+00 -0.14627697977E+04  0.14627697977E+04  0.00000000000E+00 0.  1.
         23    2    1    2    0    0 -0.91857227525E+03 -0.12181484610E+04 -0.71737656607E+03  0.16883741647E+04  0.91200244872E+02 0.  0.
         13    1    3    3    0    0 -0.58284575199E+03 -0.71696790576E+03 -0.46615615786E+03  0.10349172489E+04  0.00000000000E+00 0. -1.
        -13    1    3    3    0    0 -0.33572652326E+03 -0.50118055527E+03 -0.25122040821E+03  0.65345691587E+03  0.00000000000E+00 0.  1.
         22    1    1    2    0    0  0.91857227525E+03  0.12181484610E+04  0.19791499723E+04  0.24989388370E+04  0.00000000000E+00 0. -1.
<mgrwt>
<rscale>  0 0.39926831E+04</rscale>
<asrwt>0</asrwt>
<pdfrwt beam="1">  1        2 0.41916049E+00 0.39926831E+04</pdfrwt>
<pdfrwt beam="2">  1       -2 0.22504151E+00 0.39926831E+04</pdfrwt>
<totfact> 0.18610021E-01</totfact>
</mgrwt>
</event>
<event>
 6    1  0.2003386E-005  0.1376736E+04  0.7818608E-02  0.8970833E-01
         -2   -1    0    0    0  501 -0.00000000000E+00  0.00000000000E+00  0.14100974039E+04  0.14100974039E+04  0.00000000000E+00 0.  1.
          2   -1    0    0  501    0  0.00000000000E+00 -0.00000000000E+00 -0.33604082288E+03  0.33604082288E+03  0.00000000000E+00 0. -1.
         23    2    1    2    0    0 -0.77785468947E+01  0.37268993853E+03  0.12687755363E+04  0.13255745959E+04  0.91642521308E+02 0.  0.
         13    1    3    3    0    0  0.24173704004E+02  0.11648037868E+03  0.52333018405E+03  0.53668103015E+03  0.00000000000E+00 0.  1.
        -13    1    3    3    0    0 -0.31952250899E+02  0.25620955984E+03  0.74544535223E+03  0.78889356574E+03  0.00000000000E+00 0. -1.
         22    1    1    2    0    0  0.77785468947E+01 -0.37268993853E+03 -0.19471895528E+03  0.42056363087E+03  0.00000000000E+00 0. -1.
<mgrwt>
<rscale>  0 0.13767357E+04</rscale>
<asrwt>0</asrwt>
<pdfrwt beam="1">  1        2 0.51698589E-01 0.13767357E+04</pdfrwt>
<pdfrwt beam="2">  1       -2 0.21693806E+00 0.13767357E+04</pdfrwt>
<totfact> 0.97424148E+00</totfact>
</mgrwt>
</event>
<event>
 6    1  0.2003386E-005  0.2305423E+04  0.7818608E-02  0.8475786E-01
          2   -1    0    0  501    0  0.00000000000E+00  0.00000000000E+00  0.12368725760E+04  0.12368725760E+04  0.00000000000E+00 0. -1.
         -2   -1    0    0    0  501 -0.00000000000E+00 -0.00000000000E+00 -0.10742767631E+04  0.10742767631E+04  0.00000000000E+00 0.  1.
         23    2    1    2    0    0  0.65385475283E+03 -0.79235392679E+03 -0.43513225898E+03  0.11226083718E+04  0.12473447973E+03 0.  0.
         11    1    3    3    0    0  0.50671718980E+03 -0.52510323813E+03 -0.30196968918E+03  0.78973502792E+03  0.00000000000E+00 0.  1.
        -11    1    3    3    0    0  0.14713756303E+03 -0.26725068866E+03 -0.13316256980E+03  0.33287334384E+03  0.00000000000E+00 0. -1.
         22    1    1    2    0    0 -0.65385475283E+03  0.79235392679E+03  0.59772807186E+03  0.11885409673E+04  0.00000000000E+00 0. -1.
<mgrwt>
<rscale>  0 0.23054227E+04</rscale>
<asrwt>0</asrwt>
<pdfrwt beam="1">  1        2 0.19028809E+00 0.23054227E+04</pdfrwt>
<pdfrwt beam="2">  1       -2 0.16527335E+00 0.23054227E+04</pdfrwt>
<totfact> 0.37609613E+00</totfact>
</mgrwt>
</event>
<event>
 6    1  0.2003386E-005  0.1202673E+04  0.7818608E-02  0.9110520E-01
         -2   -1    0    0    0  501 -0.00000000000E+00  0.00000000000E+00  0.87979296757E+02  0.87979296757E+02  0.00000000000E+00 0.  1.
          2   -1    0    0  501    0  0.00000000000E+00 -0.00000000000E+00 -0.41101191237E+04  0.41101191237E+04  0.00000000000E+00 0. -1.
         23    2    1    2    0    0 -0.10854127349E+02  0.47011727064E+03 -0.33113000101E+04  0.33457948915E+04  0.92236863081E+02 0.  0.
         11    1    3    3    0    0  0.18679807169E+02  0.51741231241E+02 -0.25616915022E+03  0.26200901460E+03  0.00000000000E+00 0.  1.
        -11    1    3    3    0    0 -0.29533934518E+02  0.41837603940E+03 -0.30551308599E+04  0.30837858769E+04  0.00000000000E+00 0. -1.
         22    1    1    2    0    0  0.10854127349E+02 -0.47011727064E+03 -0.71083981677E+03  0.85230352888E+03  0.00000000000E+00 0.  1.
<mgrwt>
<rscale>  0 0.12026727E+04</rscale>
<asrwt>0</asrwt>
<pdfrwt beam="1">  1        2 0.63232600E+00 0.12026727E+04</pdfrwt>
<pdfrwt beam="2">  1       -2 0.13535277E-01 0.12026727E+04</pdfrwt>
<totfact> 0.11940284E+01</totfact>
</mgrwt>
</event>
<event>
 6    1  0.2003386E-005  0.2634113E+04  0.7818608E-02  0.8356705E-01
          1   -1    0    0  501    0  0.00000000000E+00  0.00000000000E+00  0.85392766776E+03  0.85392766776E+03  0.00000000000E+00 0. -1.
         -1   -1    0    0    0  501 -0.00000000000E+00 -0.00000000000E+00 -0.20313644407E+04  0.20313644407E+04  0.00000000000E+00 0.  1.
         23    2    1    2    0    0  0.75268987467E+03 -0.77549852970E+03  0.23210515278E+03  0.11091309510E+04  0.91425639212E+02 0.  0.
         13    1    3    3    0    0  0.42277769515E+03 -0.40870068852E+03  0.83705680811E+02  0.59395612070E+03  0.00000000000E+00 0. -1.
        -13    1    3    3    0    0  0.32991217952E+03 -0.36679784117E+03  0.14839947197E+03  0.51517483029E+03  0.00000000000E+00 0.  1.
         22    1    1    2    0    0 -0.75268987467E+03  0.77549852970E+03 -0.14095419257E+04  0.17761611575E+04  0.00000000000E+00 0.  1.
<mgrwt>
<rscale>  0 0.26341134E+04</rscale>
<asrwt>0</asrwt>
<pdfrwt beam="1">  1        1 0.13137349E+00 0.26341134E+04</pdfrwt>
<pdfrwt beam="2">  1       -1 0.31251761E+00 0.26341134E+04</pdfrwt>
<totfact> 0.47795828E-01</totfact>
</mgrwt>
</event>
<event>
 6    1  0.2003386E-005  0.7705774E+03  0.7818608E-02  0.9603610E-01
          2   -1    0    0  501    0  0.00000000000E+00  0.00000000000E+00  0.94567349613E+03  0.94567349613E+03  0.00000000000E+00 0. -1.
         -2   -1    0    0    0  501 -0.00000000000E+00 -0.00000000000E+00 -0.15697529547E+03  0.15697529547E+03  0.00000000000E+00 0.  1.
         23    2    1    2    0    0 -0.75062180317E+02  0.30973530442E+03  0.10393733092E+03  0.34735564424E+03  0.91009258371E+02 0.  0.
         11    1    3    3    0    0 -0.46405461322E+02  0.14385620064E+03  0.32207178503E+01  0.15119009996E+03  0.00000000000E+00 0. -1.
        -11    1    3    3    0    0 -0.28656718996E+02  0.16587910378E+03  0.10071661307E+03  0.19616554428E+03  0.00000000000E+00 0.  1.
         22    1    1    2    0    0  0.75062180317E+02 -0.30973530442E+03  0.68476086974E+03  0.75529314736E+03  0.00000000000E+00 0. -1.
<mgrwt>
<rscale>  0 0.77057738E+03</rscale>
<asrwt>0</asrwt>
<pdfrwt beam="1">  1        2 0.14548823E+00 0.77057738E+03</pdfrwt>
<pdfrwt beam="2">  1       -2 0.24150046E-01 0.77057738E+03</pdfrwt>
<totfact> 0.41919460E+02</totfact>
</mgrwt>
</event>
<event>
 6    1  0.2003386E-005  0.1117077E+04  0.7818608E-02  0.9188705E-01
         -2   -1    0    0    0  501 -0.00000000000E+00  0.00000000000E+00  0.10819633428E+03  0.10819633428E+03  0.00000000000E+00 0.  1.
          2   -1    0    0  501    0  0.00000000000E+00 -0.00000000000E+00 -0.28833276014E+04  0.28833276014E+04  0.00000000000E+00 0. -1.
         23    2    1    2    0    0  0.28772881727E+03  0.47353988395E+03 -0.13185707745E+04  0.14331284908E+04  0.90556555766E+02 0.  0.
         13    1    3    3    0    0  0.33992598543E+02  0.60037469481E+02 -0.99597050826E+02  0.12115926308E+03  0.00000000000E+00 0.  1.
        -13    1    3    3    0    0  0.25373621873E+03  0.41350241447E+03 -0.12189737237E+04  0.13119692277E+04  0.00000000000E+00 0. -1.
         22    1    1    2    0    0 -0.28772881727E+03 -0.47353988395E+03 -0.14565604927E+04  0.15583954449E+04  0.00000000000E+00 0. -1.
<mgrwt>
<rscale>  0 0.11170774E+04</rscale>
<asrwt>0</asrwt>
<pdfrwt beam="1">  1        2 0.44358879E+00 0.11170774E+04</pdfrwt>
<pdfrwt beam="2">  1       -2 0.16645593E-01 0.11170774E+04</pdfrwt>
<totfact> 0.60926316E+01</totfact>
</mgrwt>
</event>
<event>
 6    1  0.2003386E-005  0.1166276E+04  0.7818608E-02  0.9142898E-01
          2   -1    0    0  501    0  0.00000000000E+00  0.00000000000E+00  0.77161501548E+03  0.77161501548E+03  0.00000000000E+00 0. -1.
         -2   -1    0    0    0  501 -0.00000000000E+00 -0.00000000000E+00 -0.44069927790E+03  0.44069927790E+03  0.00000000000E+00 0.  1.
         23    2    1    2    0    0  0.55744197580E+03  0.32220411012E+02  0.32768028479E+03  0.65393254276E+03  0.92052648904E+02 0.  0.
         13    1    3    3    0    0  0.36580266666E+03  0.62491573428E+02  0.23146034698E+03  0.43736789996E+03  0.00000000000E+00 0. -1.
        -13    1    3    3    0    0  0.19163930914E+03 -0.30271162416E+02  0.96219937810E+02  0.21656464281E+03  0.00000000000E+00 0.  1.
         22    1    1    2    0    0 -0.55744197580E+03 -0.32220411012E+02  0.32354527857E+01  0.55838175062E+03  0.00000000000E+00 0.  1.
<mgrwt>
<rscale>  0 0.11662764E+04</rscale>
<asrwt>0</asrwt>
<pdfrwt beam="1">  1        2 0.11871000E+00 0.11662764E+04</pdfrwt>
<pdfrwt beam="2">  1       -2 0.67799889E-01 0.11662764E+04</pdfrwt>
<totfact> 0.71241066E+01</totfact>
</mgrwt>
</event>
<event>
 6    1  0.2003386E-005  0.3684763E+04  0.7818608E-02  0.8071347E-01
         -1   -1    0    0    0  501 -0.00000000000E+00  0.00000000000E+00  0.12249593647E+04  0.12249593647E+04  0.00000000000E+00 0.  1.
          1   -1    0    0  501    0  0.00000000000E+00 -0.00000000000E+00 -0.27710062751E+04  0.27710062751E+04  0.00000000000E+00 0. -1.
         23    2    1    2    0    0  0.27205273076E+03  0.14322921497E+04  0.44605812518E+03  0.15273717155E+04  0.91776990017E+02 0.  0.
         11    1    3    3    0    0  0.18139482315E+03  0.71551693676E+03  0.21453421436E+03  0.76869597227E+03  0.00000000000E+00 0. -1.
        -11    1    3    3    0    0  0.90657907608E+02  0.71677521296E+03  0.23152391082E+03  0.75867574325E+03  0.00000000000E+00 0.  1.
         22    1    1    2    0    0 -0.27205273076E+03 -0.14322921497E+04 -0.19921050355E+04  0.24685939243E+04  0.00000000000E+00 0. -1.
<mgrwt>
<rscale>  0 0.36847633E+04</rscale>
<asrwt>0</asrwt>
<pdfrwt beam="1">  1        1 0.42630865E+00 0.36847633E+04</pdfrwt>
<pdfrwt beam="2">  1       -1 0.18845529E+00 0.36847633E+04</pdfrwt>
<totfact> 0.12716327E-01</totfact>
</mgrwt>
</event>
<event>
 6    1  0.2003386E-005  0.2520242E+04  0.7818608E-02  0.8395809E-01
         -2   -1    0    0    0  501 -0.00000000000E+00  0.00000000000E+00  0.11538046690E+04  0.11538046690E+04  0.00000000000E+00 0.  1.
          2   -1    0    0  501    0  0.00000000000E+00 -0.00000000000E+00 -0.13762338305E+04  0.13762338305E+04  0.00000000000E+00 0. -1.
         23    2    1    2    0    0  0.28873392747E+03 -0.83065742282E+03 -0.10149422691E+04  0.13462158520E+04  0.93969546107E+02 0.  0.
         13    1    3    3    0    0  0.12540533699E+03 -0.26602574915E+03 -0.29143007533E+03  0.41403826702E+03  0.00000000000E+00 0.  1.
        -13    1    3    3    0    0  0.16332859048E+03 -0.56463167368E+03 -0.72351219377E+03  0.93217758497E+03  0.00000000000E+00 0. -1.
         22    1    1    2    0    0 -0.28873392747E+03  0.83065742282E+03  0.79251310764E+03  0.11838226475E+04  0.00000000000E+00 0.  1.
<mgrwt>
<rscale>  0 0.25202421E+04</rscale>
<asrwt>0</asrwt>
<pdfrwt beam="1">  1        2 0.21172828E+00 0.25202421E+04</pdfrwt>
<pdfrwt beam="2">  1       -2 0.17750841E+00 0.25202421E+04</pdfrwt>
<totfact> 0.25091394E+00</totfact>
</mgrwt>
</event>
<event>
 6    1  0.2003386E-005  0.1635440E+04  0.7818608E-02  0.8799067E-01
          2   -1    0    0  501    0  0.00000000000E+00  0.00000000000E+00  0.87476676051E+03  0.87476676051E+03  0.00000000000E+00 0. -1.
         -2   -1    0    0    0  501 -0.00000000000E+00 -0.00000000000E+00 -0.76439339695E+03  0.76439339695E+03  0.00000000000E+00 0.  1.
         23    2    1    2    0    0 -0.66568464990E+03 -0.38777348161E+01 -0.41640422586E+03  0.79025161195E+03  0.89185430062E+02 0.  0.
         11    1    3    3    0    0 -0.33676575841E+03 -0.72086845765E-01 -0.26302310714E+03  0.42730824486E+03  0.00000000000E+00 0. -1.
        -11    1    3    3    0    0 -0.32891889149E+03 -0.38056479703E+01 -0.15338111872E+03  0.36294336709E+03  0.00000000000E+00 0.  1.
         22    1    1    2    0    0  0.66568464990E+03  0.38777348161E+01  0.52677758942E+03  0.84890854552E+03  0.00000000000E+00 0. -1.
<mgrwt>
<rscale>  0 0.16354399E+04</rscale>
<asrwt>0</asrwt>
<pdfrwt beam="1">  1        2 0.13457950E+00 0.16354399E+04</pdfrwt>
<pdfrwt beam="2">  1       -2 0.11759898E+00 0.16354399E+04</pdfrwt>
<totfact> 0.16287356E+01</totfact>
</mgrwt>
</event>
<event>
 6    1  0.2003386E-005  0.1043393E+04  0.7818608E-02  0.9262192E-01
          1   -1    0    0  501    0  0.00000000000E+00  0.00000000000E+00  0.11251322865E+03  0.11251322865E+03  0.00000000000E+00 0. -1.
         -1   -1    0    0    0  501 -0.00000000000E+00 -0.00000000000E+00 -0.24189812614E+04  0.24189812614E+04  0.00000000000E+00 0.  1.
         23    2    1    2    0    0 -0.15415037658E+03  0.48811859072E+03 -0.97343507178E+03  0.11035592771E+04  0.90802764185E+02 0.  0.
         11    1    3    3    0    0 -0.39297204408E+01  0.13177096882E+03 -0.28302033571E+03  0.31221713815E+03  0.00000000000E+00 0. -1.
        -11    1    3    3    0    0 -0.15022065614E+03  0.35634762190E+03 -0.69041473607E+03  0.79134213900E+03  0.00000000000E+00 0.  1.
         22    1    1    2    0    0  0.15415037658E+03 -0.48811859072E+03 -0.13330329609E+04  0.14279352129E+04  0.00000000000E+00 0.  1.
<mgrwt>
<rscale>  0 0.10433933E+04</rscale>
<asrwt>0</asrwt>
<pdfrwt beam="1">  1        1 0.17309727E-01 0.10433933E+04</pdfrwt>
<pdfrwt beam="2">  1       -1 0.37215097E+00 0.10433933E+04</pdfrwt>
<totfact> 0.35888407E+00</totfact>
</mgrwt>
</event>
<event>
 6    1  0.2003386E-005  0.9062024E+03  0.7818608E-02  0.9417861E-01
         -1   -1    0    0    0  501 -0.00000000000E+00  0.00000000000E+00  0.11549873057E+04  0.11549873057E+04  0.00000000000E+00 0.  1.
          1   -1    0    0  501    0  0.00000000000E+00 -0.00000000000E+00 -0.17775148055E+03  0.17775148055E+03  0.00000000000E+00 0. -1.
         23    2    1    2    0    0 -0.35411987810E+03 -0.84477236227E+02  0.87844138711E+03  0.95551520200E+03  0.93876190559E+02 0.  0.
         11    1    3    3    0    0 -0.30133021627E+03 -0.36363279023E+02  0.73732854977E+03  0.79735536470E+03  0.00000000000E+00 0.  1.
        -11    1    3    3    0    0 -0.52789661830E+02 -0.48113957204E+02  0.14111283734E+03  0.15815983731E+03  0.00000000000E+00 0. -1.
         22    1    1    2    0    0  0.35411987810E+03  0.84477236227E+02  0.98794438001E+02  0.37722358422E+03  0.00000000000E+00 0. -1.
<mgrwt>
<rscale>  0 0.90620241E+03</rscale>
<asrwt>0</asrwt>
<pdfrwt beam="1">  1        1 0.27346382E-01 0.90620241E+03</pdfrwt>
<pdfrwt beam="2">  1       -1 0.17769035E+00 0.90620241E+03</pdfrwt>
<totfact> 0.37905937E+01</totfact>
</mgrwt>
</event>
<event>
 6    1  0.2003386E-005  0.1029567E+04  0.7818608E-02  0.9276698E-01
          2   -1    0    0  501    0  0.00000000000E+00  0.00000000000E+00  0.80227430324E+03  0.80227430324E+03  0.00000000000E+00 0.  1.
         -2   -1    0    0    0  501 -0.00000000000E+00 -0.00000000000E+00 -0.33031354848E+03  0.33031354848E+03  0.00000000000E+00 0. -1.
         23    2    1    2    0    0  0.10060989332E+03  0.25887990420E+03  0.70942199622E+03  0.76717165528E+03  0.90175520592E+02 0.  0.
         13    1    3    3    0    0  0.96261520164E+02  0.13643127141E+03  0.45790284045E+03  0.48739592056E+03  0.00000000000E+00 0. -1.
        -13    1    3    3    0    0  0.43483731575E+01  0.12244863280E+03  0.25151915576E+03  0.27977573472E+03  0.00000000000E+00 0.  1.
         22    1    1    2    0    0 -0.10060989332E+03 -0.25887990420E+03 -0.23746124145E+03  0.36541619645E+03  0.00000000000E+00 0. -1.
<mgrwt>
<rscale>  0 0.10295670E+04</rscale>
<asrwt>0</asrwt>
<pdfrwt beam="1">  1        2 0.12342681E+00 0.10295670E+04</pdfrwt>
<pdfrwt beam="2">  1       -2 0.50817469E-01 0.10295670E+04</pdfrwt>
<totfact> 0.12522642E+02</totfact>
</mgrwt>
</event>
<event>
 6    1  0.2003386E-005  0.8368767E+03  0.7818608E-02  0.9508122E-01
         -2   -1    0    0    0  501 -0.00000000000E+00  0.00000000000E+00  0.54692155433E+02  0.54692155433E+02  0.00000000000E+00 0.  1.
          2   -1    0    0  501    0  0.00000000000E+00 -0.00000000000E+00 -0.32013853192E+04  0.32013853192E+04  0.00000000000E+00 0. -1.
         23    2    1    2    0    0  0.40972731869E+03  0.21833358286E+02 -0.17889857359E+04  0.18377253918E+04  0.91714127452E+02 0.  0.
         13    1    3    3    0    0  0.32827593081E+03  0.26020339370E+02 -0.12520983391E+04  0.12946784912E+04  0.00000000000E+00 0.  1.
        -13    1    3    3    0    0  0.81451387880E+02 -0.41869810832E+01 -0.53688739673E+03  0.54304690052E+03  0.00000000000E+00 0. -1.
         22    1    1    2    0    0 -0.40972731869E+03 -0.21833358286E+02 -0.13577074279E+04  0.14183520829E+04  0.00000000000E+00 0.  1.
<mgrwt>
<rscale>  0 0.83687673E+03</rscale>
<asrwt>0</asrwt>
<pdfrwt beam="1">  1        2 0.49252082E+00 0.83687673E+03</pdfrwt>
<pdfrwt beam="2">  1       -2 0.84141777E-02 0.83687673E+03</pdfrwt>
<totfact> 0.12354427E+02</totfact>
</mgrwt>
</event>
<event>
 6    1  0.2113544E-005  0.2905859E+04  0.7818608E-02  0.8271136E-01
          2   -1    0    0  501    0  0.00000000000E+00  0.00000000000E+00  0.14923379202E+04  0.14923379202E+04  0.00000000000E+00 0. -1.
         -2   -1    0    0    0  501 -0.00000000000E+00 -0.00000000000E+00 -0.14145617569E+04  0.14145617569E+04  0.00000000000E+00 0.  1.
         23    2    1    2    0    0 -0.36497151827E+03 -0.53479781002E+03  0.13385755104E+04  0.14895684172E+04  0.88412475994E+02 0.  0.
         11    1    3    3    0    0 -0.16339766154E+03 -0.31422511340E+03  0.69691048255E+03  0.78174192569E+03  0.00000000000E+00 0. -1.
        -11    1    3    3    0    0 -0.20157385672E+03 -0.22057269662E+03  0.64166502780E+03  0.70782649153E+03  0.00000000000E+00 0.  1.
         22    1    1    2    0    0  0.36497151827E+03  0.53479781002E+03 -0.12607993470E+04  0.14173312599E+04  0.00000000000E+00 0.  1.
<mgrwt>
<rscale>  0 0.29058590E+04</rscale>
<asrwt>0</asrwt>
<pdfrwt beam="1">  1        2 0.22959045E+00 0.29058590E+04</pdfrwt>
<pdfrwt beam="2">  1       -2 0.21762489E+00 0.29058590E+04</pdfrwt>
<totfact> 0.11318525E+00</totfact>
</mgrwt>
</event>
<event>
 6    1  0.2003386E-005  0.2350077E+04  0.7818608E-02  0.8458434E-01
          2   -1    0    0  501    0  0.00000000000E+00  0.00000000000E+00  0.15432130743E+04  0.15432130743E+04  0.00000000000E+00 0. -1.
         -2   -1    0    0    0  501 -0.00000000000E+00 -0.00000000000E+00 -0.89470158934E+03  0.89470158934E+03  0.00000000000E+00 0.  1.
         23    2    1    2    0    0 -0.78216823827E+03  0.86906085159E+03  0.22404455040E+03  0.11940392297E+04  0.92085855093E+02 0.  0.
         11    1    3    3    0    0 -0.47781340133E+03  0.59592147472E+03  0.15170519122E+03  0.77874419135E+03  0.00000000000E+00 0.  1.
        -11    1    3    3    0    0 -0.30435483694E+03  0.27313937687E+03  0.72339359185E+02  0.41529503832E+03  0.00000000000E+00 0. -1.
         22    1    1    2    0    0  0.78216823827E+03 -0.86906085159E+03  0.42446693458E+03  0.12438754340E+04  0.00000000000E+00 0. -1.
<mgrwt>
<rscale>  0 0.23500768E+04</rscale>
<asrwt>0</asrwt>
<pdfrwt beam="1">  1        2 0.23741740E+00 0.23500768E+04</pdfrwt>
<pdfrwt beam="2">  1       -2 0.13764640E+00 0.23500768E+04</pdfrwt>
<totfact> 0.40675941E+00</totfact>
</mgrwt>
</event>
<event>
 6    1  0.2003386E-005  0.1701849E+04  0.7818608E-02  0.8760310E-01
          2   -1    0    0  501    0  0.00000000000E+00  0.00000000000E+00  0.26401332349E+04  0.26401332349E+04  0.00000000000E+00 0.  1.
         -2   -1    0    0    0  501 -0.00000000000E+00 -0.00000000000E+00 -0.27425612666E+03  0.27425612666E+03  0.00000000000E+00 0. -1.
         23    2    1    2    0    0 -0.37122453068E+03  0.63494548511E+03  0.19108031941E+04  0.20494872350E+04  0.90915666462E+02 0.  0.
         11    1    3    3    0    0 -0.10954050807E+03  0.19073308939E+03  0.69236578553E+03  0.72646308596E+03  0.00000000000E+00 0.  1.
        -11    1    3    3    0    0 -0.26168402262E+03  0.44421239573E+03  0.12184374086E+04  0.13230241490E+04  0.00000000000E+00 0. -1.
         22    1    1    2    0    0  0.37122453068E+03 -0.63494548511E+03  0.45507391410E+03  0.86490212657E+03  0.00000000000E+00 0. -1.
<mgrwt>
<rscale>  0 0.17018492E+04</rscale>
<asrwt>0</asrwt>
<pdfrwt beam="1">  1        2 0.40617433E+00 0.17018492E+04</pdfrwt>
<pdfrwt beam="2">  1       -2 0.42193252E-01 0.17018492E+04</pdfrwt>
<totfact> 0.14631980E+01</totfact>
</mgrwt>
</event>
<event>
 6    1  0.2003386E-005  0.1119099E+04  0.7818608E-02  0.9186774E-01
         -2   -1    0    0    0  501 -0.00000000000E+00  0.00000000000E+00  0.62886366117E+03  0.62886366117E+03  0.00000000000E+00 0.  1.
          2   -1    0    0  501    0  0.00000000000E+00 -0.00000000000E+00 -0.49787528756E+03  0.49787528756E+03  0.00000000000E+00 0. -1.
         23    2    1    2    0    0  0.50963722771E+03 -0.17901686158E+03 -0.66038366695E+02  0.55176357796E+03  0.91130892012E+02 0.  0.
         11    1    3    3    0    0  0.34134510235E+03 -0.11569161027E+03 -0.86898489635E+02  0.37074570138E+03  0.00000000000E+00 0.  1.
        -11    1    3    3    0    0  0.16829212536E+03 -0.63325251312E+02  0.20860122941E+02  0.18101787658E+03  0.00000000000E+00 0. -1.
         22    1    1    2    0    0 -0.50963722771E+03  0.17901686158E+03  0.19702674031E+03  0.57497537078E+03  0.00000000000E+00 0.  1.
<mgrwt>
<rscale>  0 0.11190991E+04</rscale>
<asrwt>0</asrwt>
<pdfrwt beam="1">  1        2 0.76596199E-01 0.11190991E+04</pdfrwt>
<pdfrwt beam="2">  1       -2 0.96748255E-01 0.11190991E+04</pdfrwt>
<totfact> 0.54825799E+01</totfact>
</mgrwt>
</event>
<event>
 6    1  0.2003386E-005  0.2817467E+04  0.7818608E-02  0.8297866E-01
         -2   -1    0    0    0  501 -0.00000000000E+00  0.00000000000E+00  0.10427345227E+04  0.10427345227E+04  0.00000000000E+00 0.  1.
          2   -1    0    0  501    0  0.00000000000E+00 -0.00000000000E+00 -0.19031973692E+04  0.19031973692E+04  0.00000000000E+00 0. -1.
         23    2    1    2    0    0 -0.55183157768E+03 -0.10002444127E+04 -0.12899626607E+04  0.17254905514E+04  0.91142755222E+02 0.  0.
         13    1    3    3    0    0 -0.30205991125E+03 -0.50358662731E+03 -0.60186037951E+03  0.84087787319E+03  0.00000000000E+00 0. -1.
        -13    1    3    3    0    0 -0.24977166643E+03 -0.49665778534E+03 -0.68810228117E+03  0.88461267820E+03  0.00000000000E+00 0.  1.
         22    1    1    2    0    0  0.55183157768E+03  0.10002444127E+04  0.42949981425E+03  0.12204413405E+04  0.00000000000E+00 0.  1.
<mgrwt>
<rscale>  0 0.28174667E+04</rscale>
<asrwt>0</asrwt>
<pdfrwt beam="1">  1        2 0.29279960E+00 0.28174667E+04</pdfrwt>
<pdfrwt beam="2">  1       -2 0.16042070E+00 0.28174667E+04</pdfrwt>
<totfact> 0.16435948E+00</totfact>
</mgrwt>
</event>
<event>
 6    1  0.2003386E-005  0.1929397E+04  0.7818608E-02  0.8640360E-01
          2   -1    0    0  501    0  0.00000000000E+00  0.00000000000E+00  0.13516304324E+04  0.13516304324E+04  0.00000000000E+00 0. -1.
         -2   -1    0    0    0  501 -0.00000000000E+00 -0.00000000000E+00 -0.68853408150E+03  0.68853408150E+03  0.00000000000E+00 0.  1.
         23    2    1    2    0    0 -0.79295118640E+01  0.54959831638E+03  0.11677771476E+04  0.12939581798E+04  0.92212352945E+02 0.  0.
         11    1    3    3    0    0  0.28655749140E+02  0.44381408764E+03  0.95750572172E+03  0.10557505877E+04  0.00000000000E+00 0.  1.
        -11    1    3    3    0    0 -0.36585261004E+02  0.10578422874E+03  0.21027142588E+03  0.23820759206E+03  0.00000000000E+00 0. -1.
         22    1    1    2    0    0  0.79295118640E+01 -0.54959831638E+03 -0.50468079671E+03  0.74620633412E+03  0.00000000000E+00 0.  1.
<mgrwt>
<rscale>  0 0.19293974E+04</rscale>
<asrwt>0</asrwt>
<pdfrwt beam="1">  1        2 0.20794314E+00 0.19293974E+04</pdfrwt>
<pdfrwt beam="2">  1       -2 0.10592832E+00 0.19293974E+04</pdfrwt>
<totfact> 0.10376478E+01</totfact>
</mgrwt>
</event>
<event>
 6    1  0.2003386E-005  0.1587443E+04  0.7818608E-02  0.8828299E-01
          1   -1    0    0  501    0  0.00000000000E+00  0.00000000000E+00  0.70588141624E+03  0.70588141624E+03  0.00000000000E+00 0. -1.
         -1   -1    0    0    0  501 -0.00000000000E+00 -0.00000000000E+00 -0.89249285391E+03  0.89249285391E+03  0.00000000000E+00 0.  1.
         23    2    1    2    0    0 -0.47220441149E+02 -0.54578470146E+03 -0.66829544110E+03  0.86890172813E+03  0.90888426957E+02 0.  0.
         13    1    3    3    0    0 -0.51101350602E+02 -0.39426033181E+03 -0.53846313955E+03  0.66932436825E+03  0.00000000000E+00 0.  1.
        -13    1    3    3    0    0  0.38809094523E+01 -0.15152436964E+03 -0.12983230154E+03  0.19957735988E+03  0.00000000000E+00 0. -1.
         22    1    1    2    0    0  0.47220441149E+02  0.54578470146E+03  0.48168400343E+03  0.72947254202E+03  0.00000000000E+00 0. -1.
<mgrwt>
<rscale>  0 0.15874434E+04</rscale>
<asrwt>0</asrwt>
<pdfrwt beam="1">  1        1 0.10859714E+00 0.15874434E+04</pdfrwt>
<pdfrwt beam="2">  1       -1 0.13730659E+00 0.15874434E+04</pdfrwt>
<totfact> 0.11394444E+01</totfact>
</mgrwt>
</event>
<event>
 6    1  0.2003386E-005  0.4943964E+04  0.7818608E-02  0.7837210E-01
          2   -1    0    0  501    0  0.00000000000E+00  0.00000000000E+00  0.39282978114E+04  0.39282978114E+04  0.00000000000E+00 0. -1.
         -2   -1    0    0    0  501 -0.00000000000E+00 -0.00000000000E+00 -0.15555576907E+04  0.15555576907E+04  0.00000000000E+00 0.  1.
         23    2    1    2    0    0 -0.14020495809E+03  0.77142871362E+03  0.37861417077E+04  0.38675437325E+04  0.90916452768E+02 0.  0.
         11    1    3    3    0    0 -0.61233305815E+02  0.46241294095E+03  0.24342402407E+04  0.24785279493E+04  0.00000000000E+00 0. -1.
        -11    1    3    3    0    0 -0.78971652276E+02  0.30901577267E+03  0.13519014670E+04  0.13890157832E+04  0.00000000000E+00 0.  1.
         22    1    1    2    0    0  0.14020495809E+03 -0.77142871362E+03 -0.14134015870E+04  0.16163117696E+04  0.00000000000E+00 0.  1.
<mgrwt>
<rscale>  0 0.49439635E+04</rscale>
<asrwt>0</asrwt>
<pdfrwt beam="1">  1        2 0.60435351E+00 0.49439635E+04</pdfrwt>
<pdfrwt beam="2">  1       -2 0.23931657E+00 0.49439635E+04</pdfrwt>
<totfact> 0.21271567E-02</totfact>
</mgrwt>
</event>
<event>
 6    1  0.2003386E-005  0.2148671E+04  0.7818608E-02  0.8540102E-01
          2   -1    0    0  501    0  0.00000000000E+00  0.00000000000E+00  0.12465822291E+04  0.12465822291E+04  0.00000000000E+00 0. -1.
         -2   -1    0    0    0  501 -0.00000000000E+00 -0.00000000000E+00 -0.92588857764E+03  0.92588857764E+03  0.00000000000E+00 0.  1.
         23    2    1    2    0    0  0.60906599883E+03  0.25221164678E+03 -0.69451833955E+03  0.96200499046E+03  0.92335107025E+02 0.  0.
         11    1    3    3    0    0  0.60197115491E+03  0.25282564446E+03 -0.66617365765E+03  0.93277940585E+03  0.00000000000E+00 0.  1.
        -11    1    3    3    0    0  0.70948439228E+01 -0.61399767303E+00 -0.28344681905E+02  0.29225584609E+02  0.00000000000E+00 0. -1.
         22    1    1    2    0    0 -0.60906599883E+03 -0.25221164678E+03  0.10152119910E+04  0.12104658163E+04  0.00000000000E+00 0. -1.
<mgrwt>
<rscale>  0 0.21486705E+04</rscale>
<asrwt>0</asrwt>
<pdfrwt beam="1">  1        2 0.19178188E+00 0.21486705E+04</pdfrwt>
<pdfrwt beam="2">  1       -2 0.14244440E+00 0.21486705E+04</pdfrwt>
<totfact> 0.56004842E+00</totfact>
</mgrwt>
</event>
<event>
 6    1  0.2003386E-005  0.2022888E+04  0.7818608E-02  0.8595994E-01
          1   -1    0    0  501    0  0.00000000000E+00  0.00000000000E+00  0.10942603627E+04  0.10942603627E+04  0.00000000000E+00 0. -1.
         -1   -1    0    0    0  501 -0.00000000000E+00 -0.00000000000E+00 -0.93489567085E+03  0.93489567085E+03  0.00000000000E+00 0.  1.
         23    2    1    2    0    0  0.48975396758E+03  0.65487024684E+03 -0.51388295195E+03  0.96992216946E+03  0.89215119515E+02 0.  0.
         11    1    3    3    0    0  0.39458978149E+03  0.46252104179E+03 -0.37621950810E+03  0.71496008841E+03  0.00000000000E+00 0.  1.
        -11    1    3    3    0    0  0.95164186091E+02  0.19234920505E+03 -0.13766344385E+03  0.25496208104E+03  0.00000000000E+00 0. -1.
         22    1    1    2    0    0 -0.48975396758E+03 -0.65487024684E+03  0.67324764376E+03  0.10592338641E+04  0.00000000000E+00 0. -1.
<mgrwt>
<rscale>  0 0.20228883E+04</rscale>
<asrwt>0</asrwt>
<pdfrwt beam="1">  1        1 0.16834775E+00 0.20228883E+04</pdfrwt>
<pdfrwt beam="2">  1       -1 0.14383010E+00 0.20228883E+04</pdfrwt>
<totfact> 0.46288533E+00</totfact>
</mgrwt>
</event>
<event>
 6    1  0.2003386E-005  0.1264527E+04  0.7818608E-02  0.9058179E-01
          2   -1    0    0  501    0  0.00000000000E+00  0.00000000000E+00  0.20067183649E+04  0.20067183649E+04  0.00000000000E+00 0. -1.
         -2   -1    0    0    0  501 -0.00000000000E+00 -0.00000000000E+00 -0.19920933933E+03  0.19920933933E+03  0.00000000000E+00 0.  1.
         23    2    1    2    0    0  0.19302400423E+03  0.46866576214E+03  0.15590843445E+04  0.16414627496E+04  0.82159005939E+02 0.  0.
         13    1    3    3    0    0  0.17477879187E+01  0.20259382950E+02  0.12845155200E+03  0.13005113830E+03  0.00000000000E+00 0. -1.
        -13    1    3    3    0    0  0.19127621631E+03  0.44840637919E+03  0.14306327925E+04  0.15114116113E+04  0.00000000000E+00 0.  1.
         22    1    1    2    0    0 -0.19302400423E+03 -0.46866576214E+03  0.24842468104E+03  0.56446495459E+03  0.00000000000E+00 0.  1.
<mgrwt>
<rscale>  0 0.12645269E+04</rscale>
<asrwt>0</asrwt>
<pdfrwt beam="1">  1        2 0.30872589E+00 0.12645269E+04</pdfrwt>
<pdfrwt beam="2">  1       -2 0.30647592E-01 0.12645269E+04</pdfrwt>
<totfact> 0.64191689E+01</totfact>
</mgrwt>
</event>
<event>
 6    1  0.2003386E-005  0.2763978E+04  0.7818608E-02  0.8314540E-01
         -2   -1    0    0    0  501 -0.00000000000E+00  0.00000000000E+00  0.80920018305E+03  0.80920018305E+03  0.00000000000E+00 0.  1.
          2   -1    0    0  501    0  0.00000000000E+00 -0.00000000000E+00 -0.23602237152E+04  0.23602237152E+04  0.00000000000E+00 0. -1.
         23    2    1    2    0    0 -0.24914528906E+03 -0.76922271697E+03  0.50647422629E+03  0.95875115237E+03  0.94396328840E+02 0.  0.
         13    1    3    3    0    0 -0.20119384425E+03 -0.66365753338E+03  0.39590934713E+03  0.79853897570E+03  0.00000000000E+00 0.  1.
        -13    1    3    3    0    0 -0.47951444812E+02 -0.10556518360E+03  0.11056487917E+03  0.16021217667E+03  0.00000000000E+00 0. -1.
         22    1    1    2    0    0  0.24914528906E+03  0.76922271697E+03 -0.20574977585E+04  0.22106727459E+04  0.00000000000E+00 0. -1.
<mgrwt>
<rscale>  0 0.27639779E+04</rscale>
<asrwt>0</asrwt>
<pdfrwt beam="1">  1        2 0.36311133E+00 0.27639779E+04</pdfrwt>
<pdfrwt beam="2">  1       -2 0.12449234E+00 0.27639779E+04</pdfrwt>
<totfact> 0.17708092E+00</totfact>
</mgrwt>
</event>
<event>
 6    1  0.2003386E-005  0.4090088E+04  0.7818608E-02  0.7986615E-01
         -2   -1    0    0    0  501 -0.00000000000E+00  0.00000000000E+00  0.10953762522E+04  0.10953762522E+04  0.00000000000E+00 0.  1.
          2   -1    0    0  501    0  0.00000000000E+00 -0.00000000000E+00 -0.38180536281E+04  0.38180536281E+04  0.00000000000E+00 0. -1.
         23    2    1    2    0    0 -0.25237821612E+03  0.47741156727E+03 -0.37302709636E+04  0.37702494891E+04  0.90791958382E+02 0.  0.
         13    1    3    3    0    0 -0.61226906769E+02  0.16273763526E+03 -0.95999230031E+03  0.97561134100E+03  0.00000000000E+00 0. -1.
        -13    1    3    3    0    0 -0.19115130935E+03  0.31467393201E+03 -0.27702786633E+04  0.27946381481E+04  0.00000000000E+00 0.  1.
         22    1    1    2    0    0  0.25237821612E+03 -0.47741156727E+03  0.10075935877E+04  0.11431803911E+04  0.00000000000E+00 0.  1.
<mgrwt>
<rscale>  0 0.40900882E+04</rscale>
<asrwt>0</asrwt>
<pdfrwt beam="1">  1        2 0.58739286E+00 0.40900882E+04</pdfrwt>
<pdfrwt beam="2">  1       -2 0.16851942E+00 0.40900882E+04</pdfrwt>
<totfact> 0.81133501E-02</totfact>
</mgrwt>
</event>
<event>
 6    1  0.2003386E-005  0.2760246E+04  0.7818608E-02  0.8315718E-01
         -2   -1    0    0    0  501 -0.00000000000E+00  0.00000000000E+00  0.94154434834E+03  0.94154434834E+03  0.00000000000E+00 0.  1.
          2   -1    0    0  501    0  0.00000000000E+00 -0.00000000000E+00 -0.20229944889E+04  0.20229944889E+04  0.00000000000E+00 0. -1.
         23    2    1    2    0    0 -0.74979104265E+03 -0.37504467460E+03 -0.17167458661E+04  0.19126615751E+04  0.90624590998E+02 0.  0.
         11    1    3    3    0    0 -0.57786870663E+03 -0.27887970674E+03 -0.12236860501E+04  0.13817068003E+04  0.00000000000E+00 0.  1.
        -11    1    3    3    0    0 -0.17192233601E+03 -0.96164967857E+02 -0.49305981604E+03  0.53095477477E+03  0.00000000000E+00 0. -1.
         22    1    1    2    0    0  0.74979104265E+03  0.37504467460E+03  0.63529572558E+03  0.10518772621E+04  0.00000000000E+00 0.  1.
<mgrwt>
<rscale>  0 0.27602457E+04</rscale>
<asrwt>0</asrwt>
<pdfrwt beam="1">  1        2 0.31122992E+00 0.27602457E+04</pdfrwt>
<pdfrwt beam="2">  1       -2 0.14485298E+00 0.27602457E+04</pdfrwt>
<totfact> 0.18607431E+00</totfact>
</mgrwt>
</event>
<event>
 6    1  0.2003386E-005  0.3734854E+04  0.7818608E-02  0.8060281E-01
         -2   -1    0    0    0  501 -0.00000000000E+00  0.00000000000E+00  0.16990461466E+04  0.16990461466E+04  0.00000000000E+00 0.  1.
          2   -1    0    0  501    0  0.00000000000E+00 -0.00000000000E+00 -0.20524945300E+04  0.20524945300E+04  0.00000000000E+00 0. -1.
         23    2    1    2    0    0 -0.12925122851E+04  0.11079597217E+04 -0.94509064235E+03  0.19492634187E+04  0.90932949169E+02 0.  0.
         13    1    3    3    0    0 -0.10320865913E+04  0.88961056863E+03 -0.79700046304E+03  0.15785497882E+04  0.00000000000E+00 0. -1.
        -13    1    3    3    0    0 -0.26042569385E+03  0.21834915302E+03 -0.14809017932E+03  0.37071363052E+03  0.00000000000E+00 0.  1.
         22    1    1    2    0    0  0.12925122851E+04 -0.11079597217E+04  0.59164225892E+03  0.18022772579E+04  0.00000000000E+00 0.  1.
<mgrwt>
<rscale>  0 0.37348536E+04</rscale>
<asrwt>0</asrwt>
<pdfrwt beam="1">  1        2 0.31576839E+00 0.37348536E+04</pdfrwt>
<pdfrwt beam="2">  1       -2 0.26139171E+00 0.37348536E+04</pdfrwt>
<totfact> 0.27547710E-01</totfact>
</mgrwt>
</event>
<event>
 6    1  0.2003386E-005  0.2624955E+04  0.7818608E-02  0.8359774E-01
          2   -1    0    0  501    0  0.00000000000E+00  0.00000000000E+00  0.20603142514E+04  0.20603142514E+04  0.00000000000E+00 0. -1.
         -2   -1    0    0    0  501 -0.00000000000E+00 -0.00000000000E+00 -0.83608493934E+03  0.83608493934E+03  0.00000000000E+00 0.  1.
         23    2    1    2    0    0  0.10116983273E+03 -0.41135145548E+03 -0.75605165465E+03  0.87131695486E+03  0.90187451100E+02 0.  0.
         13    1    3    3    0    0  0.44595091471E+02 -0.50333721906E+02 -0.13215412114E+03  0.14827986201E+03  0.00000000000E+00 0. -1.
        -13    1    3    3    0    0  0.56574741255E+02 -0.36101773357E+03 -0.62389753351E+03  0.72303709284E+03  0.00000000000E+00 0.  1.
         22    1    1    2    0    0 -0.10116983273E+03  0.41135145548E+03  0.19802809668E+04  0.20250822359E+04  0.00000000000E+00 0. -1.
<mgrwt>
<rscale>  0 0.26249554E+04</rscale>
<asrwt>0</asrwt>
<pdfrwt beam="1">  1        2 0.31697142E+00 0.26249554E+04</pdfrwt>
<pdfrwt beam="2">  1       -2 0.12862845E+00 0.26249554E+04</pdfrwt>
<totfact> 0.24351520E+00</totfact>
</mgrwt>
</event>
<event>
 6    1  0.2003386E-005  0.2197190E+04  0.7818608E-02  0.8519599E-01
          2   -1    0    0  501    0  0.00000000000E+00  0.00000000000E+00  0.32218741243E+04  0.32218741243E+04  0.00000000000E+00 0. -1.
         -2   -1    0    0    0  501 -0.00000000000E+00 -0.00000000000E+00 -0.37459900468E+03  0.37459900468E+03  0.00000000000E+00 0.  1.
         23    2    1    2    0    0 -0.77474715661E+03  0.26792337116E+03  0.23312066664E+03  0.85679803993E+03  0.87986058740E+02 0.  0.
         13    1    3    3    0    0 -0.50856256255E+03  0.15463148152E+03  0.18905214989E+03  0.56416973552E+03  0.00000000000E+00 0.  1.
        -13    1    3    3    0    0 -0.26618459406E+03  0.11329188964E+03  0.44068516750E+02  0.29262830441E+03  0.00000000000E+00 0. -1.
         22    1    1    2    0    0  0.77474715661E+03 -0.26792337116E+03  0.26141544530E+04  0.27396750890E+04  0.00000000000E+00 0. -1.
<mgrwt>
<rscale>  0 0.21971899E+04</rscale>
<asrwt>0</asrwt>
<pdfrwt beam="1">  1        2 0.49567292E+00 0.21971899E+04</pdfrwt>
<pdfrwt beam="2">  1       -2 0.57630618E-01 0.21971899E+04</pdfrwt>
<totfact> 0.32412356E+00</totfact>
</mgrwt>
</event>
<event>
 6    1  0.2003386E-005  0.2288134E+04  0.7818608E-02  0.8482615E-01
          2   -1    0    0  501    0  0.00000000000E+00  0.00000000000E+00  0.76424255111E+03  0.76424255111E+03  0.00000000000E+00 0.  1.
         -2   -1    0    0    0  501 -0.00000000000E+00 -0.00000000000E+00 -0.17126615681E+04  0.17126615681E+04  0.00000000000E+00 0. -1.
         23    2    1    2    0    0 -0.91899850590E+03 -0.34969692644E+03 -0.11042220967E+04  0.14813536213E+04  0.90862084174E+02 0.  0.
         11    1    3    3    0    0 -0.65989251128E+03 -0.28235178160E+03 -0.76132444875E+03  0.10463247924E+04  0.00000000000E+00 0.  1.
        -11    1    3    3    0    0 -0.25910599462E+03 -0.67345144849E+02 -0.34289764799E+03  0.43502882891E+03  0.00000000000E+00 0. -1.
         22    1    1    2    0    0  0.91899850590E+03  0.34969692644E+03  0.15580307971E+03  0.99555049790E+03  0.00000000000E+00 0. -1.
<mgrwt>
<rscale>  0 0.22881336E+04</rscale>
<asrwt>0</asrwt>
<pdfrwt beam="1">  1        2 0.11757578E+00 0.22881336E+04</pdfrwt>
<pdfrwt beam="2">  1       -2 0.26348640E+00 0.22881336E+04</pdfrwt>
<totfact> 0.17637785E+00</totfact>
</mgrwt>
</event>
<event>
 6    1  0.2003386E-005  0.2004131E+04  0.7818608E-02  0.8604692E-01
          2   -1    0    0  501    0  0.00000000000E+00  0.00000000000E+00  0.99588887165E+03  0.99588887165E+03  0.00000000000E+00 0. -1.
         -2   -1    0    0    0  501 -0.00000000000E+00 -0.00000000000E+00 -0.10082805915E+04  0.10082805915E+04  0.00000000000E+00 0.  1.
         23    2    1    2    0    0  0.15753533141E+03  0.23766378544E+03 -0.96490224775E+03  0.10098969848E+04  0.86914421297E+02 0.  0.
         13    1    3    3    0    0  0.14005578629E+02  0.42795636788E+02 -0.73260692971E+02  0.85992743272E+02  0.00000000000E+00 0. -1.
        -13    1    3    3    0    0  0.14352975279E+03  0.19486814865E+03 -0.89164155478E+03  0.92390424152E+03  0.00000000000E+00 0.  1.
         22    1    1    2    0    0 -0.15753533141E+03 -0.23766378544E+03  0.95251052788E+03  0.99427247839E+03  0.00000000000E+00 0. -1.
<mgrwt>
<rscale>  0 0.20041312E+04</rscale>
<asrwt>0</asrwt>
<pdfrwt beam="1">  1        2 0.15321367E+00 0.20041312E+04</pdfrwt>
<pdfrwt beam="2">  1       -2 0.15512009E+00 0.20041312E+04</pdfrwt>
<totfact> 0.64471420E+00</totfact>
</mgrwt>
</event>
<event>
 6    1  0.2445021E-005  0.3463216E+04  0.7818608E-02  0.8122563E-01
         -2   -1    0    0    0  501 -0.00000000000E+00  0.00000000000E+00  0.15528691392E+04  0.15528691392E+04  0.00000000000E+00 0.  1.
          2   -1    0    0  501    0  0.00000000000E+00 -0.00000000000E+00 -0.19309199161E+04  0.19309199161E+04  0.00000000000E+00 0. -1.
         23    2    1    2    0    0  0.78162067041E+03 -0.14371269368E+04 -0.75655705524E+03  0.18046429308E+04  0.89960129488E+02 0.  0.
         13    1    3    3    0    0  0.49765834335E+03 -0.82381424529E+03 -0.45313444362E+03  0.10637972370E+04  0.00000000000E+00 0. -1.
        -13    1    3    3    0    0  0.28396232707E+03 -0.61331269151E+03 -0.30342261162E+03  0.74084569379E+03  0.00000000000E+00 0.  1.
         22    1    1    2    0    0 -0.78162067041E+03  0.14371269368E+04  0.37850627833E+03  0.16791461246E+04  0.00000000000E+00 0.  1.
<mgrwt>
<rscale>  0 0.34632158E+04</rscale>
<asrwt>0</asrwt>
<pdfrwt beam="1">  1        2 0.29706460E+00 0.34632158E+04</pdfrwt>
<pdfrwt beam="2">  1       -2 0.23890295E+00 0.34632158E+04</pdfrwt>
<totfact> 0.45268160E-01</totfact>
</mgrwt>
</event>
<event>
 6    1  0.2003386E-005  0.5989869E+03  0.7818608E-02  0.9907510E-01
          2   -1    0    0  501    0  0.00000000000E+00  0.00000000000E+00  0.17643455138E+03  0.17643455138E+03  0.00000000000E+00 0.  1.
         -2   -1    0    0    0  501 -0.00000000000E+00 -0.00000000000E+00 -0.50838296378E+03  0.50838296378E+03  0.00000000000E+00 0. -1.
         23    2    1    2    0    0 -0.46177394965E+02  0.28877848109E+03 -0.17665420295E+03  0.35369570307E+03  0.91479943187E+02 0.  0.
         13    1    3    3    0    0  0.14268499521E+02  0.17247165045E+03 -0.78989792711E+02  0.19023524289E+03  0.00000000000E+00 0.  1.
        -13    1    3    3    0    0 -0.60445894487E+02  0.11630683065E+03 -0.97664410236E+02  0.16346046018E+03  0.00000000000E+00 0. -1.
         22    1    1    2    0    0  0.46177394965E+02 -0.28877848109E+03 -0.15529420945E+03  0.33112181208E+03  0.00000000000E+00 0.  1.
<mgrwt>
<rscale>  0 0.59898688E+03</rscale>
<asrwt>0</asrwt>
<pdfrwt beam="1">  1        2 0.27143778E-01 0.59898688E+03</pdfrwt>
<pdfrwt beam="2">  1       -2 0.78212762E-01 0.59898688E+03</pdfrwt>
<totfact> 0.29315731E+02</totfact>
</mgrwt>
</event>
<event>
 6    1  0.2003386E-005  0.1990420E+04  0.7818608E-02  0.8611113E-01
          2   -1    0    0  501    0  0.00000000000E+00  0.00000000000E+00  0.16734098347E+04  0.16734098347E+04  0.00000000000E+00 0. -1.
         -2   -1    0    0    0  501 -0.00000000000E+00 -0.00000000000E+00 -0.59187123549E+03  0.59187123549E+03  0.00000000000E+00 0.  1.
         23    2    1    2    0    0  0.39995691756E+03 -0.81762290601E+03  0.99358696728E+03  0.13508368445E+04  0.95248971114E+02 0.  0.
         13    1    3    3    0    0  0.21020528935E+03 -0.51657185005E+03  0.64523179170E+03  0.85285215891E+03  0.00000000000E+00 0. -1.
        -13    1    3    3    0    0  0.18975162821E+03 -0.30105105596E+03  0.34835517558E+03  0.49798468556E+03  0.00000000000E+00 0.  1.
         22    1    1    2    0    0 -0.39995691756E+03  0.81762290601E+03  0.87951631893E+02  0.91444422568E+03  0.00000000000E+00 0.  1.
<mgrwt>
<rscale>  0 0.19904202E+04</rscale>
<asrwt>0</asrwt>
<pdfrwt beam="1">  1        2 0.25744766E+00 0.19904202E+04</pdfrwt>
<pdfrwt beam="2">  1       -2 0.91057114E-01 0.19904202E+04</pdfrwt>
<totfact> 0.97049887E+00</totfact>
</mgrwt>
</event>
<event>
 6    1  0.2003386E-005  0.1575774E+04  0.7818608E-02  0.8835571E-01
         -2   -1    0    0    0  501 -0.00000000000E+00  0.00000000000E+00  0.84998135256E+03  0.84998135256E+03  0.00000000000E+00 0.  1.
          2   -1    0    0  501    0  0.00000000000E+00 -0.00000000000E+00 -0.73032875973E+03  0.73032875973E+03  0.00000000000E+00 0. -1.
         23    2    1    2    0    0  0.30579681713E+03  0.13093839227E+03  0.77343732044E+03  0.84676323172E+03  0.90255891859E+02 0.  0.
         13    1    3    3    0    0  0.91048531159E+02  0.45476859480E+02  0.34824206059E+03  0.36280919578E+03  0.00000000000E+00 0.  1.
        -13    1    3    3    0    0  0.21474828597E+03  0.85461532789E+02  0.42519525985E+03  0.48395403595E+03  0.00000000000E+00 0. -1.
         22    1    1    2    0    0 -0.30579681713E+03 -0.13093839227E+03 -0.65378472761E+03  0.73354688057E+03  0.00000000000E+00 0. -1.
<mgrwt>
<rscale>  0 0.15757739E+04</rscale>
<asrwt>0</asrwt>
<pdfrwt beam="1">  1        2 0.11235827E+00 0.15757739E+04</pdfrwt>
<pdfrwt beam="2">  1       -2 0.13076636E+00 0.15757739E+04</pdfrwt>
<totfact> 0.15949525E+01</totfact>
</mgrwt>
</event>
<event>
 6    1  0.2003386E-005  0.3225628E+04  0.7818608E-02  0.8182081E-01
         -2   -1    0    0    0  501 -0.00000000000E+00  0.00000000000E+00  0.10659932687E+04  0.10659932687E+04  0.00000000000E+00 0.  1.
          2   -1    0    0  501    0  0.00000000000E+00 -0.00000000000E+00 -0.24401367225E+04  0.24401367225E+04  0.00000000000E+00 0. -1.
         23    2    1    2    0    0 -0.36798020114E+03 -0.12478551896E+04  0.34611541135E+03  0.13493169336E+04  0.91149912297E+02 0.  0.
         13    1    3    3    0    0 -0.13113603986E+03 -0.36407709178E+03  0.13919676912E+03  0.41124752916E+03  0.00000000000E+00 0. -1.
        -13    1    3    3    0    0 -0.23684416128E+03 -0.88377809785E+03  0.20691864223E+03  0.93806940440E+03  0.00000000000E+00 0.  1.
         22    1    1    2    0    0  0.36798020114E+03  0.12478551896E+04 -0.17202588651E+04  0.21568130576E+04  0.00000000000E+00 0. -1.
<mgrwt>
<rscale>  0 0.32256282E+04</rscale>
<asrwt>0</asrwt>
<pdfrwt beam="1">  1        2 0.37540565E+00 0.32256282E+04</pdfrwt>
<pdfrwt beam="2">  1       -2 0.16399896E+00 0.32256282E+04</pdfrwt>
<totfact> 0.74567328E-01</totfact>
</mgrwt>
</event>
<event>
 6    1  0.2003386E-005  0.1805787E+04  0.7818608E-02  0.8703228E-01
         -2   -1    0    0    0  501 -0.00000000000E+00  0.00000000000E+00  0.14972666527E+04  0.14972666527E+04  0.00000000000E+00 0.  1.
          2   -1    0    0  501    0  0.00000000000E+00 -0.00000000000E+00 -0.54447022458E+03  0.54447022458E+03  0.00000000000E+00 0. -1.
         23    2    1    2    0    0 -0.33935529867E+03  0.38309862014E+03  0.13152651776E+04  0.14145924236E+04  0.96034711471E+02 0.  0.
         13    1    3    3    0    0 -0.22650660070E+03  0.20091888687E+03  0.85090462710E+03  0.90316793770E+03  0.00000000000E+00 0. -1.
        -13    1    3    3    0    0 -0.11284869797E+03  0.18217973328E+03  0.46436055054E+03  0.51142448587E+03  0.00000000000E+00 0.  1.
         22    1    1    2    0    0  0.33935529867E+03 -0.38309862014E+03 -0.36246874949E+03  0.62714445374E+03  0.00000000000E+00 0. -1.
<mgrwt>
<rscale>  0 0.18057875E+04</rscale>
<asrwt>0</asrwt>
<pdfrwt beam="1">  1        2 0.83764651E-01 0.18057875E+04</pdfrwt>
<pdfrwt beam="2">  1       -2 0.23034871E+00 0.18057875E+04</pdfrwt>
<totfact> 0.44702158E+00</totfact>
</mgrwt>
</event>
<event>
 6    1  0.2003386E-005  0.3566413E+04  0.7818608E-02  0.8098229E-01
          2   -1    0    0  501    0  0.00000000000E+00  0.00000000000E+00  0.38018838014E+04  0.38018838014E+04  0.00000000000E+00 0. -1.
         -2   -1    0    0    0  501 -0.00000000000E+00 -0.00000000000E+00 -0.83638146236E+03  0.83638146236E+03  0.00000000000E+00 0.  1.
         23    2    1    2    0    0 -0.73764281796E+03 -0.14698557796E+04  0.23750886729E+04  0.28909297961E+04  0.10879311467E+03 0.  0.
         11    1    3    3    0    0 -0.15619444465E+03 -0.38288457144E+03  0.53737449843E+03  0.67806242423E+03  0.00000000000E+00 0. -1.
        -11    1    3    3    0    0 -0.58144837331E+03 -0.10869712081E+04  0.18377141745E+04  0.22128673718E+04  0.00000000000E+00 0.  1.
         22    1    1    2    0    0  0.73764281796E+03  0.14698557796E+04  0.59041366615E+03  0.17473354677E+04  0.00000000000E+00 0.  1.
<mgrwt>
<rscale>  0 0.35664128E+04</rscale>
<asrwt>0</asrwt>
<pdfrwt beam="1">  1        2 0.58490519E+00 0.35664128E+04</pdfrwt>
<pdfrwt beam="2">  1       -2 0.12867407E+00 0.35664128E+04</pdfrwt>
<totfact> 0.17789639E-01</totfact>
</mgrwt>
</event>
<event>
 6    1  0.2003386E-005  0.2700452E+04  0.7818608E-02  0.8334858E-01
          2   -1    0    0  501    0  0.00000000000E+00  0.00000000000E+00  0.29629542193E+04  0.29629542193E+04  0.00000000000E+00 0. -1.
         -2   -1    0    0    0  501 -0.00000000000E+00 -0.00000000000E+00 -0.61530173662E+03  0.61530173662E+03  0.00000000000E+00 0.  1.
         23    2    1    2    0    0  0.79270197935E+03 -0.43628028269E+03 -0.14989592385E+03  0.92185520377E+03  0.92904873971E+02 0.  0.
         13    1    3    3    0    0  0.59561836555E+03 -0.28625265856E+03 -0.89104884635E+02  0.66681444374E+03  0.00000000000E+00 0. -1.
        -13    1    3    3    0    0  0.19708361380E+03 -0.15002762413E+03 -0.60791039210E+02  0.25504076003E+03  0.00000000000E+00 0.  1.
         22    1    1    2    0    0 -0.79270197935E+03  0.43628028269E+03  0.24975484065E+04  0.26564007521E+04  0.00000000000E+00 0. -1.
<mgrwt>
<rscale>  0 0.27004525E+04</rscale>
<asrwt>0</asrwt>
<pdfrwt beam="1">  1        2 0.45583910E+00 0.27004525E+04</pdfrwt>
<pdfrwt beam="2">  1       -2 0.94661808E-01 0.27004525E+04</pdfrwt>
<totfact> 0.15136971E+00</totfact>
</mgrwt>
</event>
<event>
 6    1  0.2003386E-005  0.3722043E+04  0.7818608E-02  0.8063094E-01
         -2   -1    0    0    0  501 -0.00000000000E+00  0.00000000000E+00  0.15211370408E+04  0.15211370408E+04  0.00000000000E+00 0. -1.
          2   -1    0    0  501    0  0.00000000000E+00 -0.00000000000E+00 -0.22768504951E+04  0.22768504951E+04  0.00000000000E+00 0.  1.
         23    2    1    2    0    0 -0.18472244335E+04 -0.35264302964E+02 -0.59611172973E+03  0.19435457360E+04  0.92407547163E+02 0.  0.
         13    1    3    3    0    0 -0.72450915973E+03 -0.18092210854E+02 -0.28118466420E+03  0.77737099638E+03  0.00000000000E+00 0. -1.
        -13    1    3    3    0    0 -0.11227152738E+04 -0.17172092111E+02 -0.31492706553E+03  0.11661747396E+04  0.00000000000E+00 0.  1.
         22    1    1    2    0    0  0.18472244335E+04  0.35264302964E+02 -0.15960172461E+03  0.18544417999E+04  0.00000000000E+00 0. -1.
<mgrwt>
<rscale>  0 0.37220433E+04</rscale>
<asrwt>0</asrwt>
<pdfrwt beam="1">  1        2 0.35028469E+00 0.37220433E+04</pdfrwt>
<pdfrwt beam="2">  1       -2 0.23402108E+00 0.37220433E+04</pdfrwt>
<totfact> 0.30427593E-01</totfact>
</mgrwt>
</event>
<event>
 6    1  0.2003386E-005  0.3437294E+04  0.7818608E-02  0.8128813E-01
          2   -1    0    0  501    0  0.00000000000E+00  0.00000000000E+00  0.31169402942E+04  0.31169402942E+04  0.00000000000E+00 0. -1.
         -2   -1    0    0    0  501 -0.00000000000E+00 -0.00000000000E+00 -0.94764341585E+03  0.94764341585E+03  0.00000000000E+00 0.  1.
         23    2    1    2    0    0 -0.10461778248E+04 -0.13598105554E+04  0.99438290797E+03  0.19851617650E+04  0.92179594772E+02 0.  0.
         11    1    3    3    0    0 -0.55778180349E+03 -0.69490189924E+03  0.56509178051E+03  0.10551482883E+04  0.00000000000E+00 0.  1.
        -11    1    3    3    0    0 -0.48839602136E+03 -0.66490865618E+03  0.42929112746E+03  0.93001347671E+03  0.00000000000E+00 0. -1.
         22    1    1    2    0    0  0.10461778248E+04  0.13598105554E+04  0.11749139704E+04  0.20794219451E+04  0.00000000000E+00 0. -1.
<mgrwt>
<rscale>  0 0.34372943E+04</rscale>
<asrwt>0</asrwt>
<pdfrwt beam="1">  1        2 0.47952927E+00 0.34372943E+04</pdfrwt>
<pdfrwt beam="2">  1       -2 0.14579130E+00 0.34372943E+04</pdfrwt>
<totfact> 0.39121681E-01</totfact>
</mgrwt>
</event>
<event>
 6    1  0.2003386E-005  0.3906242E+04  0.7818608E-02  0.8023732E-01
          2   -1    0    0  501    0  0.00000000000E+00  0.00000000000E+00  0.30066768847E+04  0.30066768847E+04  0.00000000000E+00 0. -1.
         -2   -1    0    0    0  501 -0.00000000000E+00 -0.00000000000E+00 -0.12687366150E+04  0.12687366150E+04  0.00000000000E+00 0.  1.
         23    2    1    2    0    0 -0.45718349090E+03 -0.17381000222E+04  0.17032687819E+04  0.24778566735E+04  0.92955471432E+02 0.  0.
         13    1    3    3    0    0 -0.25045691422E+03 -0.10275547753E+04  0.94459229969E+03  0.14180451667E+04  0.00000000000E+00 0.  1.
        -13    1    3    3    0    0 -0.20672657668E+03 -0.71054524687E+03  0.75867648219E+03  0.10598115068E+04  0.00000000000E+00 0. -1.
         22    1    1    2    0    0  0.45718349090E+03  0.17381000222E+04  0.34671487821E+02  0.17975568262E+04  0.00000000000E+00 0.  1.
<mgrwt>
<rscale>  0 0.39062417E+04</rscale>
<asrwt>0</asrwt>
<pdfrwt beam="1">  1        2 0.46256567E+00 0.39062417E+04</pdfrwt>
<pdfrwt beam="2">  1       -2 0.19519025E+00 0.39062417E+04</pdfrwt>
<totfact> 0.19602327E-01</totfact>
</mgrwt>
</event>
<event>
 6    1  0.2003386E-005  0.1008085E+04  0.7818608E-02  0.9299722E-01
         -1   -1    0    0    0  501 -0.00000000000E+00  0.00000000000E+00  0.65839160642E+03  0.65839160642E+03  0.00000000000E+00 0.  1.
          1   -1    0    0  501    0  0.00000000000E+00 -0.00000000000E+00 -0.38587783998E+03  0.38587783998E+03  0.00000000000E+00 0. -1.
         23    2    1    2    0    0 -0.14829795835E+03  0.40797762394E+03 -0.11996635263E+03  0.45905267463E+03  0.88878603906E+02 0.  0.
         13    1    3    3    0    0 -0.25901804278E+02  0.19602583926E+03 -0.41592158697E+02  0.20205677614E+03  0.00000000000E+00 0.  1.
        -13    1    3    3    0    0 -0.12239615407E+03  0.21195178468E+03 -0.78374193936E+02  0.25699589848E+03  0.00000000000E+00 0. -1.
         22    1    1    2    0    0  0.14829795835E+03 -0.40797762394E+03  0.39248011907E+03  0.58521677176E+03  0.00000000000E+00 0.  1.
<mgrwt>
<rscale>  0 0.10080848E+04</rscale>
<asrwt>0</asrwt>
<pdfrwt beam="1">  1        1 0.59365822E-01 0.10080848E+04</pdfrwt>
<pdfrwt beam="2">  1       -1 0.10129102E+00 0.10080848E+04</pdfrwt>
<totfact> 0.58403799E+01</totfact>
</mgrwt>
</event>
<event>
 6    1  0.2003386E-005  0.3572553E+04  0.7818608E-02  0.8096808E-01
         -2   -1    0    0    0  501 -0.00000000000E+00  0.00000000000E+00  0.21353670507E+04  0.21353670507E+04  0.00000000000E+00 0.  1.
          2   -1    0    0  501    0  0.00000000000E+00 -0.00000000000E+00 -0.14942550490E+04  0.14942550490E+04  0.00000000000E+00 0. -1.
         23    2    1    2    0    0 -0.73660910848E+02  0.16864702535E+04 -0.26909413509E+03  0.17117891932E+04  0.90568994199E+02 0.  0.
         11    1    3    3    0    0 -0.11116218628E+02  0.94233047583E+02  0.45637518268E+01  0.94996133627E+02  0.00000000000E+00 0. -1.
        -11    1    3    3    0    0 -0.62544692220E+02  0.15922372059E+04 -0.27365788692E+03  0.16167930596E+04  0.00000000000E+00 0.  1.
         22    1    1    2    0    0  0.73660910848E+02 -0.16864702535E+04  0.91020613682E+03  0.19178329065E+04  0.00000000000E+00 0.  1.
<mgrwt>
<rscale>  0 0.35725526E+04</rscale>
<asrwt>0</asrwt>
<pdfrwt beam="1">  1        2 0.22988539E+00 0.35725526E+04</pdfrwt>
<pdfrwt beam="2">  1       -2 0.32851801E+00 0.35725526E+04</pdfrwt>
<totfact> 0.22145672E-01</totfact>
</mgrwt>
</event>
<event>
 6    1  0.2003386E-005  0.3188204E+03  0.7818608E-02  0.1076193E+00
          2   -1    0    0  501    0  0.00000000000E+00  0.00000000000E+00  0.10809205454E+03  0.10809205454E+03  0.00000000000E+00 0. -1.
         -2   -1    0    0    0  501 -0.00000000000E+00 -0.00000000000E+00 -0.23509229521E+03  0.23509229521E+03  0.00000000000E+00 0.  1.
         23    2    1    2    0    0  0.57922699639E+02  0.84349202718E+02  0.43560921148E+02  0.14428503590E+03  0.91928181756E+02 0.  0.
         13    1    3    3    0    0  0.29568456059E+02 -0.12545246828E+02  0.27036148461E+02  0.41983688920E+02  0.00000000000E+00 0.  1.
        -13    1    3    3    0    0  0.28354243580E+02  0.96894449546E+02  0.16524772687E+02  0.10230134698E+03  0.00000000000E+00 0. -1.
         22    1    1    2    0    0 -0.57922699639E+02 -0.84349202718E+02 -0.17056116182E+03  0.19889931386E+03  0.00000000000E+00 0.  1.
<mgrwt>
<rscale>  0 0.31882038E+03</rscale>
<asrwt>0</asrwt>
<pdfrwt beam="1">  1        2 0.16629547E-01 0.31882038E+03</pdfrwt>
<pdfrwt beam="2">  1       -2 0.36168045E-01 0.31882038E+03</pdfrwt>
<totfact> 0.24932646E+03</totfact>
</mgrwt>
</event>
<event>
 6    1  0.2003386E-005  0.8661456E+03  0.7818608E-02  0.9468919E-01
         -2   -1    0    0    0  501 -0.00000000000E+00  0.00000000000E+00  0.41196381043E+03  0.41196381043E+03  0.00000000000E+00 0.  1.
          2   -1    0    0  501    0  0.00000000000E+00 -0.00000000000E+00 -0.45526342530E+03  0.45526342530E+03  0.00000000000E+00 0. -1.
         23    2    1    2    0    0  0.18403534570E+02 -0.26926361821E+03  0.31106062175E+03  0.42179175950E+03  0.91148185959E+02 0.  0.
         13    1    3    3    0    0  0.52161556964E+02 -0.17333739873E+03  0.17361913257E+03  0.25081922777E+03  0.00000000000E+00 0.  1.
        -13    1    3    3    0    0 -0.33758022394E+02 -0.95926219479E+02  0.13744148918E+03  0.17097253173E+03  0.00000000000E+00 0. -1.
         22    1    1    2    0    0 -0.18403534570E+02  0.26926361821E+03 -0.35436023663E+03  0.44543547623E+03  0.00000000000E+00 0. -1.
<mgrwt>
<rscale>  0 0.86614561E+03</rscale>
<asrwt>0</asrwt>
<pdfrwt beam="1">  1        2 0.70040527E-01 0.86614561E+03</pdfrwt>
<pdfrwt beam="2">  1       -2 0.63379048E-01 0.86614561E+03</pdfrwt>
<totfact> 0.15902397E+02</totfact>
</mgrwt>
</event>
<event>
 6    1  0.2003386E-005  0.9493830E+03  0.7818608E-02  0.9365872E-01
         -2   -1    0    0    0  501 -0.00000000000E+00  0.00000000000E+00  0.12914512097E+03  0.12914512097E+03  0.00000000000E+00 0. -1.
          2   -1    0    0  501    0  0.00000000000E+00 -0.00000000000E+00 -0.17447970007E+04  0.17447970007E+04  0.00000000000E+00 0.  1.
         23    2    1    2    0    0 -0.74677862835E+02  0.36776123922E+03 -0.13748586308E+04  0.14280648953E+04  0.91148111566E+02 0.  0.
         13    1    3    3    0    0 -0.23627903435E+02  0.10749499810E+03 -0.26482377172E+03  0.28678403461E+03  0.00000000000E+00 0. -1.
        -13    1    3    3    0    0 -0.51049959399E+02  0.26026624112E+03 -0.11100348591E+04  0.11412808607E+04  0.00000000000E+00 0.  1.
         22    1    1    2    0    0  0.74677862835E+02 -0.36776123922E+03 -0.24079324894E+03  0.44587722638E+03  0.00000000000E+00 0.  1.
<mgrwt>
<rscale>  0 0.94938300E+03</rscale>
<asrwt>0</asrwt>
<pdfrwt beam="1">  1        2 0.26843032E+00 0.94938300E+03</pdfrwt>
<pdfrwt beam="2">  1       -2 0.19868480E-01 0.94938300E+03</pdfrwt>
<totfact> 0.20070690E+02</totfact>
</mgrwt>
</event>
<event>
 6    1  0.2003386E-005  0.1991511E+04  0.7818608E-02  0.8610600E-01
          2   -1    0    0  501    0  0.00000000000E+00  0.00000000000E+00  0.12656644323E+04  0.12656644323E+04  0.00000000000E+00 0. -1.
         -2   -1    0    0    0  501 -0.00000000000E+00 -0.00000000000E+00 -0.78340568783E+03  0.78340568783E+03  0.00000000000E+00 0.  1.
         23    2    1    2    0    0 -0.19907191616E+03  0.21839274651E+03 -0.73449975067E+03  0.79694143066E+03  0.91108400429E+02 0.  0.
         11    1    3    3    0    0 -0.20253402276E+03  0.19855894981E+03 -0.63558708378E+03  0.69600045115E+03  0.00000000000E+00 0.  1.
        -11    1    3    3    0    0  0.34621065960E+01  0.19833796700E+02 -0.98912666885E+02  0.10094097951E+03  0.00000000000E+00 0. -1.
         22    1    1    2    0    0  0.19907191616E+03 -0.21839274651E+03  0.12167584951E+04  0.12521286895E+04  0.00000000000E+00 0. -1.
<mgrwt>
<rscale>  0 0.19915107E+04</rscale>
<asrwt>0</asrwt>
<pdfrwt beam="1">  1        2 0.19471760E+00 0.19915107E+04</pdfrwt>
<pdfrwt beam="2">  1       -2 0.12052395E+00 0.19915107E+04</pdfrwt>
<totfact> 0.84574491E+00</totfact>
</mgrwt>
</event>
<event>
 6    1  0.2003386E-005  0.3856455E+04  0.7818608E-02  0.8034147E-01
          2   -1    0    0  501    0  0.00000000000E+00  0.00000000000E+00  0.25085328646E+04  0.25085328646E+04  0.00000000000E+00 0. -1.
         -2   -1    0    0    0  501 -0.00000000000E+00 -0.00000000000E+00 -0.14821654285E+04  0.14821654285E+04  0.00000000000E+00 0.  1.
         23    2    1    2    0    0  0.13994189765E+04  0.98462533096E+03 -0.40382570691E+03  0.17606057074E+04  0.93790945378E+02 0.  0.
         13    1    3    3    0    0  0.69202816069E+03  0.53359378984E+03 -0.17806804406E+03  0.89181474313E+03  0.00000000000E+00 0.  1.
        -13    1    3    3    0    0  0.70739081579E+03  0.45103154112E+03 -0.22575766285E+03  0.86879096432E+03  0.00000000000E+00 0. -1.
         22    1    1    2    0    0 -0.13994189765E+04 -0.98462533096E+03  0.14301931431E+04  0.22300925857E+04  0.00000000000E+00 0. -1.
<mgrwt>
<rscale>  0 0.38564547E+04</rscale>
<asrwt>0</asrwt>
<pdfrwt beam="1">  1        2 0.38592813E+00 0.38564547E+04</pdfrwt>
<pdfrwt beam="2">  1       -2 0.22802545E+00 0.38564547E+04</pdfrwt>
<totfact> 0.24163349E-01</totfact>
</mgrwt>
</event>
<event>
 6    1  0.2003386E-005  0.1485217E+04  0.7818608E-02  0.8894344E-01
         -2   -1    0    0    0  501 -0.00000000000E+00  0.00000000000E+00  0.20638958665E+03  0.20638958665E+03  0.00000000000E+00 0.  1.
          2   -1    0    0  501    0  0.00000000000E+00 -0.00000000000E+00 -0.26719713321E+04  0.26719713321E+04  0.00000000000E+00 0. -1.
         23    2    1    2    0    0 -0.32031397164E+03 -0.57252750565E+03 -0.19003237325E+04  0.20123901304E+04  0.89972013517E+02 0.  0.
         11    1    3    3    0    0 -0.10618297352E+03 -0.27839975400E+03 -0.82085556282E+03  0.87326118768E+03  0.00000000000E+00 0. -1.
        -11    1    3    3    0    0 -0.21413099812E+03 -0.29412775165E+03 -0.10794681697E+04  0.11391289427E+04  0.00000000000E+00 0.  1.
         22    1    1    2    0    0  0.32031397164E+03  0.57252750565E+03 -0.56525801291E+03  0.86597078837E+03  0.00000000000E+00 0.  1.
<mgrwt>
<rscale>  0 0.14852166E+04</rscale>
<asrwt>0</asrwt>
<pdfrwt beam="1">  1        2 0.41107250E+00 0.14852166E+04</pdfrwt>
<pdfrwt beam="2">  1       -2 0.31752245E-01 0.14852166E+04</pdfrwt>
<totfact> 0.24709799E+01</totfact>
</mgrwt>
</event>
<event>
 6    1  0.2003386E-005  0.1955607E+04  0.7818608E-02  0.8627662E-01
         -2   -1    0    0    0  501 -0.00000000000E+00  0.00000000000E+00  0.40382634575E+04  0.40382634575E+04  0.00000000000E+00 0.  1.
          2   -1    0    0  501    0  0.00000000000E+00 -0.00000000000E+00 -0.23676014875E+03  0.23676014875E+03  0.00000000000E+00 0. -1.
         23    2    1    2    0    0  0.48930308653E+02 -0.51628225877E+03  0.37117875707E+04  0.37487247752E+04  0.81418209353E+02 0.  0.
         11    1    3    3    0    0  0.59037905661E+02 -0.28241722094E+03  0.18715691540E+04  0.18936779186E+04  0.00000000000E+00 0.  1.
        -11    1    3    3    0    0 -0.10107597008E+02 -0.23386503783E+03  0.18402184167E+04  0.18550468567E+04  0.00000000000E+00 0. -1.
         22    1    1    2    0    0 -0.48930308653E+02  0.51628225877E+03  0.89715738017E+02  0.52629883097E+03  0.00000000000E+00 0. -1.
<mgrwt>
<rscale>  0 0.19556072E+04</rscale>
<asrwt>0</asrwt>
<pdfrwt beam="1">  1        2 0.36424641E-01 0.19556072E+04</pdfrwt>
<pdfrwt beam="2">  1       -2 0.62127125E+00 0.19556072E+04</pdfrwt>
<totfact> 0.55123573E-02</totfact>
</mgrwt>
</event>
<event>
 6    1  0.2003386E-005  0.6133994E+03  0.7818608E-02  0.9877990E-01
         -2   -1    0    0    0  501 -0.00000000000E+00  0.00000000000E+00  0.75242429420E+03  0.75242429420E+03  0.00000000000E+00 0.  1.
          2   -1    0    0  501    0  0.00000000000E+00 -0.00000000000E+00 -0.12501552227E+03  0.12501552227E+03  0.00000000000E+00 0. -1.
         23    2    1    2    0    0  0.83660464709E+02  0.28732968500E+03  0.29396065139E+03  0.42939398139E+03  0.91700084265E+02 0.  0.
         13    1    3    3    0    0  0.32263168284E+02  0.14175652366E+03  0.20467767681E+03  0.25105532341E+03  0.00000000000E+00 0.  1.
        -13    1    3    3    0    0  0.51397296425E+02  0.14557316133E+03  0.89282974580E+02  0.17833865798E+03  0.00000000000E+00 0. -1.
         22    1    1    2    0    0 -0.83660464709E+02 -0.28732968500E+03  0.33344812054E+03  0.44804583507E+03  0.00000000000E+00 0. -1.
<mgrwt>
<rscale>  0 0.61339943E+03</rscale>
<asrwt>0</asrwt>
<pdfrwt beam="1">  1        2 0.19233158E-01 0.61339943E+03</pdfrwt>
<pdfrwt beam="2">  1       -2 0.11575758E+00 0.61339943E+03</pdfrwt>
<totfact> 0.17490798E+02</totfact>
</mgrwt>
</event>
<event>
 6    1  0.2003386E-005  0.2326675E+04  0.7818608E-02  0.8467477E-01
         -2   -1    0    0    0  501 -0.00000000000E+00  0.00000000000E+00  0.15567259187E+04  0.15567259187E+04  0.00000000000E+00 0.  1.
          2   -1    0    0  501    0  0.00000000000E+00 -0.00000000000E+00 -0.86935892758E+03  0.86935892758E+03  0.00000000000E+00 0. -1.
         23    2    1    2    0    0 -0.10291153465E+03  0.42017431280E+03 -0.77906750778E+03  0.89717432677E+03  0.10410741486E+03 0.  0.
         11    1    3    3    0    0 -0.16975724445E+02  0.11800638958E+03 -0.13194637041E+03  0.17783005333E+03  0.00000000000E+00 0.  1.
        -11    1    3    3    0    0 -0.85935810204E+02  0.30216792322E+03 -0.64712113737E+03  0.71934427344E+03  0.00000000000E+00 0. -1.
         22    1    1    2    0    0  0.10291153465E+03 -0.42017431280E+03  0.14664344989E+04  0.15289105195E+04  0.00000000000E+00 0.  1.
<mgrwt>
<rscale>  0 0.23266745E+04</rscale>
<asrwt>0</asrwt>
<pdfrwt beam="1">  1        2 0.13374753E+00 0.23266745E+04</pdfrwt>
<pdfrwt beam="2">  1       -2 0.23949630E+00 0.23266745E+04</pdfrwt>
<totfact> 0.20764289E+00</totfact>
</mgrwt>
</event>
<event>
 6    1  0.2003386E-005  0.4412535E+04  0.7818608E-02  0.7926131E-01
          2   -1    0    0  501    0  0.00000000000E+00  0.00000000000E+00  0.30347144522E+04  0.30347144522E+04  0.00000000000E+00 0. -1.
         -2   -1    0    0    0  501 -0.00000000000E+00 -0.00000000000E+00 -0.16039781713E+04  0.16039781713E+04  0.00000000000E+00 0.  1.
         23    2    1    2    0    0 -0.12271104631E+04 -0.75369292929E+03  0.24714764251E+04  0.28618996788E+04  0.91765633646E+02 0.  0.
         11    1    3    3    0    0 -0.70578095457E+03 -0.48078119195E+03  0.15031957246E+04  0.17288362262E+04  0.00000000000E+00 0.  1.
        -11    1    3    3    0    0 -0.52132950854E+03 -0.27291173734E+03  0.96828070051E+03  0.11330634527E+04  0.00000000000E+00 0. -1.
         22    1    1    2    0    0  0.12271104631E+04  0.75369292929E+03 -0.10407401443E+04  0.17767929447E+04  0.00000000000E+00 0.  1.
<mgrwt>
<rscale>  0 0.44125348E+04</rscale>
<asrwt>0</asrwt>
<pdfrwt beam="1">  1        2 0.46687915E+00 0.44125348E+04</pdfrwt>
<pdfrwt beam="2">  1       -2 0.24676587E+00 0.44125348E+04</pdfrwt>
<totfact> 0.84951141E-02</totfact>
</mgrwt>
</event>
<event>
 6    1  0.2003386E-005  0.4174399E+04  0.7818608E-02  0.7970260E-01
          2   -1    0    0  501    0  0.00000000000E+00  0.00000000000E+00  0.27905216895E+04  0.27905216895E+04  0.00000000000E+00 0. -1.
         -2   -1    0    0    0  501 -0.00000000000E+00 -0.00000000000E+00 -0.15611423475E+04  0.15611423475E+04  0.00000000000E+00 0.  1.
         23    2    1    2    0    0 -0.17642706336E+03  0.14245981341E+04 -0.96306895867E+03  0.17310847301E+04  0.92445504098E+02 0.  0.
         13    1    3    3    0    0 -0.10834972240E+03  0.76837003351E+03 -0.46720844355E+03  0.90576812732E+03  0.00000000000E+00 0. -1.
        -13    1    3    3    0    0 -0.68077340958E+02  0.65622810059E+03 -0.49586051511E+03  0.82531660277E+03  0.00000000000E+00 0.  1.
         22    1    1    2    0    0  0.17642706336E+03 -0.14245981341E+04  0.21924483007E+04  0.26205793069E+04  0.00000000000E+00 0. -1.
<mgrwt>
<rscale>  0 0.41743989E+04</rscale>
<asrwt>0</asrwt>
<pdfrwt beam="1">  1        2 0.42931103E+00 0.41743989E+04</pdfrwt>
<pdfrwt beam="2">  1       -2 0.24017575E+00 0.41743989E+04</pdfrwt>
<totfact> 0.13464430E-01</totfact>
</mgrwt>
</event>
<event>
 6    1  0.2003386E-005  0.2294761E+04  0.7818608E-02  0.8479990E-01
         -2   -1    0    0    0  501 -0.00000000000E+00  0.00000000000E+00  0.85128558687E+03  0.85128558687E+03  0.00000000000E+00 0.  1.
          2   -1    0    0  501    0  0.00000000000E+00 -0.00000000000E+00 -0.15464629828E+04  0.15464629828E+04  0.00000000000E+00 0. -1.
         23    2    1    2    0    0 -0.97864836970E+03  0.12124664983E+03  0.26106411756E+03  0.10241215410E+04  0.90648087375E+02 0.  0.
         11    1    3    3    0    0 -0.33032121813E+03  0.76906841915E+02  0.11444701917E+03  0.35794537247E+03  0.00000000000E+00 0. -1.
        -11    1    3    3    0    0 -0.64832715158E+03  0.44339807918E+02  0.14661709838E+03  0.66617616858E+03  0.00000000000E+00 0.  1.
         22    1    1    2    0    0  0.97864836970E+03 -0.12124664983E+03 -0.95624151345E+03  0.13736270286E+04  0.00000000000E+00 0. -1.
<mgrwt>
<rscale>  0 0.22947607E+04</rscale>
<asrwt>0</asrwt>
<pdfrwt beam="1">  1        2 0.23791738E+00 0.22947607E+04</pdfrwt>
<pdfrwt beam="2">  1       -2 0.13096701E+00 0.22947607E+04</pdfrwt>
<totfact> 0.46206427E+00</totfact>
</mgrwt>
</event>
<event>
 6    1  0.2003386E-005  0.2473758E+04  0.7818608E-02  0.8412394E-01
         -2   -1    0    0    0  501 -0.00000000000E+00  0.00000000000E+00  0.14368517093E+04  0.14368517093E+04  0.00000000000E+00 0. -1.
          2   -1    0    0  501    0  0.00000000000E+00 -0.00000000000E+00 -0.10647375447E+04  0.10647375447E+04  0.00000000000E+00 0.  1.
         23    2    1    2    0    0 -0.33274590524E+03  0.11514994200E+04  0.48825013577E+03  0.12973640609E+04  0.89969771649E+02 0.  0.
         13    1    3    3    0    0 -0.14349788936E+03  0.41188099550E+03  0.21700488836E+03  0.48716395626E+03  0.00000000000E+00 0.  1.
        -13    1    3    3    0    0 -0.18924801589E+03  0.73961842451E+03  0.27124524741E+03  0.81020010468E+03  0.00000000000E+00 0. -1.
         22    1    1    2    0    0  0.33274590524E+03 -0.11514994200E+04 -0.11613597118E+03  0.12042251930E+04  0.00000000000E+00 0.  1.
<mgrwt>
<rscale>  0 0.24737582E+04</rscale>
<asrwt>0</asrwt>
<pdfrwt beam="1">  1        2 0.16380578E+00 0.24737582E+04</pdfrwt>
<pdfrwt beam="2">  1       -2 0.22105411E+00 0.24737582E+04</pdfrwt>
<totfact> 0.19931159E+00</totfact>
</mgrwt>
</event>
<event>
 6    1  0.2003386E-005  0.2433990E+04  0.7818608E-02  0.8426887E-01
         -2   -1    0    0    0  501 -0.00000000000E+00  0.00000000000E+00  0.99893359221E+03  0.99893359221E+03  0.00000000000E+00 0.  1.
          2   -1    0    0  501    0  0.00000000000E+00 -0.00000000000E+00 -0.14826577832E+04  0.14826577832E+04  0.00000000000E+00 0. -1.
         23    2    1    2    0    0  0.58490152269E+03  0.16015645449E+03 -0.13159327563E+04  0.14518676370E+04  0.92090905518E+02 0.  0.
         11    1    3    3    0    0  0.99621194577E+02  0.64294409792E+02 -0.24156910918E+03  0.26909810117E+03  0.00000000000E+00 0. -1.
        -11    1    3    3    0    0  0.48528032811E+03  0.95862044694E+02 -0.10743636472E+04  0.11827695358E+04  0.00000000000E+00 0.  1.
         22    1    1    2    0    0 -0.58490152269E+03 -0.16015645449E+03  0.83220856538E+03  0.10297237384E+04  0.00000000000E+00 0.  1.
<mgrwt>
<rscale>  0 0.24339899E+04</rscale>
<asrwt>0</asrwt>
<pdfrwt beam="1">  1        2 0.22810120E+00 0.24339899E+04</pdfrwt>
<pdfrwt beam="2">  1       -2 0.15368209E+00 0.24339899E+04</pdfrwt>
<totfact> 0.32707674E+00</totfact>
</mgrwt>
</event>
<event>
 6    1  0.2003386E-005  0.1731511E+04  0.7818608E-02  0.8743594E-01
          1   -1    0    0  501    0  0.00000000000E+00  0.00000000000E+00  0.43175480464E+04  0.43175480464E+04  0.00000000000E+00 0. -1.
         -1   -1    0    0    0  501 -0.00000000000E+00 -0.00000000000E+00 -0.17360146813E+03  0.17360146813E+03  0.00000000000E+00 0.  1.
         23    2    1    2    0    0  0.20467697527E+02 -0.46640700765E+03  0.39616085636E+04  0.39899493798E+04  0.86018713506E+02 0.  0.
         13    1    3    3    0    0  0.23912568954E+02 -0.26024121688E+03  0.25507864722E+04  0.25641390229E+04  0.00000000000E+00 0.  1.
        -13    1    3    3    0    0 -0.34448714264E+01 -0.20616579076E+03  0.14108220914E+04  0.14258103569E+04  0.00000000000E+00 0. -1.
         22    1    1    2    0    0 -0.20467697527E+02  0.46640700765E+03  0.18233801469E+03  0.50120013470E+03  0.00000000000E+00 0.  1.
<mgrwt>
<rscale>  0 0.17315111E+04</rscale>
<asrwt>0</asrwt>
<pdfrwt beam="1">  1        1 0.66423808E+00 0.17315111E+04</pdfrwt>
<pdfrwt beam="2">  1       -1 0.26707921E-01 0.17315111E+04</pdfrwt>
<totfact> 0.59091119E-01</totfact>
</mgrwt>
</event>
<event>
 6    1  0.2003386E-005  0.2412874E+04  0.7818608E-02  0.8434699E-01
          1   -1    0    0  501    0  0.00000000000E+00  0.00000000000E+00  0.27229591204E+04  0.27229591204E+04  0.00000000000E+00 0. -1.
         -1   -1    0    0    0  501 -0.00000000000E+00 -0.00000000000E+00 -0.53452526896E+03  0.53452526896E+03  0.00000000000E+00 0.  1.
         23    2    1    2    0    0 -0.26772888850E+03  0.22482467385E+03  0.26522410588E+04  0.26766728732E+04  0.89275666383E+02 0.  0.
         13    1    3    3    0    0 -0.86349974679E+02  0.11995481763E+03  0.12849882751E+04  0.12934606076E+04  0.00000000000E+00 0. -1.
        -13    1    3    3    0    0 -0.18137891382E+03  0.10486985622E+03  0.13672527837E+04  0.13832122656E+04  0.00000000000E+00 0.  1.
         22    1    1    2    0    0  0.26772888850E+03 -0.22482467385E+03 -0.46380720734E+03  0.58081151614E+03  0.00000000000E+00 0.  1.
<mgrwt>
<rscale>  0 0.24128742E+04</rscale>
<asrwt>0</asrwt>
<pdfrwt beam="1">  1        1 0.41891678E+00 0.24128742E+04</pdfrwt>
<pdfrwt beam="2">  1       -1 0.82234658E-01 0.24128742E+04</pdfrwt>
<totfact> 0.12442589E+00</totfact>
</mgrwt>
</event>
<event>
 6    1  0.2003386E-005  0.4311688E+04  0.7818608E-02  0.7944460E-01
         -2   -1    0    0    0  501 -0.00000000000E+00  0.00000000000E+00  0.13482217668E+04  0.13482217668E+04  0.00000000000E+00 0. -1.
          2   -1    0    0  501    0  0.00000000000E+00 -0.00000000000E+00 -0.34472543130E+04  0.34472543130E+04  0.00000000000E+00 0.  1.
         23    2    1    2    0    0  0.24929570167E+03  0.21070929326E+04 -0.14686018393E+04  0.25820100535E+04  0.89418009924E+02 0.  0.
         13    1    3    3    0    0  0.15223822560E+03  0.15081117586E+04 -0.10860274223E+04  0.18646804326E+04  0.00000000000E+00 0. -1.
        -13    1    3    3    0    0  0.97057476071E+02  0.59898117400E+03 -0.38257441702E+03  0.71732962090E+03  0.00000000000E+00 0.  1.
         22    1    1    2    0    0 -0.24929570167E+03 -0.21070929326E+04 -0.63043070693E+03  0.22134660263E+04  0.00000000000E+00 0. -1.
<mgrwt>
<rscale>  0 0.43116880E+04</rscale>
<asrwt>0</asrwt>
<pdfrwt beam="1">  1        2 0.53034680E+00 0.43116880E+04</pdfrwt>
<pdfrwt beam="2">  1       -2 0.20741874E+00 0.43116880E+04</pdfrwt>
<totfact> 0.80843673E-02</totfact>
</mgrwt>
</event>
<event>
 6    1  0.2003386E-005  0.3279638E+04  0.7818608E-02  0.8168096E-01
          2   -1    0    0  501    0  0.00000000000E+00  0.00000000000E+00  0.16854955648E+04  0.16854955648E+04  0.00000000000E+00 0.  1.
         -2   -1    0    0    0  501 -0.00000000000E+00 -0.00000000000E+00 -0.15953803426E+04  0.15953803426E+04  0.00000000000E+00 0. -1.
         23    2    1    2    0    0  0.21078642847E+03 -0.11205560765E+04  0.12222272667E+04  0.16740920015E+04  0.93100478609E+02 0.  0.
         13    1    3    3    0    0  0.63518973570E+02 -0.50236552908E+03  0.59321692023E+03  0.77994365133E+03  0.00000000000E+00 0. -1.
        -13    1    3    3    0    0  0.14726745490E+03 -0.61819054738E+03  0.62901034645E+03  0.89414835015E+03  0.00000000000E+00 0.  1.
         22    1    1    2    0    0 -0.21078642847E+03  0.11205560765E+04 -0.11321120445E+04  0.16067839059E+04  0.00000000000E+00 0. -1.
<mgrwt>
<rscale>  0 0.32796381E+04</rscale>
<asrwt>0</asrwt>
<pdfrwt beam="1">  1        2 0.25930701E+00 0.32796381E+04</pdfrwt>
<pdfrwt beam="2">  1       -2 0.24544313E+00 0.32796381E+04</pdfrwt>
<totfact> 0.57303047E-01</totfact>
</mgrwt>
</event>
<event>
 6    1  0.2853251E-005  0.3114697E+04  0.7818608E-02  0.8211716E-01
          2   -1    0    0  501    0  0.00000000000E+00  0.00000000000E+00  0.30238960043E+04  0.30238960043E+04  0.00000000000E+00 0. -1.
         -2   -1    0    0    0  501 -0.00000000000E+00 -0.00000000000E+00 -0.80205631300E+03  0.80205631300E+03  0.00000000000E+00 0.  1.
         23    2    1    2    0    0 -0.15218185429E+04  0.52607584375E+00  0.15105075330E+04  0.21460935751E+04  0.90292146585E+02 0.  0.
         13    1    3    3    0    0 -0.79257966876E+03  0.16985403932E+02  0.72760379565E+03  0.10760475448E+04  0.00000000000E+00 0. -1.
        -13    1    3    3    0    0 -0.72923887414E+03 -0.16459328088E+02  0.78290373732E+03  0.10700460303E+04  0.00000000000E+00 0.  1.
         22    1    1    2    0    0  0.15218185429E+04 -0.52607584375E+00  0.71133215836E+03  0.16798587422E+04  0.00000000000E+00 0.  1.
<mgrwt>
<rscale>  0 0.31146973E+04</rscale>
<asrwt>0</asrwt>
<pdfrwt beam="1">  1        2 0.46521476E+00 0.31146973E+04</pdfrwt>
<pdfrwt beam="2">  1       -2 0.12339328E+00 0.31146973E+04</pdfrwt>
<totfact> 0.70593761E-01</totfact>
</mgrwt>
</event>
<event>
 6    1  0.2924734E-005  0.4067509E+04  0.7818608E-02  0.7991065E-01
         -2   -1    0    0    0  501 -0.00000000000E+00  0.00000000000E+00  0.18197407423E+04  0.18197407423E+04  0.00000000000E+00 0.  1.
          2   -1    0    0  501    0  0.00000000000E+00 -0.00000000000E+00 -0.22729373309E+04  0.22729373309E+04  0.00000000000E+00 0. -1.
         23    2    1    2    0    0  0.83831457807E+03 -0.14185430712E+04  0.97089652599E+03  0.19148174313E+04  0.94074196815E+02 0.  0.
         13    1    3    3    0    0  0.49260610554E+03 -0.90639257951E+03  0.63776023187E+03  0.12128257899E+04  0.00000000000E+00 0. -1.
        -13    1    3    3    0    0  0.34570847253E+03 -0.51215049170E+03  0.33313629413E+03  0.70199164140E+03  0.00000000000E+00 0.  1.
         22    1    1    2    0    0 -0.83831457807E+03  0.14185430712E+04 -0.14240931146E+04  0.21778606419E+04  0.00000000000E+00 0. -1.
<mgrwt>
<rscale>  0 0.40675087E+04</rscale>
<asrwt>0</asrwt>
<pdfrwt beam="1">  1        2 0.34968267E+00 0.40675087E+04</pdfrwt>
<pdfrwt beam="2">  1       -2 0.27996011E+00 0.40675087E+04</pdfrwt>
<totfact> 0.15528119E-01</totfact>
</mgrwt>
</event>
<event>
 6    1  0.2003386E-005  0.2197783E+04  0.7818608E-02  0.8519351E-01
          2   -1    0    0  501    0  0.00000000000E+00  0.00000000000E+00  0.19976949270E+04  0.19976949270E+04  0.00000000000E+00 0. -1.
         -2   -1    0    0    0  501 -0.00000000000E+00 -0.00000000000E+00 -0.60447791034E+03  0.60447791034E+03  0.00000000000E+00 0.  1.
         23    2    1    2    0    0  0.75745313010E+03 -0.17145911053E+03 -0.21966711891E+03  0.81205309115E+03  0.89683381018E+02 0.  0.
         13    1    3    3    0    0  0.28834247423E+03 -0.10952384093E+03 -0.78824790017E+02  0.31835546438E+03  0.00000000000E+00 0. -1.
        -13    1    3    3    0    0  0.46911065587E+03 -0.61935269598E+02 -0.14084232889E+03  0.49369762677E+03  0.00000000000E+00 0.  1.
         22    1    1    2    0    0 -0.75745313010E+03  0.17145911053E+03  0.16128841356E+04  0.17901197462E+04  0.00000000000E+00 0. -1.
<mgrwt>
<rscale>  0 0.21977829E+04</rscale>
<asrwt>0</asrwt>
<pdfrwt beam="1">  1        2 0.30733768E+00 0.21977829E+04</pdfrwt>
<pdfrwt beam="2">  1       -2 0.92996602E-01 0.21977829E+04</pdfrwt>
<totfact> 0.60001730E+00</totfact>
</mgrwt>
</event>
<event>
 6    1  0.2003386E-005  0.1810380E+04  0.7818608E-02  0.8700799E-01
          2   -1    0    0  501    0  0.00000000000E+00  0.00000000000E+00  0.18027836023E+04  0.18027836023E+04  0.00000000000E+00 0. -1.
         -2   -1    0    0    0  501 -0.00000000000E+00 -0.00000000000E+00 -0.45450229346E+03  0.45450229346E+03  0.00000000000E+00 0.  1.
         23    2    1    2    0    0 -0.58568123935E+03  0.64699832565E+03  0.38756749733E+03  0.95936433606E+03  0.92423031744E+02 0.  0.
         13    1    3    3    0    0 -0.18557034513E+03  0.19973655155E+03  0.75164080277E+02  0.28280856066E+03  0.00000000000E+00 0.  1.
        -13    1    3    3    0    0 -0.40011089421E+03  0.44726177410E+03  0.31240341706E+03  0.67655577540E+03  0.00000000000E+00 0. -1.
         22    1    1    2    0    0  0.58568123935E+03 -0.64699832565E+03  0.96071381151E+03  0.12979215597E+04  0.00000000000E+00 0.  1.
<mgrwt>
<rscale>  0 0.18103804E+04</rscale>
<asrwt>0</asrwt>
<pdfrwt beam="1">  1        2 0.27735132E+00 0.18103804E+04</pdfrwt>
<pdfrwt beam="2">  1       -2 0.69923431E-01 0.18103804E+04</pdfrwt>
<totfact> 0.15111322E+01</totfact>
</mgrwt>
</event>
<event>
 6    1  0.2003386E-005  0.1619618E+04  0.7818608E-02  0.8808586E-01
          2   -1    0    0  501    0  0.00000000000E+00  0.00000000000E+00  0.27685732957E+04  0.27685732957E+04  0.00000000000E+00 0. -1.
         -2   -1    0    0    0  501 -0.00000000000E+00 -0.00000000000E+00 -0.23686937145E+03  0.23686937145E+03  0.00000000000E+00 0.  1.
         23    2    1    2    0    0  0.50469233864E+03 -0.18096375482E+03  0.14972135090E+03  0.56386464936E+03  0.89803244029E+02 0.  0.
         11    1    3    3    0    0  0.17723607484E+03 -0.10891865305E+03  0.48133653225E+02  0.21352458354E+03  0.00000000000E+00 0.  1.
        -11    1    3    3    0    0  0.32745626381E+03 -0.72045101768E+02  0.10158769768E+03  0.35034006581E+03  0.00000000000E+00 0. -1.
         22    1    1    2    0    0 -0.50469233864E+03  0.18096375482E+03  0.23819825733E+04  0.24415780178E+04  0.00000000000E+00 0. -1.
<mgrwt>
<rscale>  0 0.16196175E+04</rscale>
<asrwt>0</asrwt>
<pdfrwt beam="1">  1        2 0.42593433E+00 0.16196175E+04</pdfrwt>
<pdfrwt beam="2">  1       -2 0.36441444E-01 0.16196175E+04</pdfrwt>
<totfact> 0.16459425E+01</totfact>
</mgrwt>
</event>
<event>
 6    1  0.2003386E-005  0.3624137E+04  0.7818608E-02  0.8084985E-01
         -1   -1    0    0    0  501 -0.00000000000E+00  0.00000000000E+00  0.70266283822E+03  0.70266283822E+03  0.00000000000E+00 0.  1.
          1   -1    0    0  501    0  0.00000000000E+00 -0.00000000000E+00 -0.46730687682E+04  0.46730687682E+04  0.00000000000E+00 0. -1.
         23    2    1    2    0    0 -0.11866058263E+04 -0.13152223037E+04 -0.14291726953E+04  0.22780373917E+04  0.95271558370E+02 0.  0.
         13    1    3    3    0    0 -0.51971853881E+03 -0.56768664241E+03 -0.56100181431E+03  0.95241719809E+03  0.00000000000E+00 0. -1.
        -13    1    3    3    0    0 -0.66688728747E+03 -0.74753566127E+03 -0.86817088096E+03  0.13256201936E+04  0.00000000000E+00 0.  1.
         22    1    1    2    0    0  0.11866058263E+04  0.13152223037E+04 -0.25412332347E+04  0.30976942148E+04  0.00000000000E+00 0. -1.
<mgrwt>
<rscale>  0 0.36241367E+04</rscale>
<asrwt>0</asrwt>
<pdfrwt beam="1">  1        1 0.71893364E+00 0.36241367E+04</pdfrwt>
<pdfrwt beam="2">  1       -1 0.10810198E+00 0.36241367E+04</pdfrwt>
<totfact> 0.13472250E-02</totfact>
</mgrwt>
</event>
<event>
 6    1  0.2003386E-005  0.5937747E+03  0.7818608E-02  0.9918406E-01
         -1   -1    0    0    0  501 -0.00000000000E+00  0.00000000000E+00  0.30945233113E+03  0.30945233113E+03  0.00000000000E+00 0.  1.
          1   -1    0    0  501    0  0.00000000000E+00 -0.00000000000E+00 -0.28483253194E+03  0.28483253194E+03  0.00000000000E+00 0. -1.
         23    2    1    2    0    0  0.12167120951E+03 -0.19365875712E+03 -0.16382366051E+03  0.29794294074E+03  0.98103041548E+02 0.  0.
         11    1    3    3    0    0  0.10176641562E+03 -0.16104981815E+03 -0.17442285525E+03  0.25829591500E+03  0.00000000000E+00 0. -1.
        -11    1    3    3    0    0  0.19904793886E+02 -0.32608938971E+02  0.10599194740E+02  0.39647025735E+02  0.00000000000E+00 0.  1.
         22    1    1    2    0    0 -0.12167120951E+03  0.19365875712E+03  0.18844345970E+03  0.29634192234E+03  0.00000000000E+00 0.  1.
<mgrwt>
<rscale>  0 0.59377467E+03</rscale>
<asrwt>0</asrwt>
<pdfrwt beam="1">  1        1 0.43820390E-01 0.59377467E+03</pdfrwt>
<pdfrwt beam="2">  1       -1 0.47608051E-01 0.59377467E+03</pdfrwt>
<totfact> 0.41852786E+02</totfact>
</mgrwt>
</event>
<event>
 6    1  0.2003386E-005  0.4250189E+03  0.7818608E-02  0.1035445E+00
         -2   -1    0    0    0  501 -0.00000000000E+00  0.00000000000E+00  0.55919666864E+02  0.55919666864E+02  0.00000000000E+00 0.  1.
          2   -1    0    0  501    0  0.00000000000E+00 -0.00000000000E+00 -0.80759189991E+03  0.80759189991E+03  0.00000000000E+00 0. -1.
         23    2    1    2    0    0  0.86532516986E+02 -0.16865908860E+03 -0.25161372547E+03  0.32872911038E+03  0.93912706834E+02 0.  0.
         11    1    3    3    0    0  0.12916629590E+02 -0.33903985441E+02 -0.12359952367E+03  0.12881444717E+03  0.00000000000E+00 0. -1.
        -11    1    3    3    0    0  0.73615887396E+02 -0.13475510316E+03 -0.12801420180E+03  0.19991466322E+03  0.00000000000E+00 0.  1.
         22    1    1    2    0    0 -0.86532516986E+02  0.16865908860E+03 -0.50005850758E+03  0.53478245639E+03  0.00000000000E+00 0.  1.
<mgrwt>
<rscale>  0 0.42501892E+03</rscale>
<asrwt>0</asrwt>
<pdfrwt beam="1">  1        2 0.12424490E+00 0.42501892E+03</pdfrwt>
<pdfrwt beam="2">  1       -2 0.86030260E-02 0.42501892E+03</pdfrwt>
<totfact> 0.29689267E+03</totfact>
</mgrwt>
</event>
<event>
 6    1  0.2003386E-005  0.2752110E+04  0.7818608E-02  0.8318292E-01
          2   -1    0    0  501    0  0.00000000000E+00  0.00000000000E+00  0.18068337811E+04  0.18068337811E+04  0.00000000000E+00 0. -1.
         -2   -1    0    0    0  501 -0.00000000000E+00 -0.00000000000E+00 -0.10479808872E+04  0.10479808872E+04  0.00000000000E+00 0.  1.
         23    2    1    2    0    0  0.12243600241E+04  0.54677547770E+03  0.66201577090E+02  0.13455808433E+04  0.90466930143E+02 0.  0.
         11    1    3    3    0    0  0.65059796944E+03  0.32232250477E+03  0.12613593597E+01  0.72606549701E+03  0.00000000000E+00 0.  1.
        -11    1    3    3    0    0  0.57376205467E+03  0.22445297294E+03  0.64940217730E+02  0.61951534631E+03  0.00000000000E+00 0. -1.
         22    1    1    2    0    0 -0.12243600241E+04 -0.54677547770E+03  0.69265131688E+03  0.15092338250E+04  0.00000000000E+00 0. -1.
<mgrwt>
<rscale>  0 0.27521099E+04</rscale>
<asrwt>0</asrwt>
<pdfrwt beam="1">  1        2 0.27797443E+00 0.27521099E+04</pdfrwt>
<pdfrwt beam="2">  1       -2 0.16122783E+00 0.27521099E+04</pdfrwt>
<totfact> 0.18436061E+00</totfact>
</mgrwt>
</event>
<event>
 6    1  0.2003386E-005  0.3135295E+04  0.7818608E-02  0.8206118E-01
         -2   -1    0    0    0  501 -0.00000000000E+00  0.00000000000E+00  0.15183168195E+04  0.15183168195E+04  0.00000000000E+00 0.  1.
          2   -1    0    0  501    0  0.00000000000E+00 -0.00000000000E+00 -0.16185806117E+04  0.16185806117E+04  0.00000000000E+00 0. -1.
         23    2    1    2    0    0 -0.92022733761E+03  0.23531641191E+02  0.12177656564E+04  0.15292364848E+04  0.90768615058E+02 0.  0.
         11    1    3    3    0    0 -0.63172741228E+03  0.57576427513E+02  0.84775058915E+03  0.10588085898E+04  0.00000000000E+00 0. -1.
        -11    1    3    3    0    0 -0.28849992533E+03 -0.34044786322E+02  0.37001506727E+03  0.47042789500E+03  0.00000000000E+00 0.  1.
         22    1    1    2    0    0  0.92022733761E+03 -0.23531641191E+02 -0.13180294487E+04  0.16076609464E+04  0.00000000000E+00 0. -1.
<mgrwt>
<rscale>  0 0.31352947E+04</rscale>
<asrwt>0</asrwt>
<pdfrwt beam="1">  1        2 0.24901240E+00 0.31352947E+04</pdfrwt>
<pdfrwt beam="2">  1       -2 0.23358720E+00 0.31352947E+04</pdfrwt>
<totfact> 0.74846737E-01</totfact>
</mgrwt>
</event>
<event>
 6    1  0.2003386E-005  0.4222740E+04  0.7818608E-02  0.7961061E-01
          2   -1    0    0  501    0  0.00000000000E+00  0.00000000000E+00  0.20607729042E+04  0.20607729042E+04  0.00000000000E+00 0. -1.
         -2   -1    0    0    0  501 -0.00000000000E+00 -0.00000000000E+00 -0.21632092250E+04  0.21632092250E+04  0.00000000000E+00 0.  1.
         23    2    1    2    0    0 -0.98736722209E+03  0.44544688299E+03  0.17604974732E+04  0.20690252206E+04  0.90537579228E+02 0.  0.
         11    1    3    3    0    0 -0.22762967539E+03  0.14371037993E+03  0.45781264860E+03  0.53109355450E+03  0.00000000000E+00 0.  1.
        -11    1    3    3    0    0 -0.75973754670E+03  0.30173650307E+03  0.13026848246E+04  0.15379316661E+04  0.00000000000E+00 0. -1.
         22    1    1    2    0    0  0.98736722209E+03 -0.44544688299E+03 -0.18629337941E+04  0.21549569086E+04  0.00000000000E+00 0.  1.
<mgrwt>
<rscale>  0 0.42227398E+04</rscale>
<asrwt>0</asrwt>
<pdfrwt beam="1">  1        2 0.31704198E+00 0.42227398E+04</pdfrwt>
<pdfrwt beam="2">  1       -2 0.33280142E+00 0.42227398E+04</pdfrwt>
<totfact> 0.95484872E-02</totfact>
</mgrwt>
</event>
<event>
 6    1  0.2003386E-005  0.2115761E+04  0.7818608E-02  0.8554332E-01
          2   -1    0    0  501    0  0.00000000000E+00  0.00000000000E+00  0.22928252547E+04  0.22928252547E+04  0.00000000000E+00 0. -1.
         -2   -1    0    0    0  501 -0.00000000000E+00 -0.00000000000E+00 -0.48809277106E+03  0.48809277106E+03  0.00000000000E+00 0.  1.
         23    2    1    2    0    0 -0.77575594968E+03 -0.48628177494E+03  0.15951183355E+04  0.18416601542E+04  0.95091331321E+02 0.  0.
         13    1    3    3    0    0 -0.32305450039E+03 -0.23164978509E+03  0.77267672255E+03  0.86893909495E+03  0.00000000000E+00 0. -1.
        -13    1    3    3    0    0 -0.45270144929E+03 -0.25463198985E+03  0.82244161294E+03  0.97272105927E+03  0.00000000000E+00 0.  1.
         22    1    1    2    0    0  0.77575594968E+03  0.48628177494E+03  0.20961414810E+03  0.93925787151E+03  0.00000000000E+00 0.  1.
<mgrwt>
<rscale>  0 0.21157613E+04</rscale>
<asrwt>0</asrwt>
<pdfrwt beam="1">  1        2 0.35274234E+00 0.21157613E+04</pdfrwt>
<pdfrwt beam="2">  1       -2 0.75091196E-01 0.21157613E+04</pdfrwt>
<totfact> 0.67074234E+00</totfact>
</mgrwt>
</event>
<event>
 6    1  0.2003386E-005  0.3355785E+04  0.7818608E-02  0.8148844E-01
         -2   -1    0    0    0  501 -0.00000000000E+00  0.00000000000E+00  0.12918447101E+04  0.12918447101E+04  0.00000000000E+00 0.  1.
          2   -1    0    0  501    0  0.00000000000E+00 -0.00000000000E+00 -0.21793050694E+04  0.21793050694E+04  0.00000000000E+00 0. -1.
         23    2    1    2    0    0 -0.22706437395E+03  0.12559160522E+04  0.68057173571E+03  0.14493664055E+04  0.92745510552E+02 0.  0.
         11    1    3    3    0    0 -0.71476867525E+02  0.55725246498E+03  0.25873727461E+03  0.61853393568E+03  0.00000000000E+00 0. -1.
        -11    1    3    3    0    0 -0.15558750642E+03  0.69866358727E+03  0.42183446110E+03  0.83083246982E+03  0.00000000000E+00 0.  1.
         22    1    1    2    0    0  0.22706437395E+03 -0.12559160522E+04 -0.15680320950E+04  0.20217833740E+04  0.00000000000E+00 0. -1.
<mgrwt>
<rscale>  0 0.33557853E+04</rscale>
<asrwt>0</asrwt>
<pdfrwt beam="1">  1        2 0.33527770E+00 0.33557853E+04</pdfrwt>
<pdfrwt beam="2">  1       -2 0.19874534E+00 0.33557853E+04</pdfrwt>
<totfact> 0.59779987E-01</totfact>
</mgrwt>
</event>
<event>
 6    1  0.2003386E-005  0.2223791E+04  0.7818608E-02  0.8508591E-01
          2   -1    0    0  501    0  0.00000000000E+00  0.00000000000E+00  0.23875297384E+04  0.23875297384E+04  0.00000000000E+00 0. -1.
         -2   -1    0    0    0  501 -0.00000000000E+00 -0.00000000000E+00 -0.51782022252E+03  0.51782022252E+03  0.00000000000E+00 0.  1.
         23    2    1    2    0    0  0.19735715816E+03 -0.29469230023E+03  0.23106620488E+04  0.23394590386E+04  0.90089343247E+02 0.  0.
         13    1    3    3    0    0  0.15463588685E+03 -0.15272102052E+03  0.13238386844E+04  0.13415605949E+04  0.00000000000E+00 0.  1.
        -13    1    3    3    0    0  0.42721271313E+02 -0.14197127971E+03  0.98682336442E+03  0.99789844366E+03  0.00000000000E+00 0. -1.
         22    1    1    2    0    0 -0.19735715816E+03  0.29469230023E+03 -0.44095253292E+03  0.56589092233E+03  0.00000000000E+00 0.  1.
<mgrwt>
<rscale>  0 0.22237906E+04</rscale>
<asrwt>0</asrwt>
<pdfrwt beam="1">  1        2 0.36731226E+00 0.22237906E+04</pdfrwt>
<pdfrwt beam="2">  1       -2 0.79664651E-01 0.22237906E+04</pdfrwt>
<totfact> 0.51444684E+00</totfact>
</mgrwt>
</event>
<event>
 6    1  0.2003386E-005  0.2916383E+04  0.7818608E-02  0.8268020E-01
          1   -1    0    0  501    0  0.00000000000E+00  0.00000000000E+00  0.21380288935E+04  0.21380288935E+04  0.00000000000E+00 0. -1.
         -1   -1    0    0    0  501 -0.00000000000E+00 -0.00000000000E+00 -0.99452455923E+03  0.99452455923E+03  0.00000000000E+00 0.  1.
         23    2    1    2    0    0 -0.38193179232E+03  0.10576157461E+04  0.15670503540E+04  0.19309652574E+04  0.92504339228E+02 0.  0.
         13    1    3    3    0    0 -0.25636970447E+03  0.81241194481E+03  0.11507636429E+04  0.14317805541E+04  0.00000000000E+00 0. -1.
        -13    1    3    3    0    0 -0.12556208786E+03  0.24520380128E+03  0.41628671113E+03  0.49918470323E+03  0.00000000000E+00 0.  1.
         22    1    1    2    0    0  0.38193179232E+03 -0.10576157461E+04 -0.42354601975E+03  0.12015881954E+04  0.00000000000E+00 0.  1.
<mgrwt>
<rscale>  0 0.29163829E+04</rscale>
<asrwt>0</asrwt>
<pdfrwt beam="1">  1        1 0.32892752E+00 0.29163829E+04</pdfrwt>
<pdfrwt beam="2">  1       -1 0.15300378E+00 0.29163829E+04</pdfrwt>
<totfact> 0.68037638E-01</totfact>
</mgrwt>
</event>
<event>
 6    1  0.2003386E-005  0.1763138E+04  0.7818608E-02  0.8726151E-01
         -1   -1    0    0    0  501 -0.00000000000E+00  0.00000000000E+00  0.78109057750E+03  0.78109057750E+03  0.00000000000E+00 0.  1.
          1   -1    0    0  501    0  0.00000000000E+00 -0.00000000000E+00 -0.99497312637E+03  0.99497312637E+03  0.00000000000E+00 0. -1.
         23    2    1    2    0    0 -0.38537614162E+03  0.58149435404E+03  0.43367449466E+03  0.82423358304E+03  0.68095357979E+02 0.  0.
         13    1    3    3    0    0 -0.98018532322E+02  0.99098620997E+02  0.82924396380E+02  0.16218700588E+03  0.00000000000E+00 0.  1.
        -13    1    3    3    0    0 -0.28735760929E+03  0.48239573304E+03  0.35075009828E+03  0.66204657715E+03  0.00000000000E+00 0. -1.
         22    1    1    2    0    0  0.38537614162E+03 -0.58149435404E+03 -0.64755704353E+03  0.95183012084E+03  0.00000000000E+00 0. -1.
<mgrwt>
<rscale>  0 0.17631383E+04</rscale>
<asrwt>0</asrwt>
<pdfrwt beam="1">  1        1 0.15307279E+00 0.17631383E+04</pdfrwt>
<pdfrwt beam="2">  1       -1 0.12016778E+00 0.17631383E+04</pdfrwt>
<totfact> 0.89185789E+00</totfact>
</mgrwt>
</event>
<event>
 6    1  0.2003386E-005  0.3159981E+04  0.7818608E-02  0.8199467E-01
         -2   -1    0    0    0  501 -0.00000000000E+00  0.00000000000E+00  0.10513761618E+04  0.10513761618E+04  0.00000000000E+00 0.  1.
          2   -1    0    0  501    0  0.00000000000E+00 -0.00000000000E+00 -0.23743835626E+04  0.23743835626E+04  0.00000000000E+00 0. -1.
         23    2    1    2    0    0  0.44074842585E+03 -0.13469225049E+04 -0.14161234297E+04  0.20055027040E+04  0.90421890837E+02 0.  0.
         11    1    3    3    0    0  0.32177266701E+03 -0.92264259035E+03 -0.10278914756E+04  0.14182270214E+04  0.00000000000E+00 0.  1.
        -11    1    3    3    0    0  0.11897575883E+03 -0.42427991457E+03 -0.38823195415E+03  0.58727568256E+03  0.00000000000E+00 0. -1.
         22    1    1    2    0    0 -0.44074842585E+03  0.13469225049E+04  0.93116029012E+02  0.14202570204E+04  0.00000000000E+00 0.  1.
<mgrwt>
<rscale>  0 0.31599812E+04</rscale>
<asrwt>0</asrwt>
<pdfrwt beam="1">  1        2 0.36528978E+00 0.31599812E+04</pdfrwt>
<pdfrwt beam="2">  1       -2 0.16175018E+00 0.31599812E+04</pdfrwt>
<totfact> 0.84937689E-01</totfact>
</mgrwt>
</event>
<event>
 6    1  0.2003386E-005  0.3233600E+04  0.7818608E-02  0.8179999E-01
         -2   -1    0    0    0  501 -0.00000000000E+00  0.00000000000E+00  0.83123156512E+03  0.83123156512E+03  0.00000000000E+00 0.  1.
          2   -1    0    0  501    0  0.00000000000E+00 -0.00000000000E+00 -0.31447831178E+04  0.31447831178E+04  0.00000000000E+00 0. -1.
         23    2    1    2    0    0  0.86258828080E+03  0.48922012244E+03  0.41100290569E+03  0.10766023516E+04  0.82184941526E+02 0.  0.
         11    1    3    3    0    0  0.34975196811E+03  0.20885602470E+03  0.21166498783E+03  0.45907444421E+03  0.00000000000E+00 0.  1.
        -11    1    3    3    0    0  0.51283631269E+03  0.28036409774E+03  0.19933791786E+03  0.61752790739E+03  0.00000000000E+00 0. -1.
         22    1    1    2    0    0 -0.86258828080E+03 -0.48922012244E+03 -0.27245544584E+04  0.28994123313E+04  0.00000000000E+00 0. -1.
<mgrwt>
<rscale>  0 0.32336005E+04</rscale>
<asrwt>0</asrwt>
<pdfrwt beam="1">  1        2 0.48381280E+00 0.32336005E+04</pdfrwt>
<pdfrwt beam="2">  1       -2 0.12788178E+00 0.32336005E+04</pdfrwt>
<totfact> 0.53493716E-01</totfact>
</mgrwt>
</event>
<event>
 6    1  0.2003386E-005  0.1394418E+04  0.7818608E-02  0.8957869E-01
          2   -1    0    0  501    0  0.00000000000E+00  0.00000000000E+00  0.19751848961E+04  0.19751848961E+04  0.00000000000E+00 0.  1.
         -2   -1    0    0    0  501 -0.00000000000E+00 -0.00000000000E+00 -0.24610362573E+03  0.24610362573E+03  0.00000000000E+00 0. -1.
         23    2    1    2    0    0 -0.29763407478E+03  0.62726878170E+03  0.86592511804E+03  0.11135472568E+04  0.90050075387E+02 0.  0.
         13    1    3    3    0    0 -0.24918310505E+03  0.43126314454E+03  0.62593683339E+03  0.79992314573E+03  0.00000000000E+00 0.  1.
        -13    1    3    3    0    0 -0.48450969733E+02  0.19600563716E+03  0.23998828465E+03  0.31362411105E+03  0.00000000000E+00 0. -1.
         22    1    1    2    0    0  0.29763407478E+03 -0.62726878170E+03  0.86315615229E+03  0.11077412650E+04  0.00000000000E+00 0. -1.
<mgrwt>
<rscale>  0 0.13944177E+04</rscale>
<asrwt>0</asrwt>
<pdfrwt beam="1">  1        2 0.30387459E+00 0.13944177E+04</pdfrwt>
<pdfrwt beam="2">  1       -2 0.37862098E-01 0.13944177E+04</pdfrwt>
<totfact> 0.44234270E+01</totfact>
</mgrwt>
</event>
<event>
 6    1  0.2003386E-005  0.3318901E+04  0.7818608E-02  0.8158103E-01
         -2   -1    0    0    0  501 -0.00000000000E+00  0.00000000000E+00  0.60086647723E+03  0.60086647723E+03  0.00000000000E+00 0.  1.
          2   -1    0    0  501    0  0.00000000000E+00 -0.00000000000E+00 -0.45830073663E+04  0.45830073663E+04  0.00000000000E+00 0. -1.
         23    2    1    2    0    0  0.15729480250E+04 -0.50725004735E+03 -0.22041391863E+04  0.27563734512E+04  0.88864784934E+02 0.  0.
         11    1    3    3    0    0  0.11874950267E+04 -0.39802399508E+03 -0.16097774366E+04  0.20395957772E+04  0.00000000000E+00 0. -1.
        -11    1    3    3    0    0  0.38545299824E+03 -0.10922605227E+03 -0.59436174972E+03  0.71677767395E+03  0.00000000000E+00 0.  1.
         22    1    1    2    0    0 -0.15729480250E+04  0.50725004735E+03 -0.17780017027E+04  0.24275003923E+04  0.00000000000E+00 0.  1.
<mgrwt>
<rscale>  0 0.33189007E+04</rscale>
<asrwt>0</asrwt>
<pdfrwt beam="1">  1        2 0.70507808E+00 0.33189007E+04</pdfrwt>
<pdfrwt beam="2">  1       -2 0.92440994E-01 0.33189007E+04</pdfrwt>
<totfact> 0.83915328E-02</totfact>
</mgrwt>
</event>
<event>
 6    1  0.2003386E-005  0.1389239E+04  0.7818608E-02  0.8961645E-01
          2   -1    0    0  501    0  0.00000000000E+00  0.00000000000E+00  0.88696606612E+03  0.88696606612E+03  0.00000000000E+00 0. -1.
         -2   -1    0    0    0  501 -0.00000000000E+00 -0.00000000000E+00 -0.54398531175E+03  0.54398531175E+03  0.00000000000E+00 0.  1.
         23    2    1    2    0    0 -0.37759032585E+03  0.15536957098E+03 -0.40296069603E+03  0.58057334124E+03  0.89296832281E+02 0.  0.
         11    1    3    3    0    0 -0.21276024789E+03  0.96952002705E+02 -0.28945789371E+03  0.37209203988E+03  0.00000000000E+00 0. -1.
        -11    1    3    3    0    0 -0.16483007796E+03  0.58417568273E+02 -0.11350280232E+03  0.20848130136E+03  0.00000000000E+00 0.  1.
         22    1    1    2    0    0  0.37759032585E+03 -0.15536957098E+03  0.74594145040E+03  0.85037803663E+03  0.00000000000E+00 0. -1.
<mgrwt>
<rscale>  0 0.13892394E+04</rscale>
<asrwt>0</asrwt>
<pdfrwt beam="1">  1        2 0.13645632E+00 0.13892394E+04</pdfrwt>
<pdfrwt beam="2">  1       -2 0.83690048E-01 0.13892394E+04</pdfrwt>
<totfact> 0.36398640E+01</totfact>
</mgrwt>
</event>
<event>
 6    1  0.2003386E-005  0.4374236E+04  0.7818608E-02  0.7933032E-01
         -2   -1    0    0    0  501 -0.00000000000E+00  0.00000000000E+00  0.18216432417E+04  0.18216432417E+04  0.00000000000E+00 0.  1.
          2   -1    0    0  501    0  0.00000000000E+00 -0.00000000000E+00 -0.26259176259E+04  0.26259176259E+04  0.00000000000E+00 0. -1.
         23    2    1    2    0    0 -0.13198497509E+04 -0.17424193129E+04 -0.43216578952E+03  0.22302441934E+04  0.95882563052E+02 0.  0.
         11    1    3    3    0    0 -0.23283581012E+03 -0.31549978957E+03 -0.11497253630E+03  0.40862123758E+03  0.00000000000E+00 0.  1.
        -11    1    3    3    0    0 -0.10870139408E+04 -0.14269195233E+04 -0.31719325321E+03  0.18216229559E+04  0.00000000000E+00 0. -1.
         22    1    1    2    0    0  0.13198497509E+04  0.17424193129E+04 -0.37210859467E+03  0.22173166741E+04  0.00000000000E+00 0. -1.
<mgrwt>
<rscale>  0 0.43742360E+04</rscale>
<asrwt>0</asrwt>
<pdfrwt beam="1">  1        2 0.40398733E+00 0.43742360E+04</pdfrwt>
<pdfrwt beam="2">  1       -2 0.28025280E+00 0.43742360E+04</pdfrwt>
<totfact> 0.94368790E-02</totfact>
</mgrwt>
</event>
<event>
 6    1  0.2003386E-005  0.1835352E+04  0.7818608E-02  0.8687722E-01
          1   -1    0    0  501    0  0.00000000000E+00  0.00000000000E+00  0.76806088984E+03  0.76806088984E+03  0.00000000000E+00 0.  1.
         -1   -1    0    0    0  501 -0.00000000000E+00 -0.00000000000E+00 -0.10964361026E+04  0.10964361026E+04  0.00000000000E+00 0. -1.
         23    2    1    2    0    0  0.56216347743E+03  0.67118213219E+03  0.10682153508E+03  0.88679077927E+03  0.92053331856E+02 0.  0.
         11    1    3    3    0    0  0.35497478319E+03  0.48967027134E+03  0.67819744598E+02  0.60859147964E+03  0.00000000000E+00 0. -1.
        -11    1    3    3    0    0  0.20718869424E+03  0.18151186085E+03  0.39001790485E+02  0.27819929963E+03  0.00000000000E+00 0.  1.
         22    1    1    2    0    0 -0.56216347743E+03 -0.67118213219E+03 -0.43519674784E+03  0.97770621317E+03  0.00000000000E+00 0.  1.
<mgrwt>
<rscale>  0 0.18353525E+04</rscale>
<asrwt>0</asrwt>
<pdfrwt beam="1">  1        1 0.11816321E+00 0.18353525E+04</pdfrwt>
<pdfrwt beam="2">  1       -1 0.16868248E+00 0.18353525E+04</pdfrwt>
<totfact> 0.55850685E+00</totfact>
</mgrwt>
</event>
<event>
 6    1  0.2003386E-005  0.6833086E+04  0.7818608E-02  0.7594898E-01
          2   -1    0    0  501    0  0.00000000000E+00  0.00000000000E+00  0.28941786216E+04  0.28941786216E+04  0.00000000000E+00 0. -1.
         -2   -1    0    0    0  501 -0.00000000000E+00 -0.00000000000E+00 -0.40331878247E+04  0.40331878247E+04  0.00000000000E+00 0.  1.
         23    2    1    2    0    0 -0.79680067771E+03  0.12372524789E+04  0.25556115262E+04  0.29504446028E+04  0.91038808488E+02 0.  0.
         13    1    3    3    0    0 -0.51293750586E+03  0.85911596383E+03  0.17861085234E+04  0.20472832686E+04  0.00000000000E+00 0.  1.
        -13    1    3    3    0    0 -0.28386317184E+03  0.37813651509E+03  0.76950300276E+03  0.90316133422E+03  0.00000000000E+00 0. -1.
         22    1    1    2    0    0  0.79680067771E+03 -0.12372524789E+04 -0.36946207293E+04  0.39769218436E+04  0.00000000000E+00 0.  1.
<mgrwt>
<rscale>  0 0.68330860E+04</rscale>
<asrwt>0</asrwt>
<pdfrwt beam="1">  1        2 0.44525825E+00 0.68330860E+04</pdfrwt>
<pdfrwt beam="2">  1       -2 0.62049043E+00 0.68330860E+04</pdfrwt>
<totfact> 0.55934688E-04</totfact>
</mgrwt>
</event>
<event>
 6    1  0.2003386E-005  0.3386711E+04  0.7818608E-02  0.8141176E-01
          1   -1    0    0  501    0  0.00000000000E+00  0.00000000000E+00  0.24209190496E+04  0.24209190496E+04  0.00000000000E+00 0. -1.
         -1   -1    0    0    0  501 -0.00000000000E+00 -0.00000000000E+00 -0.11844481292E+04  0.11844481292E+04  0.00000000000E+00 0.  1.
         23    2    1    2    0    0  0.10358120429E+04  0.60593756410E+03  0.18886902403E+04  0.22395498554E+04  0.91464810156E+02 0.  0.
         11    1    3    3    0    0  0.71116817911E+03  0.41292556012E+03  0.12133310269E+04  0.14657557361E+04  0.00000000000E+00 0.  1.
        -11    1    3    3    0    0  0.32464386376E+03  0.19301200398E+03  0.67535921341E+03  0.77379411932E+03  0.00000000000E+00 0. -1.
         22    1    1    2    0    0 -0.10358120429E+04 -0.60593756410E+03 -0.65221931979E+03  0.13658173234E+04  0.00000000000E+00 0. -1.
<mgrwt>
<rscale>  0 0.33867111E+04</rscale>
<asrwt>0</asrwt>
<pdfrwt beam="1">  1        1 0.37244908E+00 0.33867111E+04</pdfrwt>
<pdfrwt beam="2">  1       -1 0.18222279E+00 0.33867111E+04</pdfrwt>
<totfact> 0.25387448E-01</totfact>
</mgrwt>
</event>
<event>
 6    1  0.2003386E-005  0.2721465E+04  0.7818608E-02  0.8328074E-01
          2   -1    0    0  501    0  0.00000000000E+00  0.00000000000E+00  0.95451863164E+03  0.95451863164E+03  0.00000000000E+00 0. -1.
         -2   -1    0    0    0  501 -0.00000000000E+00 -0.00000000000E+00 -0.19398191017E+04  0.19398191017E+04  0.00000000000E+00 0.  1.
         23    2    1    2    0    0  0.83765667181E+03 -0.60401464495E+03  0.44663947130E+03  0.11288478900E+04  0.91150152877E+02 0.  0.
         11    1    3    3    0    0  0.29533164692E+03 -0.16509453528E+03  0.12652549857E+03  0.36122802915E+03  0.00000000000E+00 0. -1.
        -11    1    3    3    0    0  0.54232502489E+03 -0.43892010966E+03  0.32011397273E+03  0.76761986088E+03  0.00000000000E+00 0.  1.
         22    1    1    2    0    0 -0.83765667181E+03  0.60401464495E+03 -0.14319399414E+04  0.17654898433E+04  0.00000000000E+00 0.  1.
<mgrwt>
<rscale>  0 0.27214654E+04</rscale>
<asrwt>0</asrwt>
<pdfrwt beam="1">  1        2 0.14684902E+00 0.27214654E+04</pdfrwt>
<pdfrwt beam="2">  1       -2 0.29843371E+00 0.27214654E+04</pdfrwt>
<totfact> 0.76731827E-01</totfact>
</mgrwt>
</event>
<event>
 6    1  0.2003386E-005  0.4744960E+04  0.7818608E-02  0.7869101E-01
          2   -1    0    0  501    0  0.00000000000E+00  0.00000000000E+00  0.28865771611E+04  0.28865771611E+04  0.00000000000E+00 0. -1.
         -2   -1    0    0    0  501 -0.00000000000E+00 -0.00000000000E+00 -0.19499433071E+04  0.19499433071E+04  0.00000000000E+00 0.  1.
         23    2    1    2    0    0  0.47487664117E+03  0.10117993405E+04  0.26005773020E+04  0.28320371115E+04  0.90477441529E+02 0.  0.
         13    1    3    3    0    0  0.38299066752E+03  0.77891552286E+03  0.19279189893E+04  0.21142996174E+04  0.00000000000E+00 0. -1.
        -13    1    3    3    0    0  0.91885973651E+02  0.23288381767E+03  0.67265831269E+03  0.71773749402E+03  0.00000000000E+00 0.  1.
         22    1    1    2    0    0 -0.47487664117E+03 -0.10117993405E+04 -0.16639434479E+04  0.20044833568E+04  0.00000000000E+00 0.  1.
<mgrwt>
<rscale>  0 0.47449602E+04</rscale>
<asrwt>0</asrwt>
<pdfrwt beam="1">  1        2 0.44408879E+00 0.47449602E+04</pdfrwt>
<pdfrwt beam="2">  1       -2 0.29999128E+00 0.47449602E+04</pdfrwt>
<totfact> 0.48339752E-02</totfact>
</mgrwt>
</event>
<event>
 6    1  0.2003386E-005  0.3201559E+04  0.7818608E-02  0.8188406E-01
          2   -1    0    0  501    0  0.00000000000E+00  0.00000000000E+00  0.26255271309E+04  0.26255271309E+04  0.00000000000E+00 0. -1.
         -2   -1    0    0    0  501 -0.00000000000E+00 -0.00000000000E+00 -0.97599237259E+03  0.97599237259E+03  0.00000000000E+00 0.  1.
         23    2    1    2    0    0 -0.13607611351E+04  0.79249075375E+03  0.50933253122E+03  0.16573555237E+04  0.87722534347E+02 0.  0.
         13    1    3    3    0    0 -0.59824060735E+03  0.31786015638E+03  0.18281995765E+03  0.70167659232E+03  0.00000000000E+00 0. -1.
        -13    1    3    3    0    0 -0.76252052777E+03  0.47463059737E+03  0.32651257357E+03  0.95567893140E+03  0.00000000000E+00 0.  1.
         22    1    1    2    0    0  0.13607611351E+04 -0.79249075375E+03  0.11402022271E+04  0.19441639798E+04  0.00000000000E+00 0. -1.
<mgrwt>
<rscale>  0 0.32015587E+04</rscale>
<asrwt>0</asrwt>
<pdfrwt beam="1">  1        2 0.40392725E+00 0.32015587E+04</pdfrwt>
<pdfrwt beam="2">  1       -2 0.15015267E+00 0.32015587E+04</pdfrwt>
<totfact> 0.73936230E-01</totfact>
</mgrwt>
</event>
<event>
 6    1  0.2003386E-005  0.8374045E+03  0.7818608E-02  0.9507400E-01
          2   -1    0    0  501    0  0.00000000000E+00  0.00000000000E+00  0.69537916261E+03  0.69537916261E+03  0.00000000000E+00 0.  1.
         -2   -1    0    0    0  501 -0.00000000000E+00 -0.00000000000E+00 -0.25210931421E+03  0.25210931421E+03  0.00000000000E+00 0. -1.
         23    2    1    2    0    0 -0.18588644454E+03 -0.36920547061E+03  0.24300183244E+03  0.48816971168E+03  0.91615102678E+02 0.  0.
         13    1    3    3    0    0 -0.33305609604E+02 -0.14770904702E+03  0.60099322884E+02  0.16290842463E+03  0.00000000000E+00 0. -1.
        -13    1    3    3    0    0 -0.15258083494E+03 -0.22149642359E+03  0.18290250956E+03  0.32526128705E+03  0.00000000000E+00 0.  1.
         22    1    1    2    0    0  0.18588644454E+03  0.36920547061E+03  0.20026801596E+03  0.45931876514E+03  0.00000000000E+00 0.  1.
<mgrwt>
<rscale>  0 0.83740448E+03</rscale>
<asrwt>0</asrwt>
<pdfrwt beam="1">  1        2 0.10698141E+00 0.83740448E+03</pdfrwt>
<pdfrwt beam="2">  1       -2 0.38786049E-01 0.83740448E+03</pdfrwt>
<totfact> 0.26072450E+02</totfact>
</mgrwt>
</event>
<event>
 6    1  0.2003386E-005  0.2146211E+04  0.7818608E-02  0.8541156E-01
          2   -1    0    0  501    0  0.00000000000E+00  0.00000000000E+00  0.98803141188E+03  0.98803141188E+03  0.00000000000E+00 0. -1.
         -2   -1    0    0    0  501 -0.00000000000E+00 -0.00000000000E+00 -0.11655052668E+04  0.11655052668E+04  0.00000000000E+00 0.  1.
         23    2    1    2    0    0 -0.28034766987E+03 -0.78545359673E+02 -0.11232498606E+04  0.11639628096E+04  0.91405597889E+02 0.  0.
         11    1    3    3    0    0 -0.11068396459E+03  0.14535640472E+02 -0.41003171704E+03  0.42495674349E+03  0.00000000000E+00 0. -1.
        -11    1    3    3    0    0 -0.16966370528E+03 -0.93081000145E+02 -0.71321814357E+03  0.73900606614E+03  0.00000000000E+00 0.  1.
         22    1    1    2    0    0  0.28034766987E+03  0.78545359673E+02  0.94577600564E+03  0.98957386909E+03  0.00000000000E+00 0. -1.
<mgrwt>
<rscale>  0 0.21462114E+04</rscale>
<asrwt>0</asrwt>
<pdfrwt beam="1">  1        2 0.15200483E+00 0.21462114E+04</pdfrwt>
<pdfrwt beam="2">  1       -2 0.17930850E+00 0.21462114E+04</pdfrwt>
<totfact> 0.43147952E+00</totfact>
</mgrwt>
</event>
<event>
 6    1  0.2003386E-005  0.2029874E+04  0.7818608E-02  0.8592779E-01
          2   -1    0    0  501    0  0.00000000000E+00  0.00000000000E+00  0.10005390266E+04  0.10005390266E+04  0.00000000000E+00 0. -1.
         -2   -1    0    0    0  501 -0.00000000000E+00 -0.00000000000E+00 -0.10295425526E+04  0.10295425526E+04  0.00000000000E+00 0.  1.
         23    2    1    2    0    0 -0.66204547640E+03 -0.76636170872E+03  0.70026259171E+01  0.10167154439E+04  0.89703821463E+02 0.  0.
         13    1    3    3    0    0 -0.11834954627E+03 -0.19089912162E+03 -0.10274752390E+02  0.22484363516E+03  0.00000000000E+00 0. -1.
        -13    1    3    3    0    0 -0.54369593014E+03 -0.57546258710E+03  0.17277378308E+02  0.79187180869E+03  0.00000000000E+00 0.  1.
         22    1    1    2    0    0  0.66204547640E+03  0.76636170872E+03 -0.36006151892E+02  0.10133661354E+04  0.00000000000E+00 0.  1.
<mgrwt>
<rscale>  0 0.20298744E+04</rscale>
<asrwt>0</asrwt>
<pdfrwt beam="1">  1        2 0.15392908E+00 0.20298744E+04</pdfrwt>
<pdfrwt beam="2">  1       -2 0.15839116E+00 0.20298744E+04</pdfrwt>
<totfact> 0.60386761E+00</totfact>
</mgrwt>
</event>
<event>
 6    1  0.2003386E-005  0.3848684E+04  0.7818608E-02  0.8035787E-01
          2   -1    0    0  501    0  0.00000000000E+00  0.00000000000E+00  0.23627508321E+04  0.23627508321E+04  0.00000000000E+00 0. -1.
         -2   -1    0    0    0  501 -0.00000000000E+00 -0.00000000000E+00 -0.15672799189E+04  0.15672799189E+04  0.00000000000E+00 0.  1.
         23    2    1    2    0    0  0.79744177669E+02 -0.26515890506E+03  0.23413966658E+04  0.23595038294E+04  0.91932561283E+02 0.  0.
         13    1    3    3    0    0  0.41446893452E+02 -0.12527803720E+03  0.14911188978E+04  0.14969462245E+04  0.00000000000E+00 0.  1.
        -13    1    3    3    0    0  0.38297284217E+02 -0.13988086787E+03  0.85027776793E+03  0.86255760492E+03  0.00000000000E+00 0. -1.
         22    1    1    2    0    0 -0.79744177669E+02  0.26515890506E+03 -0.15459257526E+04  0.15705269215E+04  0.00000000000E+00 0.  1.
<mgrwt>
<rscale>  0 0.38486839E+04</rscale>
<asrwt>0</asrwt>
<pdfrwt beam="1">  1        2 0.36350013E+00 0.38486839E+04</pdfrwt>
<pdfrwt beam="2">  1       -2 0.24111999E+00 0.38486839E+04</pdfrwt>
<totfact> 0.24311372E-01</totfact>
</mgrwt>
</event>
<event>
 6    1  0.2003386E-005  0.2832414E+04  0.7818608E-02  0.8293275E-01
         -2   -1    0    0    0  501 -0.00000000000E+00  0.00000000000E+00  0.18747010656E+04  0.18747010656E+04  0.00000000000E+00 0.  1.
          2   -1    0    0  501    0  0.00000000000E+00 -0.00000000000E+00 -0.10698466177E+04  0.10698466177E+04  0.00000000000E+00 0. -1.
         23    2    1    2    0    0 -0.56612687527E+03  0.12942611524E+04  0.32217761297E+03  0.14517019122E+04  0.89601664389E+02 0.  0.
         11    1    3    3    0    0 -0.51416483295E+03  0.11334998396E+04  0.30769135264E+03  0.12821315574E+04  0.00000000000E+00 0.  1.
        -11    1    3    3    0    0 -0.51962042316E+02  0.16076131272E+03  0.14486260324E+02  0.16957035486E+03  0.00000000000E+00 0. -1.
         22    1    1    2    0    0  0.56612687527E+03 -0.12942611524E+04  0.48267683491E+03  0.14928457711E+04  0.00000000000E+00 0. -1.
<mgrwt>
<rscale>  0 0.28324142E+04</rscale>
<asrwt>0</asrwt>
<pdfrwt beam="1">  1        2 0.16459179E+00 0.28324142E+04</pdfrwt>
<pdfrwt beam="2">  1       -2 0.28841555E+00 0.28324142E+04</pdfrwt>
<totfact> 0.73857227E-01</totfact>
</mgrwt>
</event>
<event>
 6    1  0.2003386E-005  0.2719740E+04  0.7818608E-02  0.8328628E-01
         -2   -1    0    0    0  501 -0.00000000000E+00  0.00000000000E+00  0.88974463890E+03  0.88974463890E+03  0.00000000000E+00 0.  1.
          2   -1    0    0  501    0  0.00000000000E+00 -0.00000000000E+00 -0.20784017790E+04  0.20784017790E+04  0.00000000000E+00 0. -1.
         23    2    1    2    0    0  0.76814976985E+01  0.15188879801E+03 -0.20680607745E+04  0.20756891559E+04  0.92091760143E+02 0.  0.
         11    1    3    3    0    0  0.23359249511E+02 -0.14710090799E+01 -0.31012934369E+03  0.31101129919E+03  0.00000000000E+00 0. -1.
        -11    1    3    3    0    0 -0.15677751813E+02  0.15335980709E+03 -0.17579314308E+04  0.17646778567E+04  0.00000000000E+00 0.  1.
         22    1    1    2    0    0 -0.76814976985E+01 -0.15188879801E+03  0.87940363441E+03  0.89245726205E+03  0.00000000000E+00 0.  1.
<mgrwt>
<rscale>  0 0.27197403E+04</rscale>
<asrwt>0</asrwt>
<pdfrwt beam="1">  1        2 0.31975412E+00 0.27197403E+04</pdfrwt>
<pdfrwt beam="2">  1       -2 0.13688379E+00 0.27197403E+04</pdfrwt>
<totfact> 0.20147849E+00</totfact>
</mgrwt>
</event>
<event>
 6    1  0.2003386E-005  0.1954715E+04  0.7818608E-02  0.8628090E-01
         -1   -1    0    0    0  501 -0.00000000000E+00  0.00000000000E+00  0.13943938680E+04  0.13943938680E+04  0.00000000000E+00 0.  1.
          1   -1    0    0  501    0  0.00000000000E+00 -0.00000000000E+00 -0.68504898949E+03  0.68504898949E+03  0.00000000000E+00 0. -1.
         23    2    1    2    0    0  0.44047048303E+03 -0.77906246523E+03  0.76638415048E+03  0.11826674956E+04  0.10200572451E+03 0.  0.
         11    1    3    3    0    0  0.95073745837E+02 -0.15267992525E+03  0.10391785823E+03  0.20772360959E+03  0.00000000000E+00 0. -1.
        -11    1    3    3    0    0  0.34539673720E+03 -0.62638253998E+03  0.66246629224E+03  0.97494388599E+03  0.00000000000E+00 0.  1.
         22    1    1    2    0    0 -0.44047048303E+03  0.77906246523E+03 -0.57039271990E+02  0.89677536190E+03  0.00000000000E+00 0.  1.
<mgrwt>
<rscale>  0 0.19547154E+04</rscale>
<asrwt>0</asrwt>
<pdfrwt beam="1">  1        1 0.10539215E+00 0.19547154E+04</pdfrwt>
<pdfrwt beam="2">  1       -1 0.21452213E+00 0.19547154E+04</pdfrwt>
<totfact> 0.31402526E+00</totfact>
</mgrwt>
</event>
<event>
 6    1  0.2003386E-005  0.1592171E+04  0.7818608E-02  0.8825372E-01
          2   -1    0    0  501    0  0.00000000000E+00  0.00000000000E+00  0.27095893356E+04  0.27095893356E+04  0.00000000000E+00 0. -1.
         -2   -1    0    0    0  501 -0.00000000000E+00 -0.00000000000E+00 -0.23389217294E+03  0.23389217294E+03  0.00000000000E+00 0.  1.
         23    2    1    2    0    0  0.21455818523E+03 -0.55794905109E+03  0.22057842505E+04  0.22875887288E+04  0.10117150598E+03 0.  0.
         11    1    3    3    0    0  0.17510102576E+03 -0.52792238848E+03  0.20491357257E+04  0.21232803960E+04  0.00000000000E+00 0. -1.
        -11    1    3    3    0    0  0.39457159474E+02 -0.30026662613E+02  0.15664852478E+03  0.16430833277E+03  0.00000000000E+00 0.  1.
         22    1    1    2    0    0 -0.21455818523E+03  0.55794905109E+03  0.26991291217E+03  0.65589277982E+03  0.00000000000E+00 0.  1.
<mgrwt>
<rscale>  0 0.15921705E+04</rscale>
<asrwt>0</asrwt>
<pdfrwt beam="1">  1        2 0.41685988E+00 0.15921705E+04</pdfrwt>
<pdfrwt beam="2">  1       -2 0.35983413E-01 0.15921705E+04</pdfrwt>
<totfact> 0.18331408E+01</totfact>
</mgrwt>
</event>
<event>
 6    1  0.2003386E-005  0.5314702E+03  0.7818608E-02  0.1005876E+00
          1   -1    0    0  501    0  0.00000000000E+00  0.00000000000E+00  0.24528674309E+03  0.24528674309E+03  0.00000000000E+00 0. -1.
         -1   -1    0    0    0  501 -0.00000000000E+00 -0.00000000000E+00 -0.28788810208E+03  0.28788810208E+03  0.00000000000E+00 0.  1.
         23    2    1    2    0    0  0.14296241545E+02 -0.21149225725E+03 -0.16935817218E+03  0.28619175448E+03  0.91050384102E+02 0.  0.
         13    1    3    3    0    0 -0.59192634965E+01 -0.17528670933E+03 -0.91121230577E+02  0.19764500199E+03  0.00000000000E+00 0.  1.
        -13    1    3    3    0    0  0.20215505041E+02 -0.36205547918E+02 -0.78236941607E+02  0.88546752488E+02  0.00000000000E+00 0. -1.
         22    1    1    2    0    0 -0.14296241545E+02  0.21149225725E+03  0.12675681319E+03  0.24698309069E+03  0.00000000000E+00 0. -1.
<mgrwt>
<rscale>  0 0.53147017E+03</rscale>
<asrwt>0</asrwt>
<pdfrwt beam="1">  1        1 0.37736422E-01 0.53147017E+03</pdfrwt>
<pdfrwt beam="2">  1       -1 0.44290477E-01 0.53147017E+03</pdfrwt>
<totfact> 0.58069047E+02</totfact>
</mgrwt>
</event>
<event>
 6    1  0.2003386E-005  0.1049979E+04  0.7818608E-02  0.9255366E-01
         -2   -1    0    0    0  501 -0.00000000000E+00  0.00000000000E+00  0.28847730546E+03  0.28847730546E+03  0.00000000000E+00 0.  1.
          2   -1    0    0  501    0  0.00000000000E+00 -0.00000000000E+00 -0.95540919786E+03  0.95540919786E+03  0.00000000000E+00 0. -1.
         23    2    1    2    0    0 -0.28719756897E+02  0.51015412377E+03 -0.21105518261E+03  0.55911966056E+03  0.83596951359E+02 0.  0.
         13    1    3    3    0    0 -0.28322266222E+02  0.15224907878E+03 -0.28928173204E+02  0.15753974723E+03  0.00000000000E+00 0. -1.
        -13    1    3    3    0    0 -0.39749067448E+00  0.35790504499E+03 -0.18212700941E+03  0.40157991332E+03  0.00000000000E+00 0.  1.
         22    1    1    2    0    0  0.28719756897E+02 -0.51015412377E+03 -0.45587670978E+03  0.68476684277E+03  0.00000000000E+00 0.  1.
<mgrwt>
<rscale>  0 0.10499788E+04</rscale>
<asrwt>0</asrwt>
<pdfrwt beam="1">  1        2 0.14698603E+00 0.10499788E+04</pdfrwt>
<pdfrwt beam="2">  1       -2 0.44381124E-01 0.10499788E+04</pdfrwt>
<totfact> 0.12903184E+02</totfact>
</mgrwt>
</event>
<event>
 6    1  0.2003386E-005  0.1699149E+04  0.7818608E-02  0.8761850E-01
         -2   -1    0    0    0  501 -0.00000000000E+00  0.00000000000E+00  0.31193893047E+03  0.31193893047E+03  0.00000000000E+00 0.  1.
          2   -1    0    0  501    0  0.00000000000E+00 -0.00000000000E+00 -0.23138397947E+04  0.23138397947E+04  0.00000000000E+00 0. -1.
         23    2    1    2    0    0 -0.40742493174E+03 -0.53140360567E+03 -0.20187169124E+03  0.70523455990E+03  0.90657253564E+02 0.  0.
         13    1    3    3    0    0 -0.39246449265E+03 -0.47450220953E+03 -0.19544629086E+03  0.64604951625E+03  0.00000000000E+00 0. -1.
        -13    1    3    3    0    0 -0.14960439084E+02 -0.56901396144E+02 -0.64254003775E+01  0.59185043641E+02  0.00000000000E+00 0.  1.
         22    1    1    2    0    0  0.40742493174E+03  0.53140360567E+03 -0.18000291730E+04  0.19205441653E+04  0.00000000000E+00 0. -1.
<mgrwt>
<rscale>  0 0.16991489E+04</rscale>
<asrwt>0</asrwt>
<pdfrwt beam="1">  1        2 0.35597535E+00 0.16991489E+04</pdfrwt>
<pdfrwt beam="2">  1       -2 0.47990605E-01 0.16991489E+04</pdfrwt>
<totfact> 0.17444337E+01</totfact>
</mgrwt>
</event>
<event>
 6    1  0.2003386E-005  0.6517806E+04  0.7818608E-02  0.7629318E-01
          2   -1    0    0  501    0  0.00000000000E+00  0.00000000000E+00  0.39737674294E+04  0.39737674294E+04  0.00000000000E+00 0. -1.
         -2   -1    0    0    0  501 -0.00000000000E+00 -0.00000000000E+00 -0.26726401329E+04  0.26726401329E+04  0.00000000000E+00 0.  1.
         23    2    1    2    0    0 -0.12412932588E+03 -0.10444100755E+04 -0.24940071653E+04  0.27082295472E+04  0.90747145568E+02 0.  0.
         11    1    3    3    0    0 -0.60334627379E+02 -0.41520642196E+03 -0.88591428140E+03  0.98024525201E+03  0.00000000000E+00 0.  1.
        -11    1    3    3    0    0 -0.63794698497E+02 -0.62920365352E+03 -0.16080928839E+04  0.17279842952E+04  0.00000000000E+00 0. -1.
         22    1    1    2    0    0  0.12412932588E+03  0.10444100755E+04  0.37951344618E+04  0.39381780151E+04  0.00000000000E+00 0. -1.
<mgrwt>
<rscale>  0 0.65178065E+04</rscale>
<asrwt>0</asrwt>
<pdfrwt beam="1">  1        2 0.61134884E+00 0.65178065E+04</pdfrwt>
<pdfrwt beam="2">  1       -2 0.41117540E+00 0.65178065E+04</pdfrwt>
<totfact> 0.14518413E-03</totfact>
</mgrwt>
</event>
<event>
 6    1  0.2003386E-005  0.2669504E+04  0.7818608E-02  0.8344968E-01
          2   -1    0    0  501    0  0.00000000000E+00  0.00000000000E+00  0.20477031927E+04  0.20477031927E+04  0.00000000000E+00 0. -1.
         -2   -1    0    0    0  501 -0.00000000000E+00 -0.00000000000E+00 -0.87002989953E+03  0.87002989953E+03  0.00000000000E+00 0.  1.
         23    2    1    2    0    0 -0.10518641388E+04  0.49824553321E+03  0.13002474784E+04  0.17473950177E+04  0.89883618027E+02 0.  0.
         11    1    3    3    0    0 -0.52377558828E+03  0.23625137025E+03  0.57651197833E+03  0.81395432180E+03  0.00000000000E+00 0. -1.
        -11    1    3    3    0    0 -0.52808855052E+03  0.26199416296E+03  0.72373550008E+03  0.93344069587E+03  0.00000000000E+00 0.  1.
         22    1    1    2    0    0  0.10518641388E+04 -0.49824553321E+03 -0.12257418524E+03  0.11703380746E+04  0.00000000000E+00 0. -1.
<mgrwt>
<rscale>  0 0.26695041E+04</rscale>
<asrwt>0</asrwt>
<pdfrwt beam="1">  1        2 0.31503126E+00 0.26695041E+04</pdfrwt>
<pdfrwt beam="2">  1       -2 0.13385075E+00 0.26695041E+04</pdfrwt>
<totfact> 0.22287892E+00</totfact>
</mgrwt>
</event>
<event>
 6    1  0.2003386E-005  0.7467812E+03  0.7818608E-02  0.9640414E-01
          2   -1    0    0  501    0  0.00000000000E+00  0.00000000000E+00  0.24533443910E+03  0.24533443910E+03  0.00000000000E+00 0.  1.
         -2   -1    0    0    0  501 -0.00000000000E+00 -0.00000000000E+00 -0.56828763265E+03  0.56828763265E+03  0.00000000000E+00 0. -1.
         23    2    1    2    0    0  0.24815284925E+03  0.26496710131E+03 -0.22890374545E+03  0.43861180515E+03  0.90531704772E+02 0.  0.
         13    1    3    3    0    0  0.10938065262E+03  0.10657864110E+03 -0.45481144735E+02  0.15934763391E+03  0.00000000000E+00 0. -1.
        -13    1    3    3    0    0  0.13877219663E+03  0.15838846021E+03 -0.18342260072E+03  0.27926417124E+03  0.00000000000E+00 0.  1.
         22    1    1    2    0    0 -0.24815284925E+03 -0.26496710131E+03 -0.94049448097E+02  0.37501026660E+03  0.00000000000E+00 0.  1.
<mgrwt>
<rscale>  0 0.74678117E+03</rscale>
<asrwt>0</asrwt>
<pdfrwt beam="1">  1        2 0.37743760E-01 0.74678117E+03</pdfrwt>
<pdfrwt beam="2">  1       -2 0.87428867E-01 0.74678117E+03</pdfrwt>
<totfact> 0.15666287E+02</totfact>
</mgrwt>
</event>
<event>
 6    1  0.2003386E-005  0.3504695E+04  0.7818608E-02  0.8112678E-01
          2   -1    0    0  501    0  0.00000000000E+00  0.00000000000E+00  0.27421463568E+04  0.27421463568E+04  0.00000000000E+00 0. -1.
         -2   -1    0    0    0  501 -0.00000000000E+00 -0.00000000000E+00 -0.11198243176E+04  0.11198243176E+04  0.00000000000E+00 0.  1.
         23    2    1    2    0    0 -0.88206414780E+03 -0.15577184206E+03  0.24698418608E+04  0.26288478599E+04  0.91761786096E+02 0.  0.
         11    1    3    3    0    0 -0.29156722066E+03 -0.82322024701E+01  0.81534253176E+03  0.86594610538E+03  0.00000000000E+00 0.  1.
        -11    1    3    3    0    0 -0.59049692714E+03 -0.14753963959E+03  0.16544993291E+04  0.17629017545E+04  0.00000000000E+00 0. -1.
         22    1    1    2    0    0  0.88206414780E+03  0.15577184206E+03 -0.84751982163E+03  0.12331228145E+04  0.00000000000E+00 0.  1.
<mgrwt>
<rscale>  0 0.35046952E+04</rscale>
<asrwt>0</asrwt>
<pdfrwt beam="1">  1        2 0.42186867E+00 0.35046952E+04</pdfrwt>
<pdfrwt beam="2">  1       -2 0.17228066E+00 0.35046952E+04</pdfrwt>
<totfact> 0.42249117E-01</totfact>
</mgrwt>
</event>
<event>
 6    1  0.2186481E-005  0.3712780E+04  0.7818608E-02  0.8065136E-01
         -2   -1    0    0    0  501 -0.00000000000E+00  0.00000000000E+00  0.16130862743E+04  0.16130862743E+04  0.00000000000E+00 0.  1.
          2   -1    0    0  501    0  0.00000000000E+00 -0.00000000000E+00 -0.21363909836E+04  0.21363909836E+04  0.00000000000E+00 0. -1.
         23    2    1    2    0    0  0.70376202678E+03 -0.81298292418E+03  0.12655429074E+04  0.16623265635E+04  0.74219459052E+02 0.  0.
         13    1    3    3    0    0  0.45491517575E+03 -0.47364657877E+03  0.75182707011E+03  0.99826491577E+03  0.00000000000E+00 0.  1.
        -13    1    3    3    0    0  0.24884685103E+03 -0.33933634540E+03  0.51371583725E+03  0.66406164776E+03  0.00000000000E+00 0. -1.
         22    1    1    2    0    0 -0.70376202678E+03  0.81298292418E+03 -0.17888476167E+04  0.20871506944E+04  0.00000000000E+00 0. -1.
<mgrwt>
<rscale>  0 0.37127795E+04</rscale>
<asrwt>0</asrwt>
<pdfrwt beam="1">  1        2 0.32867553E+00 0.37127795E+04</pdfrwt>
<pdfrwt beam="2">  1       -2 0.24816712E+00 0.37127795E+04</pdfrwt>
<totfact> 0.29863650E-01</totfact>
</mgrwt>
</event>
<event>
 6    1  0.2003386E-005  0.6361683E+03  0.7818608E-02  0.9833085E-01
         -1   -1    0    0    0  501 -0.00000000000E+00  0.00000000000E+00  0.53577250048E+03  0.53577250048E+03  0.00000000000E+00 0.  1.
          1   -1    0    0  501    0  0.00000000000E+00 -0.00000000000E+00 -0.18884420862E+03  0.18884420862E+03  0.00000000000E+00 0. -1.
         23    2    1    2    0    0  0.30212775037E+03 -0.55784462378E+02  0.11543401536E+03  0.33993153413E+03  0.88517524858E+02 0.  0.
         13    1    3    3    0    0  0.20083507169E+03 -0.57493202489E+02  0.11533172239E+03  0.23862439218E+03  0.00000000000E+00 0. -1.
        -13    1    3    3    0    0  0.10129267868E+03  0.17087401106E+01  0.10229297771E+00  0.10130714196E+03  0.00000000000E+00 0.  1.
         22    1    1    2    0    0 -0.30212775037E+03  0.55784462378E+02  0.23149427650E+03  0.38468517497E+03  0.00000000000E+00 0.  1.
<mgrwt>
<rscale>  0 0.63616832E+03</rscale>
<asrwt>0</asrwt>
<pdfrwt beam="1">  1        1 0.29052955E-01 0.63616832E+03</pdfrwt>
<pdfrwt beam="2">  1       -1 0.82426538E-01 0.63616832E+03</pdfrwt>
<totfact> 0.23832413E+02</totfact>
</mgrwt>
</event>
<event>
 6    1  0.2003386E-005  0.2221969E+04  0.7818608E-02  0.8509339E-01
         -2   -1    0    0    0  501 -0.00000000000E+00  0.00000000000E+00  0.12449563738E+04  0.12449563738E+04  0.00000000000E+00 0.  1.
          2   -1    0    0  501    0  0.00000000000E+00 -0.00000000000E+00 -0.99142978967E+03  0.99142978967E+03  0.00000000000E+00 0. -1.
         23    2    1    2    0    0 -0.34257120959E+03 -0.61147177416E+03  0.99199471038E+03  0.12182565363E+04  0.94035730019E+02 0.  0.
         13    1    3    3    0    0 -0.18295440106E+03 -0.39552368903E+03  0.55974063424E+03  0.70938063060E+03  0.00000000000E+00 0. -1.
        -13    1    3    3    0    0 -0.15961680854E+03 -0.21594808513E+03  0.43225407614E+03  0.50887590567E+03  0.00000000000E+00 0.  1.
         22    1    1    2    0    0  0.34257120959E+03  0.61147177416E+03 -0.73846812627E+03  0.10181296272E+04  0.00000000000E+00 0. -1.
<mgrwt>
<rscale>  0 0.22219692E+04</rscale>
<asrwt>0</asrwt>
<pdfrwt beam="1">  1        2 0.15252766E+00 0.22219692E+04</pdfrwt>
<pdfrwt beam="2">  1       -2 0.19153175E+00 0.22219692E+04</pdfrwt>
<totfact> 0.35226983E+00</totfact>
</mgrwt>
</event>
<event>
 6    1  0.2003386E-005  0.8318067E+03  0.7818608E-02  0.9515086E-01
          2   -1    0    0  501    0  0.00000000000E+00  0.00000000000E+00  0.10160745488E+04  0.10160745488E+04  0.00000000000E+00 0. -1.
         -2   -1    0    0    0  501 -0.00000000000E+00 -0.00000000000E+00 -0.17023909864E+03  0.17023909864E+03  0.00000000000E+00 0.  1.
         23    2    1    2    0    0  0.19186405473E+03 -0.32025599579E+03  0.17353583384E+03  0.41731267707E+03  0.68260284797E+02 0.  0.
         13    1    3    3    0    0  0.18539643168E+03 -0.26404275418E+03  0.15350983708E+03  0.35728935472E+03  0.00000000000E+00 0.  1.
        -13    1    3    3    0    0  0.64676230527E+01 -0.56213241607E+02  0.20025996764E+02  0.60023322353E+02  0.00000000000E+00 0. -1.
         22    1    1    2    0    0 -0.19186405473E+03  0.32025599579E+03  0.67229961631E+03  0.76900097037E+03  0.00000000000E+00 0.  1.
<mgrwt>
<rscale>  0 0.83180675E+03</rscale>
<asrwt>0</asrwt>
<pdfrwt beam="1">  1        2 0.15631916E+00 0.83180675E+03</pdfrwt>
<pdfrwt beam="2">  1       -2 0.26190631E-01 0.83180675E+03</pdfrwt>
<totfact> 0.32519444E+02</totfact>
</mgrwt>
</event>
<event>
 6    1  0.2003386E-005  0.1585657E+04  0.7818608E-02  0.8829408E-01
          2   -1    0    0  501    0  0.00000000000E+00  0.00000000000E+00  0.53255912066E+03  0.53255912066E+03  0.00000000000E+00 0. -1.
         -2   -1    0    0    0  501 -0.00000000000E+00 -0.00000000000E+00 -0.11802949968E+04  0.11802949968E+04  0.00000000000E+00 0.  1.
         23    2    1    2    0    0  0.15135072159E+03 -0.14523247769E+03  0.49830453613E+03  0.54777551922E+03  0.88040304556E+02 0.  0.
         11    1    3    3    0    0  0.30880288180E+02 -0.45094470737E+02  0.23605513628E+03  0.24229967159E+03  0.00000000000E+00 0. -1.
        -11    1    3    3    0    0  0.12047043341E+03 -0.10013800696E+03  0.26224939985E+03  0.30547584763E+03  0.00000000000E+00 0.  1.
         22    1    1    2    0    0 -0.15135072159E+03  0.14523247769E+03 -0.11460404122E+04  0.11650785982E+04  0.00000000000E+00 0.  1.
<mgrwt>
<rscale>  0 0.15856568E+04</rscale>
<asrwt>0</asrwt>
<pdfrwt beam="1">  1        2 0.81932173E-01 0.15856568E+04</pdfrwt>
<pdfrwt beam="2">  1       -2 0.18158384E+00 0.15856568E+04</pdfrwt>
<totfact> 0.96979650E+00</totfact>
</mgrwt>
</event>
<event>
 6    1  0.2003386E-005  0.4199224E+04  0.7818608E-02  0.7965520E-01
          2   -1    0    0  501    0  0.00000000000E+00  0.00000000000E+00  0.21388223283E+04  0.21388223283E+04  0.00000000000E+00 0. -1.
         -2   -1    0    0    0  501 -0.00000000000E+00 -0.00000000000E+00 -0.20611209324E+04  0.20611209324E+04  0.00000000000E+00 0.  1.
         23    2    1    2    0    0 -0.18342505867E+04  0.10195457175E+04  0.21341843830E+02  0.21006278761E+04  0.90737614641E+02 0.  0.
         11    1    3    3    0    0 -0.11512635700E+04  0.64221099179E+03  0.57213290272E+02  0.13195135946E+04  0.00000000000E+00 0.  1.
        -11    1    3    3    0    0 -0.68298701665E+03  0.37733472576E+03 -0.35871446442E+02  0.78111428155E+03  0.00000000000E+00 0. -1.
         22    1    1    2    0    0  0.18342505867E+04 -0.10195457175E+04  0.56359552104E+02  0.20993153846E+04  0.00000000000E+00 0. -1.
<mgrwt>
<rscale>  0 0.41992244E+04</rscale>
<asrwt>0</asrwt>
<pdfrwt beam="1">  1        2 0.32904959E+00 0.41992244E+04</pdfrwt>
<pdfrwt beam="2">  1       -2 0.31709553E+00 0.41992244E+04</pdfrwt>
<totfact> 0.10826849E-01</totfact>
</mgrwt>
</event>
<event>
 6    1  0.2003386E-005  0.3727657E+04  0.7818608E-02  0.8061860E-01
          2   -1    0    0  501    0  0.00000000000E+00  0.00000000000E+00  0.21472370797E+04  0.21472370797E+04  0.00000000000E+00 0. -1.
         -2   -1    0    0    0  501 -0.00000000000E+00 -0.00000000000E+00 -0.16178266821E+04  0.16178266821E+04  0.00000000000E+00 0.  1.
         23    2    1    2    0    0  0.25664808030E+03 -0.29783912573E+03  0.21037815277E+04  0.21423435650E+04  0.95722789278E+02 0.  0.
         11    1    3    3    0    0  0.75601565372E+02 -0.11935725125E+03  0.54764820061E+03  0.56557961574E+03  0.00000000000E+00 0.  1.
        -11    1    3    3    0    0  0.18104651493E+03 -0.17848187449E+03  0.15561333271E+04  0.15767639493E+04  0.00000000000E+00 0. -1.
         22    1    1    2    0    0 -0.25664808030E+03  0.29783912573E+03 -0.15743711301E+04  0.16227201968E+04  0.00000000000E+00 0.  1.
<mgrwt>
<rscale>  0 0.37276574E+04</rscale>
<asrwt>0</asrwt>
<pdfrwt beam="1">  1        2 0.33034417E+00 0.37276574E+04</pdfrwt>
<pdfrwt beam="2">  1       -2 0.24889641E+00 0.37276574E+04</pdfrwt>
<totfact> 0.29109835E-01</totfact>
</mgrwt>
</event>
<event>
 6    1  0.2003386E-005  0.2430980E+04  0.7818608E-02  0.8427995E-01
          2   -1    0    0  501    0  0.00000000000E+00  0.00000000000E+00  0.85120285941E+03  0.85120285941E+03  0.00000000000E+00 0. -1.
         -2   -1    0    0    0  501 -0.00000000000E+00 -0.00000000000E+00 -0.17356805548E+04  0.17356805548E+04  0.00000000000E+00 0.  1.
         23    2    1    2    0    0  0.90264682404E+03  0.39360590115E+03 -0.11981065127E+04  0.15534135650E+04  0.89093173864E+02 0.  0.
         11    1    3    3    0    0  0.48281814685E+03  0.18403191770E+03 -0.68629746122E+03  0.85906071668E+03  0.00000000000E+00 0.  1.
        -11    1    3    3    0    0  0.41982867720E+03  0.20957398344E+03 -0.51180905149E+03  0.69435284828E+03  0.00000000000E+00 0. -1.
         22    1    1    2    0    0 -0.90264682404E+03 -0.39360590115E+03  0.31362881728E+03  0.10334698493E+04  0.00000000000E+00 0. -1.
<mgrwt>
<rscale>  0 0.24309803E+04</rscale>
<asrwt>0</asrwt>
<pdfrwt beam="1">  1        2 0.13095429E+00 0.24309803E+04</pdfrwt>
<pdfrwt beam="2">  1       -2 0.26702778E+00 0.24309803E+04</pdfrwt>
<totfact> 0.14358335E+00</totfact>
</mgrwt>
</event>
<event>
 6    1  0.2003386E-005  0.3247944E+04  0.7818608E-02  0.8176269E-01
         -2   -1    0    0    0  501 -0.00000000000E+00  0.00000000000E+00  0.11415677731E+04  0.11415677731E+04  0.00000000000E+00 0.  1.
          2   -1    0    0  501    0  0.00000000000E+00 -0.00000000000E+00 -0.23102314857E+04  0.23102314857E+04  0.00000000000E+00 0. -1.
         23    2    1    2    0    0 -0.32644125492E+03 -0.99533015918E+03 -0.19023696833E+04  0.21729050216E+04  0.72524494490E+02 0.  0.
         13    1    3    3    0    0 -0.20315959501E+03 -0.52326050698E+03 -0.10595474260E+04  0.11990480087E+04  0.00000000000E+00 0.  1.
        -13    1    3    3    0    0 -0.12328165991E+03 -0.47206965220E+03 -0.84282225722E+03  0.97385701284E+03  0.00000000000E+00 0. -1.
         22    1    1    2    0    0  0.32644125492E+03  0.99533015918E+03  0.73370597063E+03  0.12788942372E+04  0.00000000000E+00 0.  1.
<mgrwt>
<rscale>  0 0.32479445E+04</rscale>
<asrwt>0</asrwt>
<pdfrwt beam="1">  1        2 0.35542023E+00 0.32479445E+04</pdfrwt>
<pdfrwt beam="2">  1       -2 0.17562581E+00 0.32479445E+04</pdfrwt>
<totfact> 0.72973778E-01</totfact>
</mgrwt>
</event>
<event>
 6    1  0.2003386E-005  0.2406255E+04  0.7818608E-02  0.8437166E-01
          2   -1    0    0  501    0  0.00000000000E+00  0.00000000000E+00  0.17175077294E+04  0.17175077294E+04  0.00000000000E+00 0. -1.
         -2   -1    0    0    0  501 -0.00000000000E+00 -0.00000000000E+00 -0.84280008336E+03  0.84280008336E+03  0.00000000000E+00 0.  1.
         23    2    1    2    0    0  0.11776837253E+04  0.21931069217E+03  0.34161581285E+03  0.12491163549E+04  0.92488744555E+02 0.  0.
         11    1    3    3    0    0  0.73903829607E+03  0.95746359380E+02  0.23050433995E+03  0.78004949787E+03  0.00000000000E+00 0.  1.
        -11    1    3    3    0    0  0.43864542927E+03  0.12356433279E+03  0.11111147290E+03  0.46906685703E+03  0.00000000000E+00 0. -1.
         22    1    1    2    0    0 -0.11776837253E+04 -0.21931069217E+03  0.53309183324E+03  0.13111914579E+04  0.00000000000E+00 0. -1.
<mgrwt>
<rscale>  0 0.24062549E+04</rscale>
<asrwt>0</asrwt>
<pdfrwt beam="1">  1        2 0.26423196E+00 0.24062549E+04</pdfrwt>
<pdfrwt beam="2">  1       -2 0.12966155E+00 0.24062549E+04</pdfrwt>
<totfact> 0.37683713E+00</totfact>
</mgrwt>
</event>
<event>
 6    1  0.2003386E-005  0.1293728E+04  0.7818608E-02  0.9034554E-01
         -2   -1    0    0    0  501 -0.00000000000E+00  0.00000000000E+00  0.31376749162E+03  0.31376749162E+03  0.00000000000E+00 0.  1.
          2   -1    0    0  501    0  0.00000000000E+00 -0.00000000000E+00 -0.13335761310E+04  0.13335761310E+04  0.00000000000E+00 0. -1.
         23    2    1    2    0    0 -0.63621831718E+03 -0.52021954777E+02 -0.61748938516E+03  0.89279686251E+03  0.91176016680E+02 0.  0.
         11    1    3    3    0    0 -0.50438547391E+03 -0.24042007036E+02 -0.53044035987E+03  0.73235899651E+03  0.00000000000E+00 0. -1.
        -11    1    3    3    0    0 -0.13183284327E+03 -0.27979947740E+02 -0.87049025294E+02  0.16043786599E+03  0.00000000000E+00 0.  1.
         22    1    1    2    0    0  0.63621831718E+03  0.52021954777E+02 -0.40231925423E+03  0.75454676013E+03  0.00000000000E+00 0. -1.
<mgrwt>
<rscale>  0 0.12937277E+04</rscale>
<asrwt>0</asrwt>
<pdfrwt beam="1">  1        2 0.20516556E+00 0.12937277E+04</pdfrwt>
<pdfrwt beam="2">  1       -2 0.48271922E-01 0.12937277E+04</pdfrwt>
<totfact> 0.62980975E+01</totfact>
</mgrwt>
</event>
<event>
 6    1  0.2003386E-005  0.2114320E+04  0.7818608E-02  0.8554962E-01
         -2   -1    0    0    0  501 -0.00000000000E+00  0.00000000000E+00  0.95502416894E+03  0.95502416894E+03  0.00000000000E+00 0.  1.
          2   -1    0    0  501    0  0.00000000000E+00 -0.00000000000E+00 -0.11702183676E+04  0.11702183676E+04  0.00000000000E+00 0. -1.
         23    2    1    2    0    0 -0.12156884118E+03 -0.54045463006E+03  0.79497501393E+03  0.97315224999E+03  0.90387159450E+02 0.  0.
         11    1    3    3    0    0 -0.96158097401E+02 -0.47172446265E+03  0.73414008599E+03  0.87791344346E+03  0.00000000000E+00 0.  1.
        -11    1    3    3    0    0 -0.25410743775E+02 -0.68730167413E+02  0.60834927945E+02  0.95238806533E+02  0.00000000000E+00 0. -1.
         22    1    1    2    0    0  0.12156884118E+03  0.54045463006E+03 -0.10101692126E+04  0.11520902866E+04  0.00000000000E+00 0. -1.
<mgrwt>
<rscale>  0 0.21143196E+04</rscale>
<asrwt>0</asrwt>
<pdfrwt beam="1">  1        2 0.18003359E+00 0.21143196E+04</pdfrwt>
<pdfrwt beam="2">  1       -2 0.14692680E+00 0.21143196E+04</pdfrwt>
<totfact> 0.57503914E+00</totfact>
</mgrwt>
</event>
<event>
 6    1  0.2003386E-005  0.4435340E+04  0.7818608E-02  0.7922056E-01
          2   -1    0    0  501    0  0.00000000000E+00  0.00000000000E+00  0.31314286880E+04  0.31314286880E+04  0.00000000000E+00 0. -1.
         -2   -1    0    0    0  501 -0.00000000000E+00 -0.00000000000E+00 -0.15705482420E+04  0.15705482420E+04  0.00000000000E+00 0.  1.
         23    2    1    2    0    0 -0.51740901579E+03 -0.89618587666E+03  0.28590089848E+04  0.30418567782E+04  0.89994824113E+02 0.  0.
         11    1    3    3    0    0 -0.19663517656E+03 -0.30300988254E+03  0.11128233860E+04  0.11699813118E+04  0.00000000000E+00 0.  1.
        -11    1    3    3    0    0 -0.32077383923E+03 -0.59317599412E+03  0.17461855988E+04  0.18718754663E+04  0.00000000000E+00 0. -1.
         22    1    1    2    0    0  0.51740901579E+03  0.89618587666E+03 -0.12981285388E+04  0.16601201518E+04  0.00000000000E+00 0.  1.
<mgrwt>
<rscale>  0 0.44353398E+04</rscale>
<asrwt>0</asrwt>
<pdfrwt beam="1">  1        2 0.48175826E+00 0.44353398E+04</pdfrwt>
<pdfrwt beam="2">  1       -2 0.24162281E+00 0.44353398E+04</pdfrwt>
<totfact> 0.79134264E-02</totfact>
</mgrwt>
</event>
<event>
 6    1  0.2003386E-005  0.2001628E+04  0.7818608E-02  0.8605860E-01
          2   -1    0    0  501    0  0.00000000000E+00  0.00000000000E+00  0.70737988737E+03  0.70737988737E+03  0.00000000000E+00 0. -1.
         -2   -1    0    0    0  501 -0.00000000000E+00 -0.00000000000E+00 -0.14159699740E+04  0.14159699740E+04  0.00000000000E+00 0.  1.
         23    2    1    2    0    0  0.33266502541E+03 -0.37842825356E+03 -0.12698172588E+04  0.13691284742E+04  0.90570116629E+02 0.  0.
         13    1    3    3    0    0  0.15168867048E+03 -0.16095379562E+03 -0.67795583543E+03  0.71311968972E+03  0.00000000000E+00 0. -1.
        -13    1    3    3    0    0  0.18097635493E+03 -0.21747445794E+03 -0.59186142333E+03  0.65600878449E+03  0.00000000000E+00 0.  1.
         22    1    1    2    0    0 -0.33266502541E+03  0.37842825356E+03  0.56122717209E+03  0.75422138720E+03  0.00000000000E+00 0. -1.
<mgrwt>
<rscale>  0 0.20016280E+04</rscale>
<asrwt>0</asrwt>
<pdfrwt beam="1">  1        2 0.10882768E+00 0.20016280E+04</pdfrwt>
<pdfrwt beam="2">  1       -2 0.21784153E+00 0.20016280E+04</pdfrwt>
<totfact> 0.38289476E+00</totfact>
</mgrwt>
</event>
<event>
 6    1  0.2003386E-005  0.7881347E+03  0.7818608E-02  0.9577352E-01
         -1   -1    0    0    0  501 -0.00000000000E+00  0.00000000000E+00  0.35905624914E+03  0.35905624914E+03  0.00000000000E+00 0.  1.
          1   -1    0    0  501    0  0.00000000000E+00 -0.00000000000E+00 -0.43249233876E+03  0.43249233876E+03  0.00000000000E+00 0. -1.
         23    2    1    2    0    0  0.10156442474E+03 -0.15029585747E+03 -0.38261106512E+03  0.43308890730E+03  0.90942824535E+02 0.  0.
         11    1    3    3    0    0  0.31648396646E+02 -0.34812533513E+02 -0.20311419478E+03  0.20849198934E+03  0.00000000000E+00 0.  1.
        -11    1    3    3    0    0  0.69916028090E+02 -0.11548332395E+03 -0.17949687034E+03  0.22459691796E+03  0.00000000000E+00 0. -1.
         22    1    1    2    0    0 -0.10156442474E+03  0.15029585747E+03  0.30917497549E+03  0.35845968060E+03  0.00000000000E+00 0.  1.
<mgrwt>
<rscale>  0 0.78813470E+03</rscale>
<asrwt>0</asrwt>
<pdfrwt beam="1">  1        1 0.66537282E-01 0.78813470E+03</pdfrwt>
<pdfrwt beam="2">  1       -1 0.55239423E-01 0.78813470E+03</pdfrwt>
<totfact> 0.18118362E+02</totfact>
</mgrwt>
</event>
<event>
 6    1  0.2003386E-005  0.3091885E+04  0.7818608E-02  0.8217969E-01
          2   -1    0    0  501    0  0.00000000000E+00  0.00000000000E+00  0.15522797673E+04  0.15522797673E+04  0.00000000000E+00 0. -1.
         -2   -1    0    0    0  501 -0.00000000000E+00 -0.00000000000E+00 -0.15396311771E+04  0.15396311771E+04  0.00000000000E+00 0.  1.
         23    2    1    2    0    0 -0.97991218268E+03  0.10509572825E+04  0.57275320264E+03  0.15496864885E+04  0.93503402100E+02 0.  0.
         11    1    3    3    0    0 -0.79839837638E+02  0.12598882134E+03  0.66944094268E+02  0.16349034997E+03  0.00000000000E+00 0. -1.
        -11    1    3    3    0    0 -0.90007234504E+03  0.92496846118E+03  0.50580910837E+03  0.13861961386E+04  0.00000000000E+00 0.  1.
         22    1    1    2    0    0  0.97991218268E+03 -0.10509572825E+04 -0.56010461243E+03  0.15422244559E+04  0.00000000000E+00 0.  1.
<mgrwt>
<rscale>  0 0.30918851E+04</rscale>
<asrwt>0</asrwt>
<pdfrwt beam="1">  1        2 0.23881227E+00 0.30918851E+04</pdfrwt>
<pdfrwt beam="2">  1       -2 0.23686633E+00 0.30918851E+04</pdfrwt>
<totfact> 0.78067733E-01</totfact>
</mgrwt>
</event>
<event>
 6    1  0.2003386E-005  0.6551195E+04  0.7818608E-02  0.7625579E-01
         -2   -1    0    0    0  501 -0.00000000000E+00  0.00000000000E+00  0.57953282017E+04  0.57953282017E+04  0.00000000000E+00 0.  1.
          2   -1    0    0  501    0  0.00000000000E+00 -0.00000000000E+00 -0.18514119447E+04  0.18514119447E+04  0.00000000000E+00 0. -1.
         23    2    1    2    0    0 -0.31021101398E+04  0.10230300769E+04  0.22474132362E+04  0.39660064753E+04  0.93076583831E+02 0.  0.
         11    1    3    3    0    0 -0.25111446787E+04  0.86596976195E+03  0.18206306366E+04  0.32203178633E+04  0.00000000000E+00 0. -1.
        -11    1    3    3    0    0 -0.59096546108E+03  0.15706031491E+03  0.42678259957E+03  0.74568861196E+03  0.00000000000E+00 0.  1.
         22    1    1    2    0    0  0.31021101398E+04 -0.10230300769E+04  0.16965030209E+04  0.36807336711E+04  0.00000000000E+00 0. -1.
<mgrwt>
<rscale>  0 0.65511953E+04</rscale>
<asrwt>0</asrwt>
<pdfrwt beam="1">  1        2 0.28483261E+00 0.65511953E+04</pdfrwt>
<pdfrwt beam="2">  1       -2 0.89158894E+00 0.65511953E+04</pdfrwt>
<totfact> 0.58681806E-05</totfact>
</mgrwt>
</event>
<event>
 6    1  0.2003386E-005  0.2306781E+04  0.7818608E-02  0.8475252E-01
          2   -1    0    0  501    0  0.00000000000E+00  0.00000000000E+00  0.22656340537E+04  0.22656340537E+04  0.00000000000E+00 0. -1.
         -2   -1    0    0    0  501 -0.00000000000E+00 -0.00000000000E+00 -0.58716861055E+03  0.58716861055E+03  0.00000000000E+00 0.  1.
         23    2    1    2    0    0 -0.53602606836E+03 -0.23030362620E+03  0.20685208481E+04  0.21510142879E+04  0.87865020617E+02 0.  0.
         11    1    3    3    0    0 -0.37388040124E+03 -0.18139936259E+03  0.15899343285E+04  0.16433452017E+04  0.00000000000E+00 0. -1.
        -11    1    3    3    0    0 -0.16214566711E+03 -0.48904263609E+02  0.47858651961E+03  0.50766908623E+03  0.00000000000E+00 0.  1.
         22    1    1    2    0    0  0.53602606836E+03  0.23030362620E+03 -0.39005540493E+03  0.70178837630E+03  0.00000000000E+00 0.  1.
<mgrwt>
<rscale>  0 0.23067806E+04</rscale>
<asrwt>0</asrwt>
<pdfrwt beam="1">  1        2 0.34855908E+00 0.23067806E+04</pdfrwt>
<pdfrwt beam="2">  1       -2 0.90333634E-01 0.23067806E+04</pdfrwt>
<totfact> 0.45012448E+00</totfact>
</mgrwt>
</event>
<event>
 6    1  0.2003386E-005  0.2387454E+04  0.7818608E-02  0.8444215E-01
          2   -1    0    0  501    0  0.00000000000E+00  0.00000000000E+00  0.11740359327E+04  0.11740359327E+04  0.00000000000E+00 0. -1.
         -2   -1    0    0    0  501 -0.00000000000E+00 -0.00000000000E+00 -0.12137486848E+04  0.12137486848E+04  0.00000000000E+00 0.  1.
         23    2    1    2    0    0 -0.11021006022E+04  0.38838358045E+03 -0.25546409502E+03  0.11995017451E+04  0.89860946843E+02 0.  0.
         13    1    3    3    0    0 -0.56238954435E+03  0.21916479524E+03 -0.90599885793E+02  0.61034707042E+03  0.00000000000E+00 0. -1.
        -13    1    3    3    0    0 -0.53971105781E+03  0.16921878520E+03 -0.16486420923E+03  0.58915467466E+03  0.00000000000E+00 0.  1.
         22    1    1    2    0    0  0.11021006022E+04 -0.38838358045E+03  0.21575134288E+03  0.11882828724E+04  0.00000000000E+00 0. -1.
<mgrwt>
<rscale>  0 0.23874544E+04</rscale>
<asrwt>0</asrwt>
<pdfrwt beam="1">  1        2 0.18062091E+00 0.23874544E+04</pdfrwt>
<pdfrwt beam="2">  1       -2 0.18673057E+00 0.23874544E+04</pdfrwt>
<totfact> 0.28819913E+00</totfact>
</mgrwt>
</event>
<event>
 6    1  0.2003386E-005  0.2399898E+04  0.7818608E-02  0.8439542E-01
          2   -1    0    0  501    0  0.00000000000E+00  0.00000000000E+00  0.20268707270E+04  0.20268707270E+04  0.00000000000E+00 0. -1.
         -2   -1    0    0    0  501 -0.00000000000E+00 -0.00000000000E+00 -0.71039426979E+03  0.71039426979E+03  0.00000000000E+00 0.  1.
         23    2    1    2    0    0 -0.10470054802E+04 -0.58108469214E+03  0.61078300489E+03  0.13473430048E+04  0.91637320602E+02 0.  0.
         13    1    3    3    0    0 -0.71084039893E+03 -0.36033785638E+03  0.44073169114E+03  0.91070405020E+03  0.00000000000E+00 0. -1.
        -13    1    3    3    0    0 -0.33616508130E+03 -0.22074683576E+03  0.17005131375E+03  0.43663895462E+03  0.00000000000E+00 0.  1.
         22    1    1    2    0    0  0.10470054802E+04  0.58108469214E+03  0.70569345230E+03  0.13899219919E+04  0.00000000000E+00 0. -1.
<mgrwt>
<rscale>  0 0.23998978E+04</rscale>
<asrwt>0</asrwt>
<pdfrwt beam="1">  1        2 0.31182626E+00 0.23998978E+04</pdfrwt>
<pdfrwt beam="2">  1       -2 0.10929143E+00 0.23998978E+04</pdfrwt>
<totfact> 0.38736580E+00</totfact>
</mgrwt>
</event>
<event>
 6    1  0.2003386E-005  0.2948766E+04  0.7818608E-02  0.8258514E-01
         -2   -1    0    0    0  501 -0.00000000000E+00  0.00000000000E+00  0.63558910075E+03  0.63558910075E+03  0.00000000000E+00 0.  1.
          2   -1    0    0  501    0  0.00000000000E+00 -0.00000000000E+00 -0.34201414581E+04  0.34201414581E+04  0.00000000000E+00 0. -1.
         23    2    1    2    0    0  0.13662982636E+04  0.41578104843E+03 -0.89771633563E+03  0.16893419606E+04  0.91306162492E+02 0.  0.
         11    1    3    3    0    0  0.56723514449E+03  0.20427161621E+03 -0.41821376058E+03  0.73374747146E+03  0.00000000000E+00 0. -1.
        -11    1    3    3    0    0  0.79906311906E+03  0.21150943222E+03 -0.47950257505E+03  0.95559448912E+03  0.00000000000E+00 0.  1.
         22    1    1    2    0    0 -0.13662982636E+04 -0.41578104843E+03 -0.18868360217E+04  0.23663885983E+04  0.00000000000E+00 0.  1.
<mgrwt>
<rscale>  0 0.29487656E+04</rscale>
<asrwt>0</asrwt>
<pdfrwt beam="1">  1        2 0.52617559E+00 0.29487656E+04</pdfrwt>
<pdfrwt beam="2">  1       -2 0.97782941E-01 0.29487656E+04</pdfrwt>
<totfact> 0.69100625E-01</totfact>
</mgrwt>
</event>
<event>
 6    1  0.2003386E-005  0.1911714E+04  0.7818608E-02  0.8649048E-01
         -2   -1    0    0    0  501 -0.00000000000E+00  0.00000000000E+00  0.40519166577E+03  0.40519166577E+03  0.00000000000E+00 0.  1.
          2   -1    0    0  501    0  0.00000000000E+00 -0.00000000000E+00 -0.22548893725E+04  0.22548893725E+04  0.00000000000E+00 0. -1.
         23    2    1    2    0    0 -0.45184552931E+03  0.83980225219E+03 -0.93253943489E+03  0.13369742774E+04  0.91859760479E+02 0.  0.
         11    1    3    3    0    0 -0.12591492268E+03  0.18585379518E+03 -0.26474704888E+03  0.34711266301E+03  0.00000000000E+00 0.  1.
        -11    1    3    3    0    0 -0.32593060662E+03  0.65394845701E+03 -0.66779238601E+03  0.98986161436E+03  0.00000000000E+00 0. -1.
         22    1    1    2    0    0  0.45184552931E+03 -0.83980225219E+03 -0.91715827183E+03  0.13231067609E+04  0.00000000000E+00 0. -1.
<mgrwt>
<rscale>  0 0.19117138E+04</rscale>
<asrwt>0</asrwt>
<pdfrwt beam="1">  1        2 0.34690606E+00 0.19117138E+04</pdfrwt>
<pdfrwt beam="2">  1       -2 0.62337179E-01 0.19117138E+04</pdfrwt>
<totfact> 0.10745835E+01</totfact>
</mgrwt>
</event>
<event>
 6    1  0.2003386E-005  0.1278601E+04  0.7818608E-02  0.9046709E-01
          2   -1    0    0  501    0  0.00000000000E+00  0.00000000000E+00  0.11918252546E+04  0.11918252546E+04  0.00000000000E+00 0. -1.
         -2   -1    0    0    0  501 -0.00000000000E+00 -0.00000000000E+00 -0.34292376119E+03  0.34292376119E+03  0.00000000000E+00 0.  1.
         23    2    1    2    0    0  0.35823699757E+03 -0.48639363344E+03  0.18730279301E+03  0.63885540971E+03  0.90229624633E+02 0.  0.
         11    1    3    3    0    0  0.13878092358E+03 -0.20909352343E+03  0.33352986055E+02  0.25316529772E+03  0.00000000000E+00 0.  1.
        -11    1    3    3    0    0  0.21945607400E+03 -0.27730011001E+03  0.15394980696E+03  0.38569011199E+03  0.00000000000E+00 0. -1.
         22    1    1    2    0    0 -0.35823699757E+03  0.48639363344E+03  0.66159870043E+03  0.89589360612E+03  0.00000000000E+00 0. -1.
<mgrwt>
<rscale>  0 0.12786011E+04</rscale>
<asrwt>0</asrwt>
<pdfrwt beam="1">  1        2 0.18335773E+00 0.12786011E+04</pdfrwt>
<pdfrwt beam="2">  1       -2 0.52757502E-01 0.12786011E+04</pdfrwt>
<totfact> 0.63717257E+01</totfact>
</mgrwt>
</event>
<event>
 6    1  0.2003386E-005  0.1006922E+04  0.7818608E-02  0.9300985E-01
          2   -1    0    0  501    0  0.00000000000E+00  0.00000000000E+00  0.10788100867E+04  0.10788100867E+04  0.00000000000E+00 0. -1.
         -2   -1    0    0    0  501 -0.00000000000E+00 -0.00000000000E+00 -0.23495611275E+03  0.23495611275E+03  0.00000000000E+00 0.  1.
         23    2    1    2    0    0 -0.54807438822E+02 -0.22929996024E+03 -0.14912690130E+03  0.29318139370E+03  0.90189632484E+02 0.  0.
         13    1    3    3    0    0 -0.21750542306E+02 -0.52812979010E+02 -0.85222676298E+02  0.10259240419E+03  0.00000000000E+00 0. -1.
        -13    1    3    3    0    0 -0.33056896516E+02 -0.17648698123E+03 -0.63904225002E+02  0.19058898951E+03  0.00000000000E+00 0.  1.
         22    1    1    2    0    0  0.54807438822E+02  0.22929996024E+03  0.99298087523E+03  0.10205848057E+04  0.00000000000E+00 0. -1.
<mgrwt>
<rscale>  0 0.10069221E+04</rscale>
<asrwt>0</asrwt>
<pdfrwt beam="1">  1        2 0.16597078E+00 0.10069221E+04</pdfrwt>
<pdfrwt beam="2">  1       -2 0.36147095E-01 0.10069221E+04</pdfrwt>
<totfact> 0.16118598E+02</totfact>
</mgrwt>
</event>
<event>
 6    1  0.2055383E-005  0.2001240E+04  0.7818608E-02  0.8606041E-01
          2   -1    0    0  501    0  0.00000000000E+00  0.00000000000E+00  0.16580313629E+04  0.16580313629E+04  0.00000000000E+00 0. -1.
         -2   -1    0    0    0  501 -0.00000000000E+00 -0.00000000000E+00 -0.60387324516E+03  0.60387324516E+03  0.00000000000E+00 0.  1.
         23    2    1    2    0    0 -0.13833712397E+02  0.97403058622E+03  0.28006059947E+03  0.10176562718E+04  0.90903210371E+02 0.  0.
         13    1    3    3    0    0 -0.48998170469E+02  0.39207398712E+03  0.10257348295E+03  0.40822071418E+03  0.00000000000E+00 0.  1.
        -13    1    3    3    0    0  0.35164458072E+02  0.58195659911E+03  0.17748711651E+03  0.60943555761E+03  0.00000000000E+00 0. -1.
         22    1    1    2    0    0  0.13833712397E+02 -0.97403058622E+03  0.77409751829E+03  0.12442483363E+04  0.00000000000E+00 0. -1.
<mgrwt>
<rscale>  0 0.20012404E+04</rscale>
<asrwt>0</asrwt>
<pdfrwt beam="1">  1        2 0.25508175E+00 0.20012404E+04</pdfrwt>
<pdfrwt beam="2">  1       -2 0.92903577E-01 0.20012404E+04</pdfrwt>
<totfact> 0.94396987E+00</totfact>
</mgrwt>
</event>
<event>
 6    1  0.2003386E-005  0.1813167E+04  0.7818608E-02  0.8699328E-01
         -2   -1    0    0    0  501 -0.00000000000E+00  0.00000000000E+00  0.54277761771E+03  0.54277761771E+03  0.00000000000E+00 0.  1.
          2   -1    0    0  501    0  0.00000000000E+00 -0.00000000000E+00 -0.15142370680E+04  0.15142370680E+04  0.00000000000E+00 0. -1.
         23    2    1    2    0    0  0.67207400250E+03 -0.32141743322E+03 -0.10683750721E+04  0.13057588910E+04  0.92673382065E+02 0.  0.
         13    1    3    3    0    0  0.30221938168E+03 -0.10261959449E+03 -0.41068210542E+03  0.52012222366E+03  0.00000000000E+00 0. -1.
        -13    1    3    3    0    0  0.36985462082E+03 -0.21879783873E+03 -0.65769296664E+03  0.78563666738E+03  0.00000000000E+00 0.  1.
         22    1    1    2    0    0 -0.67207400250E+03  0.32141743322E+03  0.96915621803E+02  0.75125579463E+03  0.00000000000E+00 0.  1.
<mgrwt>
<rscale>  0 0.18131674E+04</rscale>
<asrwt>0</asrwt>
<pdfrwt beam="1">  1        2 0.23295954E+00 0.18131674E+04</pdfrwt>
<pdfrwt beam="2">  1       -2 0.83504250E-01 0.18131674E+04</pdfrwt>
<totfact> 0.14743334E+01</totfact>
</mgrwt>
</event>
<event>
 6    1  0.2003386E-005  0.3669312E+04  0.7818608E-02  0.8074797E-01
         -2   -1    0    0    0  501 -0.00000000000E+00  0.00000000000E+00  0.22897484913E+04  0.22897484913E+04  0.00000000000E+00 0.  1.
          2   -1    0    0  501    0  0.00000000000E+00 -0.00000000000E+00 -0.14700143014E+04  0.14700143014E+04  0.00000000000E+00 0. -1.
         23    2    1    2    0    0  0.71763101042E+03  0.14871676484E+04  0.12267218885E+04  0.20590862014E+04  0.91255198835E+02 0.  0.
         13    1    3    3    0    0  0.64527969094E+03  0.13642754930E+04  0.11480190106E+04  0.18962017691E+04  0.00000000000E+00 0. -1.
        -13    1    3    3    0    0  0.72351319483E+02  0.12289215541E+03  0.78702877910E+02  0.16288443230E+03  0.00000000000E+00 0.  1.
         22    1    1    2    0    0 -0.71763101042E+03 -0.14871676484E+04 -0.40698769864E+03  0.17006765914E+04  0.00000000000E+00 0. -1.
<mgrwt>
<rscale>  0 0.36693122E+04</rscale>
<asrwt>0</asrwt>
<pdfrwt beam="1">  1        2 0.22615605E+00 0.36693122E+04</pdfrwt>
<pdfrwt beam="2">  1       -2 0.35226900E+00 0.36693122E+04</pdfrwt>
<totfact> 0.16096977E-01</totfact>
</mgrwt>
</event>
<event>
 6    1  0.2154697E-005  0.2052332E+04  0.7818608E-02  0.8582537E-01
         -2   -1    0    0    0  501 -0.00000000000E+00  0.00000000000E+00  0.64129098288E+03  0.64129098288E+03  0.00000000000E+00 0.  1.
          2   -1    0    0  501    0  0.00000000000E+00 -0.00000000000E+00 -0.16420263427E+04  0.16420263427E+04  0.00000000000E+00 0. -1.
         23    2    1    2    0    0  0.56344308479E+01 -0.28946444174E+03  0.59164725683E+03  0.66482920154E+03  0.90166406570E+02 0.  0.
         11    1    3    3    0    0 -0.38253936030E+02 -0.19630421900E+03  0.37741329191E+03  0.42712937493E+03  0.00000000000E+00 0. -1.
        -11    1    3    3    0    0  0.43888366878E+02 -0.93160222736E+02  0.21423396491E+03  0.23769982661E+03  0.00000000000E+00 0.  1.
         22    1    1    2    0    0 -0.56344308479E+01  0.28946444174E+03 -0.15923826166E+04  0.16184881240E+04  0.00000000000E+00 0. -1.
<mgrwt>
<rscale>  0 0.20523320E+04</rscale>
<asrwt>0</asrwt>
<pdfrwt beam="1">  1        2 0.25261943E+00 0.20523320E+04</pdfrwt>
<pdfrwt beam="2">  1       -2 0.98660152E-01 0.20523320E+04</pdfrwt>
<totfact> 0.83352689E+00</totfact>
</mgrwt>
</event>
<event>
 6    1  0.2003386E-005  0.3741929E+04  0.7818608E-02  0.8058733E-01
          2   -1    0    0  501    0  0.00000000000E+00  0.00000000000E+00  0.16283258709E+04  0.16283258709E+04  0.00000000000E+00 0. -1.
         -2   -1    0    0    0  501 -0.00000000000E+00 -0.00000000000E+00 -0.21497587355E+04  0.21497587355E+04  0.00000000000E+00 0.  1.
         23    2    1    2    0    0  0.16177253262E+04  0.63584618068E+03 -0.95675503359E+03  0.19862026383E+04  0.91022687128E+02 0.  0.
         13    1    3    3    0    0  0.64305523136E+03  0.20696368365E+03 -0.38542723466E+03  0.77775841374E+03  0.00000000000E+00 0. -1.
        -13    1    3    3    0    0  0.97467009488E+03  0.42888249704E+03 -0.57132779892E+03  0.12084442246E+04  0.00000000000E+00 0.  1.
         22    1    1    2    0    0 -0.16177253262E+04 -0.63584618068E+03  0.43532216892E+03  0.17918819680E+04  0.00000000000E+00 0. -1.
<mgrwt>
<rscale>  0 0.37419288E+04</rscale>
<asrwt>0</asrwt>
<pdfrwt beam="1">  1        2 0.25051167E+00 0.37419288E+04</pdfrwt>
<pdfrwt beam="2">  1       -2 0.33073211E+00 0.37419288E+04</pdfrwt>
<totfact> 0.17790511E-01</totfact>
</mgrwt>
</event>
<event>
 6    1  0.2003386E-005  0.2441760E+04  0.7818608E-02  0.8424033E-01
         -2   -1    0    0    0  501 -0.00000000000E+00  0.00000000000E+00  0.36340579463E+03  0.36340579463E+03  0.00000000000E+00 0.  1.
          2   -1    0    0  501    0  0.00000000000E+00 -0.00000000000E+00 -0.41016078920E+04  0.41016078920E+04  0.00000000000E+00 0. -1.
         23    2    1    2    0    0 -0.10144333219E+04 -0.18987969649E+03 -0.68488541054E+03  0.12419914941E+04  0.91354156903E+02 0.  0.
         13    1    3    3    0    0 -0.62185155029E+03 -0.15223243183E+03 -0.45591277454E+03  0.78595834616E+03  0.00000000000E+00 0.  1.
        -13    1    3    3    0    0 -0.39258177163E+03 -0.37647264663E+02 -0.22897263600E+03  0.45603314791E+03  0.00000000000E+00 0. -1.
         22    1    1    2    0    0  0.10144333219E+04  0.18987969649E+03 -0.30533166869E+04  0.32230221926E+04  0.00000000000E+00 0. -1.
<mgrwt>
<rscale>  0 0.24417601E+04</rscale>
<asrwt>0</asrwt>
<pdfrwt beam="1">  1        2 0.63101660E+00 0.24417601E+04</pdfrwt>
<pdfrwt beam="2">  1       -2 0.55908583E-01 0.24417601E+04</pdfrwt>
<totfact> 0.76317774E-01</totfact>
</mgrwt>
</event>
<event>
 6    1  0.2003386E-005  0.2924080E+04  0.7818608E-02  0.8265749E-01
          1   -1    0    0  501    0  0.00000000000E+00  0.00000000000E+00  0.13793026622E+04  0.13793026622E+04  0.00000000000E+00 0. -1.
         -1   -1    0    0    0  501 -0.00000000000E+00 -0.00000000000E+00 -0.15497402819E+04  0.15497402819E+04  0.00000000000E+00 0.  1.
         23    2    1    2    0    0  0.40472584311E+03  0.93975402782E+03  0.95886696422E+03  0.14051435104E+04  0.89787465140E+02 0.  0.
         11    1    3    3    0    0  0.33667294393E+03  0.76209714318E+03  0.73173293958E+03  0.11088614980E+04  0.00000000000E+00 0.  1.
        -11    1    3    3    0    0  0.68052899181E+02  0.17765688465E+03  0.22713402465E+03  0.29628201245E+03  0.00000000000E+00 0. -1.
         22    1    1    2    0    0 -0.40472584311E+03 -0.93975402782E+03 -0.11293045839E+04  0.15238994337E+04  0.00000000000E+00 0.  1.
<mgrwt>
<rscale>  0 0.29240800E+04</rscale>
<asrwt>0</asrwt>
<pdfrwt beam="1">  1        1 0.21220041E+00 0.29240800E+04</pdfrwt>
<pdfrwt beam="2">  1       -1 0.23842158E+00 0.29240800E+04</pdfrwt>
<totfact> 0.56512444E-01</totfact>
</mgrwt>
</event>
<event>
 6    1  0.2003386E-005  0.4578245E+04  0.7818608E-02  0.7897080E-01
          2   -1    0    0  501    0  0.00000000000E+00  0.00000000000E+00  0.29378273764E+04  0.29378273764E+04  0.00000000000E+00 0. -1.
         -2   -1    0    0    0  501 -0.00000000000E+00 -0.00000000000E+00 -0.17836590615E+04  0.17836590615E+04  0.00000000000E+00 0.  1.
         23    2    1    2    0    0 -0.18536379794E+04  0.10945582669E+04  0.13773743384E+04  0.25572654494E+04  0.91733049753E+02 0.  0.
         11    1    3    3    0    0 -0.12006060186E+04  0.75926935584E+03  0.91225669802E+03  0.16882408151E+04  0.00000000000E+00 0.  1.
        -11    1    3    3    0    0 -0.65303196079E+03  0.33528891108E+03  0.46511764034E+03  0.86902463433E+03  0.00000000000E+00 0. -1.
         22    1    1    2    0    0  0.18536379794E+04 -0.10945582669E+04 -0.22320602348E+03  0.21642209885E+04  0.00000000000E+00 0.  1.
<mgrwt>
<rscale>  0 0.45782453E+04</rscale>
<asrwt>0</asrwt>
<pdfrwt beam="1">  1        2 0.45197344E+00 0.45782453E+04</pdfrwt>
<pdfrwt beam="2">  1       -2 0.27440909E+00 0.45782453E+04</pdfrwt>
<totfact> 0.65270543E-02</totfact>
</mgrwt>
</event>
<event>
 6    1  0.2003386E-005  0.2661531E+04  0.7818608E-02  0.8347596E-01
         -2   -1    0    0    0  501 -0.00000000000E+00  0.00000000000E+00  0.11594515896E+04  0.11594515896E+04  0.00000000000E+00 0.  1.
          2   -1    0    0  501    0  0.00000000000E+00 -0.00000000000E+00 -0.15273921056E+04  0.15273921056E+04  0.00000000000E+00 0. -1.
         23    2    1    2    0    0 -0.68211443993E+03  0.10581616076E+04  0.24581605402E+03  0.12862426727E+04  0.94913559047E+02 0.  0.
         11    1    3    3    0    0 -0.28011897077E+03  0.52174869281E+03  0.11188157861E+03  0.60266559871E+03  0.00000000000E+00 0. -1.
        -11    1    3    3    0    0 -0.40199546916E+03  0.53641291478E+03  0.13393447541E+03  0.68357707398E+03  0.00000000000E+00 0.  1.
         22    1    1    2    0    0  0.68211443993E+03 -0.10581616076E+04 -0.61375657000E+03  0.14006010225E+04  0.00000000000E+00 0. -1.
<mgrwt>
<rscale>  0 0.26615313E+04</rscale>
<asrwt>0</asrwt>
<pdfrwt beam="1">  1        2 0.23498340E+00 0.26615313E+04</pdfrwt>
<pdfrwt beam="2">  1       -2 0.17837717E+00 0.26615313E+04</pdfrwt>
<totfact> 0.20064696E+00</totfact>
</mgrwt>
</event>
<event>
 6    1  0.2003386E-005  0.6925751E+03  0.7818608E-02  0.9730015E-01
         -1   -1    0    0    0  501 -0.00000000000E+00  0.00000000000E+00  0.32926712883E+03  0.32926712883E+03  0.00000000000E+00 0.  1.
          1   -1    0    0  501    0  0.00000000000E+00 -0.00000000000E+00 -0.36418774732E+03  0.36418774732E+03  0.00000000000E+00 0. -1.
         23    2    1    2    0    0 -0.18586414872E+02 -0.10454855226E+03  0.30584954566E+03  0.33652328695E+03  0.91804811890E+02 0.  0.
         13    1    3    3    0    0 -0.23928151129E+02 -0.11181621265E+03  0.20071083084E+03  0.23099839706E+03  0.00000000000E+00 0.  1.
        -13    1    3    3    0    0  0.53417362569E+01  0.72676603889E+01  0.10513871481E+03  0.10552488989E+03  0.00000000000E+00 0. -1.
         22    1    1    2    0    0  0.18586414872E+02  0.10454855226E+03 -0.34077016414E+03  0.35693158920E+03  0.00000000000E+00 0. -1.
<mgrwt>
<rscale>  0 0.69257506E+03</rscale>
<asrwt>0</asrwt>
<pdfrwt beam="1">  1        1 0.56028885E-01 0.69257506E+03</pdfrwt>
<pdfrwt beam="2">  1       -1 0.50656481E-01 0.69257506E+03</pdfrwt>
<totfact> 0.26972510E+02</totfact>
</mgrwt>
</event>
<event>
 6    1  0.2003386E-005  0.2237207E+04  0.7818608E-02  0.8503100E-01
          2   -1    0    0  501    0  0.00000000000E+00  0.00000000000E+00  0.11977496978E+04  0.11977496978E+04  0.00000000000E+00 0. -1.
         -2   -1    0    0    0  501 -0.00000000000E+00 -0.00000000000E+00 -0.10446868266E+04  0.10446868266E+04  0.00000000000E+00 0.  1.
         23    2    1    2    0    0  0.73536642394E+03 -0.35655039732E+03 -0.68619020216E+03  0.10710110320E+04  0.91190315974E+02 0.  0.
         13    1    3    3    0    0  0.38774869737E+03 -0.23838122263E+03 -0.37962822682E+03  0.59269912284E+03  0.00000000000E+00 0.  1.
        -13    1    3    3    0    0  0.34761772657E+03 -0.11816917469E+03 -0.30656197535E+03  0.47831190912E+03  0.00000000000E+00 0. -1.
         22    1    1    2    0    0 -0.73536642394E+03  0.35655039732E+03  0.83925307332E+03  0.11714254925E+04  0.00000000000E+00 0. -1.
<mgrwt>
<rscale>  0 0.22372066E+04</rscale>
<asrwt>0</asrwt>
<pdfrwt beam="1">  1        2 0.18426918E+00 0.22372066E+04</pdfrwt>
<pdfrwt beam="2">  1       -2 0.16072105E+00 0.22372066E+04</pdfrwt>
<totfact> 0.43082364E+00</totfact>
</mgrwt>
</event>
<event>
 6    1  0.2003386E-005  0.3799762E+04  0.7818608E-02  0.8046206E-01
         -2   -1    0    0    0  501 -0.00000000000E+00  0.00000000000E+00  0.17578380900E+04  0.17578380900E+04  0.00000000000E+00 0.  1.
          2   -1    0    0  501    0  0.00000000000E+00 -0.00000000000E+00 -0.20534021810E+04  0.20534021810E+04  0.00000000000E+00 0. -1.
         23    2    1    2    0    0  0.15045492613E+04  0.99623102235E+03 -0.74083285526E+03  0.19526362244E+04  0.88375199281E+02 0.  0.
         11    1    3    3    0    0  0.35910404765E+03  0.21051282519E+03 -0.20298188807E+03  0.46311231196E+03  0.00000000000E+00 0. -1.
        -11    1    3    3    0    0  0.11454452137E+04  0.78571819716E+03 -0.53785096719E+03  0.14895239125E+04  0.00000000000E+00 0.  1.
         22    1    1    2    0    0 -0.15045492613E+04 -0.99623102235E+03  0.44526876426E+03  0.18586040466E+04  0.00000000000E+00 0. -1.
<mgrwt>
<rscale>  0 0.37997624E+04</rscale>
<asrwt>0</asrwt>
<pdfrwt beam="1">  1        2 0.31590803E+00 0.37997624E+04</pdfrwt>
<pdfrwt beam="2">  1       -2 0.27043663E+00 0.37997624E+04</pdfrwt>
<totfact> 0.24098369E-01</totfact>
</mgrwt>
</event>
<event>
 6    1  0.2003386E-005  0.1260492E+04  0.7818608E-02  0.9061496E-01
         -2   -1    0    0    0  501 -0.00000000000E+00  0.00000000000E+00  0.58058743331E+03  0.58058743331E+03  0.00000000000E+00 0. -1.
          2   -1    0    0  501    0  0.00000000000E+00 -0.00000000000E+00 -0.68415178312E+03  0.68415178312E+03  0.00000000000E+00 0.  1.
         23    2    1    2    0    0  0.28113534457E+03  0.52846301706E+03 -0.23917599009E+03  0.65097968750E+03  0.90879903929E+02 0.  0.
         13    1    3    3    0    0  0.17363622722E+03  0.33683111041E+03 -0.10384570553E+03  0.39292323284E+03  0.00000000000E+00 0.  1.
        -13    1    3    3    0    0  0.10749911735E+03  0.19163190665E+03 -0.13533028456E+03  0.25805645467E+03  0.00000000000E+00 0. -1.
         22    1    1    2    0    0 -0.28113534457E+03 -0.52846301706E+03  0.13561164028E+03  0.61375952892E+03  0.00000000000E+00 0. -1.
<mgrwt>
<rscale>  0 0.12604919E+04</rscale>
<asrwt>0</asrwt>
<pdfrwt beam="1">  1        2 0.10525412E+00 0.12604919E+04</pdfrwt>
<pdfrwt beam="2">  1       -2 0.89321143E-01 0.12604919E+04</pdfrwt>
<totfact> 0.44596549E+01</totfact>
</mgrwt>
</event>
<event>
 6    1  0.2003386E-005  0.3306162E+04  0.7818608E-02  0.8161329E-01
         -1   -1    0    0    0  501 -0.00000000000E+00  0.00000000000E+00  0.10952437823E+04  0.10952437823E+04  0.00000000000E+00 0.  1.
          1   -1    0    0  501    0  0.00000000000E+00 -0.00000000000E+00 -0.24950400328E+04  0.24950400328E+04  0.00000000000E+00 0. -1.
         23    2    1    2    0    0  0.80826232652E+03 -0.68438994968E+03 -0.20769553047E+04  0.23332150117E+04  0.92040000803E+02 0.  0.
         13    1    3    3    0    0  0.71120327156E+03 -0.57447889560E+03 -0.18387977024E+04  0.20535367261E+04  0.00000000000E+00 0. -1.
        -13    1    3    3    0    0  0.97059054958E+02 -0.10991105408E+03 -0.23815760223E+03  0.27967828564E+03  0.00000000000E+00 0.  1.
         22    1    1    2    0    0 -0.80826232652E+03  0.68438994968E+03  0.67715905416E+03  0.12570688033E+04  0.00000000000E+00 0.  1.
<mgrwt>
<rscale>  0 0.33061622E+04</rscale>
<asrwt>0</asrwt>
<pdfrwt beam="1">  1        1 0.38385230E+00 0.33061622E+04</pdfrwt>
<pdfrwt beam="2">  1       -1 0.16849905E+00 0.33061622E+04</pdfrwt>
<totfact> 0.28572980E-01</totfact>
</mgrwt>
</event>
<event>
 6    1  0.2003386E-005  0.2947369E+04  0.7818608E-02  0.8258922E-01
          2   -1    0    0  501    0  0.00000000000E+00  0.00000000000E+00  0.28674060832E+04  0.28674060832E+04  0.00000000000E+00 0. -1.
         -2   -1    0    0    0  501 -0.00000000000E+00 -0.00000000000E+00 -0.75739048694E+03  0.75739048694E+03  0.00000000000E+00 0.  1.
         23    2    1    2    0    0  0.61463483888E+03  0.58597752127E+03  0.25352143288E+04  0.26750915618E+04  0.87507315806E+02 0.  0.
         13    1    3    3    0    0  0.43262315809E+03  0.41024796160E+03  0.16491024828E+04  0.17535692703E+04  0.00000000000E+00 0.  1.
        -13    1    3    3    0    0  0.18201168079E+03  0.17572955968E+03  0.88611184606E+03  0.92152229154E+03  0.00000000000E+00 0. -1.
         22    1    1    2    0    0 -0.61463483888E+03 -0.58597752127E+03 -0.42519873259E+03  0.94970500830E+03  0.00000000000E+00 0.  1.
<mgrwt>
<rscale>  0 0.29473691E+04</rscale>
<asrwt>0</asrwt>
<pdfrwt beam="1">  1        2 0.44113939E+00 0.29473691E+04</pdfrwt>
<pdfrwt beam="2">  1       -2 0.11652161E+00 0.29473691E+04</pdfrwt>
<totfact> 0.10322578E+00</totfact>
</mgrwt>
</event>
<event>
 6    1  0.2003386E-005  0.2119362E+04  0.7818608E-02  0.8552762E-01
          2   -1    0    0  501    0  0.00000000000E+00  0.00000000000E+00  0.90370109782E+03  0.90370109782E+03  0.00000000000E+00 0. -1.
         -2   -1    0    0    0  501 -0.00000000000E+00 -0.00000000000E+00 -0.12425831779E+04  0.12425831779E+04  0.00000000000E+00 0.  1.
         23    2    1    2    0    0 -0.30048840245E+03 -0.80799602860E+03 -0.79039660330E+03  0.11731366883E+04  0.91498833968E+02 0.  0.
         11    1    3    3    0    0 -0.97399741722E+02 -0.27700028852E+03 -0.21229476082E+03  0.36233263033E+03  0.00000000000E+00 0.  1.
        -11    1    3    3    0    0 -0.20308866073E+03 -0.53099574008E+03 -0.57810184248E+03  0.81080405794E+03  0.00000000000E+00 0. -1.
         22    1    1    2    0    0  0.30048840245E+03  0.80799602860E+03  0.45151452324E+03  0.97314758744E+03  0.00000000000E+00 0. -1.
<mgrwt>
<rscale>  0 0.21193620E+04</rscale>
<asrwt>0</asrwt>
<pdfrwt beam="1">  1        2 0.13903094E+00 0.21193620E+04</pdfrwt>
<pdfrwt beam="2">  1       -2 0.19116664E+00 0.21193620E+04</pdfrwt>
<totfact> 0.40819619E+00</totfact>
</mgrwt>
</event>
<event>
 6    1  0.2003386E-005  0.2751627E+04  0.7818608E-02  0.8318445E-01
         -2   -1    0    0    0  501 -0.00000000000E+00  0.00000000000E+00  0.11157732179E+04  0.11157732179E+04  0.00000000000E+00 0.  1.
          2   -1    0    0  501    0  0.00000000000E+00 -0.00000000000E+00 -0.16964585985E+04  0.16964585985E+04  0.00000000000E+00 0. -1.
         23    2    1    2    0    0 -0.88524305018E+03  0.10487170893E+04 -0.36805219732E+03  0.14234641390E+04  0.85585884874E+02 0.  0.
         13    1    3    3    0    0 -0.15804590138E+03  0.24019767228E+03 -0.83686231142E+02  0.29946087223E+03  0.00000000000E+00 0. -1.
        -13    1    3    3    0    0 -0.72719714880E+03  0.80851941702E+03 -0.28436596618E+03  0.11240032667E+04  0.00000000000E+00 0.  1.
         22    1    1    2    0    0  0.88524305018E+03 -0.10487170893E+04 -0.21263318334E+03  0.13887676775E+04  0.00000000000E+00 0. -1.
<mgrwt>
<rscale>  0 0.27516272E+04</rscale>
<asrwt>0</asrwt>
<pdfrwt beam="1">  1        2 0.26099363E+00 0.27516272E+04</pdfrwt>
<pdfrwt beam="2">  1       -2 0.17165742E+00 0.27516272E+04</pdfrwt>
<totfact> 0.17855477E+00</totfact>
</mgrwt>
</event>
<event>
 6    1  0.2003386E-005  0.2075351E+04  0.7818608E-02  0.8572180E-01
          2   -1    0    0  501    0  0.00000000000E+00  0.00000000000E+00  0.24281518865E+04  0.24281518865E+04  0.00000000000E+00 0. -1.
         -2   -1    0    0    0  501 -0.00000000000E+00 -0.00000000000E+00 -0.44345282444E+03  0.44345282444E+03  0.00000000000E+00 0.  1.
         23    2    1    2    0    0  0.53595854709E+03  0.75456227299E+03  0.16373796237E+04  0.18830468824E+04  0.90762004136E+02 0.  0.
         13    1    3    3    0    0  0.15874814649E+03  0.16865474556E+03  0.45652846260E+03  0.51192151193E+03  0.00000000000E+00 0. -1.
        -13    1    3    3    0    0  0.37721040060E+03  0.58590752744E+03  0.11808511611E+04  0.13711253705E+04  0.00000000000E+00 0.  1.
         22    1    1    2    0    0 -0.53595854709E+03 -0.75456227299E+03  0.34731943840E+03  0.98855782851E+03  0.00000000000E+00 0.  1.
<mgrwt>
<rscale>  0 0.20753514E+04</rscale>
<asrwt>0</asrwt>
<pdfrwt beam="1">  1        2 0.37356182E+00 0.20753514E+04</pdfrwt>
<pdfrwt beam="2">  1       -2 0.68223513E-01 0.20753514E+04</pdfrwt>
<totfact> 0.69553143E+00</totfact>
</mgrwt>
</event>
<event>
 6    1  0.2003386E-005  0.2014759E+04  0.7818608E-02  0.8599751E-01
          1   -1    0    0  501    0  0.00000000000E+00  0.00000000000E+00  0.59509267307E+03  0.59509267307E+03  0.00000000000E+00 0. -1.
         -1   -1    0    0    0  501 -0.00000000000E+00 -0.00000000000E+00 -0.17053035339E+04  0.17053035339E+04  0.00000000000E+00 0.  1.
         23    2    1    2    0    0  0.27741430712E+03 -0.35406275038E+03 -0.15827722673E+04  0.16479903425E+04  0.91569589785E+02 0.  0.
         11    1    3    3    0    0  0.13114451710E+03 -0.13669030006E+03 -0.81571558731E+03  0.83742166312E+03  0.00000000000E+00 0.  1.
        -11    1    3    3    0    0  0.14626979002E+03 -0.21737245032E+03 -0.76705668004E+03  0.81056867940E+03  0.00000000000E+00 0. -1.
         22    1    1    2    0    0 -0.27741430712E+03  0.35406275038E+03  0.47256140654E+03  0.65240586443E+03  0.00000000000E+00 0. -1.
<mgrwt>
<rscale>  0 0.20147592E+04</rscale>
<asrwt>0</asrwt>
<pdfrwt beam="1">  1        1 0.91552719E-01 0.20147592E+04</pdfrwt>
<pdfrwt beam="2">  1       -1 0.26235439E+00 0.20147592E+04</pdfrwt>
<totfact> 0.18601289E+00</totfact>
</mgrwt>
</event>
<event>
 6    1  0.2003386E-005  0.1939638E+04  0.7818608E-02  0.8635374E-01
          2   -1    0    0  501    0  0.00000000000E+00  0.00000000000E+00  0.27777965279E+04  0.27777965279E+04  0.00000000000E+00 0. -1.
         -2   -1    0    0    0  501 -0.00000000000E+00 -0.00000000000E+00 -0.33859516185E+03  0.33859516185E+03  0.00000000000E+00 0.  1.
         23    2    1    2    0    0 -0.15462862693E+03  0.50926895300E+03 -0.76106373564E+02  0.54539229191E+03  0.91628015490E+02 0.  0.
         11    1    3    3    0    0 -0.19294217464E+02  0.20249820200E+03 -0.47430710974E+02  0.20887187696E+03  0.00000000000E+00 0.  1.
        -11    1    3    3    0    0 -0.13533440947E+03  0.30677075100E+03 -0.28675662591E+02  0.33652041495E+03  0.00000000000E+00 0. -1.
         22    1    1    2    0    0  0.15462862693E+03 -0.50926895300E+03  0.25153077396E+04  0.25709993978E+04  0.00000000000E+00 0. -1.
<mgrwt>
<rscale>  0 0.19396376E+04</rscale>
<asrwt>0</asrwt>
<pdfrwt beam="1">  1        2 0.42735330E+00 0.19396376E+04</pdfrwt>
<pdfrwt beam="2">  1       -2 0.52091565E-01 0.19396376E+04</pdfrwt>
<totfact> 0.77599048E+00</totfact>
</mgrwt>
</event>
<event>
 6    1  0.2202918E-005  0.4799091E+04  0.7818608E-02  0.7860269E-01
         -2   -1    0    0    0  501 -0.00000000000E+00  0.00000000000E+00  0.21888415202E+04  0.21888415202E+04  0.00000000000E+00 0.  1.
          2   -1    0    0  501    0  0.00000000000E+00 -0.00000000000E+00 -0.26305319909E+04  0.26305319909E+04  0.00000000000E+00 0. -1.
         23    2    1    2    0    0  0.17452646840E+03  0.13651061807E+04 -0.21938527999E+04  0.25913593279E+04  0.90436086378E+02 0.  0.
         13    1    3    3    0    0  0.10530655804E+03  0.52031217179E+03 -0.80498129632E+03  0.96426610160E+03  0.00000000000E+00 0.  1.
        -13    1    3    3    0    0  0.69219910361E+02  0.84479400894E+03 -0.13888715036E+04  0.16270932263E+04  0.00000000000E+00 0. -1.
         22    1    1    2    0    0 -0.17452646840E+03 -0.13651061807E+04  0.17521623292E+04  0.22280141832E+04  0.00000000000E+00 0.  1.
<mgrwt>
<rscale>  0 0.47990906E+04</rscale>
<asrwt>0</asrwt>
<pdfrwt beam="1">  1        2 0.40469723E+00 0.47990906E+04</pdfrwt>
<pdfrwt beam="2">  1       -2 0.33674485E+00 0.47990906E+04</pdfrwt>
<totfact> 0.40698304E-02</totfact>
</mgrwt>
</event>
<event>
 6    1  0.2003386E-005  0.2875738E+04  0.7818608E-02  0.8280133E-01
          2   -1    0    0  501    0  0.00000000000E+00  0.00000000000E+00  0.14620992395E+04  0.14620992395E+04  0.00000000000E+00 0. -1.
         -2   -1    0    0    0  501 -0.00000000000E+00 -0.00000000000E+00 -0.14140398210E+04  0.14140398210E+04  0.00000000000E+00 0.  1.
         23    2    1    2    0    0  0.55327430832E+03 -0.53020909625E+03  0.12391825365E+04  0.14598027911E+04  0.90645927866E+02 0.  0.
         11    1    3    3    0    0  0.24066971163E+03 -0.29266412166E+03  0.59548949718E+03  0.70582004751E+03  0.00000000000E+00 0. -1.
        -11    1    3    3    0    0  0.31260459669E+03 -0.23754497459E+03  0.64369303930E+03  0.75398274361E+03  0.00000000000E+00 0.  1.
         22    1    1    2    0    0 -0.55327430832E+03  0.53020909625E+03 -0.11911231179E+04  0.14163362694E+04  0.00000000000E+00 0.  1.
<mgrwt>
<rscale>  0 0.28757375E+04</rscale>
<asrwt>0</asrwt>
<pdfrwt beam="1">  1        2 0.22493835E+00 0.28757375E+04</pdfrwt>
<pdfrwt beam="2">  1       -2 0.21754459E+00 0.28757375E+04</pdfrwt>
<totfact> 0.11817097E+00</totfact>
</mgrwt>
</event>
<event>
 6    1  0.2140541E-005  0.2673329E+04  0.7818608E-02  0.8343711E-01
          2   -1    0    0  501    0  0.00000000000E+00  0.00000000000E+00  0.18459748331E+04  0.18459748331E+04  0.00000000000E+00 0. -1.
         -2   -1    0    0    0  501 -0.00000000000E+00 -0.00000000000E+00 -0.96787446634E+03  0.96787446634E+03  0.00000000000E+00 0.  1.
         23    2    1    2    0    0  0.52057994126E+03  0.79811167678E+02 -0.85183198848E+03  0.10055243144E+04  0.89933934489E+02 0.  0.
         11    1    3    3    0    0  0.36029717450E+03  0.36497852739E+02 -0.50991788021E+03  0.62542976565E+03  0.00000000000E+00 0. -1.
        -11    1    3    3    0    0  0.16028276676E+03  0.43313314939E+02 -0.34191410827E+03  0.38009454877E+03  0.00000000000E+00 0.  1.
         22    1    1    2    0    0 -0.52057994126E+03 -0.79811167678E+02  0.17299323553E+04  0.18083249851E+04  0.00000000000E+00 0. -1.
<mgrwt>
<rscale>  0 0.26733289E+04</rscale>
<asrwt>0</asrwt>
<pdfrwt beam="1">  1        2 0.28399613E+00 0.26733289E+04</pdfrwt>
<pdfrwt beam="2">  1       -2 0.14890376E+00 0.26733289E+04</pdfrwt>
<totfact> 0.21857126E+00</totfact>
</mgrwt>
</event>
<event>
 6    1  0.2003386E-005  0.2749027E+04  0.7818608E-02  0.8319270E-01
          2   -1    0    0  501    0  0.00000000000E+00  0.00000000000E+00  0.15043008211E+04  0.15043008211E+04  0.00000000000E+00 0. -1.
         -2   -1    0    0    0  501 -0.00000000000E+00 -0.00000000000E+00 -0.12559243578E+04  0.12559243578E+04  0.00000000000E+00 0.  1.
         23    2    1    2    0    0 -0.94727253949E+03  0.95394329457E+03  0.40425815151E+03  0.14068471187E+04  0.91984177522E+02 0.  0.
         13    1    3    3    0    0 -0.52398126245E+03  0.51218818750E+03  0.17377863063E+03  0.75305518741E+03  0.00000000000E+00 0. -1.
        -13    1    3    3    0    0 -0.42329127704E+03  0.44175510706E+03  0.23047952088E+03  0.65379193126E+03  0.00000000000E+00 0.  1.
         22    1    1    2    0    0  0.94727253949E+03 -0.95394329457E+03 -0.15588168825E+03  0.13533780603E+04  0.00000000000E+00 0.  1.
<mgrwt>
<rscale>  0 0.27490275E+04</rscale>
<asrwt>0</asrwt>
<pdfrwt beam="1">  1        2 0.23143089E+00 0.27490275E+04</pdfrwt>
<pdfrwt beam="2">  1       -2 0.19321913E+00 0.27490275E+04</pdfrwt>
<totfact> 0.16270401E+00</totfact>
</mgrwt>
</event>
<event>
 6    1  0.2003386E-005  0.9893332E+03  0.7818608E-02  0.9320322E-01
         -2   -1    0    0    0  501 -0.00000000000E+00  0.00000000000E+00  0.14884495448E+03  0.14884495448E+03  0.00000000000E+00 0.  1.
          2   -1    0    0  501    0  0.00000000000E+00 -0.00000000000E+00 -0.16439594298E+04  0.16439594298E+04  0.00000000000E+00 0. -1.
         23    2    1    2    0    0  0.32604319134E+03 -0.18448489389E+03 -0.13280233567E+04  0.13826114045E+04  0.87346558879E+02 0.  0.
         13    1    3    3    0    0  0.26047986220E+02 -0.48235782699E+02 -0.21128917616E+03  0.21828491538E+03  0.00000000000E+00 0.  1.
        -13    1    3    3    0    0  0.29999520512E+03 -0.13624911119E+03 -0.11167341805E+04  0.11643264892E+04  0.00000000000E+00 0. -1.
         22    1    1    2    0    0 -0.32604319134E+03  0.18448489389E+03 -0.16709111861E+03  0.41019297971E+03  0.00000000000E+00 0.  1.
<mgrwt>
<rscale>  0 0.98933324E+03</rscale>
<asrwt>0</asrwt>
<pdfrwt beam="1">  1        2 0.25291682E+00 0.98933324E+03</pdfrwt>
<pdfrwt beam="2">  1       -2 0.22899225E-01 0.98933324E+03</pdfrwt>
<totfact> 0.17694927E+02</totfact>
</mgrwt>
</event>
<event>
 6    1  0.2003386E-005  0.7714577E+04  0.7818608E-02  0.7507918E-01
         -2   -1    0    0    0  501 -0.00000000000E+00  0.00000000000E+00  0.38189418189E+04  0.38189418189E+04  0.00000000000E+00 0.  1.
          2   -1    0    0  501    0  0.00000000000E+00 -0.00000000000E+00 -0.38960204593E+04  0.38960204593E+04  0.00000000000E+00 0. -1.
         23    2    1    2    0    0 -0.65898104339E+03 -0.37478766494E+04 -0.66504072806E+03  0.38644383124E+04  0.10377333559E+03 0.  0.
         11    1    3    3    0    0 -0.55202246144E+03 -0.28970815968E+04 -0.50431114957E+03  0.29920127526E+04  0.00000000000E+00 0.  1.
        -11    1    3    3    0    0 -0.10695858195E+03 -0.85079505268E+03 -0.16072957849E+03  0.87242555976E+03  0.00000000000E+00 0. -1.
         22    1    1    2    0    0  0.65898104339E+03  0.37478766494E+04  0.58796208761E+03  0.38505239658E+04  0.00000000000E+00 0.  1.
<mgrwt>
<rscale>  0 0.77145772E+04</rscale>
<asrwt>0</asrwt>
<pdfrwt beam="1">  1        2 0.59938776E+00 0.77145772E+04</pdfrwt>
<pdfrwt beam="2">  1       -2 0.58752952E+00 0.77145772E+04</pdfrwt>
<totfact> 0.14367512E-04</totfact>
</mgrwt>
</event>
<event>
 6    1  0.2003386E-005  0.1646259E+04  0.7818608E-02  0.8792623E-01
          2   -1    0    0  501    0  0.00000000000E+00  0.00000000000E+00  0.78396357039E+03  0.78396357039E+03  0.00000000000E+00 0. -1.
         -2   -1    0    0    0  501 -0.00000000000E+00 -0.00000000000E+00 -0.86425160292E+03  0.86425160292E+03  0.00000000000E+00 0.  1.
         23    2    1    2    0    0  0.56579573301E+03 -0.52550975650E+03  0.23784232082E+03  0.81305516625E+03  0.90578243116E+02 0.  0.
         11    1    3    3    0    0  0.17958008428E+03 -0.11468310617E+03  0.78962286548E+02  0.22723614195E+03  0.00000000000E+00 0. -1.
        -11    1    3    3    0    0  0.38621564872E+03 -0.41082665032E+03  0.15888003427E+03  0.58581902429E+03  0.00000000000E+00 0.  1.
         22    1    1    2    0    0 -0.56579573301E+03  0.52550975650E+03 -0.31813035335E+03  0.83516000706E+03  0.00000000000E+00 0.  1.
<mgrwt>
<rscale>  0 0.16462585E+04</rscale>
<asrwt>0</asrwt>
<pdfrwt beam="1">  1        2 0.12060978E+00 0.16462585E+04</pdfrwt>
<pdfrwt beam="2">  1       -2 0.13296179E+00 0.16462585E+04</pdfrwt>
<totfact> 0.13863922E+01</totfact>
</mgrwt>
</event>
<event>
 6    1  0.2003386E-005  0.5741266E+04  0.7818608E-02  0.7723336E-01
          1   -1    0    0  501    0  0.00000000000E+00  0.00000000000E+00  0.34343858403E+04  0.34343858403E+04  0.00000000000E+00 0. -1.
         -1   -1    0    0    0  501 -0.00000000000E+00 -0.00000000000E+00 -0.23994195506E+04  0.23994195506E+04  0.00000000000E+00 0.  1.
         23    2    1    2    0    0 -0.16990230248E+04 -0.10668167720E+04 -0.15677121249E+04  0.25476659852E+04  0.90018896807E+02 0.  0.
         13    1    3    3    0    0 -0.26319787846E+03 -0.17415438755E+03 -0.28813165822E+03  0.42734380351E+03  0.00000000000E+00 0. -1.
        -13    1    3    3    0    0 -0.14358251464E+04 -0.89266238443E+03 -0.12795804667E+04  0.21203221817E+04  0.00000000000E+00 0.  1.
         22    1    1    2    0    0  0.16990230248E+04  0.10668167720E+04  0.26026784145E+04  0.32861394057E+04  0.00000000000E+00 0. -1.
<mgrwt>
<rscale>  0 0.57412656E+04</rscale>
<asrwt>0</asrwt>
<pdfrwt beam="1">  1        1 0.52836705E+00 0.57412656E+04</pdfrwt>
<pdfrwt beam="2">  1       -1 0.36914147E+00 0.57412656E+04</pdfrwt>
<totfact> 0.22178246E-03</totfact>
</mgrwt>
</event>
<event>
 6    1  0.2003386E-005  0.1933826E+04  0.7818608E-02  0.8638200E-01
         -2   -1    0    0    0  501 -0.00000000000E+00  0.00000000000E+00  0.30822005769E+03  0.30822005769E+03  0.00000000000E+00 0.  1.
          2   -1    0    0  501    0  0.00000000000E+00 -0.00000000000E+00 -0.30332902633E+04  0.30332902633E+04  0.00000000000E+00 0. -1.
         23    2    1    2    0    0  0.51917850639E+03 -0.61047975583E+03 -0.43903689804E+03  0.91907763109E+03  0.98582150309E+02 0.  0.
         13    1    3    3    0    0  0.99778059914E+02 -0.63888512900E+02 -0.64522641905E+02  0.13490950537E+03  0.00000000000E+00 0. -1.
        -13    1    3    3    0    0  0.41940044648E+03 -0.54659124293E+03 -0.37451425613E+03  0.78416812572E+03  0.00000000000E+00 0.  1.
         22    1    1    2    0    0 -0.51917850639E+03  0.61047975583E+03 -0.22860333076E+04  0.24224326899E+04  0.00000000000E+00 0. -1.
<mgrwt>
<rscale>  0 0.19338262E+04</rscale>
<asrwt>0</asrwt>
<pdfrwt beam="1">  1        2 0.46666004E+00 0.19338262E+04</pdfrwt>
<pdfrwt beam="2">  1       -2 0.47418470E-01 0.19338262E+04</pdfrwt>
<totfact> 0.65514838E+00</totfact>
</mgrwt>
</event>
<event>
 6    1  0.2003386E-005  0.4671018E+03  0.7818608E-02  0.1022741E+00
          2   -1    0    0  501    0  0.00000000000E+00  0.00000000000E+00  0.66975291018E+03  0.66975291018E+03  0.00000000000E+00 0. -1.
         -2   -1    0    0    0  501 -0.00000000000E+00 -0.00000000000E+00 -0.81442005157E+02  0.81442005157E+02  0.00000000000E+00 0.  1.
         23    2    1    2    0    0 -0.14249305891E+03  0.11476778539E+03  0.97084325119E+02  0.22700080129E+03  0.92887465237E+02 0.  0.
         11    1    3    3    0    0 -0.12426223976E+02  0.24073957993E+02  0.57510820987E+02  0.63572486395E+02  0.00000000000E+00 0. -1.
        -11    1    3    3    0    0 -0.13006683494E+03  0.90693827400E+02  0.39573504132E+02  0.16342831489E+03  0.00000000000E+00 0.  1.
         22    1    1    2    0    0  0.14249305891E+03 -0.11476778539E+03  0.49122657990E+03  0.52419411405E+03  0.00000000000E+00 0. -1.
<mgrwt>
<rscale>  0 0.46710179E+03</rscale>
<asrwt>0</asrwt>
<pdfrwt beam="1">  1        2 0.10303891E+00 0.46710179E+03</pdfrwt>
<pdfrwt beam="2">  1       -2 0.12529540E-01 0.46710179E+03</pdfrwt>
<totfact> 0.20486308E+03</totfact>
</mgrwt>
</event>
<event>
 6    1  0.2003386E-005  0.1992849E+04  0.7818608E-02  0.8609972E-01
          2   -1    0    0  501    0  0.00000000000E+00  0.00000000000E+00  0.78989982895E+03  0.78989982895E+03  0.00000000000E+00 0. -1.
         -2   -1    0    0    0  501 -0.00000000000E+00 -0.00000000000E+00 -0.12569458187E+04  0.12569458187E+04  0.00000000000E+00 0.  1.
         23    2    1    2    0    0  0.79630394581E+03  0.59351820365E+02 -0.84261511738E+03  0.11644201368E+04  0.90837250983E+02 0.  0.
         11    1    3    3    0    0  0.30810159474E+03  0.57665465477E+02 -0.28979738928E+03  0.42688924257E+03  0.00000000000E+00 0.  1.
        -11    1    3    3    0    0  0.48820235107E+03  0.16863548884E+01 -0.55281772810E+03  0.73753089420E+03  0.00000000000E+00 0. -1.
         22    1    1    2    0    0 -0.79630394581E+03 -0.59351820365E+02  0.37556912761E+03  0.88242551091E+03  0.00000000000E+00 0. -1.
<mgrwt>
<rscale>  0 0.19928485E+04</rscale>
<asrwt>0</asrwt>
<pdfrwt beam="1">  1        2 0.12152305E+00 0.19928485E+04</pdfrwt>
<pdfrwt beam="2">  1       -2 0.19337628E+00 0.19928485E+04</pdfrwt>
<totfact> 0.47892429E+00</totfact>
</mgrwt>
</event>
<event>
 6    1  0.4180814E-005  0.3141879E+04  0.7818608E-02  0.8204338E-01
         -2   -1    0    0    0  501 -0.00000000000E+00  0.00000000000E+00  0.13149228026E+04  0.13149228026E+04  0.00000000000E+00 0. -1.
          2   -1    0    0  501    0  0.00000000000E+00 -0.00000000000E+00 -0.18768028372E+04  0.18768028372E+04  0.00000000000E+00 0.  1.
         23    2    1    2    0    0 -0.75217964539E+03  0.24570814273E+02  0.11181723493E+04  0.13508144641E+04  0.89511841762E+02 0.  0.
         13    1    3    3    0    0 -0.51765497173E+03  0.34695220848E+02  0.70064142796E+03  0.87181926951E+03  0.00000000000E+00 0.  1.
        -13    1    3    3    0    0 -0.23452467366E+03 -0.10124406575E+02  0.41753092137E+03  0.47899519462E+03  0.00000000000E+00 0. -1.
         22    1    1    2    0    0  0.75217964539E+03 -0.24570814273E+02 -0.16800523840E+04  0.18409111757E+04  0.00000000000E+00 0.  1.
<mgrwt>
<rscale>  0 0.31418790E+04</rscale>
<asrwt>0</asrwt>
<pdfrwt beam="1">  1        2 0.28873890E+00 0.31418790E+04</pdfrwt>
<pdfrwt beam="2">  1       -2 0.20229582E+00 0.31418790E+04</pdfrwt>
<totfact> 0.85032011E-01</totfact>
</mgrwt>
</event>
<event>
 6    1  0.2003386E-005  0.2475312E+04  0.7818608E-02  0.8411834E-01
          2   -1    0    0  501    0  0.00000000000E+00  0.00000000000E+00  0.11264690560E+04  0.11264690560E+04  0.00000000000E+00 0. -1.
         -2   -1    0    0    0  501 -0.00000000000E+00 -0.00000000000E+00 -0.13598178622E+04  0.13598178622E+04  0.00000000000E+00 0.  1.
         23    2    1    2    0    0 -0.13915026325E+03 -0.74797647891E+03 -0.10952771506E+04  0.13366121469E+04  0.89824195176E+02 0.  0.
         11    1    3    3    0    0 -0.96950122896E+01 -0.26047216093E+03 -0.40666299665E+03  0.48302643067E+03  0.00000000000E+00 0. -1.
        -11    1    3    3    0    0 -0.12945525096E+03 -0.48750431798E+03 -0.68861415392E+03  0.85358571627E+03  0.00000000000E+00 0.  1.
         22    1    1    2    0    0  0.13915026325E+03  0.74797647891E+03  0.86192834440E+03  0.11496747712E+04  0.00000000000E+00 0. -1.
<mgrwt>
<rscale>  0 0.24753123E+04</rscale>
<asrwt>0</asrwt>
<pdfrwt beam="1">  1        2 0.17330293E+00 0.24753123E+04</pdfrwt>
<pdfrwt beam="2">  1       -2 0.20920275E+00 0.24753123E+04</pdfrwt>
<totfact> 0.21728072E+00</totfact>
</mgrwt>
</event>
<event>
 6    1  0.2003386E-005  0.9900728E+03  0.7818608E-02  0.9319500E-01
         -2   -1    0    0    0  501 -0.00000000000E+00  0.00000000000E+00  0.10145903372E+03  0.10145903372E+03  0.00000000000E+00 0.  1.
          2   -1    0    0  501    0  0.00000000000E+00 -0.00000000000E+00 -0.24153692095E+04  0.24153692095E+04  0.00000000000E+00 0. -1.
         23    2    1    2    0    0  0.47648388118E+03 -0.92453779945E+02 -0.13503223814E+04  0.14379000584E+04  0.92744023525E+02 0.  0.
         13    1    3    3    0    0  0.23482898690E+03 -0.23864066945E+02 -0.77451627402E+03  0.80968488038E+03  0.00000000000E+00 0. -1.
        -13    1    3    3    0    0  0.24165489427E+03 -0.68589713000E+02 -0.57580610735E+03  0.62821517804E+03  0.00000000000E+00 0.  1.
         22    1    1    2    0    0 -0.47648388118E+03  0.92453779945E+02 -0.96358779440E+03  0.10789281848E+04  0.00000000000E+00 0. -1.
<mgrwt>
<rscale>  0 0.99007278E+03</rscale>
<asrwt>0</asrwt>
<pdfrwt beam="1">  1        2 0.37159524E+00 0.99007278E+03</pdfrwt>
<pdfrwt beam="2">  1       -2 0.15609083E-01 0.99007278E+03</pdfrwt>
<totfact> 0.12912506E+02</totfact>
</mgrwt>
</event>
<event>
 6    1  0.2003386E-005  0.2765721E+04  0.7818608E-02  0.8313990E-01
         -2   -1    0    0    0  501 -0.00000000000E+00  0.00000000000E+00  0.95008670497E+03  0.95008670497E+03  0.00000000000E+00 0.  1.
          2   -1    0    0  501    0  0.00000000000E+00 -0.00000000000E+00 -0.20127672327E+04  0.20127672327E+04  0.00000000000E+00 0. -1.
         23    2    1    2    0    0 -0.17472258193E+03 -0.10523789289E+04 -0.14721326928E+04  0.18201901787E+04  0.88815713018E+02 0.  0.
         11    1    3    3    0    0 -0.13216831160E+03 -0.89504952914E+03 -0.11979145873E+04  0.15011933522E+04  0.00000000000E+00 0. -1.
        -11    1    3    3    0    0 -0.42554270325E+02 -0.15732939976E+03 -0.27421810548E+03  0.31899682652E+03  0.00000000000E+00 0.  1.
         22    1    1    2    0    0  0.17472258193E+03  0.10523789289E+04  0.40945216503E+03  0.11426637590E+04  0.00000000000E+00 0. -1.
<mgrwt>
<rscale>  0 0.27657212E+04</rscale>
<asrwt>0</asrwt>
<pdfrwt beam="1">  1        2 0.30965649E+00 0.27657212E+04</pdfrwt>
<pdfrwt beam="2">  1       -2 0.14616719E+00 0.27657212E+04</pdfrwt>
<totfact> 0.18402401E+00</totfact>
</mgrwt>
</event>
<event>
 6    1  0.2003386E-005  0.5717749E+04  0.7818608E-02  0.7726417E-01
         -2   -1    0    0    0  501 -0.00000000000E+00  0.00000000000E+00  0.38108391845E+04  0.38108391845E+04  0.00000000000E+00 0.  1.
          2   -1    0    0  501    0  0.00000000000E+00 -0.00000000000E+00 -0.21447148511E+04  0.21447148511E+04  0.00000000000E+00 0. -1.
         23    2    1    2    0    0 -0.22406360536E+04 -0.14451152388E+04  0.19057245411E+04  0.32785750971E+04  0.91981858471E+02 0.  0.
         13    1    3    3    0    0 -0.18024403284E+04 -0.11499563598E+04  0.14843145762E+04  0.26027640169E+04  0.00000000000E+00 0.  1.
        -13    1    3    3    0    0 -0.43819572524E+03 -0.29515887901E+03  0.42140996497E+03  0.67581108015E+03  0.00000000000E+00 0. -1.
         22    1    1    2    0    0  0.22406360536E+04  0.14451152388E+04 -0.23960020773E+03  0.26769789386E+04  0.00000000000E+00 0. -1.
<mgrwt>
<rscale>  0 0.57177490E+04</rscale>
<asrwt>0</asrwt>
<pdfrwt beam="1">  1        2 0.32995613E+00 0.57177490E+04</pdfrwt>
<pdfrwt beam="2">  1       -2 0.58628295E+00 0.57177490E+04</pdfrwt>
<totfact> 0.22435173E-03</totfact>
</mgrwt>
</event>
<event>
 6    1  0.2003386E-005  0.2465681E+04  0.7818608E-02  0.8415315E-01
         -2   -1    0    0    0  501 -0.00000000000E+00  0.00000000000E+00  0.45728539680E+03  0.45728539680E+03  0.00000000000E+00 0.  1.
          2   -1    0    0  501    0  0.00000000000E+00 -0.00000000000E+00 -0.33237349560E+04  0.33237349560E+04  0.00000000000E+00 0. -1.
         23    2    1    2    0    0 -0.10387193225E+04  0.56870689887E+03 -0.91875035713E+03  0.15015692018E+04  0.90788112578E+02 0.  0.
         13    1    3    3    0    0 -0.43138610173E+03  0.18790425847E+03 -0.34726832483E+03  0.58480532534E+03  0.00000000000E+00 0.  1.
        -13    1    3    3    0    0 -0.60733322081E+03  0.38080264040E+03 -0.57148203230E+03  0.91676387651E+03  0.00000000000E+00 0. -1.
         22    1    1    2    0    0  0.10387193225E+04 -0.56870689887E+03 -0.19476992021E+04  0.22794511509E+04  0.00000000000E+00 0. -1.
<mgrwt>
<rscale>  0 0.24656808E+04</rscale>
<asrwt>0</asrwt>
<pdfrwt beam="1">  1        2 0.51134385E+00 0.24656808E+04</pdfrwt>
<pdfrwt beam="2">  1       -2 0.70351599E-01 0.24656808E+04</pdfrwt>
<totfact> 0.17676190E+00</totfact>
</mgrwt>
</event>
<event>
 6    1  0.2003386E-005  0.2564959E+04  0.7818608E-02  0.8380202E-01
          2   -1    0    0  501    0  0.00000000000E+00  0.00000000000E+00  0.13421375669E+04  0.13421375669E+04  0.00000000000E+00 0. -1.
         -2   -1    0    0    0  501 -0.00000000000E+00 -0.00000000000E+00 -0.12254728319E+04  0.12254728319E+04  0.00000000000E+00 0.  1.
         23    2    1    2    0    0  0.80446438486E+03  0.10042162920E+03  0.10510574903E+04  0.13305423848E+04  0.91508140018E+02 0.  0.
         13    1    3    3    0    0  0.16994522865E+03  0.50910390837E+01  0.27827384554E+03  0.32610371437E+03  0.00000000000E+00 0.  1.
        -13    1    3    3    0    0  0.63451915621E+03  0.95330590121E+02  0.77278364472E+03  0.10044386704E+04  0.00000000000E+00 0. -1.
         22    1    1    2    0    0 -0.80446438486E+03 -0.10042162920E+03 -0.93439275530E+03  0.12370680140E+04  0.00000000000E+00 0.  1.
<mgrwt>
<rscale>  0 0.25649586E+04</rscale>
<asrwt>0</asrwt>
<pdfrwt beam="1">  1        2 0.20648270E+00 0.25649586E+04</pdfrwt>
<pdfrwt beam="2">  1       -2 0.18853428E+00 0.25649586E+04</pdfrwt>
<totfact> 0.21979858E+00</totfact>
</mgrwt>
</event>
<event>
 6    1  0.2003386E-005  0.8626503E+03  0.7818608E-02  0.9473514E-01
         -2   -1    0    0    0  501 -0.00000000000E+00  0.00000000000E+00  0.52081620868E+03  0.52081620868E+03  0.00000000000E+00 0.  1.
          2   -1    0    0  501    0  0.00000000000E+00 -0.00000000000E+00 -0.35721117014E+03  0.35721117014E+03  0.00000000000E+00 0. -1.
         23    2    1    2    0    0  0.14865505600E+03  0.38980576831E+03  0.17316579062E+03  0.46072860017E+03  0.90761166178E+02 0.  0.
         11    1    3    3    0    0  0.47023430833E+02  0.19788771687E+03  0.12349596463E+03  0.23795378714E+03  0.00000000000E+00 0.  1.
        -11    1    3    3    0    0  0.10163162517E+03  0.19191805144E+03  0.49669825990E+02  0.22277481302E+03  0.00000000000E+00 0. -1.
         22    1    1    2    0    0 -0.14865505600E+03 -0.38980576831E+03 -0.95607520887E+01  0.41729877865E+03  0.00000000000E+00 0.  1.
<mgrwt>
<rscale>  0 0.86265026E+03</rscale>
<asrwt>0</asrwt>
<pdfrwt beam="1">  1        2 0.54955565E-01 0.86265026E+03</pdfrwt>
<pdfrwt beam="2">  1       -2 0.80125570E-01 0.86265026E+03</pdfrwt>
<totfact> 0.12508820E+02</totfact>
</mgrwt>
</event>
<event>
 6    1  0.2003386E-005  0.1450516E+04  0.7818608E-02  0.8918043E-01
          2   -1    0    0  501    0  0.00000000000E+00  0.00000000000E+00  0.77124637469E+03  0.77124637469E+03  0.00000000000E+00 0. -1.
         -2   -1    0    0    0  501 -0.00000000000E+00 -0.00000000000E+00 -0.68201155368E+03  0.68201155368E+03  0.00000000000E+00 0.  1.
         23    2    1    2    0    0  0.52520271175E+03  0.16063513371E+03 -0.42449644339E+03  0.70121979992E+03  0.99350101868E+02 0.  0.
         13    1    3    3    0    0  0.25007507916E+03  0.10157606652E+03 -0.15330396608E+03  0.31041480075E+03  0.00000000000E+00 0. -1.
        -13    1    3    3    0    0  0.27512763259E+03  0.59059067191E+02 -0.27119247731E+03  0.39080499917E+03  0.00000000000E+00 0.  1.
         22    1    1    2    0    0 -0.52520271175E+03 -0.16063513371E+03  0.51373126440E+03  0.75203812844E+03  0.00000000000E+00 0.  1.
<mgrwt>
<rscale>  0 0.14505157E+04</rscale>
<asrwt>0</asrwt>
<pdfrwt beam="1">  1        2 0.11865329E+00 0.14505157E+04</pdfrwt>
<pdfrwt beam="2">  1       -2 0.10492485E+00 0.14505157E+04</pdfrwt>
<totfact> 0.25821909E+01</totfact>
</mgrwt>
</event>
<event>
 6    1  0.2003386E-005  0.1579701E+04  0.7818608E-02  0.8833116E-01
          1   -1    0    0  501    0  0.00000000000E+00  0.00000000000E+00  0.11087762159E+04  0.11087762159E+04  0.00000000000E+00 0. -1.
         -1   -1    0    0    0  501 -0.00000000000E+00 -0.00000000000E+00 -0.56265982773E+03  0.56265982773E+03  0.00000000000E+00 0.  1.
         23    2    1    2    0    0 -0.10937391714E+03  0.14249045677E+03  0.10848644509E+04  0.11035314222E+04  0.92652787685E+02 0.  0.
         13    1    3    3    0    0 -0.23175411363E+02  0.94159733962E+02  0.40069217876E+03  0.41225887172E+03  0.00000000000E+00 0. -1.
        -13    1    3    3    0    0 -0.86198505777E+02  0.48330722808E+02  0.68417227211E+03  0.69127255051E+03  0.00000000000E+00 0.  1.
         22    1    1    2    0    0  0.10937391714E+03 -0.14249045677E+03 -0.53874806267E+03  0.56790462143E+03  0.00000000000E+00 0.  1.
<mgrwt>
<rscale>  0 0.15797010E+04</rscale>
<asrwt>0</asrwt>
<pdfrwt beam="1">  1        1 0.17058096E+00 0.15797010E+04</pdfrwt>
<pdfrwt beam="2">  1       -1 0.86563051E-01 0.15797010E+04</pdfrwt>
<totfact> 0.15794833E+01</totfact>
</mgrwt>
</event>
<event>
 6    1  0.2816255E-005  0.3761256E+04  0.7818608E-02  0.8054521E-01
         -1   -1    0    0    0  501 -0.00000000000E+00  0.00000000000E+00  0.10385001991E+04  0.10385001991E+04  0.00000000000E+00 0.  1.
          1   -1    0    0  501    0  0.00000000000E+00 -0.00000000000E+00 -0.34056445014E+04  0.34056445014E+04  0.00000000000E+00 0. -1.
         23    2    1    2    0    0 -0.17020491887E+04 -0.33994775948E+03 -0.33214806597E+03  0.17694960130E+04  0.90872890452E+02 0.  0.
         13    1    3    3    0    0 -0.63702198546E+03 -0.82520437811E+02 -0.12388680875E+03  0.65418237059E+03  0.00000000000E+00 0. -1.
        -13    1    3    3    0    0 -0.10650272033E+04 -0.25742732167E+03 -0.20826125722E+03  0.11153136424E+04  0.00000000000E+00 0.  1.
         22    1    1    2    0    0  0.17020491887E+04  0.33994775948E+03 -0.20349962364E+04  0.26746486876E+04  0.00000000000E+00 0. -1.
<mgrwt>
<rscale>  0 0.37612564E+04</rscale>
<asrwt>0</asrwt>
<pdfrwt beam="1">  1        1 0.52394531E+00 0.37612564E+04</pdfrwt>
<pdfrwt beam="2">  1       -1 0.15976926E+00 0.37612564E+04</pdfrwt>
<totfact> 0.69278569E-02</totfact>
</mgrwt>
</event>
<event>
 6    1  0.2003386E-005  0.3063162E+04  0.7818608E-02  0.8225921E-01
          2   -1    0    0  501    0  0.00000000000E+00  0.00000000000E+00  0.12993881305E+04  0.12993881305E+04  0.00000000000E+00 0. -1.
         -2   -1    0    0    0  501 -0.00000000000E+00 -0.00000000000E+00 -0.18052659106E+04  0.18052659106E+04  0.00000000000E+00 0.  1.
         23    2    1    2    0    0 -0.31315115092E+03  0.14428639856E+03  0.12580624162E+04  0.13073318040E+04  0.86678685968E+02 0.  0.
         11    1    3    3    0    0 -0.56363029330E+02 -0.57490820495E+01  0.24834435966E+03  0.25472487902E+03  0.00000000000E+00 0.  1.
        -11    1    3    3    0    0 -0.25678812159E+03  0.15003548061E+03  0.10097180565E+04  0.10526069250E+04  0.00000000000E+00 0. -1.
         22    1    1    2    0    0  0.31315115092E+03 -0.14428639856E+03 -0.17639401962E+04  0.17973222371E+04  0.00000000000E+00 0.  1.
<mgrwt>
<rscale>  0 0.30631625E+04</rscale>
<asrwt>0</asrwt>
<pdfrwt beam="1">  1        2 0.19990587E+00 0.30631625E+04</pdfrwt>
<pdfrwt beam="2">  1       -2 0.27773322E+00 0.30631625E+04</pdfrwt>
<totfact> 0.61252285E-01</totfact>
</mgrwt>
</event>
<event>
 6    1  0.2003386E-005  0.9261130E+03  0.7818608E-02  0.9393515E-01
         -2   -1    0    0    0  501 -0.00000000000E+00  0.00000000000E+00  0.87183986880E+03  0.87183986880E+03  0.00000000000E+00 0. -1.
          2   -1    0    0  501    0  0.00000000000E+00 -0.00000000000E+00 -0.24594115257E+03  0.24594115257E+03  0.00000000000E+00 0.  1.
         23    2    1    2    0    0 -0.32557917069E+03  0.16638106129E+03 -0.19750478728E+02  0.37579224997E+03  0.84529756808E+02 0.  0.
         11    1    3    3    0    0 -0.18289289508E+02  0.35701873653E+02 -0.11651369578E+02  0.41771716580E+02  0.00000000000E+00 0.  1.
        -11    1    3    3    0    0 -0.30728988118E+03  0.13067918764E+03 -0.80991091497E+01  0.33402053339E+03  0.00000000000E+00 0. -1.
         22    1    1    2    0    0  0.32557917069E+03 -0.16638106129E+03  0.64564919496E+03  0.74198877140E+03  0.00000000000E+00 0. -1.
<mgrwt>
<rscale>  0 0.92611296E+03</rscale>
<asrwt>0</asrwt>
<pdfrwt beam="1">  1        2 0.37837101E-01 0.92611296E+03</pdfrwt>
<pdfrwt beam="2">  1       -2 0.13412921E+00 0.92611296E+03</pdfrwt>
<totfact> 0.55055444E+01</totfact>
</mgrwt>
</event>
<event>
 6    1  0.2003386E-005  0.2599951E+04  0.7818608E-02  0.8368218E-01
          2   -1    0    0  501    0  0.00000000000E+00  0.00000000000E+00  0.18447693000E+04  0.18447693000E+04  0.00000000000E+00 0. -1.
         -2   -1    0    0    0  501 -0.00000000000E+00 -0.00000000000E+00 -0.91606890417E+03  0.91606890417E+03  0.00000000000E+00 0.  1.
         23    2    1    2    0    0 -0.32869925884E+03  0.39956036031E+03 -0.79966199707E+03  0.95669623484E+03  0.90092685082E+02 0.  0.
         11    1    3    3    0    0 -0.20616893750E+03  0.31027861233E+03 -0.54043451451E+03  0.65639006127E+03  0.00000000000E+00 0.  1.
        -11    1    3    3    0    0 -0.12253032134E+03  0.89281747981E+02 -0.25922748255E+03  0.30030617357E+03  0.00000000000E+00 0. -1.
         22    1    1    2    0    0  0.32869925884E+03 -0.39956036031E+03  0.17283623929E+04  0.18041419693E+04  0.00000000000E+00 0. -1.
<mgrwt>
<rscale>  0 0.25999506E+04</rscale>
<asrwt>0</asrwt>
<pdfrwt beam="1">  1        2 0.28381066E+00 0.25999506E+04</pdfrwt>
<pdfrwt beam="2">  1       -2 0.14093368E+00 0.25999506E+04</pdfrwt>
<totfact> 0.25447791E+00</totfact>
</mgrwt>
</event>
<event>
 6    1  0.2003386E-005  0.2213644E+04  0.7818608E-02  0.8512771E-01
         -2   -1    0    0    0  501 -0.00000000000E+00  0.00000000000E+00  0.81652207235E+03  0.81652207235E+03  0.00000000000E+00 0.  1.
          2   -1    0    0  501    0  0.00000000000E+00 -0.00000000000E+00 -0.15003327316E+04  0.15003327316E+04  0.00000000000E+00 0. -1.
         23    2    1    2    0    0  0.40935955704E+03 -0.12678118065E+03 -0.14083608285E+04  0.14750581168E+04  0.93099462190E+02 0.  0.
         13    1    3    3    0    0  0.15014974530E+03 -0.82188853275E+01 -0.40582858310E+03  0.43279248486E+03  0.00000000000E+00 0. -1.
        -13    1    3    3    0    0  0.25920981174E+03 -0.11856229533E+03 -0.10025322454E+04  0.10422656319E+04  0.00000000000E+00 0.  1.
         22    1    1    2    0    0 -0.40935955704E+03  0.12678118065E+03  0.72455016928E+03  0.84179668715E+03  0.00000000000E+00 0.  1.
<mgrwt>
<rscale>  0 0.22136439E+04</rscale>
<asrwt>0</asrwt>
<pdfrwt beam="1">  1        2 0.23082042E+00 0.22136439E+04</pdfrwt>
<pdfrwt beam="2">  1       -2 0.12561878E+00 0.22136439E+04</pdfrwt>
<totfact> 0.54870638E+00</totfact>
</mgrwt>
</event>
<event>
 6    1  0.2065134E-005  0.3199845E+04  0.7818608E-02  0.8188858E-01
         -2   -1    0    0    0  501 -0.00000000000E+00  0.00000000000E+00  0.10592669747E+04  0.10592669747E+04  0.00000000000E+00 0.  1.
          2   -1    0    0  501    0  0.00000000000E+00 -0.00000000000E+00 -0.24165321402E+04  0.24165321402E+04  0.00000000000E+00 0. -1.
         23    2    1    2    0    0 -0.84036225286E+03 -0.18660164992E+02  0.79780064410E+03  0.11626053137E+04  0.92781086495E+02 0.  0.
         11    1    3    3    0    0 -0.42827977652E+03 -0.11426067868E+02  0.47024609414E+03  0.63614896923E+03  0.00000000000E+00 0. -1.
        -11    1    3    3    0    0 -0.41208247634E+03 -0.72340971238E+01  0.32755454996E+03  0.52645634450E+03  0.00000000000E+00 0.  1.
         22    1    1    2    0    0  0.84036225286E+03  0.18660164992E+02 -0.21550658097E+04  0.23131938012E+04  0.00000000000E+00 0. -1.
<mgrwt>
<rscale>  0 0.31998454E+04</rscale>
<asrwt>0</asrwt>
<pdfrwt beam="1">  1        2 0.37177417E+00 0.31998454E+04</pdfrwt>
<pdfrwt beam="2">  1       -2 0.16296415E+00 0.31998454E+04</pdfrwt>
<totfact> 0.78452626E-01</totfact>
</mgrwt>
</event>
<event>
 6    1  0.2003386E-005  0.2950515E+04  0.7818608E-02  0.8258005E-01
          1   -1    0    0  501    0  0.00000000000E+00  0.00000000000E+00  0.17092603914E+04  0.17092603914E+04  0.00000000000E+00 0. -1.
         -1   -1    0    0    0  501 -0.00000000000E+00 -0.00000000000E+00 -0.12732899206E+04  0.12732899206E+04  0.00000000000E+00 0.  1.
         23    2    1    2    0    0  0.49332330004E+03 -0.27738399596E+03 -0.11574284666E+04  0.12916245498E+04  0.91343104274E+02 0.  0.
         13    1    3    3    0    0  0.43926254896E+03 -0.26550367084E+03 -0.10866727479E+04  0.12017909333E+04  0.00000000000E+00 0. -1.
        -13    1    3    3    0    0  0.54060751081E+02 -0.11880325117E+02 -0.70755718652E+02  0.89833616504E+02  0.00000000000E+00 0.  1.
         22    1    1    2    0    0 -0.49332330004E+03  0.27738399596E+03  0.15933989374E+04  0.16909257622E+04  0.00000000000E+00 0. -1.
<mgrwt>
<rscale>  0 0.29505146E+04</rscale>
<asrwt>0</asrwt>
<pdfrwt beam="1">  1        1 0.26296314E+00 0.29505146E+04</pdfrwt>
<pdfrwt beam="2">  1       -1 0.19589076E+00 0.29505146E+04</pdfrwt>
<totfact> 0.64518142E-01</totfact>
</mgrwt>
</event>
<event>
 6    1  0.2003386E-005  0.1929391E+04  0.7818608E-02  0.8640363E-01
         -2   -1    0    0    0  501 -0.00000000000E+00  0.00000000000E+00  0.59268473605E+03  0.59268473605E+03  0.00000000000E+00 0. -1.
          2   -1    0    0  501    0  0.00000000000E+00 -0.00000000000E+00 -0.15702060559E+04  0.15702060559E+04  0.00000000000E+00 0.  1.
         23    2    1    2    0    0  0.77131217238E+03 -0.46955259748E+03 -0.86342453984E+03  0.12527148835E+04  0.91599860190E+02 0.  0.
         13    1    3    3    0    0  0.70964671699E+03 -0.43258951405E+03 -0.75635024449E+03  0.11237427833E+04  0.00000000000E+00 0.  1.
        -13    1    3    3    0    0  0.61665455396E+02 -0.36963083427E+02 -0.10707429535E+03  0.12897210028E+03  0.00000000000E+00 0. -1.
         22    1    1    2    0    0 -0.77131217238E+03  0.46955259748E+03 -0.11409678003E+03  0.91017590843E+03  0.00000000000E+00 0.  1.
<mgrwt>
<rscale>  0 0.19293907E+04</rscale>
<asrwt>0</asrwt>
<pdfrwt beam="1">  1        2 0.24157016E+00 0.19293907E+04</pdfrwt>
<pdfrwt beam="2">  1       -2 0.91182269E-01 0.19293907E+04</pdfrwt>
<totfact> 0.11103747E+01</totfact>
</mgrwt>
</event>
<event>
 6    1  0.2003386E-005  0.4895138E+04  0.7818608E-02  0.7844890E-01
         -2   -1    0    0    0  501 -0.00000000000E+00  0.00000000000E+00  0.32300850253E+04  0.32300850253E+04  0.00000000000E+00 0.  1.
          2   -1    0    0  501    0  0.00000000000E+00 -0.00000000000E+00 -0.18546246033E+04  0.18546246033E+04  0.00000000000E+00 0. -1.
         23    2    1    2    0    0 -0.58521493380E+03  0.22922434038E+04  0.13361113978E+04  0.27186148108E+04  0.93896119785E+02 0.  0.
         11    1    3    3    0    0 -0.14523976447E+03  0.46582080062E+03  0.30814839076E+03  0.57709534585E+03  0.00000000000E+00 0. -1.
        -11    1    3    3    0    0 -0.43997516933E+03  0.18264226032E+04  0.10279630070E+04  0.21415194650E+04  0.00000000000E+00 0.  1.
         22    1    1    2    0    0  0.58521493380E+03 -0.22922434038E+04  0.39349024233E+02  0.23660948178E+04  0.00000000000E+00 0. -1.
<mgrwt>
<rscale>  0 0.48951385E+04</rscale>
<asrwt>0</asrwt>
<pdfrwt beam="1">  1        2 0.28532686E+00 0.48951385E+04</pdfrwt>
<pdfrwt beam="2">  1       -2 0.49693616E+00 0.48951385E+04</pdfrwt>
<totfact> 0.10242229E-02</totfact>
</mgrwt>
</event>
<event>
 6    1  0.2003386E-005  0.2190803E+04  0.7818608E-02  0.8522266E-01
          2   -1    0    0  501    0  0.00000000000E+00  0.00000000000E+00  0.31683061771E+03  0.31683061771E+03  0.00000000000E+00 0. -1.
         -2   -1    0    0    0  501 -0.00000000000E+00 -0.00000000000E+00 -0.37872099194E+04  0.37872099194E+04  0.00000000000E+00 0.  1.
         23    2    1    2    0    0 -0.60770677951E+03  0.69939351831E+03 -0.65070808443E+03  0.11360438059E+04  0.93357883271E+02 0.  0.
         13    1    3    3    0    0 -0.78260171163E+02  0.14198624062E+03 -0.10217079863E+03  0.19163407580E+03  0.00000000000E+00 0.  1.
        -13    1    3    3    0    0 -0.52944660834E+03  0.55740727769E+03 -0.54853728580E+03  0.94440973005E+03  0.00000000000E+00 0. -1.
         22    1    1    2    0    0  0.60770677951E+03 -0.69939351831E+03 -0.28196712172E+04  0.29679967312E+04  0.00000000000E+00 0.  1.
<mgrwt>
<rscale>  0 0.21908026E+04</rscale>
<asrwt>0</asrwt>
<pdfrwt beam="1">  1        2 0.48743172E-01 0.21908026E+04</pdfrwt>
<pdfrwt beam="2">  1       -2 0.58264768E+00 0.21908026E+04</pdfrwt>
<totfact> 0.55530653E-02</totfact>
</mgrwt>
</event>
<event>
 6    1  0.2003386E-005  0.1406167E+04  0.7818608E-02  0.8949366E-01
         -2   -1    0    0    0  501 -0.00000000000E+00  0.00000000000E+00  0.34289964895E+03  0.34289964895E+03  0.00000000000E+00 0.  1.
          2   -1    0    0  501    0  0.00000000000E+00 -0.00000000000E+00 -0.14416072712E+04  0.14416072712E+04  0.00000000000E+00 0. -1.
         23    2    1    2    0    0 -0.70267635750E+02 -0.59724180432E+03 -0.96119865866E+02  0.61539720642E+03  0.88540271052E+02 0.  0.
         11    1    3    3    0    0  0.34894892531E+01 -0.29645322367E+03 -0.24223398178E+02  0.29746170069E+03  0.00000000000E+00 0. -1.
        -11    1    3    3    0    0 -0.73757125003E+02 -0.30078858065E+03 -0.71896467689E+02  0.31793550573E+03  0.00000000000E+00 0.  1.
         22    1    1    2    0    0  0.70267635750E+02  0.59724180432E+03 -0.10025877564E+04  0.11691097137E+04  0.00000000000E+00 0. -1.
<mgrwt>
<rscale>  0 0.14061673E+04</rscale>
<asrwt>0</asrwt>
<pdfrwt beam="1">  1        2 0.22178573E+00 0.14061673E+04</pdfrwt>
<pdfrwt beam="2">  1       -2 0.52753792E-01 0.14061673E+04</pdfrwt>
<totfact> 0.45169876E+01</totfact>
</mgrwt>
</event>
<event>
 6    1  0.2003386E-005  0.4182005E+04  0.7818608E-02  0.7968804E-01
         -2   -1    0    0    0  501 -0.00000000000E+00  0.00000000000E+00  0.17058855929E+04  0.17058855929E+04  0.00000000000E+00 0.  1.
          2   -1    0    0  501    0  0.00000000000E+00 -0.00000000000E+00 -0.25630621629E+04  0.25630621629E+04  0.00000000000E+00 0. -1.
         23    2    1    2    0    0  0.10735418285E+04  0.93617804648E+03  0.11329506783E+04  0.18215965639E+04  0.75600330966E+02 0.  0.
         11    1    3    3    0    0  0.42803308866E+03  0.32798150956E+03  0.41135153372E+03  0.67822878138E+03  0.00000000000E+00 0.  1.
        -11    1    3    3    0    0  0.64550873986E+03  0.60819653692E+03  0.72159914457E+03  0.11433677826E+04  0.00000000000E+00 0. -1.
         22    1    1    2    0    0 -0.10735418285E+04 -0.93617804648E+03 -0.19901272482E+04  0.24473511919E+04  0.00000000000E+00 0. -1.
<mgrwt>
<rscale>  0 0.41820047E+04</rscale>
<asrwt>0</asrwt>
<pdfrwt beam="1">  1        2 0.39431725E+00 0.41820047E+04</pdfrwt>
<pdfrwt beam="2">  1       -2 0.26244394E+00 0.41820047E+04</pdfrwt>
<totfact> 0.13404377E-01</totfact>
</mgrwt>
</event>
<event>
 6    1  0.2003386E-005  0.2076143E+04  0.7818608E-02  0.8571826E-01
          1   -1    0    0  501    0  0.00000000000E+00  0.00000000000E+00  0.10792699709E+04  0.10792699709E+04  0.00000000000E+00 0. -1.
         -1   -1    0    0    0  501 -0.00000000000E+00 -0.00000000000E+00 -0.99844593386E+03  0.99844593386E+03  0.00000000000E+00 0.  1.
         23    2    1    2    0    0 -0.86668455076E+02  0.93533108205E+03 -0.39689336467E+03  0.10238802581E+04  0.91928156395E+02 0.  0.
         13    1    3    3    0    0 -0.63733705364E+02  0.27875502033E+03 -0.99948756968E+02  0.30291269465E+03  0.00000000000E+00 0.  1.
        -13    1    3    3    0    0 -0.22934749712E+02  0.65657606172E+03 -0.29694460770E+03  0.72096756349E+03  0.00000000000E+00 0. -1.
         22    1    1    2    0    0  0.86668455076E+02 -0.93533108205E+03  0.47771740167E+03  0.10538356466E+04  0.00000000000E+00 0. -1.
<mgrwt>
<rscale>  0 0.20761433E+04</rscale>
<asrwt>0</asrwt>
<pdfrwt beam="1">  1        1 0.16604153E+00 0.20761433E+04</pdfrwt>
<pdfrwt beam="2">  1       -1 0.15360707E+00 0.20761433E+04</pdfrwt>
<totfact> 0.39629354E+00</totfact>
</mgrwt>
</event>
<event>
 6    1  0.2003386E-005  0.1380823E+04  0.7818608E-02  0.8967818E-01
         -2   -1    0    0    0  501 -0.00000000000E+00  0.00000000000E+00  0.20672854104E+03  0.20672854104E+03  0.00000000000E+00 0.  1.
          2   -1    0    0  501    0  0.00000000000E+00 -0.00000000000E+00 -0.23057669619E+04  0.23057669619E+04  0.00000000000E+00 0. -1.
         23    2    1    2    0    0 -0.17097679790E+03  0.26606614901E+03 -0.21646193015E+04  0.21895015201E+04  0.91191694127E+02 0.  0.
         13    1    3    3    0    0 -0.91688956200E+02  0.68016669407E+02 -0.65325881927E+03  0.66315926968E+03  0.00000000000E+00 0.  1.
        -13    1    3    3    0    0 -0.79287841695E+02  0.19804947960E+03 -0.15113604822E+04  0.15263422504E+04  0.00000000000E+00 0. -1.
         22    1    1    2    0    0  0.17097679790E+03 -0.26606614901E+03  0.65580880594E+02  0.32299398287E+03  0.00000000000E+00 0.  1.
<mgrwt>
<rscale>  0 0.13808227E+04</rscale>
<asrwt>0</asrwt>
<pdfrwt beam="1">  1        2 0.35473342E+00 0.13808227E+04</pdfrwt>
<pdfrwt beam="2">  1       -2 0.31804387E-01 0.13808227E+04</pdfrwt>
<totfact> 0.40394997E+01</totfact>
</mgrwt>
</event>
<event>
 6    1  0.2003386E-005  0.3241496E+04  0.7818608E-02  0.8177943E-01
          2   -1    0    0  501    0  0.00000000000E+00  0.00000000000E+00  0.22321081255E+04  0.22321081255E+04  0.00000000000E+00 0.  1.
         -2   -1    0    0    0  501 -0.00000000000E+00 -0.00000000000E+00 -0.11768355294E+04  0.11768355294E+04  0.00000000000E+00 0. -1.
         23    2    1    2    0    0  0.19020612222E+03 -0.15583033275E+04  0.94654541019E+03  0.18353143369E+04  0.89122792972E+02 0.  0.
         11    1    3    3    0    0  0.93827822374E+02 -0.11030622184E+04  0.66224518160E+03  0.12900072087E+04  0.00000000000E+00 0.  1.
        -11    1    3    3    0    0  0.96378299849E+02 -0.45524110911E+03  0.28430022859E+03  0.54530712822E+03  0.00000000000E+00 0. -1.
         22    1    1    2    0    0 -0.19020612222E+03  0.15583033275E+04  0.10872718585E+03  0.15736293180E+04  0.00000000000E+00 0.  1.
<mgrwt>
<rscale>  0 0.32414960E+04</rscale>
<asrwt>0</asrwt>
<pdfrwt beam="1">  1        2 0.34340125E+00 0.32414960E+04</pdfrwt>
<pdfrwt beam="2">  1       -2 0.18105162E+00 0.32414960E+04</pdfrwt>
<totfact> 0.74119589E-01</totfact>
</mgrwt>
</event>
<event>
 6    1  0.2003386E-005  0.1391018E+04  0.7818608E-02  0.8960346E-01
         -2   -1    0    0    0  501 -0.00000000000E+00  0.00000000000E+00  0.19902503867E+03  0.19902503867E+03  0.00000000000E+00 0.  1.
          2   -1    0    0  501    0  0.00000000000E+00 -0.00000000000E+00 -0.24305124510E+04  0.24305124510E+04  0.00000000000E+00 0. -1.
         23    2    1    2    0    0  0.24076766707E+03  0.64934242273E+03 -0.11341182966E+04  0.13319113387E+04  0.90270992439E+02 0.  0.
         13    1    3    3    0    0  0.50111213901E+02  0.16697021681E+03 -0.21778423216E+03  0.27896264775E+03  0.00000000000E+00 0.  1.
        -13    1    3    3    0    0  0.19065645317E+03  0.48237220592E+03 -0.91633406443E+03  0.10529486910E+04  0.00000000000E+00 0. -1.
         22    1    1    2    0    0 -0.24076766707E+03 -0.64934242273E+03 -0.10973691157E+04  0.12976261509E+04  0.00000000000E+00 0. -1.
<mgrwt>
<rscale>  0 0.13910181E+04</rscale>
<asrwt>0</asrwt>
<pdfrwt beam="1">  1        2 0.37392497E+00 0.13910181E+04</pdfrwt>
<pdfrwt beam="2">  1       -2 0.30619238E-01 0.13910181E+04</pdfrwt>
<totfact> 0.36820113E+01</totfact>
</mgrwt>
</event>
<event>
 6    1  0.2003386E-005  0.6490582E+03  0.7818608E-02  0.9808548E-01
          2   -1    0    0  501    0  0.00000000000E+00  0.00000000000E+00  0.62616565004E+03  0.62616565004E+03  0.00000000000E+00 0. -1.
         -2   -1    0    0    0  501 -0.00000000000E+00 -0.00000000000E+00 -0.16819692128E+03  0.16819692128E+03  0.00000000000E+00 0.  1.
         23    2    1    2    0    0 -0.28164088363E+03  0.11378391517E+03  0.34851419685E+03  0.47148695868E+03  0.92571270447E+02 0.  0.
         11    1    3    3    0    0 -0.80485282291E+02  0.55869648338E+02  0.59492456419E+02  0.11462395318E+03  0.00000000000E+00 0. -1.
        -11    1    3    3    0    0 -0.20115560134E+03  0.57914266831E+02  0.28902174043E+03  0.35686300550E+03  0.00000000000E+00 0.  1.
         22    1    1    2    0    0  0.28164088363E+03 -0.11378391517E+03  0.10945453191E+03  0.32287561264E+03  0.00000000000E+00 0.  1.
<mgrwt>
<rscale>  0 0.64905819E+03</rscale>
<asrwt>0</asrwt>
<pdfrwt beam="1">  1        2 0.96333176E-01 0.64905819E+03</pdfrwt>
<pdfrwt beam="2">  1       -2 0.25876450E-01 0.64905819E+03</pdfrwt>
<totfact> 0.63754209E+02</totfact>
</mgrwt>
</event>
<event>
 6    1  0.2003386E-005  0.2788438E+04  0.7818608E-02  0.8306867E-01
          2   -1    0    0  501    0  0.00000000000E+00  0.00000000000E+00  0.21676037082E+04  0.21676037082E+04  0.00000000000E+00 0. -1.
         -2   -1    0    0    0  501 -0.00000000000E+00 -0.00000000000E+00 -0.89677188662E+03  0.89677188662E+03  0.00000000000E+00 0.  1.
         23    2    1    2    0    0  0.52913978984E+03  0.58493532616E+03  0.18975539026E+04  0.20569438006E+04  0.90381040413E+02 0.  0.
         13    1    3    3    0    0  0.23853459101E+03  0.26974135223E+03  0.98345181485E+03  0.10472996803E+04  0.00000000000E+00 0. -1.
        -13    1    3    3    0    0  0.29060519883E+03  0.31519397393E+03  0.91410208778E+03  0.10096441203E+04  0.00000000000E+00 0.  1.
         22    1    1    2    0    0 -0.52913978984E+03 -0.58493532616E+03 -0.62672208110E+03  0.10074317942E+04  0.00000000000E+00 0.  1.
<mgrwt>
<rscale>  0 0.27884376E+04</rscale>
<asrwt>0</asrwt>
<pdfrwt beam="1">  1        2 0.33347749E+00 0.27884376E+04</pdfrwt>
<pdfrwt beam="2">  1       -2 0.13796491E+00 0.27884376E+04</pdfrwt>
<totfact> 0.17497575E+00</totfact>
</mgrwt>
</event>
<event>
 6    1  0.2003386E-005  0.1454907E+04  0.7818608E-02  0.8915005E-01
         -2   -1    0    0    0  501 -0.00000000000E+00  0.00000000000E+00  0.39181267719E+03  0.39181267719E+03  0.00000000000E+00 0.  1.
          2   -1    0    0  501    0  0.00000000000E+00 -0.00000000000E+00 -0.13506171740E+04  0.13506171740E+04  0.00000000000E+00 0. -1.
         23    2    1    2    0    0  0.49773871534E+03  0.46164943228E+03 -0.17781206846E+03  0.70762880739E+03  0.90870073671E+02 0.  0.
         11    1    3    3    0    0  0.42691601412E+03  0.38967420046E+03 -0.11695227737E+03  0.58972968452E+03  0.00000000000E+00 0. -1.
        -11    1    3    3    0    0  0.70822701213E+02  0.71975231820E+02 -0.60859791089E+02  0.11789912287E+03  0.00000000000E+00 0.  1.
         22    1    1    2    0    0 -0.49773871534E+03 -0.46164943228E+03 -0.78099242833E+03  0.10348010438E+04  0.00000000000E+00 0. -1.
<mgrwt>
<rscale>  0 0.14549075E+04</rscale>
<asrwt>0</asrwt>
<pdfrwt beam="1">  1        2 0.20778726E+00 0.14549075E+04</pdfrwt>
<pdfrwt beam="2">  1       -2 0.60278874E-01 0.14549075E+04</pdfrwt>
<totfact> 0.38406941E+01</totfact>
</mgrwt>
</event>
<event>
 6    1  0.2003386E-005  0.7584083E+03  0.7818608E-02  0.9622251E-01
          1   -1    0    0  501    0  0.00000000000E+00  0.00000000000E+00  0.13454565193E+03  0.13454565193E+03  0.00000000000E+00 0. -1.
         -1   -1    0    0    0  501 -0.00000000000E+00 -0.00000000000E+00 -0.10687508939E+04  0.10687508939E+04  0.00000000000E+00 0.  1.
         23    2    1    2    0    0  0.32070665815E+03 -0.29518139132E+02 -0.77396033173E+03  0.84357093880E+03  0.94197943621E+02 0.  0.
         11    1    3    3    0    0  0.17262705324E+03  0.15587768226E+02 -0.31975326488E+03  0.36371036338E+03  0.00000000000E+00 0. -1.
        -11    1    3    3    0    0  0.14807960491E+03 -0.45105907357E+02 -0.45420706685E+03  0.47986057542E+03  0.00000000000E+00 0.  1.
         22    1    1    2    0    0 -0.32070665815E+03  0.29518139132E+02 -0.16024491028E+03  0.35972560708E+03  0.00000000000E+00 0. -1.
<mgrwt>
<rscale>  0 0.75840830E+03</rscale>
<asrwt>0</asrwt>
<pdfrwt beam="1">  1        1 0.20699332E-01 0.75840830E+03</pdfrwt>
<pdfrwt beam="2">  1       -1 0.16442321E+00 0.75840830E+03</pdfrwt>
<totfact> 0.69053291E+01</totfact>
</mgrwt>
</event>
<event>
 6    1  0.2003386E-005  0.2599828E+04  0.7818608E-02  0.8368260E-01
          1   -1    0    0  501    0  0.00000000000E+00  0.00000000000E+00  0.13021412719E+04  0.13021412719E+04  0.00000000000E+00 0. -1.
         -1   -1    0    0    0  501 -0.00000000000E+00 -0.00000000000E+00 -0.12976908329E+04  0.12976908329E+04  0.00000000000E+00 0.  1.
         23    2    1    2    0    0 -0.85831350216E+03 -0.43097776894E+03  0.87578714289E+03  0.13030393084E+04  0.92002252232E+02 0.  0.
         13    1    3    3    0    0 -0.21696290749E+03 -0.73418404919E+02  0.23987568010E+03  0.33166776646E+03  0.00000000000E+00 0. -1.
        -13    1    3    3    0    0 -0.64135059467E+03 -0.35755936402E+03  0.63591146278E+03  0.97137154199E+03  0.00000000000E+00 0.  1.
         22    1    1    2    0    0  0.85831350216E+03  0.43097776894E+03 -0.87133670387E+03  0.12967927964E+04  0.00000000000E+00 0.  1.
<mgrwt>
<rscale>  0 0.25998283E+04</rscale>
<asrwt>0</asrwt>
<pdfrwt beam="1">  1        1 0.20032943E+00 0.25998283E+04</pdfrwt>
<pdfrwt beam="2">  1       -1 0.19964474E+00 0.25998283E+04</pdfrwt>
<totfact> 0.12016555E+00</totfact>
</mgrwt>
</event>
<event>
 6    1  0.2003386E-005  0.7357454E+04  0.7818608E-02  0.7541654E-01
          2   -1    0    0  501    0  0.00000000000E+00  0.00000000000E+00  0.34079282542E+04  0.34079282542E+04  0.00000000000E+00 0. -1.
         -2   -1    0    0    0  501 -0.00000000000E+00 -0.00000000000E+00 -0.39710433012E+04  0.39710433012E+04  0.00000000000E+00 0.  1.
         23    2    1    2    0    0 -0.11706999621E+04 -0.39861324933E+03 -0.37557982435E+04  0.39551349769E+04  0.87414621898E+02 0.  0.
         13    1    3    3    0    0 -0.36986721097E+03 -0.15971620166E+03 -0.13045334814E+04  0.13653272952E+04  0.00000000000E+00 0.  1.
        -13    1    3    3    0    0 -0.80083275113E+03 -0.23889704767E+03 -0.24512647620E+04  0.25898076817E+04  0.00000000000E+00 0. -1.
         22    1    1    2    0    0  0.11706999621E+04  0.39861324933E+03  0.31926831965E+04  0.34238365786E+04  0.00000000000E+00 0. -1.
<mgrwt>
<rscale>  0 0.73574535E+04</rscale>
<asrwt>0</asrwt>
<pdfrwt beam="1">  1        2 0.52429665E+00 0.73574535E+04</pdfrwt>
<pdfrwt beam="2">  1       -2 0.61092974E+00 0.73574535E+04</pdfrwt>
<totfact> 0.27167336E-04</totfact>
</mgrwt>
</event>
<event>
 6    1  0.2003386E-005  0.2542176E+04  0.7818608E-02  0.8388112E-01
         -2   -1    0    0    0  501 -0.00000000000E+00  0.00000000000E+00  0.97852144209E+03  0.97852144209E+03  0.00000000000E+00 0.  1.
          2   -1    0    0  501    0  0.00000000000E+00 -0.00000000000E+00 -0.16511291346E+04  0.16511291346E+04  0.00000000000E+00 0. -1.
         23    2    1    2    0    0 -0.19626371922E+03  0.12539413421E+04 -0.36341937769E+03  0.13233252914E+04  0.90707474007E+02 0.  0.
         11    1    3    3    0    0 -0.12822639067E+03  0.84439857269E+03 -0.28831834360E+03  0.90143131967E+03  0.00000000000E+00 0. -1.
        -11    1    3    3    0    0 -0.68037328553E+02  0.40954276941E+03 -0.75101034090E+02  0.42189397172E+03  0.00000000000E+00 0.  1.
         22    1    1    2    0    0  0.19626371922E+03 -0.12539413421E+04 -0.30918831477E+03  0.13063252853E+04  0.00000000000E+00 0.  1.
<mgrwt>
<rscale>  0 0.25421764E+04</rscale>
<asrwt>0</asrwt>
<pdfrwt beam="1">  1        2 0.25401987E+00 0.25421764E+04</pdfrwt>
<pdfrwt beam="2">  1       -2 0.15054176E+00 0.25421764E+04</pdfrwt>
<totfact> 0.27545503E+00</totfact>
</mgrwt>
</event>
<event>
 6    1  0.2003386E-005  0.3679956E+04  0.7818608E-02  0.8072418E-01
          2   -1    0    0  501    0  0.00000000000E+00  0.00000000000E+00  0.10872009772E+04  0.10872009772E+04  0.00000000000E+00 0.  1.
         -2   -1    0    0    0  501 -0.00000000000E+00 -0.00000000000E+00 -0.31139767987E+04  0.31139767987E+04  0.00000000000E+00 0. -1.
         23    2    1    2    0    0 -0.89241356517E+02  0.18367368345E+04 -0.10189502391E+04  0.21042088626E+04  0.88708108217E+02 0.  0.
         13    1    3    3    0    0 -0.76948414398E+02  0.12170062951E+04 -0.63184230209E+03  0.13734081970E+04  0.00000000000E+00 0. -1.
        -13    1    3    3    0    0 -0.12292942120E+02  0.61973053946E+03 -0.38710793699E+03  0.73080066560E+03  0.00000000000E+00 0.  1.
         22    1    1    2    0    0  0.89241356517E+02 -0.18367368345E+04 -0.10078255824E+04  0.20969689133E+04  0.00000000000E+00 0.  1.
<mgrwt>
<rscale>  0 0.36799558E+04</rscale>
<asrwt>0</asrwt>
<pdfrwt beam="1">  1        2 0.16726169E+00 0.36799558E+04</pdfrwt>
<pdfrwt beam="2">  1       -2 0.47907334E+00 0.36799558E+04</pdfrwt>
<totfact> 0.40200468E-02</totfact>
</mgrwt>
</event>
<event>
 6    1  0.2003386E-005  0.1004038E+04  0.7818608E-02  0.9304127E-01
          2   -1    0    0  501    0  0.00000000000E+00  0.00000000000E+00  0.25399310909E+03  0.25399310909E+03  0.00000000000E+00 0. -1.
         -2   -1    0    0    0  501 -0.00000000000E+00 -0.00000000000E+00 -0.99224314384E+03  0.99224314384E+03  0.00000000000E+00 0.  1.
         23    2    1    2    0    0  0.30568397865E+03 -0.15391754823E+03  0.76598854074E+02  0.36243083425E+03  0.91407979478E+02 0.  0.
         11    1    3    3    0    0  0.14431291723E+03 -0.38013196065E+02 -0.71288649592E+00  0.14923715811E+03  0.00000000000E+00 0.  1.
        -11    1    3    3    0    0  0.16137106142E+03 -0.11590435216E+03  0.77311740570E+02  0.21319367614E+03  0.00000000000E+00 0. -1.
         22    1    1    2    0    0 -0.30568397865E+03  0.15391754823E+03 -0.81484888883E+03  0.88380541868E+03  0.00000000000E+00 0.  1.
<mgrwt>
<rscale>  0 0.10040377E+04</rscale>
<asrwt>0</asrwt>
<pdfrwt beam="1">  1        2 0.39075862E-01 0.10040377E+04</pdfrwt>
<pdfrwt beam="2">  1       -2 0.15265279E+00 0.10040377E+04</pdfrwt>
<totfact> 0.37706498E+01</totfact>
</mgrwt>
</event>
<event>
 6    1  0.2003386E-005  0.2683187E+04  0.7818608E-02  0.8340481E-01
         -2   -1    0    0    0  501 -0.00000000000E+00  0.00000000000E+00  0.53803007034E+03  0.53803007034E+03  0.00000000000E+00 0.  1.
          2   -1    0    0  501    0  0.00000000000E+00 -0.00000000000E+00 -0.33453028113E+04  0.33453028113E+04  0.00000000000E+00 0. -1.
         23    2    1    2    0    0  0.52516447701E+03  0.36165632696E+03  0.30049237868E+03  0.71082644892E+03  0.91572616550E+02 0.  0.
         11    1    3    3    0    0  0.12875985826E+03  0.13507471779E+03  0.69544213153E+02  0.19914988845E+03  0.00000000000E+00 0. -1.
        -11    1    3    3    0    0  0.39640461875E+03  0.22658160916E+03  0.23094816552E+03  0.51167656047E+03  0.00000000000E+00 0.  1.
         22    1    1    2    0    0 -0.52516447701E+03 -0.36165632696E+03 -0.31077651196E+04  0.31725064327E+04  0.00000000000E+00 0. -1.
<mgrwt>
<rscale>  0 0.26831873E+04</rscale>
<asrwt>0</asrwt>
<pdfrwt beam="1">  1        2 0.51466196E+00 0.26831873E+04</pdfrwt>
<pdfrwt beam="2">  1       -2 0.82773858E-01 0.26831873E+04</pdfrwt>
<totfact> 0.11677031E+00</totfact>
</mgrwt>
</event>
<event>
 6    1  0.2003386E-005  0.3510457E+04  0.7818608E-02  0.8111316E-01
         -1   -1    0    0    0  501 -0.00000000000E+00  0.00000000000E+00  0.37730561779E+04  0.37730561779E+04  0.00000000000E+00 0.  1.
          1   -1    0    0  501    0  0.00000000000E+00 -0.00000000000E+00 -0.81653362671E+03  0.81653362671E+03  0.00000000000E+00 0. -1.
         23    2    1    2    0    0  0.14636471269E+04 -0.94595358345E+03  0.17443676789E+04  0.24667590227E+04  0.70642643771E+02 0.  0.
         13    1    3    3    0    0  0.49106105481E+03 -0.27927672182E+03  0.55330661430E+03  0.79074942701E+03  0.00000000000E+00 0. -1.
        -13    1    3    3    0    0  0.97258607205E+03 -0.66667686163E+03  0.11910610646E+04  0.16760095957E+04  0.00000000000E+00 0.  1.
         22    1    1    2    0    0 -0.14636471269E+04  0.94595358345E+03  0.12121548723E+04  0.21228307819E+04  0.00000000000E+00 0. -1.
<mgrwt>
<rscale>  0 0.35104571E+04</rscale>
<asrwt>0</asrwt>
<pdfrwt beam="1">  1        1 0.12562056E+00 0.35104571E+04</pdfrwt>
<pdfrwt beam="2">  1       -1 0.58047017E+00 0.35104571E+04</pdfrwt>
<totfact> 0.92467523E-03</totfact>
</mgrwt>
</event>
<event>
 6    1  0.2003386E-005  0.1919587E+04  0.7818608E-02  0.8645168E-01
          2   -1    0    0  501    0  0.00000000000E+00  0.00000000000E+00  0.73837739375E+03  0.73837739375E+03  0.00000000000E+00 0. -1.
         -2   -1    0    0    0  501 -0.00000000000E+00 -0.00000000000E+00 -0.12476050160E+04  0.12476050160E+04  0.00000000000E+00 0.  1.
         23    2    1    2    0    0  0.13015955939E+03 -0.76409531877E+03 -0.83699517211E+03  0.11444274598E+04  0.91488390243E+02 0.  0.
         13    1    3    3    0    0  0.57264029957E+02 -0.30108052949E+03 -0.26705493864E+03  0.40650583590E+03  0.00000000000E+00 0. -1.
        -13    1    3    3    0    0  0.72895529435E+02 -0.46301478928E+03 -0.56994023347E+03  0.73792162391E+03  0.00000000000E+00 0.  1.
         22    1    1    2    0    0 -0.13015955939E+03  0.76409531877E+03  0.32776754985E+03  0.84155494996E+03  0.00000000000E+00 0. -1.
<mgrwt>
<rscale>  0 0.19195868E+04</rscale>
<asrwt>0</asrwt>
<pdfrwt beam="1">  1        2 0.11359652E+00 0.19195868E+04</pdfrwt>
<pdfrwt beam="2">  1       -2 0.19193923E+00 0.19195868E+04</pdfrwt>
<totfact> 0.53794927E+00</totfact>
</mgrwt>
</event>
<event>
 6    1  0.2003386E-005  0.2872637E+04  0.7818608E-02  0.8281066E-01
         -2   -1    0    0    0  501 -0.00000000000E+00  0.00000000000E+00  0.52144324064E+03  0.52144324064E+03  0.00000000000E+00 0.  1.
          2   -1    0    0  501    0  0.00000000000E+00 -0.00000000000E+00 -0.39563480124E+04  0.39563480124E+04  0.00000000000E+00 0. -1.
         23    2    1    2    0    0 -0.11669574560E+04 -0.21198367180E+03 -0.29780127596E+04  0.32067770548E+04  0.90179275899E+02 0.  0.
         13    1    3    3    0    0 -0.48271060363E+03 -0.74993757182E+02 -0.13424933976E+04  0.14286084534E+04  0.00000000000E+00 0. -1.
        -13    1    3    3    0    0 -0.68424685239E+03 -0.13698991462E+03 -0.16355193619E+04  0.17781686014E+04  0.00000000000E+00 0.  1.
         22    1    1    2    0    0  0.11669574560E+04  0.21198367180E+03 -0.45689201217E+03  0.12710141982E+04  0.00000000000E+00 0.  1.
<mgrwt>
<rscale>  0 0.28726371E+04</rscale>
<asrwt>0</asrwt>
<pdfrwt beam="1">  1        2 0.60866892E+00 0.28726371E+04</pdfrwt>
<pdfrwt beam="2">  1       -2 0.80222037E-01 0.28726371E+04</pdfrwt>
<totfact> 0.44082953E-01</totfact>
</mgrwt>
</event>
<event>
 6    1  0.2003386E-005  0.3018788E+04  0.7818608E-02  0.8238386E-01
          2   -1    0    0  501    0  0.00000000000E+00  0.00000000000E+00  0.14639283665E+04  0.14639283665E+04  0.00000000000E+00 0. -1.
         -2   -1    0    0    0  501 -0.00000000000E+00 -0.00000000000E+00 -0.15562715967E+04  0.15562715967E+04  0.00000000000E+00 0.  1.
         23    2    1    2    0    0 -0.66189322993E+03  0.13376892241E+04  0.17022195084E+03  0.15047938849E+04  0.88960751095E+02 0.  0.
         13    1    3    3    0    0 -0.46609195827E+03  0.85424181879E+03  0.93855067048E+02  0.97763979673E+03  0.00000000000E+00 0.  1.
        -13    1    3    3    0    0 -0.19580127165E+03  0.48344740531E+03  0.76366883795E+02  0.52715408812E+03  0.00000000000E+00 0. -1.
         22    1    1    2    0    0  0.66189322993E+03 -0.13376892241E+04 -0.26256518099E+03  0.15154060784E+04  0.00000000000E+00 0.  1.
<mgrwt>
<rscale>  0 0.30187879E+04</rscale>
<asrwt>0</asrwt>
<pdfrwt beam="1">  1        2 0.22521975E+00 0.30187879E+04</pdfrwt>
<pdfrwt beam="2">  1       -2 0.23942640E+00 0.30187879E+04</pdfrwt>
<totfact> 0.84934799E-01</totfact>
</mgrwt>
</event>
<event>
 6    1  0.2003386E-005  0.1918814E+04  0.7818608E-02  0.8645548E-01
         -2   -1    0    0    0  501 -0.00000000000E+00  0.00000000000E+00  0.11004460658E+04  0.11004460658E+04  0.00000000000E+00 0.  1.
          2   -1    0    0  501    0  0.00000000000E+00 -0.00000000000E+00 -0.83644411281E+03  0.83644411281E+03  0.00000000000E+00 0. -1.
         23    2    1    2    0    0 -0.69399091214E+03 -0.65758490872E+03  0.83346114726E+02  0.96391647386E+03  0.90261262125E+02 0.  0.
         11    1    3    3    0    0 -0.30581182839E+03 -0.30783939980E+03  0.80987372848E+02  0.44141242054E+03  0.00000000000E+00 0. -1.
        -11    1    3    3    0    0 -0.38817908376E+03 -0.34974550892E+03  0.23587418779E+01  0.52250405332E+03  0.00000000000E+00 0.  1.
         22    1    1    2    0    0  0.69399091214E+03  0.65758490872E+03  0.18065583831E+03  0.97297370479E+03  0.00000000000E+00 0.  1.
<mgrwt>
<rscale>  0 0.19188138E+04</rscale>
<asrwt>0</asrwt>
<pdfrwt beam="1">  1        2 0.12868371E+00 0.19188138E+04</pdfrwt>
<pdfrwt beam="2">  1       -2 0.16929940E+00 0.19188138E+04</pdfrwt>
<totfact> 0.65380626E+00</totfact>
</mgrwt>
</event>
<event>
 6    1  0.2003386E-005  0.2820816E+04  0.7818608E-02  0.8296835E-01
          2   -1    0    0  501    0  0.00000000000E+00  0.00000000000E+00  0.47046661007E+04  0.47046661007E+04  0.00000000000E+00 0. -1.
         -2   -1    0    0    0  501 -0.00000000000E+00 -0.00000000000E+00 -0.42282507863E+03  0.42282507863E+03  0.00000000000E+00 0.  1.
         23    2    1    2    0    0 -0.63666185431E+03 -0.11331243365E+04  0.11540334530E+04  0.17403848527E+04  0.88527656985E+02 0.  0.
         13    1    3    3    0    0 -0.39814627937E+03 -0.79061378593E+03  0.77137295425E+03  0.11741408999E+04  0.00000000000E+00 0.  1.
        -13    1    3    3    0    0 -0.23851557494E+03 -0.34251055062E+03  0.38266049878E+03  0.56624395282E+03  0.00000000000E+00 0. -1.
         22    1    1    2    0    0  0.63666185431E+03  0.11331243365E+04  0.31278075690E+04  0.33871063266E+04  0.00000000000E+00 0. -1.
<mgrwt>
<rscale>  0 0.28208161E+04</rscale>
<asrwt>0</asrwt>
<pdfrwt beam="1">  1        2 0.72379475E+00 0.28208161E+04</pdfrwt>
<pdfrwt beam="2">  1       -2 0.65050015E-01 0.28208161E+04</pdfrwt>
<totfact> 0.14386442E-01</totfact>
</mgrwt>
</event>
<event>
 6    1  0.2003386E-005  0.6996967E+03  0.7818608E-02  0.9717751E-01
          2   -1    0    0  501    0  0.00000000000E+00  0.00000000000E+00  0.26226846617E+03  0.26226846617E+03  0.00000000000E+00 0. -1.
         -2   -1    0    0    0  501 -0.00000000000E+00 -0.00000000000E+00 -0.46667397819E+03  0.46667397819E+03  0.00000000000E+00 0.  1.
         23    2    1    2    0    0 -0.85381859667E+02  0.29387824220E+03  0.61730324687E+02  0.32337769394E+03  0.84309054977E+02 0.  0.
         11    1    3    3    0    0 -0.43514537182E+02  0.17903644505E+03  0.77971864805E+02  0.20006792672E+03  0.00000000000E+00 0.  1.
        -11    1    3    3    0    0 -0.41867322484E+02  0.11484179715E+03 -0.16241540118E+02  0.12330976722E+03  0.00000000000E+00 0. -1.
         22    1    1    2    0    0  0.85381859667E+02 -0.29387824220E+03 -0.26613583671E+03  0.40556475042E+03  0.00000000000E+00 0.  1.
<mgrwt>
<rscale>  0 0.69969670E+03</rscale>
<asrwt>0</asrwt>
<pdfrwt beam="1">  1        2 0.40348995E-01 0.69969670E+03</pdfrwt>
<pdfrwt beam="2">  1       -2 0.71795996E-01 0.69969670E+03</pdfrwt>
<totfact> 0.22652640E+02</totfact>
</mgrwt>
</event>
<event>
 6    1  0.2003386E-005  0.1638494E+04  0.7818608E-02  0.8797243E-01
         -1   -1    0    0    0  501 -0.00000000000E+00  0.00000000000E+00  0.43066219779E+03  0.43066219779E+03  0.00000000000E+00 0.  1.
          1   -1    0    0  501    0  0.00000000000E+00 -0.00000000000E+00 -0.15584494896E+04  0.15584494896E+04  0.00000000000E+00 0. -1.
         23    2    1    2    0    0 -0.69648600100E+03 -0.27385989953E+03 -0.16892210732E+03  0.77275876320E+03  0.92354932742E+02 0.  0.
         13    1    3    3    0    0 -0.52454200071E+03 -0.22637102357E+03 -0.16372643624E+03  0.59430168833E+03  0.00000000000E+00 0. -1.
        -13    1    3    3    0    0 -0.17194400029E+03 -0.47488875966E+02 -0.51956710786E+01  0.17845707488E+03  0.00000000000E+00 0.  1.
         22    1    1    2    0    0  0.69648600100E+03  0.27385989953E+03 -0.95886518449E+03  0.12163529242E+04  0.00000000000E+00 0. -1.
<mgrwt>
<rscale>  0 0.16384936E+04</rscale>
<asrwt>0</asrwt>
<pdfrwt beam="1">  1        1 0.23976146E+00 0.16384936E+04</pdfrwt>
<pdfrwt beam="2">  1       -1 0.66255722E-01 0.16384936E+04</pdfrwt>
<totfact> 0.13159696E+01</totfact>
</mgrwt>
</event>
<event>
 6    1  0.2003386E-005  0.1731573E+04  0.7818608E-02  0.8743559E-01
          2   -1    0    0  501    0  0.00000000000E+00  0.00000000000E+00  0.24437112808E+04  0.24437112808E+04  0.00000000000E+00 0.  1.
         -2   -1    0    0    0  501 -0.00000000000E+00 -0.00000000000E+00 -0.30674104962E+03  0.30674104962E+03  0.00000000000E+00 0. -1.
         23    2    1    2    0    0 -0.13655952630E+03  0.79285720968E+03  0.57421848907E+03  0.99276519482E+03  0.92654194155E+02 0.  0.
         13    1    3    3    0    0 -0.14747366737E+02  0.33819372200E+03  0.22088448339E+03  0.40420592948E+03  0.00000000000E+00 0. -1.
        -13    1    3    3    0    0 -0.12181215956E+03  0.45466348768E+03  0.35333400568E+03  0.58855926534E+03  0.00000000000E+00 0.  1.
         22    1    1    2    0    0  0.13655952630E+03 -0.79285720968E+03  0.15627517421E+04  0.17576871356E+04  0.00000000000E+00 0.  1.
<mgrwt>
<rscale>  0 0.17315733E+04</rscale>
<asrwt>0</asrwt>
<pdfrwt beam="1">  1        2 0.37595557E+00 0.17315733E+04</pdfrwt>
<pdfrwt beam="2">  1       -2 0.47190932E-01 0.17315733E+04</pdfrwt>
<totfact> 0.15176268E+01</totfact>
</mgrwt>
</event>
<event>
 6    1  0.2003386E-005  0.2672537E+04  0.7818608E-02  0.8343971E-01
          2   -1    0    0  501    0  0.00000000000E+00  0.00000000000E+00  0.26618262210E+04  0.26618262210E+04  0.00000000000E+00 0. -1.
         -2   -1    0    0    0  501 -0.00000000000E+00 -0.00000000000E+00 -0.67082260906E+03  0.67082260906E+03  0.00000000000E+00 0.  1.
         23    2    1    2    0    0  0.55905612117E+03  0.59497900951E+03  0.23132932233E+04  0.24549163184E+04  0.93513770413E+02 0.  0.
         13    1    3    3    0    0  0.24148458031E+03  0.29216282189E+03  0.11922366055E+04  0.12510403832E+04  0.00000000000E+00 0. -1.
        -13    1    3    3    0    0  0.31757154086E+03  0.30281618762E+03  0.11210566178E+04  0.12038759352E+04  0.00000000000E+00 0.  1.
         22    1    1    2    0    0 -0.55905612117E+03 -0.59497900951E+03 -0.32228961135E+03  0.87773251162E+03  0.00000000000E+00 0.  1.
<mgrwt>
<rscale>  0 0.26725368E+04</rscale>
<asrwt>0</asrwt>
<pdfrwt beam="1">  1        2 0.40951172E+00 0.26725368E+04</pdfrwt>
<pdfrwt beam="2">  1       -2 0.10320348E+00 0.26725368E+04</pdfrwt>
<totfact> 0.18843334E+00</totfact>
</mgrwt>
</event>
<event>
 6    1  0.2003386E-005  0.1179320E+04  0.7818608E-02  0.9131153E-01
          2   -1    0    0  501    0  0.00000000000E+00  0.00000000000E+00  0.24465693199E+03  0.24465693199E+03  0.00000000000E+00 0. -1.
         -2   -1    0    0    0  501 -0.00000000000E+00 -0.00000000000E+00 -0.14211686691E+04  0.14211686691E+04  0.00000000000E+00 0.  1.
         23    2    1    2    0    0 -0.31611965015E+03 -0.27531699401E+03 -0.12820904032E+02  0.42893133100E+03  0.89925695605E+02 0.  0.
         13    1    3    3    0    0 -0.22394768686E+03 -0.17941845341E+03 -0.48947932823E+02  0.29110040880E+03  0.00000000000E+00 0.  1.
        -13    1    3    3    0    0 -0.92171963294E+02 -0.95898540593E+02  0.36127028790E+02  0.13783092220E+03  0.00000000000E+00 0. -1.
         22    1    1    2    0    0  0.31611965015E+03  0.27531699401E+03 -0.11636908331E+04  0.12368942701E+04  0.00000000000E+00 0.  1.
<mgrwt>
<rscale>  0 0.11793197E+04</rscale>
<asrwt>0</asrwt>
<pdfrwt beam="1">  1        2 0.37639528E-01 0.11793197E+04</pdfrwt>
<pdfrwt beam="2">  1       -2 0.21864133E+00 0.11793197E+04</pdfrwt>
<totfact> 0.13742896E+01</totfact>
</mgrwt>
</event>
<event>
 6    1  0.2003386E-005  0.2060505E+04  0.7818608E-02  0.8578844E-01
         -1   -1    0    0    0  501 -0.00000000000E+00  0.00000000000E+00  0.87363104028E+03  0.87363104028E+03  0.00000000000E+00 0.  1.
          1   -1    0    0  501    0  0.00000000000E+00 -0.00000000000E+00 -0.12149520136E+04  0.12149520136E+04  0.00000000000E+00 0. -1.
         23    2    1    2    0    0 -0.69657372689E+03 -0.71224064562E+03 -0.42880669526E+03  0.10885053340E+04  0.92016226307E+02 0.  0.
         13    1    3    3    0    0 -0.46928256037E+03 -0.49540101552E+03 -0.33801492981E+03  0.76151321750E+03  0.00000000000E+00 0. -1.
        -13    1    3    3    0    0 -0.22729116651E+03 -0.21683963010E+03 -0.90791765447E+02  0.32699211647E+03  0.00000000000E+00 0.  1.
         22    1    1    2    0    0  0.69657372689E+03  0.71224064562E+03  0.87485721957E+02  0.10000777199E+04  0.00000000000E+00 0.  1.
<mgrwt>
<rscale>  0 0.20605046E+04</rscale>
<asrwt>0</asrwt>
<pdfrwt beam="1">  1        1 0.18691569E+00 0.20605046E+04</pdfrwt>
<pdfrwt beam="2">  1       -1 0.13440478E+00 0.20605046E+04</pdfrwt>
<totfact> 0.44803976E+00</totfact>
</mgrwt>
</event>
<event>
 6    1  0.2003386E-005  0.1128910E+04  0.7818608E-02  0.9177463E-01
          1   -1    0    0  501    0  0.00000000000E+00  0.00000000000E+00  0.37939998751E+03  0.37939998751E+03  0.00000000000E+00 0. -1.
         -1   -1    0    0    0  501 -0.00000000000E+00 -0.00000000000E+00 -0.83977216338E+03  0.83977216338E+03  0.00000000000E+00 0.  1.
         23    2    1    2    0    0 -0.16218946008E+02  0.55815813680E+03 -0.17712849088E+03  0.59304872458E+03  0.92351110190E+02 0.  0.
         11    1    3    3    0    0  0.22043718169E+02  0.13536448360E+03 -0.75404432918E+02  0.15650973591E+03  0.00000000000E+00 0.  1.
        -11    1    3    3    0    0 -0.38262664177E+02  0.42279365321E+03 -0.10172405796E+03  0.43653898867E+03  0.00000000000E+00 0. -1.
         22    1    1    2    0    0  0.16218946008E+02 -0.55815813680E+03 -0.28324368500E+03  0.62612342631E+03  0.00000000000E+00 0.  1.
<mgrwt>
<rscale>  0 0.11289102E+04</rscale>
<asrwt>0</asrwt>
<pdfrwt beam="1">  1        1 0.58369229E-01 0.11289102E+04</pdfrwt>
<pdfrwt beam="2">  1       -1 0.12919572E+00 0.11289102E+04</pdfrwt>
<totfact> 0.32990940E+01</totfact>
</mgrwt>
</event>
<event>
 6    1  0.2003386E-005  0.3323145E+04  0.7818608E-02  0.8157031E-01
          2   -1    0    0  501    0  0.00000000000E+00  0.00000000000E+00  0.34114513851E+04  0.34114513851E+04  0.00000000000E+00 0. -1.
         -2   -1    0    0    0  501 -0.00000000000E+00 -0.00000000000E+00 -0.80928104445E+03  0.80928104445E+03  0.00000000000E+00 0.  1.
         23    2    1    2    0    0 -0.11712458636E+03 -0.91676495795E+03 -0.44989150887E+03  0.10318050722E+04  0.89683780430E+02 0.  0.
         11    1    3    3    0    0 -0.38166175703E+02 -0.11647804670E+03 -0.38262818359E+02  0.12840496719E+03  0.00000000000E+00 0.  1.
        -11    1    3    3    0    0 -0.78958410656E+02 -0.80028691125E+03 -0.41162869052E+03  0.90340010504E+03  0.00000000000E+00 0. -1.
         22    1    1    2    0    0  0.11712458636E+03  0.91676495795E+03  0.30520618495E+04  0.31889273573E+04  0.00000000000E+00 0. -1.
<mgrwt>
<rscale>  0 0.33231449E+04</rscale>
<asrwt>0</asrwt>
<pdfrwt beam="1">  1        2 0.52483867E+00 0.33231449E+04</pdfrwt>
<pdfrwt beam="2">  1       -2 0.12450478E+00 0.33231449E+04</pdfrwt>
<totfact> 0.37752246E-01</totfact>
</mgrwt>
</event>
<event>
 6    1  0.2003386E-005  0.1395624E+04  0.7818608E-02  0.8956993E-01
          2   -1    0    0  501    0  0.00000000000E+00  0.00000000000E+00  0.10993835582E+04  0.10993835582E+04  0.00000000000E+00 0.  1.
         -2   -1    0    0    0  501 -0.00000000000E+00 -0.00000000000E+00 -0.44292210086E+03  0.44292210086E+03  0.00000000000E+00 0. -1.
         23    2    1    2    0    0 -0.44667135597E+03  0.52091072064E+03  0.20701349892E+03  0.72202110693E+03  0.87158539420E+02 0.  0.
         11    1    3    3    0    0 -0.71904872312E+02  0.10498061130E+03  0.71629323208E+02  0.14602054429E+03  0.00000000000E+00 0.  1.
        -11    1    3    3    0    0 -0.37476648365E+03  0.41593010934E+03  0.13538417572E+03  0.57600056264E+03  0.00000000000E+00 0. -1.
         22    1    1    2    0    0  0.44667135597E+03 -0.52091072064E+03  0.44944795839E+03  0.82028455210E+03  0.00000000000E+00 0.  1.
<mgrwt>
<rscale>  0 0.13956236E+04</rscale>
<asrwt>0</asrwt>
<pdfrwt beam="1">  1        2 0.16913593E+00 0.13956236E+04</pdfrwt>
<pdfrwt beam="2">  1       -2 0.68141862E-01 0.13956236E+04</pdfrwt>
<totfact> 0.41854984E+01</totfact>
</mgrwt>
</event>
<event>
 6    1  0.2003386E-005  0.1425220E+04  0.7818608E-02  0.8935762E-01
         -2   -1    0    0    0  501 -0.00000000000E+00  0.00000000000E+00  0.17269259749E+03  0.17269259749E+03  0.00000000000E+00 0.  1.
          2   -1    0    0  501    0  0.00000000000E+00 -0.00000000000E+00 -0.29405622631E+04  0.29405622631E+04  0.00000000000E+00 0. -1.
         23    2    1    2    0    0 -0.44650796437E+03 -0.25756728389E+03 -0.32418024084E+03  0.61579049193E+03  0.91623323606E+02 0.  0.
         13    1    3    3    0    0 -0.22369821523E+03 -0.16805105349E+03 -0.21043464786E+03  0.35009254362E+03  0.00000000000E+00 0. -1.
        -13    1    3    3    0    0 -0.22280974914E+03 -0.89516230393E+02 -0.11374559297E+03  0.26569794831E+03  0.00000000000E+00 0.  1.
         22    1    1    2    0    0  0.44650796437E+03  0.25756728389E+03 -0.24436894248E+04  0.24974643686E+04  0.00000000000E+00 0. -1.
<mgrwt>
<rscale>  0 0.14252205E+04</rscale>
<asrwt>0</asrwt>
<pdfrwt beam="1">  1        2 0.45239417E+00 0.14252205E+04</pdfrwt>
<pdfrwt beam="2">  1       -2 0.26568093E-01 0.14252205E+04</pdfrwt>
<totfact> 0.23842736E+01</totfact>
</mgrwt>
</event>
<event>
 6    1  0.2003386E-005  0.3181682E+04  0.7818608E-02  0.8193672E-01
          2   -1    0    0  501    0  0.00000000000E+00  0.00000000000E+00  0.17756890995E+04  0.17756890995E+04  0.00000000000E+00 0.  1.
         -2   -1    0    0    0  501 -0.00000000000E+00 -0.00000000000E+00 -0.14252354873E+04  0.14252354873E+04  0.00000000000E+00 0. -1.
         23    2    1    2    0    0  0.94039583498E+03 -0.12165776431E+04  0.58061246797E+03  0.16461324505E+04  0.90750859025E+02 0.  0.
         13    1    3    3    0    0  0.58970541742E+03 -0.69822277390E+03  0.36654621223E+03  0.98469469737E+03  0.00000000000E+00 0.  1.
        -13    1    3    3    0    0  0.35069041756E+03 -0.51835486917E+03  0.21406625575E+03  0.66143775309E+03  0.00000000000E+00 0. -1.
         22    1    1    2    0    0 -0.94039583498E+03  0.12165776431E+04 -0.23015885577E+03  0.15547921363E+04  0.00000000000E+00 0. -1.
<mgrwt>
<rscale>  0 0.31816820E+04</rscale>
<asrwt>0</asrwt>
<pdfrwt beam="1">  1        2 0.27318294E+00 0.31816820E+04</pdfrwt>
<pdfrwt beam="2">  1       -2 0.21926700E+00 0.31816820E+04</pdfrwt>
<totfact> 0.74997715E-01</totfact>
</mgrwt>
</event>
<event>
 6    1  0.2003386E-005  0.1746650E+04  0.7818608E-02  0.8735196E-01
          2   -1    0    0  501    0  0.00000000000E+00  0.00000000000E+00  0.11086041996E+04  0.11086041996E+04  0.00000000000E+00 0.  1.
         -2   -1    0    0    0  501 -0.00000000000E+00 -0.00000000000E+00 -0.68797943192E+03  0.68797943192E+03  0.00000000000E+00 0. -1.
         23    2    1    2    0    0 -0.60198908064E+03  0.23151797719E+03  0.81292950723E+03  0.10416701030E+04  0.90723716444E+02 0.  0.
         11    1    3    3    0    0 -0.37236284730E+03  0.15521205374E+03  0.43833979394E+03  0.59572363276E+03  0.00000000000E+00 0.  1.
        -11    1    3    3    0    0 -0.22962623334E+03  0.76305923446E+02  0.37458971329E+03  0.44594647021E+03  0.00000000000E+00 0. -1.
         22    1    1    2    0    0  0.60198908064E+03 -0.23151797719E+03 -0.39230473953E+03  0.75491352858E+03  0.00000000000E+00 0. -1.
<mgrwt>
<rscale>  0 0.17466504E+04</rscale>
<asrwt>0</asrwt>
<pdfrwt beam="1">  1        2 0.17055449E+00 0.17466504E+04</pdfrwt>
<pdfrwt beam="2">  1       -2 0.10584299E+00 0.17466504E+04</pdfrwt>
<totfact> 0.14715422E+01</totfact>
</mgrwt>
</event>
<event>
 6    1  0.2003386E-005  0.3906712E+04  0.7818608E-02  0.8023635E-01
          2   -1    0    0  501    0  0.00000000000E+00  0.00000000000E+00  0.22145121908E+04  0.22145121908E+04  0.00000000000E+00 0. -1.
         -2   -1    0    0    0  501 -0.00000000000E+00 -0.00000000000E+00 -0.17229976420E+04  0.17229976420E+04  0.00000000000E+00 0.  1.
         23    2    1    2    0    0  0.19494444712E+04  0.10438157518E+03  0.25578479483E+03  0.19710923348E+04  0.92465514916E+02 0.  0.
         13    1    3    3    0    0  0.86968596401E+03  0.86965002539E+02  0.13666535759E+03  0.88464343531E+03  0.00000000000E+00 0.  1.
        -13    1    3    3    0    0  0.10797585072E+04  0.17416572640E+02  0.11911943724E+03  0.10864488995E+04  0.00000000000E+00 0. -1.
         22    1    1    2    0    0 -0.19494444712E+04 -0.10438157518E+03  0.23572975403E+03  0.19664174980E+04  0.00000000000E+00 0. -1.
<mgrwt>
<rscale>  0 0.39067118E+04</rscale>
<asrwt>0</asrwt>
<pdfrwt beam="1">  1        2 0.34069418E+00 0.39067118E+04</pdfrwt>
<pdfrwt beam="2">  1       -2 0.26507656E+00 0.39067118E+04</pdfrwt>
<totfact> 0.20924019E-01</totfact>
</mgrwt>
</event>
<event>
 6    1  0.2003386E-005  0.1218151E+04  0.7818608E-02  0.9097116E-01
         -3   -1    0    0    0  501 -0.00000000000E+00  0.00000000000E+00  0.17299142693E+04  0.17299142693E+04  0.00000000000E+00 0.  1.
          3   -1    0    0  501    0  0.00000000000E+00 -0.00000000000E+00 -0.21444578249E+03  0.21444578249E+03  0.00000000000E+00 0. -1.
         23    2    1    2    0    0  0.29309036629E+03  0.28590615153E+03  0.49851280848E+02  0.42262483018E+03  0.92099438569E+02 0.  0.
         11    1    3    3    0    0  0.21837751257E+03  0.20133460796E+03  0.76406528647E+02  0.30669581018E+03  0.00000000000E+00 0. -1.
        -11    1    3    3    0    0  0.74712853712E+02  0.84571543575E+02 -0.26555247799E+02  0.11592902000E+03  0.00000000000E+00 0.  1.
         22    1    1    2    0    0 -0.29309036629E+03 -0.28590615153E+03  0.14656172060E+04  0.15217352216E+04  0.00000000000E+00 0.  1.
<mgrwt>
<rscale>  0 0.12181508E+04</rscale>
<asrwt>0</asrwt>
<pdfrwt beam="1">  1        3 0.32991660E-01 0.12181508E+04</pdfrwt>
<pdfrwt beam="2">  1       -3 0.26614065E+00 0.12181508E+04</pdfrwt>
<totfact> 0.13878385E+00</totfact>
</mgrwt>
</event>
<event>
 6    1  0.2003386E-005  0.2123886E+04  0.7818608E-02  0.8550794E-01
         -1   -1    0    0    0  501 -0.00000000000E+00  0.00000000000E+00  0.70886062159E+03  0.70886062159E+03  0.00000000000E+00 0.  1.
          1   -1    0    0  501    0  0.00000000000E+00 -0.00000000000E+00 -0.15908954665E+04  0.15908954665E+04  0.00000000000E+00 0. -1.
         23    2    1    2    0    0 -0.86108921118E+03 -0.59823676038E+02 -0.11087469601E+04  0.14073145578E+04  0.78491664130E+02 0.  0.
         13    1    3    3    0    0 -0.49411792667E+03  0.40094986407E+01 -0.62105462438E+03  0.79364818907E+03  0.00000000000E+00 0. -1.
        -13    1    3    3    0    0 -0.36697128451E+03 -0.63833174679E+02 -0.48769233568E+03  0.61366636874E+03  0.00000000000E+00 0.  1.
         22    1    1    2    0    0  0.86108921118E+03  0.59823676038E+02  0.22671211514E+03  0.89244153029E+03  0.00000000000E+00 0.  1.
<mgrwt>
<rscale>  0 0.21238862E+04</rscale>
<asrwt>0</asrwt>
<pdfrwt beam="1">  1        1 0.24475315E+00 0.21238862E+04</pdfrwt>
<pdfrwt beam="2">  1       -1 0.10905548E+00 0.21238862E+04</pdfrwt>
<totfact> 0.40466792E+00</totfact>
</mgrwt>
</event>
<event>
 6    1  0.2003386E-005  0.2168134E+04  0.7818608E-02  0.8531810E-01
         -2   -1    0    0    0  501 -0.00000000000E+00  0.00000000000E+00  0.70388105345E+03  0.70388105345E+03  0.00000000000E+00 0.  1.
          2   -1    0    0  501    0  0.00000000000E+00 -0.00000000000E+00 -0.16696020925E+04  0.16696020925E+04  0.00000000000E+00 0. -1.
         23    2    1    2    0    0  0.35341198126E+03 -0.93219955751E+03 -0.94453367617E+03  0.13763146808E+04  0.90565952461E+02 0.  0.
         11    1    3    3    0    0  0.28803160094E+03 -0.64422573079E+03 -0.65883064878E+03  0.96542571912E+03  0.00000000000E+00 0. -1.
        -11    1    3    3    0    0  0.65380380321E+02 -0.28797382672E+03 -0.28570302738E+03  0.41088896172E+03  0.00000000000E+00 0.  1.
         22    1    1    2    0    0 -0.35341198126E+03  0.93219955751E+03 -0.21187362920E+02  0.99716846514E+03  0.00000000000E+00 0.  1.
<mgrwt>
<rscale>  0 0.21681340E+04</rscale>
<asrwt>0</asrwt>
<pdfrwt beam="1">  1        2 0.25686186E+00 0.21681340E+04</pdfrwt>
<pdfrwt beam="2">  1       -2 0.10828939E+00 0.21681340E+04</pdfrwt>
<totfact> 0.63775921E+00</totfact>
</mgrwt>
</event>
<event>
 6    1  0.2003386E-005  0.1161774E+04  0.7818608E-02  0.9146990E-01
         -1   -1    0    0    0  501 -0.00000000000E+00  0.00000000000E+00  0.12595179382E+04  0.12595179382E+04  0.00000000000E+00 0.  1.
          1   -1    0    0  501    0  0.00000000000E+00 -0.00000000000E+00 -0.26790388839E+03  0.26790388839E+03  0.00000000000E+00 0. -1.
         23    2    1    2    0    0 -0.20632249644E+02 -0.56991206408E+03  0.37963378024E+03  0.69091402575E+03  0.89526160224E+02 0.  0.
         13    1    3    3    0    0  0.23580973758E+02 -0.34361668180E+03  0.19709569615E+03  0.39683145008E+03  0.00000000000E+00 0.  1.
        -13    1    3    3    0    0 -0.44213223402E+02 -0.22629538228E+03  0.18253808410E+03  0.29408257566E+03  0.00000000000E+00 0. -1.
         22    1    1    2    0    0  0.20632249644E+02  0.56991206408E+03  0.61198026954E+03  0.83650780081E+03  0.00000000000E+00 0.  1.
<mgrwt>
<rscale>  0 0.11617741E+04</rscale>
<asrwt>0</asrwt>
<pdfrwt beam="1">  1        1 0.41215984E-01 0.11617741E+04</pdfrwt>
<pdfrwt beam="2">  1       -1 0.19377199E+00 0.11617741E+04</pdfrwt>
<totfact> 0.16773400E+01</totfact>
</mgrwt>
</event>
<event>
 6    1  0.2003386E-005  0.2196671E+04  0.7818608E-02  0.8519815E-01
         -1   -1    0    0    0  501 -0.00000000000E+00  0.00000000000E+00  0.68190323731E+03  0.68190323731E+03  0.00000000000E+00 0.  1.
          1   -1    0    0  501    0  0.00000000000E+00 -0.00000000000E+00 -0.17690787194E+04  0.17690787194E+04  0.00000000000E+00 0. -1.
         23    2    1    2    0    0  0.15991359906E+03  0.69322651024E+03 -0.14754118047E+04  0.16405112319E+04  0.91113965030E+02 0.  0.
         13    1    3    3    0    0  0.23367243460E+02  0.22845708902E+03 -0.54897257223E+03  0.59507105009E+03  0.00000000000E+00 0.  1.
        -13    1    3    3    0    0  0.13654635560E+03  0.46476942122E+03 -0.92643923250E+03  0.10454401818E+04  0.00000000000E+00 0. -1.
         22    1    1    2    0    0 -0.15991359906E+03 -0.69322651024E+03  0.38823632263E+03  0.81047072487E+03  0.00000000000E+00 0.  1.
<mgrwt>
<rscale>  0 0.21966707E+04</rscale>
<asrwt>0</asrwt>
<pdfrwt beam="1">  1        1 0.27216596E+00 0.21966707E+04</pdfrwt>
<pdfrwt beam="2">  1       -1 0.10490819E+00 0.21966707E+04</pdfrwt>
<totfact> 0.33265724E+00</totfact>
</mgrwt>
</event>
<event>
 6    1  0.2003386E-005  0.1824514E+04  0.7818608E-02  0.8693371E-01
          2   -1    0    0  501    0  0.00000000000E+00  0.00000000000E+00  0.10589516588E+04  0.10589516588E+04  0.00000000000E+00 0. -1.
         -2   -1    0    0    0  501 -0.00000000000E+00 -0.00000000000E+00 -0.78588406704E+03  0.78588406704E+03  0.00000000000E+00 0.  1.
         23    2    1    2    0    0 -0.39708964796E+03 -0.73453754125E+03  0.50315086934E+03  0.97871569802E+03  0.86591178622E+02 0.  0.
         11    1    3    3    0    0 -0.13945816711E+03 -0.28475509842E+03  0.23824908631E+03  0.39660644672E+03  0.00000000000E+00 0.  1.
        -11    1    3    3    0    0 -0.25763148085E+03 -0.44978244283E+03  0.26490178303E+03  0.58210925131E+03  0.00000000000E+00 0. -1.
         22    1    1    2    0    0  0.39708964796E+03  0.73453754125E+03 -0.23008327754E+03  0.86612002784E+03  0.00000000000E+00 0.  1.
<mgrwt>
<rscale>  0 0.18245144E+04</rscale>
<asrwt>0</asrwt>
<pdfrwt beam="1">  1        2 0.16291564E+00 0.18245144E+04</pdfrwt>
<pdfrwt beam="2">  1       -2 0.12090524E+00 0.18245144E+04</pdfrwt>
<totfact> 0.11347672E+01</totfact>
</mgrwt>
</event>
<event>
 6    1  0.2003386E-005  0.3911989E+04  0.7818608E-02  0.8022540E-01
         -2   -1    0    0    0  501 -0.00000000000E+00  0.00000000000E+00  0.17287257000E+04  0.17287257000E+04  0.00000000000E+00 0.  1.
          2   -1    0    0  501    0  0.00000000000E+00 -0.00000000000E+00 -0.22131413289E+04  0.22131413289E+04  0.00000000000E+00 0. -1.
         23    2    1    2    0    0 -0.29914985745E+03  0.77537297877E+02 -0.21874518685E+04  0.22110189410E+04  0.90312850204E+02 0.  0.
         13    1    3    3    0    0 -0.28971317177E+02 -0.16775741727E+02 -0.15946241964E+03  0.16293871856E+03  0.00000000000E+00 0. -1.
        -13    1    3    3    0    0 -0.27017854027E+03  0.94313039604E+02 -0.20279894488E+04  0.20480802225E+04  0.00000000000E+00 0.  1.
         22    1    1    2    0    0  0.29914985745E+03 -0.77537297877E+02  0.17030362396E+04  0.17308480878E+04  0.00000000000E+00 0.  1.
<mgrwt>
<rscale>  0 0.39119889E+04</rscale>
<asrwt>0</asrwt>
<pdfrwt beam="1">  1        2 0.34048328E+00 0.39119889E+04</pdfrwt>
<pdfrwt beam="2">  1       -2 0.26595780E+00 0.39119889E+04</pdfrwt>
<totfact> 0.20694028E-01</totfact>
</mgrwt>
</event>
<event>
 6    1  0.2003386E-005  0.1886299E+04  0.7818608E-02  0.8661706E-01
          2   -1    0    0  501    0  0.00000000000E+00  0.00000000000E+00  0.21878692650E+04  0.21878692650E+04  0.00000000000E+00 0. -1.
         -2   -1    0    0    0  501 -0.00000000000E+00 -0.00000000000E+00 -0.40657412449E+03  0.40657412449E+03  0.00000000000E+00 0.  1.
         23    2    1    2    0    0 -0.45144235511E+02  0.30907768421E+03  0.21136884719E+04  0.21383158375E+04  0.84549676739E+02 0.  0.
         11    1    3    3    0    0 -0.40142919710E+02  0.19507255568E+03  0.10672553977E+04  0.10856789764E+04  0.00000000000E+00 0. -1.
        -11    1    3    3    0    0 -0.50013158004E+01  0.11400512854E+03  0.10464330742E+04  0.10526368611E+04  0.00000000000E+00 0.  1.
         22    1    1    2    0    0  0.45144235511E+02 -0.30907768421E+03 -0.33239333141E+03  0.45612755195E+03  0.00000000000E+00 0.  1.
<mgrwt>
<rscale>  0 0.18862991E+04</rscale>
<asrwt>0</asrwt>
<pdfrwt beam="1">  1        2 0.33659526E+00 0.18862991E+04</pdfrwt>
<pdfrwt beam="2">  1       -2 0.62549867E-01 0.18862991E+04</pdfrwt>
<totfact> 0.11660756E+01</totfact>
</mgrwt>
</event>
<event>
 6    1  0.2003386E-005  0.1702753E+04  0.7818608E-02  0.8759796E-01
          2   -1    0    0  501    0  0.00000000000E+00  0.00000000000E+00  0.36017046483E+03  0.36017046483E+03  0.00000000000E+00 0. -1.
         -2   -1    0    0    0  501 -0.00000000000E+00 -0.00000000000E+00 -0.20124966482E+04  0.20124966482E+04  0.00000000000E+00 0.  1.
         23    2    1    2    0    0  0.61605830616E+03  0.38326067373E+03 -0.21389987439E+03  0.76161564675E+03  0.88818108990E+02 0.  0.
         13    1    3    3    0    0  0.21367148854E+03  0.11242561788E+03 -0.11119485301E+03  0.26581820838E+03  0.00000000000E+00 0.  1.
        -13    1    3    3    0    0  0.40238681762E+03  0.27083505585E+03 -0.10270502138E+03  0.49579743836E+03  0.00000000000E+00 0. -1.
         22    1    1    2    0    0 -0.61605830616E+03 -0.38326067373E+03 -0.14384263089E+04  0.16110514662E+04  0.00000000000E+00 0.  1.
<mgrwt>
<rscale>  0 0.17027529E+04</rscale>
<asrwt>0</asrwt>
<pdfrwt beam="1">  1        2 0.55410842E-01 0.17027529E+04</pdfrwt>
<pdfrwt beam="2">  1       -2 0.30961486E+00 0.17027529E+04</pdfrwt>
<totfact> 0.23685074E+00</totfact>
</mgrwt>
</event>
<event>
 6    1  0.2003386E-005  0.2536115E+04  0.7818608E-02  0.8390231E-01
          2   -1    0    0  501    0  0.00000000000E+00  0.00000000000E+00  0.38911116970E+04  0.38911116970E+04  0.00000000000E+00 0.  1.
         -2   -1    0    0    0  501 -0.00000000000E+00 -0.00000000000E+00 -0.41324189573E+03  0.41324189573E+03  0.00000000000E+00 0. -1.
         23    2    1    2    0    0  0.47336178879E+03  0.42351233651E+03  0.36005667783E+04  0.36574466207E+04  0.96956569020E+02 0.  0.
         13    1    3    3    0    0  0.36005873566E+03  0.33071534442E+03  0.29796614929E+04  0.30195028638E+04  0.00000000000E+00 0. -1.
        -13    1    3    3    0    0  0.11330305313E+03  0.92796992087E+02  0.62090528536E+03  0.63794375690E+03  0.00000000000E+00 0.  1.
         22    1    1    2    0    0 -0.47336178879E+03 -0.42351233651E+03 -0.12269697702E+03  0.64690697201E+03  0.00000000000E+00 0. -1.
<mgrwt>
<rscale>  0 0.25361154E+04</rscale>
<asrwt>0</asrwt>
<pdfrwt beam="1">  1        2 0.59863255E+00 0.25361154E+04</pdfrwt>
<pdfrwt beam="2">  1       -2 0.63575679E-01 0.25361154E+04</pdfrwt>
<totfact> 0.85261861E-01</totfact>
</mgrwt>
</event>
<event>
 6    1  0.2003386E-005  0.4077128E+04  0.7818608E-02  0.7989166E-01
          2   -1    0    0  501    0  0.00000000000E+00  0.00000000000E+00  0.28670571650E+04  0.28670571650E+04  0.00000000000E+00 0. -1.
         -2   -1    0    0    0  501 -0.00000000000E+00 -0.00000000000E+00 -0.14494804203E+04  0.14494804203E+04  0.00000000000E+00 0.  1.
         23    2    1    2    0    0  0.13278032062E+04 -0.17778246890E+02 -0.92706130093E+03  0.16219680492E+04  0.89220381608E+02 0.  0.
         11    1    3    3    0    0  0.10159605966E+04  0.23737943726E+02 -0.70013173695E+03  0.12340680179E+04  0.00000000000E+00 0. -1.
        -11    1    3    3    0    0  0.31184260957E+03 -0.41516190616E+02 -0.22692956398E+03  0.38790003124E+03  0.00000000000E+00 0.  1.
         22    1    1    2    0    0 -0.13278032062E+04  0.17778246890E+02  0.23446380456E+04  0.26945695361E+04  0.00000000000E+00 0. -1.
<mgrwt>
<rscale>  0 0.40771280E+04</rscale>
<asrwt>0</asrwt>
<pdfrwt beam="1">  1        2 0.44108572E+00 0.40771280E+04</pdfrwt>
<pdfrwt beam="2">  1       -2 0.22299699E+00 0.40771280E+04</pdfrwt>
<totfact> 0.15607665E-01</totfact>
</mgrwt>
</event>
<event>
 6    1  0.2003386E-005  0.3923660E+04  0.7818608E-02  0.8020126E-01
         -2   -1    0    0    0  501 -0.00000000000E+00  0.00000000000E+00  0.14066173327E+04  0.14066173327E+04  0.00000000000E+00 0.  1.
          2   -1    0    0  501    0  0.00000000000E+00 -0.00000000000E+00 -0.27361928325E+04  0.27361928325E+04  0.00000000000E+00 0. -1.
         23    2    1    2    0    0 -0.73399705906E+03 -0.20321629884E+03 -0.25728886824E+04  0.26847716826E+04  0.90522200137E+02 0.  0.
         11    1    3    3    0    0 -0.24355391615E+03 -0.49957682505E+02 -0.70777730115E+03  0.75017530493E+03  0.00000000000E+00 0. -1.
        -11    1    3    3    0    0 -0.49044314291E+03 -0.15325861633E+03 -0.18651113812E+04  0.19345963776E+04  0.00000000000E+00 0.  1.
         22    1    1    2    0    0  0.73399705906E+03  0.20321629884E+03  0.12433131826E+04  0.14580384826E+04  0.00000000000E+00 0.  1.
<mgrwt>
<rscale>  0 0.39236597E+04</rscale>
<asrwt>0</asrwt>
<pdfrwt beam="1">  1        2 0.42095274E+00 0.39236597E+04</pdfrwt>
<pdfrwt beam="2">  1       -2 0.21640267E+00 0.39236597E+04</pdfrwt>
<totfact> 0.20887471E-01</totfact>
</mgrwt>
</event>
<event>
 6    1  0.2003386E-005  0.1981875E+04  0.7818608E-02  0.8615142E-01
         -2   -1    0    0    0  501 -0.00000000000E+00  0.00000000000E+00  0.83300693901E+03  0.83300693901E+03  0.00000000000E+00 0.  1.
          2   -1    0    0  501    0  0.00000000000E+00 -0.00000000000E+00 -0.11788097948E+04  0.11788097948E+04  0.00000000000E+00 0. -1.
         23    2    1    2    0    0 -0.54191519192E+03  0.65417154166E+02  0.66371528898E+03  0.86417638776E+03  0.91276311526E+02 0.  0.
         11    1    3    3    0    0 -0.28972793397E+03 -0.88046854399E+01  0.36946432475E+03  0.46959949475E+03  0.00000000000E+00 0. -1.
        -11    1    3    3    0    0 -0.25218725795E+03  0.74221839606E+02  0.29425096423E+03  0.39457689301E+03  0.00000000000E+00 0.  1.
         22    1    1    2    0    0  0.54191519192E+03 -0.65417154166E+02 -0.10095181448E+04  0.11476403461E+04  0.00000000000E+00 0. -1.
<mgrwt>
<rscale>  0 0.19818746E+04</rscale>
<asrwt>0</asrwt>
<pdfrwt beam="1">  1        2 0.18135535E+00 0.19818746E+04</pdfrwt>
<pdfrwt beam="2">  1       -2 0.12815491E+00 0.19818746E+04</pdfrwt>
<totfact> 0.81725934E+00</totfact>
</mgrwt>
</event>
<event>
 6    1  0.2003386E-005  0.1658128E+04  0.7818608E-02  0.8785613E-01
         -2   -1    0    0    0  501 -0.00000000000E+00  0.00000000000E+00  0.28163416226E+03  0.28163416226E+03  0.00000000000E+00 0.  1.
          2   -1    0    0  501    0  0.00000000000E+00 -0.00000000000E+00 -0.24405667666E+04  0.24405667666E+04  0.00000000000E+00 0. -1.
         23    2    1    2    0    0  0.84933581696E+02 -0.75959258566E+03 -0.56632788675E+03  0.95568333880E+03  0.91699287178E+02 0.  0.
         11    1    3    3    0    0  0.34622969186E+02 -0.61628606624E+03 -0.43834172871E+03  0.75706719422E+03  0.00000000000E+00 0.  1.
        -11    1    3    3    0    0  0.50310612510E+02 -0.14330651941E+03 -0.12798615804E+03  0.19861614458E+03  0.00000000000E+00 0. -1.
         22    1    1    2    0    0 -0.84933581696E+02  0.75959258566E+03 -0.15926047176E+04  0.17665175901E+04  0.00000000000E+00 0. -1.
<mgrwt>
<rscale>  0 0.16581278E+04</rscale>
<asrwt>0</asrwt>
<pdfrwt beam="1">  1        2 0.37547181E+00 0.16581278E+04</pdfrwt>
<pdfrwt beam="2">  1       -2 0.43328333E-01 0.16581278E+04</pdfrwt>
<totfact> 0.18194884E+01</totfact>
</mgrwt>
</event>
<event>
 6    1  0.2003386E-005  0.2738236E+04  0.7818608E-02  0.8322704E-01
         -2   -1    0    0    0  501 -0.00000000000E+00  0.00000000000E+00  0.22621523241E+04  0.22621523241E+04  0.00000000000E+00 0.  1.
          2   -1    0    0  501    0  0.00000000000E+00 -0.00000000000E+00 -0.82862888613E+03  0.82862888613E+03  0.00000000000E+00 0. -1.
         23    2    1    2    0    0 -0.31972660284E+03 -0.63004489458E+03  0.20393937728E+04  0.21600500287E+04  0.86645807395E+02 0.  0.
         13    1    3    3    0    0 -0.20630647384E+03 -0.48962630960E+03  0.15200526820E+04  0.16102349022E+04  0.00000000000E+00 0. -1.
        -13    1    3    3    0    0 -0.11342012900E+03 -0.14041858498E+03  0.51934109085E+03  0.54981512649E+03  0.00000000000E+00 0.  1.
         22    1    1    2    0    0  0.31972660284E+03  0.63004489458E+03 -0.60587033483E+03  0.93073118159E+03  0.00000000000E+00 0. -1.
<mgrwt>
<rscale>  0 0.27382365E+04</rscale>
<asrwt>0</asrwt>
<pdfrwt beam="1">  1        2 0.12748137E+00 0.27382365E+04</pdfrwt>
<pdfrwt beam="2">  1       -2 0.34802343E+00 0.27382365E+04</pdfrwt>
<totfact> 0.46010599E-01</totfact>
</mgrwt>
</event>
<event>
 6    1  0.2003386E-005  0.1732625E+04  0.7818608E-02  0.8742973E-01
         -2   -1    0    0    0  501 -0.00000000000E+00  0.00000000000E+00  0.62230693781E+03  0.62230693781E+03  0.00000000000E+00 0.  1.
          2   -1    0    0  501    0  0.00000000000E+00 -0.00000000000E+00 -0.12059928676E+04  0.12059928676E+04  0.00000000000E+00 0. -1.
         23    2    1    2    0    0 -0.10502889875E+03 -0.84640721299E+03 -0.15031474521E+03  0.87161447394E+03  0.98392219056E+02 0.  0.
         13    1    3    3    0    0 -0.11301788654E+03 -0.66028274027E+03 -0.14413476912E+03  0.68521614943E+03  0.00000000000E+00 0. -1.
        -13    1    3    3    0    0  0.79889877964E+01 -0.18612447272E+03 -0.61799760848E+01  0.18639832450E+03  0.00000000000E+00 0.  1.
         22    1    1    2    0    0  0.10502889875E+03  0.84640721299E+03 -0.43337118454E+03  0.95668533143E+03  0.00000000000E+00 0. -1.
<mgrwt>
<rscale>  0 0.17326254E+04</rscale>
<asrwt>0</asrwt>
<pdfrwt beam="1">  1        2 0.18553736E+00 0.17326254E+04</pdfrwt>
<pdfrwt beam="2">  1       -2 0.95739530E-01 0.17326254E+04</pdfrwt>
<totfact> 0.16320864E+01</totfact>
</mgrwt>
</event>
<event>
 6    1  0.2003386E-005  0.1372697E+04  0.7818608E-02  0.8973823E-01
          1   -1    0    0  501    0  0.00000000000E+00  0.00000000000E+00  0.10128261008E+04  0.10128261008E+04  0.00000000000E+00 0. -1.
         -1   -1    0    0    0  501 -0.00000000000E+00 -0.00000000000E+00 -0.46510864835E+03  0.46510864835E+03  0.00000000000E+00 0.  1.
         23    2    1    2    0    0  0.61184527426E+03  0.30228083156E+03  0.23778429878E+03  0.72841029960E+03  0.91169353715E+02 0.  0.
         13    1    3    3    0    0  0.12012140712E+03  0.62691344603E+02  0.86990797452E+02  0.16101787472E+03  0.00000000000E+00 0. -1.
        -13    1    3    3    0    0  0.49172386714E+03  0.23958948695E+03  0.15079350133E+03  0.56739242488E+03  0.00000000000E+00 0.  1.
         22    1    1    2    0    0 -0.61184527426E+03 -0.30228083156E+03  0.30993315371E+03  0.74952444959E+03  0.00000000000E+00 0.  1.
<mgrwt>
<rscale>  0 0.13726969E+04</rscale>
<asrwt>0</asrwt>
<pdfrwt beam="1">  1        1 0.15581940E+00 0.13726969E+04</pdfrwt>
<pdfrwt beam="2">  1       -1 0.71555177E-01 0.13726969E+04</pdfrwt>
<totfact> 0.28492957E+01</totfact>
</mgrwt>
</event>
<event>
 6    1  0.2003386E-005  0.1269321E+04  0.7818608E-02  0.9054254E-01
          2   -1    0    0  501    0  0.00000000000E+00  0.00000000000E+00  0.26079433039E+04  0.26079433039E+04  0.00000000000E+00 0. -1.
         -2   -1    0    0    0  501 -0.00000000000E+00 -0.00000000000E+00 -0.15444891121E+03  0.15444891121E+03  0.00000000000E+00 0.  1.
         23    2    1    2    0    0 -0.51625227014E+03 -0.28137989945E+03  0.17333159354E+04  0.18326890019E+04  0.93133193375E+02 0.  0.
         11    1    3    3    0    0 -0.26225340106E+03 -0.13735181415E+03  0.72992361468E+03  0.78767433021E+03  0.00000000000E+00 0. -1.
        -11    1    3    3    0    0 -0.25399886908E+03 -0.14402808530E+03  0.10033923207E+04  0.10450146717E+04  0.00000000000E+00 0.  1.
         22    1    1    2    0    0  0.51625227014E+03  0.28137989945E+03  0.72017845734E+03  0.92970321321E+03  0.00000000000E+00 0.  1.
<mgrwt>
<rscale>  0 0.12693211E+04</rscale>
<asrwt>0</asrwt>
<pdfrwt beam="1">  1        2 0.40122201E+00 0.12693211E+04</pdfrwt>
<pdfrwt beam="2">  1       -2 0.23761373E-01 0.12693211E+04</pdfrwt>
<totfact> 0.46810429E+01</totfact>
</mgrwt>
</event>
<event>
 6    1  0.2003386E-005  0.1806780E+04  0.7818608E-02  0.8702702E-01
         -1   -1    0    0    0  501 -0.00000000000E+00  0.00000000000E+00  0.13730059585E+04  0.13730059585E+04  0.00000000000E+00 0.  1.
          1   -1    0    0  501    0  0.00000000000E+00 -0.00000000000E+00 -0.59439919047E+03  0.59439919047E+03  0.00000000000E+00 0. -1.
         23    2    1    2    0    0 -0.43137047463E+03 -0.75509790712E+03  0.13282429552E+03  0.88422079830E+03  0.89167207783E+02 0.  0.
         13    1    3    3    0    0 -0.22409921617E+03 -0.39940185576E+03  0.25021091064E+02  0.45865930283E+03  0.00000000000E+00 0.  1.
        -13    1    3    3    0    0 -0.20727125846E+03 -0.35569605136E+03  0.10780320445E+03  0.42556149547E+03  0.00000000000E+00 0. -1.
         22    1    1    2    0    0  0.43137047463E+03  0.75509790712E+03  0.64578247249E+03  0.10831843507E+04  0.00000000000E+00 0. -1.
<mgrwt>
<rscale>  0 0.18067802E+04</rscale>
<asrwt>0</asrwt>
<pdfrwt beam="1">  1        1 0.91446029E-01 0.18067802E+04</pdfrwt>
<pdfrwt beam="2">  1       -1 0.21123169E+00 0.18067802E+04</pdfrwt>
<totfact> 0.41279696E+00</totfact>
</mgrwt>
</event>
<event>
 6    1  0.2003386E-005  0.1006769E+04  0.7818608E-02  0.9301152E-01
          1   -1    0    0  501    0  0.00000000000E+00  0.00000000000E+00  0.10269499399E+04  0.10269499399E+04  0.00000000000E+00 0. -1.
         -1   -1    0    0    0  501 -0.00000000000E+00 -0.00000000000E+00 -0.24674591777E+03  0.24674591777E+03  0.00000000000E+00 0.  1.
         23    2    1    2    0    0  0.12728571255E+03 -0.13326486191E+03  0.98003633272E+03  0.10018611130E+04  0.96401764970E+02 0.  0.
         11    1    3    3    0    0  0.50405474637E+02 -0.42507374378E+02  0.15713816644E+03  0.17041124406E+03  0.00000000000E+00 0. -1.
        -11    1    3    3    0    0  0.76880237913E+02 -0.90757487528E+02  0.82289816629E+03  0.83144986896E+03  0.00000000000E+00 0.  1.
         22    1    1    2    0    0 -0.12728571255E+03  0.13326486191E+03 -0.19983231060E+03  0.27183474464E+03  0.00000000000E+00 0.  1.
<mgrwt>
<rscale>  0 0.10067685E+04</rscale>
<asrwt>0</asrwt>
<pdfrwt beam="1">  1        1 0.15799230E+00 0.10067685E+04</pdfrwt>
<pdfrwt beam="2">  1       -1 0.37960911E-01 0.10067685E+04</pdfrwt>
<totfact> 0.96728595E+01</totfact>
</mgrwt>
</event>
<event>
 6    1  0.2003386E-005  0.4225363E+04  0.7818608E-02  0.7960565E-01
         -2   -1    0    0    0  501 -0.00000000000E+00  0.00000000000E+00  0.20901356968E+04  0.20901356968E+04  0.00000000000E+00 0.  1.
          2   -1    0    0  501    0  0.00000000000E+00 -0.00000000000E+00 -0.21354705572E+04  0.21354705572E+04  0.00000000000E+00 0. -1.
         23    2    1    2    0    0  0.18132587771E+03  0.51308074305E+03  0.20174735490E+04  0.20922264339E+04  0.10526636306E+03 0.  0.
         11    1    3    3    0    0  0.17877609875E+03  0.38445182096E+03  0.14768716026E+04  0.15365265460E+04  0.00000000000E+00 0.  1.
        -11    1    3    3    0    0  0.25497789579E+01  0.12862892209E+03  0.54060194639E+03  0.55569988790E+03  0.00000000000E+00 0. -1.
         22    1    1    2    0    0 -0.18132587771E+03 -0.51308074305E+03 -0.20628084094E+04  0.21333798200E+04  0.00000000000E+00 0. -1.
<mgrwt>
<rscale>  0 0.42253631E+04</rscale>
<asrwt>0</asrwt>
<pdfrwt beam="1">  1        2 0.32853393E+00 0.42253631E+04</pdfrwt>
<pdfrwt beam="2">  1       -2 0.32155934E+00 0.42253631E+04</pdfrwt>
<totfact> 0.10183247E-01</totfact>
</mgrwt>
</event>
<event>
 6    1  0.2003386E-005  0.2176347E+04  0.7818608E-02  0.8528338E-01
         -2   -1    0    0    0  501 -0.00000000000E+00  0.00000000000E+00  0.47657882250E+03  0.47657882250E+03  0.00000000000E+00 0.  1.
          2   -1    0    0  501    0  0.00000000000E+00 -0.00000000000E+00 -0.24846290382E+04  0.24846290382E+04  0.00000000000E+00 0. -1.
         23    2    1    2    0    0  0.37934792813E+03  0.55331750884E+03 -0.21681720235E+04  0.22714947975E+04  0.93024594968E+02 0.  0.
         13    1    3    3    0    0  0.12853329702E+03  0.26504306532E+03 -0.89629862095E+03  0.94346163294E+03  0.00000000000E+00 0.  1.
        -13    1    3    3    0    0  0.25081463111E+03  0.28827444352E+03 -0.12718734026E+04  0.13280331646E+04  0.00000000000E+00 0. -1.
         22    1    1    2    0    0 -0.37934792813E+03 -0.55331750884E+03  0.16012180787E+03  0.68971306318E+03  0.00000000000E+00 0.  1.
<mgrwt>
<rscale>  0 0.21763470E+04</rscale>
<asrwt>0</asrwt>
<pdfrwt beam="1">  1        2 0.38225062E+00 0.21763470E+04</pdfrwt>
<pdfrwt beam="2">  1       -2 0.73319819E-01 0.21763470E+04</pdfrwt>
<totfact> 0.54642218E+00</totfact>
</mgrwt>
</event>
<event>
 6    1  0.2003386E-005  0.2808580E+04  0.7818608E-02  0.8300609E-01
          2   -1    0    0  501    0  0.00000000000E+00  0.00000000000E+00  0.15866776062E+04  0.15866776062E+04  0.00000000000E+00 0.  1.
         -2   -1    0    0    0  501 -0.00000000000E+00 -0.00000000000E+00 -0.12428680988E+04  0.12428680988E+04  0.00000000000E+00 0. -1.
         23    2    1    2    0    0 -0.57569329187E+03 -0.12778487213E+04  0.11584630010E+03  0.14095853729E+04  0.95866770240E+02 0.  0.
         13    1    3    3    0    0 -0.45971861958E+03 -0.10458751996E+04  0.13015588492E+03  0.11498420312E+04  0.00000000000E+00 0.  1.
        -13    1    3    3    0    0 -0.11597467230E+03 -0.23197352169E+03 -0.14309584814E+02  0.25974334177E+03  0.00000000000E+00 0. -1.
         22    1    1    2    0    0  0.57569329187E+03  0.12778487213E+04  0.22796320735E+03  0.14199603321E+04  0.00000000000E+00 0. -1.
<mgrwt>
<rscale>  0 0.28085804E+04</rscale>
<asrwt>0</asrwt>
<pdfrwt beam="1">  1        2 0.24410425E+00 0.28085804E+04</pdfrwt>
<pdfrwt beam="2">  1       -2 0.19121048E+00 0.28085804E+04</pdfrwt>
<totfact> 0.15009964E+00</totfact>
</mgrwt>
</event>
<event>
 6    1  0.2003386E-005  0.1536879E+04  0.7818608E-02  0.8860293E-01
          2   -1    0    0  501    0  0.00000000000E+00  0.00000000000E+00  0.13441034678E+04  0.13441034678E+04  0.00000000000E+00 0. -1.
         -2   -1    0    0    0  501 -0.00000000000E+00 -0.00000000000E+00 -0.43932571367E+03  0.43932571367E+03  0.00000000000E+00 0.  1.
         23    2    1    2    0    0 -0.38974442206E+03  0.33525786256E+02 -0.30952837822E+03  0.50766898615E+03  0.94314843514E+02 0.  0.
         13    1    3    3    0    0 -0.37914276154E+03  0.20157135090E+02 -0.31064999213E+03  0.49057003714E+03  0.00000000000E+00 0. -1.
        -13    1    3    3    0    0 -0.10601660514E+02  0.13368651166E+02  0.11216139091E+01  0.17098949015E+02  0.00000000000E+00 0.  1.
         22    1    1    2    0    0  0.38974442206E+03 -0.33525786256E+02  0.12143061323E+04  0.12757601953E+04  0.00000000000E+00 0. -1.
<mgrwt>
<rscale>  0 0.15368789E+04</rscale>
<asrwt>0</asrwt>
<pdfrwt beam="1">  1        2 0.20678515E+00 0.15368789E+04</pdfrwt>
<pdfrwt beam="2">  1       -2 0.67588572E-01 0.15368789E+04</pdfrwt>
<totfact> 0.30126927E+01</totfact>
</mgrwt>
</event>
<event>
 6    1  0.2003386E-005  0.2493979E+04  0.7818608E-02  0.8405134E-01
          2   -1    0    0  501    0  0.00000000000E+00  0.00000000000E+00  0.30876187314E+04  0.30876187314E+04  0.00000000000E+00 0. -1.
         -2   -1    0    0    0  501 -0.00000000000E+00 -0.00000000000E+00 -0.50361881079E+03  0.50361881079E+03  0.00000000000E+00 0.  1.
         23    2    1    2    0    0  0.45167937538E+03  0.93754017263E+03  0.22785910518E+04  0.25066775344E+04  0.91974161428E+02 0.  0.
         11    1    3    3    0    0  0.26612996313E+03  0.45936312588E+03  0.11061109673E+04  0.12269152826E+04  0.00000000000E+00 0.  1.
        -11    1    3    3    0    0  0.18554941226E+03  0.47817704676E+03  0.11724800846E+04  0.12797622518E+04  0.00000000000E+00 0. -1.
         22    1    1    2    0    0 -0.45167937538E+03 -0.93754017263E+03  0.30540886878E+03  0.10845600078E+04  0.00000000000E+00 0.  1.
<mgrwt>
<rscale>  0 0.24939790E+04</rscale>
<asrwt>0</asrwt>
<pdfrwt beam="1">  1        2 0.47501826E+00 0.24939790E+04</pdfrwt>
<pdfrwt beam="2">  1       -2 0.77479819E-01 0.24939790E+04</pdfrwt>
<totfact> 0.20316579E+00</totfact>
</mgrwt>
</event>
<event>
 6    1  0.2003386E-005  0.3084891E+04  0.7818608E-02  0.8219897E-01
          2   -1    0    0  501    0  0.00000000000E+00  0.00000000000E+00  0.41445718589E+04  0.41445718589E+04  0.00000000000E+00 0. -1.
         -2   -1    0    0    0  501 -0.00000000000E+00 -0.00000000000E+00 -0.57403731015E+03  0.57403731015E+03  0.00000000000E+00 0.  1.
         23    2    1    2    0    0  0.91367409297E+03  0.59915026676E+03  0.34494312599E+04  0.36193151243E+04  0.84169839106E+02 0.  0.
         13    1    3    3    0    0  0.19886014516E+03  0.17233156253E+03  0.80287920540E+03  0.84490149913E+03  0.00000000000E+00 0.  1.
        -13    1    3    3    0    0  0.71481394782E+03  0.42681870423E+03  0.26465520545E+04  0.27744136252E+04  0.00000000000E+00 0. -1.
         22    1    1    2    0    0 -0.91367409297E+03 -0.59915026676E+03  0.12110328887E+03  0.10992940448E+04  0.00000000000E+00 0.  1.
<mgrwt>
<rscale>  0 0.30848915E+04</rscale>
<asrwt>0</asrwt>
<pdfrwt beam="1">  1        2 0.63762642E+00 0.30848915E+04</pdfrwt>
<pdfrwt beam="2">  1       -2 0.88313435E-01 0.30848915E+04</pdfrwt>
<totfact> 0.24323035E-01</totfact>
</mgrwt>
</event>
<event>
 6    1  0.2003386E-005  0.1398230E+04  0.7818608E-02  0.8955101E-01
          2   -1    0    0  501    0  0.00000000000E+00  0.00000000000E+00  0.28258789435E+03  0.28258789435E+03  0.00000000000E+00 0. -1.
         -2   -1    0    0    0  501 -0.00000000000E+00 -0.00000000000E+00 -0.17295925091E+04  0.17295925091E+04  0.00000000000E+00 0.  1.
         23    2    1    2    0    0 -0.66935015257E+02  0.47354802793E+03 -0.42087097210E+01  0.49218433287E+03  0.11618809431E+03 0.  0.
         13    1    3    3    0    0 -0.13538048322E+02  0.30505643459E+03  0.45137931151E+02  0.30867481249E+03  0.00000000000E+00 0.  1.
        -13    1    3    3    0    0 -0.53396966935E+02  0.16849159334E+03 -0.49346640872E+02  0.18350952038E+03  0.00000000000E+00 0. -1.
         22    1    1    2    0    0  0.66935015257E+02 -0.47354802793E+03 -0.14427959050E+04  0.15199960705E+04  0.00000000000E+00 0.  1.
<mgrwt>
<rscale>  0 0.13982302E+04</rscale>
<asrwt>0</asrwt>
<pdfrwt beam="1">  1        2 0.43475061E-01 0.13982302E+04</pdfrwt>
<pdfrwt beam="2">  1       -2 0.26609115E+00 0.13982302E+04</pdfrwt>
<totfact> 0.58633506E+00</totfact>
</mgrwt>
</event>
<event>
 6    1  0.2003386E-005  0.3287267E+04  0.7818608E-02  0.8166143E-01
          2   -1    0    0  501    0  0.00000000000E+00  0.00000000000E+00  0.20207768319E+04  0.20207768319E+04  0.00000000000E+00 0. -1.
         -2   -1    0    0    0  501 -0.00000000000E+00 -0.00000000000E+00 -0.13368776192E+04  0.13368776192E+04  0.00000000000E+00 0.  1.
         23    2    1    2    0    0  0.44941138882E+03  0.86124614746E+03 -0.10101341002E+04  0.14048450931E+04  0.97484934085E+02 0.  0.
         11    1    3    3    0    0  0.34286357943E+03  0.70377490537E+03 -0.85682472923E+03  0.11606046563E+04  0.00000000000E+00 0. -1.
        -11    1    3    3    0    0  0.10654780939E+03  0.15747124210E+03 -0.15330937101E+03  0.24424043689E+03  0.00000000000E+00 0.  1.
         22    1    1    2    0    0 -0.44941138882E+03 -0.86124614746E+03  0.16940333130E+04  0.19528093580E+04  0.00000000000E+00 0. -1.
<mgrwt>
<rscale>  0 0.32872671E+04</rscale>
<asrwt>0</asrwt>
<pdfrwt beam="1">  1        2 0.31088874E+00 0.32872671E+04</pdfrwt>
<pdfrwt beam="2">  1       -2 0.20567348E+00 0.32872671E+04</pdfrwt>
<totfact> 0.66429481E-01</totfact>
</mgrwt>
</event>
<event>
 6    1  0.2003386E-005  0.1838337E+04  0.7818608E-02  0.8686174E-01
         -2   -1    0    0    0  501 -0.00000000000E+00  0.00000000000E+00  0.35761920389E+03  0.35761920389E+03  0.00000000000E+00 0.  1.
          2   -1    0    0  501    0  0.00000000000E+00 -0.00000000000E+00 -0.23624869094E+04  0.23624869094E+04  0.00000000000E+00 0. -1.
         23    2    1    2    0    0  0.62566572575E+03  0.64411577832E+03 -0.72984140601E+03  0.11606078604E+04  0.89439317424E+02 0.  0.
         13    1    3    3    0    0  0.60103589444E+02  0.66921375115E+02 -0.41391302383E+02  0.99015917025E+02  0.00000000000E+00 0. -1.
        -13    1    3    3    0    0  0.56556213631E+03  0.57719440321E+03 -0.68845010362E+03  0.10615919434E+04  0.00000000000E+00 0.  1.
         22    1    1    2    0    0 -0.62566572575E+03 -0.64411577832E+03 -0.12750262995E+04  0.15594982528E+04  0.00000000000E+00 0. -1.
<mgrwt>
<rscale>  0 0.18383370E+04</rscale>
<asrwt>0</asrwt>
<pdfrwt beam="1">  1        2 0.36345951E+00 0.18383370E+04</pdfrwt>
<pdfrwt beam="2">  1       -2 0.55018341E-01 0.18383370E+04</pdfrwt>
<totfact> 0.12220976E+01</totfact>
</mgrwt>
</event>
<event>
 6    1  0.2003386E-005  0.3067974E+04  0.7818608E-02  0.8224583E-01
          2   -1    0    0  501    0  0.00000000000E+00  0.00000000000E+00  0.32654382525E+04  0.32654382525E+04  0.00000000000E+00 0.  1.
         -2   -1    0    0    0  501 -0.00000000000E+00 -0.00000000000E+00 -0.72061253728E+03  0.72061253728E+03  0.00000000000E+00 0. -1.
         23    2    1    2    0    0  0.45582288405E+02  0.13022110391E+04  0.23218338111E+04  0.26640989280E+04  0.93163922942E+02 0.  0.
         13    1    3    3    0    0  0.33444155666E+02  0.28486458912E+03  0.45017653407E+03  0.53378390526E+03  0.00000000000E+00 0. -1.
        -13    1    3    3    0    0  0.12138132739E+02  0.10173464500E+04  0.18716572770E+04  0.21303150228E+04  0.00000000000E+00 0.  1.
         22    1    1    2    0    0 -0.45582288405E+02 -0.13022110391E+04  0.22299190408E+03  0.13219518617E+04  0.00000000000E+00 0. -1.
<mgrwt>
<rscale>  0 0.30679738E+04</rscale>
<asrwt>0</asrwt>
<pdfrwt beam="1">  1        2 0.50237511E+00 0.30679738E+04</pdfrwt>
<pdfrwt beam="2">  1       -2 0.11086347E+00 0.30679738E+04</pdfrwt>
<totfact> 0.64393697E-01</totfact>
</mgrwt>
</event>
<event>
 6    1  0.2003386E-005  0.2880181E+04  0.7818608E-02  0.8278799E-01
         -4   -1    0    0    0  501 -0.00000000000E+00  0.00000000000E+00  0.18592236107E+04  0.18592236107E+04  0.00000000000E+00 0. -1.
          4   -1    0    0  501    0  0.00000000000E+00 -0.00000000000E+00 -0.11154447542E+04  0.11154447542E+04  0.00000000000E+00 0.  1.
         23    2    1    2    0    0 -0.87252268114E+03  0.80794486730E+03 -0.46390215480E+03  0.12798043106E+04  0.92860790359E+02 0.  0.
         13    1    3    3    0    0 -0.52536350047E+03  0.44923031852E+03 -0.30868816768E+03  0.75703571354E+03  0.00000000000E+00 0. -1.
        -13    1    3    3    0    0 -0.34715918067E+03  0.35871454879E+03 -0.15521398712E+03  0.52276859702E+03  0.00000000000E+00 0.  1.
         22    1    1    2    0    0  0.87252268114E+03 -0.80794486730E+03  0.12076810113E+04  0.16948640543E+04  0.00000000000E+00 0. -1.
<mgrwt>
<rscale>  0 0.28801814E+04</rscale>
<asrwt>0</asrwt>
<pdfrwt beam="1">  1        4 0.17160689E+00 0.28801814E+04</pdfrwt>
<pdfrwt beam="2">  1       -4 0.28603440E+00 0.28801814E+04</pdfrwt>
<totfact> 0.13355561E-02</totfact>
</mgrwt>
</event>
<event>
 6    1  0.2003386E-005  0.2147276E+04  0.7818608E-02  0.8540699E-01
          2   -1    0    0  501    0  0.00000000000E+00  0.00000000000E+00  0.27518551047E+04  0.27518551047E+04  0.00000000000E+00 0. -1.
         -2   -1    0    0    0  501 -0.00000000000E+00 -0.00000000000E+00 -0.41888061105E+03  0.41888061105E+03  0.00000000000E+00 0.  1.
         23    2    1    2    0    0  0.44072890888E+03 -0.77346682057E+03  0.28746270503E+03  0.93990372498E+03  0.91056640664E+02 0.  0.
         13    1    3    3    0    0  0.15884346698E+03 -0.36406178765E+03  0.11065144676E+03  0.41232993451E+03  0.00000000000E+00 0. -1.
        -13    1    3    3    0    0  0.28188544190E+03 -0.40940503292E+03  0.17681125827E+03  0.52757379047E+03  0.00000000000E+00 0.  1.
         22    1    1    2    0    0 -0.44072890888E+03  0.77346682057E+03  0.20455117886E+04  0.22308319908E+04  0.00000000000E+00 0. -1.
<mgrwt>
<rscale>  0 0.21472762E+04</rscale>
<asrwt>0</asrwt>
<pdfrwt beam="1">  1        2 0.42336231E+00 0.21472762E+04</pdfrwt>
<pdfrwt beam="2">  1       -2 0.64443173E-01 0.21472762E+04</pdfrwt>
<totfact> 0.50511152E+00</totfact>
</mgrwt>
</event>
<event>
 6    1  0.2003386E-005  0.3499148E+04  0.7818608E-02  0.8113992E-01
          2   -1    0    0  501    0  0.00000000000E+00  0.00000000000E+00  0.22298700755E+04  0.22298700755E+04  0.00000000000E+00 0. -1.
         -2   -1    0    0    0  501 -0.00000000000E+00 -0.00000000000E+00 -0.13727299078E+04  0.13727299078E+04  0.00000000000E+00 0.  1.
         23    2    1    2    0    0  0.16446402397E+04 -0.58741705824E+03  0.34075462302E+03  0.17814590362E+04  0.87076209728E+02 0.  0.
         13    1    3    3    0    0  0.13099345903E+04 -0.46192261499E+03  0.23540851786E+03  0.14088003064E+04  0.00000000000E+00 0.  1.
        -13    1    3    3    0    0  0.33470564941E+03 -0.12549444325E+03  0.10534610516E+03  0.37265872981E+03  0.00000000000E+00 0. -1.
         22    1    1    2    0    0 -0.16446402397E+04  0.58741705824E+03  0.51638554465E+03  0.18211409470E+04  0.00000000000E+00 0.  1.
<mgrwt>
<rscale>  0 0.34991481E+04</rscale>
<asrwt>0</asrwt>
<pdfrwt beam="1">  1        2 0.34305693E+00 0.34991481E+04</pdfrwt>
<pdfrwt beam="2">  1       -2 0.21118922E+00 0.34991481E+04</pdfrwt>
<totfact> 0.45928117E-01</totfact>
</mgrwt>
</event>
<event>
 6    1  0.2003386E-005  0.7350445E+03  0.7818608E-02  0.9659110E-01
         -2   -1    0    0    0  501 -0.00000000000E+00  0.00000000000E+00  0.11679255613E+03  0.11679255613E+03  0.00000000000E+00 0.  1.
          2   -1    0    0  501    0  0.00000000000E+00 -0.00000000000E+00 -0.11565172293E+04  0.11565172293E+04  0.00000000000E+00 0. -1.
         23    2    1    2    0    0  0.33625849992E+03 -0.10632261477E+03 -0.66929345224E+03  0.76184760050E+03  0.89909754717E+02 0.  0.
         13    1    3    3    0    0  0.59223439485E+02 -0.17931009071E+02 -0.57541047976E+02  0.84497982656E+02  0.00000000000E+00 0.  1.
        -13    1    3    3    0    0  0.27703506044E+03 -0.88391605701E+02 -0.61175240427E+03  0.67734961785E+03  0.00000000000E+00 0. -1.
         22    1    1    2    0    0 -0.33625849992E+03  0.10632261477E+03 -0.37043122093E+03  0.51146218494E+03  0.00000000000E+00 0.  1.
<mgrwt>
<rscale>  0 0.73504450E+03</rscale>
<asrwt>0</asrwt>
<pdfrwt beam="1">  1        2 0.17792573E+00 0.73504450E+03</pdfrwt>
<pdfrwt beam="2">  1       -2 0.17968086E-01 0.73504450E+03</pdfrwt>
<totfact> 0.52151134E+02</totfact>
</mgrwt>
</event>
<event>
 6    1  0.2003386E-005  0.1087320E+04  0.7818608E-02  0.9217639E-01
          2   -1    0    0  501    0  0.00000000000E+00  0.00000000000E+00  0.30566951939E+04  0.30566951939E+04  0.00000000000E+00 0. -1.
         -2   -1    0    0    0  501 -0.00000000000E+00 -0.00000000000E+00 -0.96694725624E+02  0.96694725624E+02  0.00000000000E+00 0.  1.
         23    2    1    2    0    0  0.56704524821E+02  0.48539848749E+03  0.82434620528E+03  0.96253478377E+03  0.89996938971E+02 0.  0.
         11    1    3    3    0    0 -0.22506756531E+02  0.11569084498E+03  0.22219399882E+03  0.25151759146E+03  0.00000000000E+00 0. -1.
        -11    1    3    3    0    0  0.79211281352E+02  0.36970764251E+03  0.60215220646E+03  0.71101719232E+03  0.00000000000E+00 0.  1.
         22    1    1    2    0    0 -0.56704524821E+02 -0.48539848749E+03  0.21356542630E+04  0.21908551357E+04  0.00000000000E+00 0.  1.
<mgrwt>
<rscale>  0 0.10873202E+04</rscale>
<asrwt>0</asrwt>
<pdfrwt beam="1">  1        2 0.47026072E+00 0.10873202E+04</pdfrwt>
<pdfrwt beam="2">  1       -2 0.14876114E-01 0.10873202E+04</pdfrwt>
<totfact> 0.57928297E+01</totfact>
</mgrwt>
</event>
<event>
 6    1  0.2003386E-005  0.1182873E+04  0.7818608E-02  0.9127981E-01
          2   -1    0    0  501    0  0.00000000000E+00  0.00000000000E+00  0.99287808770E+03  0.99287808770E+03  0.00000000000E+00 0. -1.
         -2   -1    0    0    0  501 -0.00000000000E+00 -0.00000000000E+00 -0.35230646148E+03  0.35230646148E+03  0.00000000000E+00 0.  1.
         23    2    1    2    0    0  0.48159780540E+02 -0.52752114111E+03  0.32993343768E+02  0.53911427427E+03  0.94645238688E+02 0.  0.
         11    1    3    3    0    0  0.68401152608E+02 -0.29582146195E+03  0.41072111641E+02  0.30639186246E+03  0.00000000000E+00 0. -1.
        -11    1    3    3    0    0 -0.20241372068E+02 -0.23169967917E+03 -0.80787678735E+01  0.23272241181E+03  0.00000000000E+00 0.  1.
         22    1    1    2    0    0 -0.48159780540E+02  0.52752114111E+03  0.60757828245E+03  0.80607027491E+03  0.00000000000E+00 0. -1.
<mgrwt>
<rscale>  0 0.11828734E+04</rscale>
<asrwt>0</asrwt>
<pdfrwt beam="1">  1        2 0.15275047E+00 0.11828734E+04</pdfrwt>
<pdfrwt beam="2">  1       -2 0.54200995E-01 0.11828734E+04</pdfrwt>
<totfact> 0.80591887E+01</totfact>
</mgrwt>
</event>
<event>
 6    1  0.2003386E-005  0.3800123E+04  0.7818608E-02  0.8046129E-01
         -2   -1    0    0    0  501 -0.00000000000E+00  0.00000000000E+00  0.29320744821E+04  0.29320744821E+04  0.00000000000E+00 0.  1.
          2   -1    0    0  501    0  0.00000000000E+00 -0.00000000000E+00 -0.12312896017E+04  0.12312896017E+04  0.00000000000E+00 0. -1.
         23    2    1    2    0    0  0.88465532634E+03 -0.28842857027E+03 -0.96254933431E+03  0.13421666029E+04  0.95414267467E+02 0.  0.
         11    1    3    3    0    0  0.25591089753E+03 -0.75000453583E+02 -0.33877046617E+03  0.43113905444E+03  0.00000000000E+00 0.  1.
        -11    1    3    3    0    0  0.62874442881E+03 -0.21342811669E+03 -0.62377886815E+03  0.91102754848E+03  0.00000000000E+00 0. -1.
         22    1    1    2    0    0 -0.88465532634E+03  0.28842857027E+03  0.26633342148E+04  0.28211974809E+04  0.00000000000E+00 0.  1.
<mgrwt>
<rscale>  0 0.38001225E+04</rscale>
<asrwt>0</asrwt>
<pdfrwt beam="1">  1        2 0.18942917E+00 0.38001225E+04</pdfrwt>
<pdfrwt beam="2">  1       -2 0.45108838E+00 0.38001225E+04</pdfrwt>
<totfact> 0.49642163E-02</totfact>
</mgrwt>
</event>
<event>
 6    1  0.2003386E-005  0.3020895E+04  0.7818608E-02  0.8237789E-01
         -2   -1    0    0    0  501 -0.00000000000E+00  0.00000000000E+00  0.86677602585E+03  0.86677602585E+03  0.00000000000E+00 0.  1.
          2   -1    0    0  501    0  0.00000000000E+00 -0.00000000000E+00 -0.26321116823E+04  0.26321116823E+04  0.00000000000E+00 0. -1.
         23    2    1    2    0    0 -0.82321272449E+03 -0.10295362582E+04 -0.17345191921E+04  0.21803378413E+04  0.87705060860E+02 0.  0.
         11    1    3    3    0    0 -0.19338880907E+03 -0.30336474521E+03 -0.48378144875E+03  0.60288795830E+03  0.00000000000E+00 0.  1.
        -11    1    3    3    0    0 -0.62982391542E+03 -0.72617151303E+03 -0.12507377434E+04  0.15774498830E+04  0.00000000000E+00 0. -1.
         22    1    1    2    0    0  0.82321272449E+03  0.10295362582E+04 -0.30816464310E+02  0.13185498668E+04  0.00000000000E+00 0.  1.
<mgrwt>
<rscale>  0 0.30208948E+04</rscale>
<asrwt>0</asrwt>
<pdfrwt beam="1">  1        2 0.40494025E+00 0.30208948E+04</pdfrwt>
<pdfrwt beam="2">  1       -2 0.13335016E+00 0.30208948E+04</pdfrwt>
<totfact> 0.10132635E+00</totfact>
</mgrwt>
</event>
<event>
 6    1  0.2003386E-005  0.2457229E+04  0.7818608E-02  0.8418383E-01
          2   -1    0    0  501    0  0.00000000000E+00  0.00000000000E+00  0.10195217172E+04  0.10195217172E+04  0.00000000000E+00 0. -1.
         -2   -1    0    0    0  501 -0.00000000000E+00 -0.00000000000E+00 -0.14805900428E+04  0.14805900428E+04  0.00000000000E+00 0.  1.
         23    2    1    2    0    0 -0.55964789318E+03  0.41893910039E+03 -0.12569068070E+04  0.14408315220E+04  0.86400342113E+02 0.  0.
         11    1    3    3    0    0 -0.23386613096E+03  0.12287408469E+03 -0.46840797222E+03  0.53777080280E+03  0.00000000000E+00 0. -1.
        -11    1    3    3    0    0 -0.32578176222E+03  0.29606501570E+03 -0.78849883473E+03  0.90306071916E+03  0.00000000000E+00 0.  1.
         22    1    1    2    0    0  0.55964789318E+03 -0.41893910039E+03  0.79583848137E+03  0.10592802380E+04  0.00000000000E+00 0. -1.
<mgrwt>
<rscale>  0 0.24572291E+04</rscale>
<asrwt>0</asrwt>
<pdfrwt beam="1">  1        2 0.15684950E+00 0.24572291E+04</pdfrwt>
<pdfrwt beam="2">  1       -2 0.22778308E+00 0.24572291E+04</pdfrwt>
<totfact> 0.19333420E+00</totfact>
</mgrwt>
</event>
<event>
 6    1  0.2003386E-005  0.3321158E+04  0.7818608E-02  0.8157532E-01
          1   -1    0    0  501    0  0.00000000000E+00  0.00000000000E+00  0.19449213284E+04  0.19449213284E+04  0.00000000000E+00 0. -1.
         -1   -1    0    0    0  501 -0.00000000000E+00 -0.00000000000E+00 -0.14178069252E+04  0.14178069252E+04  0.00000000000E+00 0.  1.
         23    2    1    2    0    0 -0.54786842721E+03  0.20518847200E+03  0.18359605861E+04  0.19290823932E+04  0.91353618743E+02 0.  0.
         13    1    3    3    0    0 -0.46546489025E+03  0.14129112140E+03  0.15598548518E+04  0.16339424420E+04  0.00000000000E+00 0. -1.
        -13    1    3    3    0    0 -0.82403536955E+02  0.63897350599E+02  0.27610573421E+03  0.29513995118E+03  0.00000000000E+00 0.  1.
         22    1    1    2    0    0  0.54786842721E+03 -0.20518847200E+03 -0.13088461829E+04  0.14336458604E+04  0.00000000000E+00 0.  1.
<mgrwt>
<rscale>  0 0.33211582E+04</rscale>
<asrwt>0</asrwt>
<pdfrwt beam="1">  1        1 0.29921867E+00 0.33211582E+04</pdfrwt>
<pdfrwt beam="2">  1       -1 0.21812414E+00 0.33211582E+04</pdfrwt>
<totfact> 0.30473709E-01</totfact>
</mgrwt>
</event>
<event>
 6    1  0.2003386E-005  0.8868752E+03  0.7818608E-02  0.9442138E-01
         -2   -1    0    0    0  501 -0.00000000000E+00  0.00000000000E+00  0.17854083429E+04  0.17854083429E+04  0.00000000000E+00 0.  1.
          2   -1    0    0  501    0  0.00000000000E+00 -0.00000000000E+00 -0.11013554147E+03  0.11013554147E+03  0.00000000000E+00 0. -1.
         23    2    1    2    0    0 -0.37208709668E+03 -0.19265356941E+03  0.11246944752E+04  0.12036618867E+04  0.91104718644E+02 0.  0.
         13    1    3    3    0    0 -0.91417615886E+01  0.30968462341E+01  0.79134536923E+02  0.79720995952E+02  0.00000000000E+00 0.  1.
        -13    1    3    3    0    0 -0.36294533510E+03 -0.19575041564E+03  0.10455599383E+04  0.11239408908E+04  0.00000000000E+00 0. -1.
         22    1    1    2    0    0  0.37208709668E+03  0.19265356941E+03  0.55057832627E+03  0.69188199766E+03  0.00000000000E+00 0.  1.
<mgrwt>
<rscale>  0 0.88687522E+03</rscale>
<asrwt>0</asrwt>
<pdfrwt beam="1">  1        2 0.16943931E-01 0.88687522E+03</pdfrwt>
<pdfrwt beam="2">  1       -2 0.27467819E+00 0.88687522E+03</pdfrwt>
<totfact> 0.16035697E+01</totfact>
</mgrwt>
</event>
<event>
 6    1  0.2003386E-005  0.1236705E+04  0.7818608E-02  0.9081322E-01
          2   -1    0    0  501    0  0.00000000000E+00  0.00000000000E+00  0.18305656988E+04  0.18305656988E+04  0.00000000000E+00 0. -1.
         -2   -1    0    0    0  501 -0.00000000000E+00 -0.00000000000E+00 -0.20887532417E+03  0.20887532417E+03  0.00000000000E+00 0.  1.
         23    2    1    2    0    0  0.12492311415E+03 -0.54917099814E+03  0.40694374461E+03  0.70048473362E+03  0.88775453308E+02 0.  0.
         13    1    3    3    0    0  0.51667054145E+02 -0.39624275417E+03  0.26655783811E+03  0.48034454902E+03  0.00000000000E+00 0. -1.
        -13    1    3    3    0    0  0.73256060008E+02 -0.15292824397E+03  0.14038590650E+03  0.22014018460E+03  0.00000000000E+00 0.  1.
         22    1    1    2    0    0 -0.12492311415E+03  0.54917099814E+03  0.12147466300E+04  0.13389562893E+04  0.00000000000E+00 0. -1.
<mgrwt>
<rscale>  0 0.12367053E+04</rscale>
<asrwt>0</asrwt>
<pdfrwt beam="1">  1        2 0.28162548E+00 0.12367053E+04</pdfrwt>
<pdfrwt beam="2">  1       -2 0.32134666E-01 0.12367053E+04</pdfrwt>
<totfact> 0.73637599E+01</totfact>
</mgrwt>
</event>
<event>
 6    1  0.2003386E-005  0.5034301E+04  0.7818608E-02  0.7823238E-01
         -2   -1    0    0    0  501 -0.00000000000E+00  0.00000000000E+00  0.20554301664E+04  0.20554301664E+04  0.00000000000E+00 0.  1.
          2   -1    0    0  501    0  0.00000000000E+00 -0.00000000000E+00 -0.30825895889E+04  0.30825895889E+04  0.00000000000E+00 0. -1.
         23    2    1    2    0    0  0.80021857790E+02  0.15050266806E+04 -0.25703062849E+04  0.29809821927E+04  0.90948491420E+02 0.  0.
         11    1    3    3    0    0  0.36980211856E+02  0.90850995769E+03 -0.16345451918E+04  0.18704266528E+04  0.00000000000E+00 0. -1.
        -11    1    3    3    0    0  0.43041645934E+02  0.59651672295E+03 -0.93576109310E+03  0.11105555400E+04  0.00000000000E+00 0.  1.
         22    1    1    2    0    0 -0.80021857790E+02 -0.15050266806E+04  0.15431468624E+04  0.21570375625E+04  0.00000000000E+00 0.  1.
<mgrwt>
<rscale>  0 0.50343014E+04</rscale>
<asrwt>0</asrwt>
<pdfrwt beam="1">  1        2 0.47424455E+00 0.50343014E+04</pdfrwt>
<pdfrwt beam="2">  1       -2 0.31622003E+00 0.50343014E+04</pdfrwt>
<totfact> 0.28302365E-02</totfact>
</mgrwt>
</event>
<event>
 6    1  0.2003386E-005  0.4650817E+04  0.7818608E-02  0.7884752E-01
         -2   -1    0    0    0  501 -0.00000000000E+00  0.00000000000E+00  0.17107288272E+04  0.17107288272E+04  0.00000000000E+00 0. -1.
          2   -1    0    0  501    0  0.00000000000E+00 -0.00000000000E+00 -0.31609484584E+04  0.31609484584E+04  0.00000000000E+00 0.  1.
         23    2    1    2    0    0 -0.20912900220E+04  0.10129318180E+04 -0.79392601886E+03  0.24570870244E+04  0.86216575106E+02 0.  0.
         11    1    3    3    0    0 -0.15082395260E+04  0.72638699407E+03 -0.53101949293E+03  0.17562477715E+04  0.00000000000E+00 0. -1.
        -11    1    3    3    0    0 -0.58305049602E+03  0.28654482392E+03 -0.26290652593E+03  0.70083925290E+03  0.00000000000E+00 0.  1.
         22    1    1    2    0    0  0.20912900220E+04 -0.10129318180E+04 -0.65629361228E+03  0.24145902612E+04  0.00000000000E+00 0.  1.
<mgrwt>
<rscale>  0 0.46508174E+04</rscale>
<asrwt>0</asrwt>
<pdfrwt beam="1">  1        2 0.48629977E+00 0.46508174E+04</pdfrwt>
<pdfrwt beam="2">  1       -2 0.26318905E+00 0.46508174E+04</pdfrwt>
<totfact> 0.54848969E-02</totfact>
</mgrwt>
</event>
<event>
 6    1  0.2003386E-005  0.2535995E+04  0.7818608E-02  0.8390273E-01
         -2   -1    0    0    0  501 -0.00000000000E+00  0.00000000000E+00  0.13993081650E+04  0.13993081650E+04  0.00000000000E+00 0.  1.
          2   -1    0    0  501    0  0.00000000000E+00 -0.00000000000E+00 -0.11490088918E+04  0.11490088918E+04  0.00000000000E+00 0. -1.
         23    2    1    2    0    0  0.47899916722E+03 -0.11718169665E+04  0.15815858910E+03  0.12790317812E+04  0.91175396564E+02 0.  0.
         13    1    3    3    0    0  0.39691031106E+03 -0.93626467742E+03  0.16089150567E+03  0.10295705016E+04  0.00000000000E+00 0.  1.
        -13    1    3    3    0    0  0.82088856165E+02 -0.23555228903E+03 -0.27329165742E+01  0.24946127957E+03  0.00000000000E+00 0. -1.
         22    1    1    2    0    0 -0.47899916722E+03  0.11718169665E+04  0.92140684108E+02  0.12692852756E+04  0.00000000000E+00 0.  1.
<mgrwt>
<rscale>  0 0.25359949E+04</rscale>
<asrwt>0</asrwt>
<pdfrwt beam="1">  1        2 0.17677060E+00 0.25359949E+04</pdfrwt>
<pdfrwt beam="2">  1       -2 0.21527818E+00 0.25359949E+04</pdfrwt>
<totfact> 0.19147003E+00</totfact>
</mgrwt>
</event>
<event>
 6    1  0.2003386E-005  0.2929973E+04  0.7818608E-02  0.8264015E-01
         -2   -1    0    0    0  501 -0.00000000000E+00  0.00000000000E+00  0.65835002645E+03  0.65835002645E+03  0.00000000000E+00 0.  1.
          2   -1    0    0  501    0  0.00000000000E+00 -0.00000000000E+00 -0.32599451831E+04  0.32599451831E+04  0.00000000000E+00 0. -1.
         23    2    1    2    0    0 -0.73304820417E+03  0.50244606851E+03  0.25310386353E+03  0.92845939179E+03  0.90352393834E+02 0.  0.
         13    1    3    3    0    0 -0.50239435340E+03  0.36983531337E+03  0.13999494517E+03  0.63935657502E+03  0.00000000000E+00 0. -1.
        -13    1    3    3    0    0 -0.23065385077E+03  0.13261075514E+03  0.11310891836E+03  0.28910281678E+03  0.00000000000E+00 0.  1.
         22    1    1    2    0    0  0.73304820417E+03 -0.50244606851E+03 -0.28546990202E+04  0.29898358178E+04  0.00000000000E+00 0. -1.
<mgrwt>
<rscale>  0 0.29299727E+04</rscale>
<asrwt>0</asrwt>
<pdfrwt beam="1">  1        2 0.50153003E+00 0.29299727E+04</pdfrwt>
<pdfrwt beam="2">  1       -2 0.10128462E+00 0.29299727E+04</pdfrwt>
<totfact> 0.81648849E-01</totfact>
</mgrwt>
</event>
<event>
 6    1  0.2003386E-005  0.9959984E+03  0.7818608E-02  0.9312945E-01
          1   -1    0    0  501    0  0.00000000000E+00  0.00000000000E+00  0.19525365260E+04  0.19525365260E+04  0.00000000000E+00 0. -1.
         -1   -1    0    0    0  501 -0.00000000000E+00 -0.00000000000E+00 -0.12701591890E+03  0.12701591890E+03  0.00000000000E+00 0.  1.
         23    2    1    2    0    0  0.20375611763E+03  0.36352938890E+03  0.36788342473E+03  0.56351275957E+03  0.92402618638E+02 0.  0.
         11    1    3    3    0    0  0.96721807243E+02  0.86195943988E+02  0.11480778412E+03  0.17310596770E+03  0.00000000000E+00 0. -1.
        -11    1    3    3    0    0  0.10703431039E+03  0.27733344491E+03  0.25307564061E+03  0.39040679187E+03  0.00000000000E+00 0.  1.
         22    1    1    2    0    0 -0.20375611763E+03 -0.36352938890E+03  0.14576371824E+04  0.15160396854E+04  0.00000000000E+00 0. -1.
<mgrwt>
<rscale>  0 0.99599844E+03</rscale>
<asrwt>0</asrwt>
<pdfrwt beam="1">  1        1 0.30039021E+00 0.99599844E+03</pdfrwt>
<pdfrwt beam="2">  1       -1 0.19540912E-01 0.99599844E+03</pdfrwt>
<totfact> 0.68739504E+01</totfact>
</mgrwt>
</event>
<event>
 6    1  0.2985274E-005  0.4123013E+04  0.7818608E-02  0.7980180E-01
         -2   -1    0    0    0  501 -0.00000000000E+00  0.00000000000E+00  0.20007340740E+04  0.20007340740E+04  0.00000000000E+00 0. -1.
          2   -1    0    0  501    0  0.00000000000E+00 -0.00000000000E+00 -0.21241249063E+04  0.21241249063E+04  0.00000000000E+00 0.  1.
         23    2    1    2    0    0 -0.13006743340E+04 -0.97312522657E+03  0.12051892880E+04  0.20263234038E+04  0.12156844727E+03 0.  0.
         13    1    3    3    0    0 -0.37977191553E+03 -0.33911614698E+03  0.42136760515E+03  0.66089116171E+03  0.00000000000E+00 0. -1.
        -13    1    3    3    0    0 -0.92090241848E+03 -0.63400907958E+03  0.78382168284E+03  0.13654322421E+04  0.00000000000E+00 0.  1.
         22    1    1    2    0    0  0.13006743340E+04  0.97312522657E+03 -0.13285801203E+04  0.20985355765E+04  0.00000000000E+00 0.  1.
<mgrwt>
<rscale>  0 0.41230130E+04</rscale>
<asrwt>0</asrwt>
<pdfrwt beam="1">  1        2 0.32678845E+00 0.41230130E+04</pdfrwt>
<pdfrwt beam="2">  1       -2 0.30780524E+00 0.41230130E+04</pdfrwt>
<totfact> 0.12665057E-01</totfact>
</mgrwt>
</event>
<event>
 6    1  0.2068033E-005  0.4066009E+04  0.7818608E-02  0.7991361E-01
          1   -1    0    0  501    0  0.00000000000E+00  0.00000000000E+00  0.13612191424E+04  0.13612191424E+04  0.00000000000E+00 0. -1.
         -1   -1    0    0    0  501 -0.00000000000E+00 -0.00000000000E+00 -0.30363276183E+04  0.30363276183E+04  0.00000000000E+00 0.  1.
         23    2    1    2    0    0 -0.15161324023E+04  0.10018870034E+03 -0.22971274111E+04  0.27557176610E+04  0.92142538366E+02 0.  0.
         11    1    3    3    0    0 -0.31353344069E+03 -0.83715817647E+01 -0.51694080009E+03  0.60464956182E+03  0.00000000000E+00 0. -1.
        -11    1    3    3    0    0 -0.12025989616E+04  0.10856028210E+03 -0.17801866110E+04  0.21510680992E+04  0.00000000000E+00 0.  1.
         22    1    1    2    0    0  0.15161324023E+04 -0.10018870034E+03  0.62201893522E+03  0.16418290997E+04  0.00000000000E+00 0. -1.
<mgrwt>
<rscale>  0 0.40660090E+04</rscale>
<asrwt>0</asrwt>
<pdfrwt beam="1">  1        1 0.20941833E+00 0.40660090E+04</pdfrwt>
<pdfrwt beam="2">  1       -1 0.46712732E+00 0.40660090E+04</pdfrwt>
<totfact> 0.15730931E-02</totfact>
</mgrwt>
</event>
<event>
 6    1  0.2003386E-005  0.1341635E+04  0.7818608E-02  0.8997185E-01
         -2   -1    0    0    0  501 -0.00000000000E+00  0.00000000000E+00  0.58741938494E+03  0.58741938494E+03  0.00000000000E+00 0.  1.
          2   -1    0    0  501    0  0.00000000000E+00 -0.00000000000E+00 -0.76605546311E+03  0.76605546311E+03  0.00000000000E+00 0. -1.
         23    2    1    2    0    0  0.14833427147E+03  0.29366119536E+03 -0.67591628480E+03  0.75721353147E+03  0.90937090504E+02 0.  0.
         11    1    3    3    0    0  0.38956090074E+02  0.28372199174E+02 -0.15713839280E+03  0.16436250525E+03  0.00000000000E+00 0. -1.
        -11    1    3    3    0    0  0.10937818140E+03  0.26528899619E+03 -0.51877789200E+03  0.59285102622E+03  0.00000000000E+00 0.  1.
         22    1    1    2    0    0 -0.14833427147E+03 -0.29366119536E+03  0.49728020663E+03  0.59626131659E+03  0.00000000000E+00 0.  1.
<mgrwt>
<rscale>  0 0.13416346E+04</rscale>
<asrwt>0</asrwt>
<pdfrwt beam="1">  1        2 0.11785469E+00 0.13416346E+04</pdfrwt>
<pdfrwt beam="2">  1       -2 0.90372213E-01 0.13416346E+04</pdfrwt>
<totfact> 0.37332420E+01</totfact>
</mgrwt>
</event>
<event>
 6    1  0.2003386E-005  0.4630817E+04  0.7818608E-02  0.7888126E-01
         -2   -1    0    0    0  501 -0.00000000000E+00  0.00000000000E+00  0.22584988804E+04  0.22584988804E+04  0.00000000000E+00 0.  1.
          2   -1    0    0  501    0  0.00000000000E+00 -0.00000000000E+00 -0.23737524892E+04  0.23737524892E+04  0.00000000000E+00 0. -1.
         23    2    1    2    0    0  0.18221677875E+04  0.12266041045E+04 -0.78739071817E+03  0.23351616088E+04  0.90235920703E+02 0.  0.
         13    1    3    3    0    0  0.15231606427E+04  0.10145176549E+04 -0.62111059523E+03  0.19326258787E+04  0.00000000000E+00 0.  1.
        -13    1    3    3    0    0  0.29900714478E+03  0.21208644959E+03 -0.16628012294E+03  0.40253573011E+03  0.00000000000E+00 0. -1.
         22    1    1    2    0    0 -0.18221677875E+04 -0.12266041045E+04  0.67213710941E+03  0.22970897607E+04  0.00000000000E+00 0.  1.
<mgrwt>
<rscale>  0 0.46308174E+04</rscale>
<asrwt>0</asrwt>
<pdfrwt beam="1">  1        2 0.36519269E+00 0.46308174E+04</pdfrwt>
<pdfrwt beam="2">  1       -2 0.34746137E+00 0.46308174E+04</pdfrwt>
<totfact> 0.49808977E-02</totfact>
</mgrwt>
</event>
<event>
 6    1  0.2003386E-005  0.2839801E+04  0.7818608E-02  0.8291017E-01
         -2   -1    0    0    0  501 -0.00000000000E+00  0.00000000000E+00  0.90005138969E+03  0.90005138969E+03  0.00000000000E+00 0.  1.
          2   -1    0    0  501    0  0.00000000000E+00 -0.00000000000E+00 -0.22400020171E+04  0.22400020171E+04  0.00000000000E+00 0. -1.
         23    2    1    2    0    0 -0.12589351913E+04  0.38111709958E+03 -0.83555041506E+02  0.13210707440E+04  0.89879954445E+02 0.  0.
         13    1    3    3    0    0 -0.64862183589E+03  0.15361658011E+03 -0.23623179344E+02  0.66698305396E+03  0.00000000000E+00 0.  1.
        -13    1    3    3    0    0 -0.61031335538E+03  0.22750051947E+03 -0.59931862162E+02  0.65408769000E+03  0.00000000000E+00 0. -1.
         22    1    1    2    0    0  0.12589351913E+04 -0.38111709958E+03 -0.12563955859E+04  0.18189826628E+04  0.00000000000E+00 0. -1.
<mgrwt>
<rscale>  0 0.28398006E+04</rscale>
<asrwt>0</asrwt>
<pdfrwt beam="1">  1        2 0.34461570E+00 0.28398006E+04</pdfrwt>
<pdfrwt beam="2">  1       -2 0.13846944E+00 0.28398006E+04</pdfrwt>
<totfact> 0.15712959E+00</totfact>
</mgrwt>
</event>
<event>
 6    1  0.2003386E-005  0.4020520E+04  0.7818608E-02  0.8000420E-01
         -2   -1    0    0    0  501 -0.00000000000E+00  0.00000000000E+00  0.11607791426E+04  0.11607791426E+04  0.00000000000E+00 0. -1.
          2   -1    0    0  501    0  0.00000000000E+00 -0.00000000000E+00 -0.34814079706E+04  0.34814079706E+04  0.00000000000E+00 0.  1.
         23    2    1    2    0    0  0.15034001724E+04  0.12508408785E+04 -0.16927796452E+04  0.25881643338E+04  0.90976424790E+02 0.  0.
         13    1    3    3    0    0  0.49860859112E+03  0.36036446562E+03 -0.52482983188E+03  0.80865284743E+03  0.00000000000E+00 0.  1.
        -13    1    3    3    0    0  0.10047915813E+04  0.89047641292E+03 -0.11679498133E+04  0.17795114864E+04  0.00000000000E+00 0. -1.
         22    1    1    2    0    0 -0.15034001724E+04 -0.12508408785E+04 -0.62784918286E+03  0.20540227794E+04  0.00000000000E+00 0. -1.
<mgrwt>
<rscale>  0 0.40205202E+04</rscale>
<asrwt>0</asrwt>
<pdfrwt beam="1">  1        2 0.53560123E+00 0.40205202E+04</pdfrwt>
<pdfrwt beam="2">  1       -2 0.17858140E+00 0.40205202E+04</pdfrwt>
<totfact> 0.12215064E-01</totfact>
</mgrwt>
</event>
<event>
 6    1  0.2003386E-005  0.2934174E+04  0.7818608E-02  0.8262782E-01
          2   -1    0    0  501    0  0.00000000000E+00  0.00000000000E+00  0.11811380853E+04  0.11811380853E+04  0.00000000000E+00 0. -1.
         -2   -1    0    0    0  501 -0.00000000000E+00 -0.00000000000E+00 -0.18222625510E+04  0.18222625510E+04  0.00000000000E+00 0.  1.
         23    2    1    2    0    0  0.11417608460E+04  0.53097350853E+03 -0.10886058262E+04  0.16670659985E+04  0.92172132573E+02 0.  0.
         13    1    3    3    0    0  0.86347536767E+03  0.35749368727E+03 -0.81358561614E+03  0.12390774801E+04  0.00000000000E+00 0.  1.
        -13    1    3    3    0    0  0.27828547837E+03  0.17347982126E+03 -0.27502021011E+03  0.42798851833E+03  0.00000000000E+00 0. -1.
         22    1    1    2    0    0 -0.11417608460E+04 -0.53097350853E+03  0.44748136050E+03  0.13363346378E+04  0.00000000000E+00 0. -1.
<mgrwt>
<rscale>  0 0.29341736E+04</rscale>
<asrwt>0</asrwt>
<pdfrwt beam="1">  1        2 0.18171355E+00 0.29341736E+04</pdfrwt>
<pdfrwt beam="2">  1       -2 0.28034809E+00 0.29341736E+04</pdfrwt>
<totfact> 0.70116333E-01</totfact>
</mgrwt>
</event>
<event>
 6    1  0.2003386E-005  0.1508756E+04  0.7818608E-02  0.8878651E-01
          2   -1    0    0  501    0  0.00000000000E+00  0.00000000000E+00  0.27880994114E+04  0.27880994114E+04  0.00000000000E+00 0.  1.
         -2   -1    0    0    0  501 -0.00000000000E+00 -0.00000000000E+00 -0.20411258187E+03  0.20411258187E+03  0.00000000000E+00 0. -1.
         23    2    1    2    0    0  0.24169672395E+03  0.53459780004E+03  0.36249564520E+03  0.69455335974E+03  0.82396374691E+02 0.  0.
         13    1    3    3    0    0  0.11964345967E+03  0.29360569924E+03  0.24153926186E+03  0.39857255185E+03  0.00000000000E+00 0.  1.
        -13    1    3    3    0    0  0.12205326428E+03  0.24099210079E+03  0.12095638334E+03  0.29598080789E+03  0.00000000000E+00 0. -1.
         22    1    1    2    0    0 -0.24169672395E+03 -0.53459780004E+03  0.22214911843E+04  0.22976586335E+04  0.00000000000E+00 0.  1.
<mgrwt>
<rscale>  0 0.15087560E+04</rscale>
<asrwt>0</asrwt>
<pdfrwt beam="1">  1        2 0.42893834E+00 0.15087560E+04</pdfrwt>
<pdfrwt beam="2">  1       -2 0.31401938E-01 0.15087560E+04</pdfrwt>
<totfact> 0.21476138E+01</totfact>
</mgrwt>
</event>
<event>
 6    1  0.2003386E-005  0.3216333E+04  0.7818608E-02  0.8184517E-01
          2   -1    0    0  501    0  0.00000000000E+00  0.00000000000E+00  0.30858313155E+04  0.30858313155E+04  0.00000000000E+00 0. -1.
         -2   -1    0    0    0  501 -0.00000000000E+00 -0.00000000000E+00 -0.83808854451E+03  0.83808854451E+03  0.00000000000E+00 0.  1.
         23    2    1    2    0    0 -0.13280788671E+04 -0.64814051329E+03  0.35459203860E+03  0.15222747368E+04  0.87779600831E+02 0.  0.
         13    1    3    3    0    0 -0.54197022287E+03 -0.26359876397E+03  0.10037177084E+03  0.61097505941E+03  0.00000000000E+00 0. -1.
        -13    1    3    3    0    0 -0.78610864423E+03 -0.38454174932E+03  0.25422026776E+03  0.91129967741E+03  0.00000000000E+00 0.  1.
         22    1    1    2    0    0  0.13280788671E+04  0.64814051329E+03  0.18931507324E+04  0.24016451232E+04  0.00000000000E+00 0. -1.
<mgrwt>
<rscale>  0 0.32163332E+04</rscale>
<asrwt>0</asrwt>
<pdfrwt beam="1">  1        2 0.47474327E+00 0.32163332E+04</pdfrwt>
<pdfrwt beam="2">  1       -2 0.12893670E+00 0.32163332E+04</pdfrwt>
<totfact> 0.57249122E-01</totfact>
</mgrwt>
</event>
<event>
 6    1  0.2003386E-005  0.3248308E+04  0.7818608E-02  0.8176174E-01
          2   -1    0    0  501    0  0.00000000000E+00  0.00000000000E+00  0.26870447925E+04  0.26870447925E+04  0.00000000000E+00 0. -1.
         -2   -1    0    0    0  501 -0.00000000000E+00 -0.00000000000E+00 -0.98170190606E+03  0.98170190606E+03  0.00000000000E+00 0.  1.
         23    2    1    2    0    0  0.11245748784E+04 -0.10973902912E+04  0.39473781352E+03  0.16226235924E+04  0.90306548359E+02 0.  0.
         11    1    3    3    0    0  0.84285635715E+03 -0.76634317714E+03  0.28966101364E+03  0.11754115053E+04  0.00000000000E+00 0.  1.
        -11    1    3    3    0    0  0.28171852129E+03 -0.33104711408E+03  0.10507679989E+03  0.44721208710E+03  0.00000000000E+00 0. -1.
         22    1    1    2    0    0 -0.11245748784E+04  0.10973902912E+04  0.13106050729E+04  0.20461231062E+04  0.00000000000E+00 0. -1.
<mgrwt>
<rscale>  0 0.32483085E+04</rscale>
<asrwt>0</asrwt>
<pdfrwt beam="1">  1        2 0.41339150E+00 0.32483085E+04</pdfrwt>
<pdfrwt beam="2">  1       -2 0.15103106E+00 0.32483085E+04</pdfrwt>
<totfact> 0.66679461E-01</totfact>
</mgrwt>
</event>
<event>
 6    1  0.2003386E-005  0.3192763E+04  0.7818608E-02  0.8190731E-01
         -2   -1    0    0    0  501 -0.00000000000E+00  0.00000000000E+00  0.24208376180E+04  0.24208376180E+04  0.00000000000E+00 0.  1.
          2   -1    0    0  501    0  0.00000000000E+00 -0.00000000000E+00 -0.10527076280E+04  0.10527076280E+04  0.00000000000E+00 0. -1.
         23    2    1    2    0    0  0.31214592271E+03 -0.85898367447E+03  0.21068944205E+04  0.22983597654E+04  0.90363056861E+02 0.  0.
         13    1    3    3    0    0  0.19247304465E+03 -0.50539309738E+03  0.11354686318E+04  0.12576792396E+04  0.00000000000E+00 0. -1.
        -13    1    3    3    0    0  0.11967287806E+03 -0.35359057709E+03  0.97142578866E+03  0.10406805258E+04  0.00000000000E+00 0.  1.
         22    1    1    2    0    0 -0.31214592271E+03  0.85898367447E+03 -0.73876443050E+03  0.11751854806E+04  0.00000000000E+00 0. -1.
<mgrwt>
<rscale>  0 0.31927632E+04</rscale>
<asrwt>0</asrwt>
<pdfrwt beam="1">  1        2 0.16195502E+00 0.31927632E+04</pdfrwt>
<pdfrwt beam="2">  1       -2 0.37243656E+00 0.31927632E+04</pdfrwt>
<totfact> 0.21989788E-01</totfact>
</mgrwt>
</event>
<event>
 6    1  0.2003386E-005  0.3278651E+04  0.7818608E-02  0.8168349E-01
          2   -1    0    0  501    0  0.00000000000E+00  0.00000000000E+00  0.14347898317E+04  0.14347898317E+04  0.00000000000E+00 0. -1.
         -2   -1    0    0    0  501 -0.00000000000E+00 -0.00000000000E+00 -0.18730186881E+04  0.18730186881E+04  0.00000000000E+00 0.  1.
         23    2    1    2    0    0 -0.99309165140E+03  0.10900939356E+04 -0.93868866720E+03  0.17505687057E+04  0.93907203233E+02 0.  0.
         13    1    3    3    0    0 -0.50286380724E+03  0.52272921787E+03 -0.51206784240E+03  0.88788023915E+03  0.00000000000E+00 0. -1.
        -13    1    3    3    0    0 -0.49022784415E+03  0.56736471773E+03 -0.42662082480E+03  0.86268846652E+03  0.00000000000E+00 0.  1.
         22    1    1    2    0    0  0.99309165140E+03 -0.10900939356E+04  0.50045981083E+03  0.15572398141E+04  0.00000000000E+00 0. -1.
<mgrwt>
<rscale>  0 0.32786510E+04</rscale>
<asrwt>0</asrwt>
<pdfrwt beam="1">  1        2 0.22073690E+00 0.32786510E+04</pdfrwt>
<pdfrwt beam="2">  1       -2 0.28815672E+00 0.32786510E+04</pdfrwt>
<totfact> 0.43425468E-01</totfact>
</mgrwt>
</event>
<event>
 6    1  0.2003386E-005  0.1745593E+04  0.7818608E-02  0.8735780E-01
          2   -1    0    0  501    0  0.00000000000E+00  0.00000000000E+00  0.39930043224E+04  0.39930043224E+04  0.00000000000E+00 0. -1.
         -2   -1    0    0    0  501 -0.00000000000E+00 -0.00000000000E+00 -0.19077705025E+03  0.19077705025E+03  0.00000000000E+00 0.  1.
         23    2    1    2    0    0 -0.62760638022E+03  0.48047176854E+03  0.27804564876E+04  0.28919770434E+04  0.88600515635E+02 0.  0.
         13    1    3    3    0    0 -0.45774333639E+03  0.30673884110E+03  0.18495929550E+04  0.19299253296E+04  0.00000000000E+00 0.  1.
        -13    1    3    3    0    0 -0.16986304383E+03  0.17373292744E+03  0.93086353265E+03  0.96205171387E+03  0.00000000000E+00 0. -1.
         22    1    1    2    0    0  0.62760638022E+03 -0.48047176854E+03  0.10217707846E+04  0.12918043292E+04  0.00000000000E+00 0.  1.
<mgrwt>
<rscale>  0 0.17455928E+04</rscale>
<asrwt>0</asrwt>
<pdfrwt beam="1">  1        2 0.61430830E+00 0.17455928E+04</pdfrwt>
<pdfrwt beam="2">  1       -2 0.29350318E-01 0.17455928E+04</pdfrwt>
<totfact> 0.35668491E+00</totfact>
</mgrwt>
</event>
<event>
 6    1  0.2003386E-005  0.2005208E+04  0.7818608E-02  0.8604190E-01
         -2   -1    0    0    0  501 -0.00000000000E+00  0.00000000000E+00  0.62849211615E+03  0.62849211615E+03  0.00000000000E+00 0.  1.
          2   -1    0    0  501    0  0.00000000000E+00 -0.00000000000E+00 -0.15994063797E+04  0.15994063797E+04  0.00000000000E+00 0. -1.
         23    2    1    2    0    0  0.55348599214E+03 -0.10294306019E+02  0.43969994689E+03  0.71254864617E+03  0.89088796343E+02 0.  0.
         11    1    3    3    0    0  0.21449960226E+03  0.10971954348E+02  0.22323905708E+03  0.30978402115E+03  0.00000000000E+00 0. -1.
        -11    1    3    3    0    0  0.33898638987E+03 -0.21266260367E+02  0.21646088981E+03  0.40276462502E+03  0.00000000000E+00 0.  1.
         22    1    1    2    0    0 -0.55348599214E+03  0.10294306019E+02 -0.14106142105E+04  0.15153498497E+04  0.00000000000E+00 0. -1.
<mgrwt>
<rscale>  0 0.20052075E+04</rscale>
<asrwt>0</asrwt>
<pdfrwt beam="1">  1        2 0.24606252E+00 0.20052075E+04</pdfrwt>
<pdfrwt beam="2">  1       -2 0.96691096E-01 0.20052075E+04</pdfrwt>
<totfact> 0.92688562E+00</totfact>
</mgrwt>
</event>
<event>
 6    1  0.2003386E-005  0.2560602E+04  0.7818608E-02  0.8381708E-01
         -2   -1    0    0    0  501 -0.00000000000E+00  0.00000000000E+00  0.80378074644E+03  0.80378074644E+03  0.00000000000E+00 0.  1.
          2   -1    0    0  501    0  0.00000000000E+00 -0.00000000000E+00 -0.20393263660E+04  0.20393263660E+04  0.00000000000E+00 0. -1.
         23    2    1    2    0    0  0.22897386933E+02 -0.12785211230E+04 -0.61328325493E+03  0.14210132328E+04  0.89563970159E+02 0.  0.
         11    1    3    3    0    0  0.55426662540E+02 -0.60531509122E+03 -0.29478441633E+03  0.67555630904E+03  0.00000000000E+00 0. -1.
        -11    1    3    3    0    0 -0.32529275607E+02 -0.67320603175E+03 -0.31849883860E+03  0.74545692373E+03  0.00000000000E+00 0.  1.
         22    1    1    2    0    0 -0.22897386933E+02  0.12785211230E+04 -0.62226236468E+03  0.14220938797E+04  0.00000000000E+00 0. -1.
<mgrwt>
<rscale>  0 0.25606025E+04</rscale>
<asrwt>0</asrwt>
<pdfrwt beam="1">  1        2 0.31374252E+00 0.25606025E+04</pdfrwt>
<pdfrwt beam="2">  1       -2 0.12365858E+00 0.25606025E+04</pdfrwt>
<totfact> 0.27772401E+00</totfact>
</mgrwt>
</event>
<event>
 6    1  0.2003386E-005  0.1214892E+04  0.7818608E-02  0.9099921E-01
          2   -1    0    0  501    0  0.00000000000E+00  0.00000000000E+00  0.97515871441E+03  0.97515871441E+03  0.00000000000E+00 0. -1.
         -2   -1    0    0    0  501 -0.00000000000E+00 -0.00000000000E+00 -0.37839011502E+03  0.37839011502E+03  0.00000000000E+00 0.  1.
         23    2    1    2    0    0 -0.13958359279E+02 -0.11883526179E+03  0.95946328645E+03  0.97162725206E+03  0.95776112253E+02 0.  0.
         13    1    3    3    0    0 -0.48485824866E+02 -0.77753017168E+02  0.44261990142E+03  0.45200529203E+03  0.00000000000E+00 0.  1.
        -13    1    3    3    0    0  0.34527465587E+02 -0.41082244619E+02  0.51684338502E+03  0.51962196003E+03  0.00000000000E+00 0. -1.
         22    1    1    2    0    0  0.13958359279E+02  0.11883526179E+03 -0.36269468705E+03  0.38192157736E+03  0.00000000000E+00 0.  1.
<mgrwt>
<rscale>  0 0.12148916E+04</rscale>
<asrwt>0</asrwt>
<pdfrwt beam="1">  1        2 0.15002442E+00 0.12148916E+04</pdfrwt>
<pdfrwt beam="2">  1       -2 0.58213864E-01 0.12148916E+04</pdfrwt>
<totfact> 0.71138346E+01</totfact>
</mgrwt>
</event>
<event>
 6    1  0.2003386E-005  0.2364485E+04  0.7818608E-02  0.8452921E-01
          2   -1    0    0  501    0  0.00000000000E+00  0.00000000000E+00  0.15071061183E+04  0.15071061183E+04  0.00000000000E+00 0. -1.
         -2   -1    0    0    0  501 -0.00000000000E+00 -0.00000000000E+00 -0.92740442716E+03  0.92740442716E+03  0.00000000000E+00 0.  1.
         23    2    1    2    0    0  0.18556052104E+03  0.11421337512E+04  0.53101665018E+03  0.12763773727E+04  0.90875200009E+02 0.  0.
         11    1    3    3    0    0  0.10559428619E+03  0.81898755334E+03  0.34405184536E+03  0.89457388633E+03  0.00000000000E+00 0.  1.
        -11    1    3    3    0    0  0.79966234857E+02  0.32314619789E+03  0.18696480482E+03  0.38180348632E+03  0.00000000000E+00 0. -1.
         22    1    1    2    0    0 -0.18556052104E+03 -0.11421337512E+04  0.48685040939E+02  0.11581331728E+04  0.00000000000E+00 0.  1.
<mgrwt>
<rscale>  0 0.23644846E+04</rscale>
<asrwt>0</asrwt>
<pdfrwt beam="1">  1        2 0.23186248E+00 0.23644846E+04</pdfrwt>
<pdfrwt beam="2">  1       -2 0.14267760E+00 0.23644846E+04</pdfrwt>
<totfact> 0.38780679E+00</totfact>
</mgrwt>
</event>
<event>
 6    1  0.2003386E-005  0.3717629E+04  0.7818608E-02  0.8064066E-01
         -2   -1    0    0    0  501 -0.00000000000E+00  0.00000000000E+00  0.12607658128E+04  0.12607658128E+04  0.00000000000E+00 0.  1.
          2   -1    0    0  501    0  0.00000000000E+00 -0.00000000000E+00 -0.27405493385E+04  0.27405493385E+04  0.00000000000E+00 0. -1.
         23    2    1    2    0    0 -0.10765194590E+03  0.15417175605E+04 -0.18498735103E+04  0.24121491517E+04  0.89160239333E+02 0.  0.
         13    1    3    3    0    0 -0.78239691635E+02  0.72395450700E+03 -0.92551880001E+03  0.11776317874E+04  0.00000000000E+00 0. -1.
        -13    1    3    3    0    0 -0.29412254261E+02  0.81776305346E+03 -0.92435471029E+03  0.12345173643E+04  0.00000000000E+00 0.  1.
         22    1    1    2    0    0  0.10765194590E+03 -0.15417175605E+04  0.37008998459E+03  0.15891659996E+04  0.00000000000E+00 0.  1.
<mgrwt>
<rscale>  0 0.37176288E+04</rscale>
<asrwt>0</asrwt>
<pdfrwt beam="1">  1        2 0.42162297E+00 0.37176288E+04</pdfrwt>
<pdfrwt beam="2">  1       -2 0.19396397E+00 0.37176288E+04</pdfrwt>
<totfact> 0.29551645E-01</totfact>
</mgrwt>
</event>
<event>
 6    1  0.2003386E-005  0.5578527E+03  0.7818608E-02  0.9996925E-01
         -4   -1    0    0    0  501 -0.00000000000E+00  0.00000000000E+00  0.95126819417E+03  0.95126819417E+03  0.00000000000E+00 0.  1.
          4   -1    0    0  501    0  0.00000000000E+00 -0.00000000000E+00 -0.81785449915E+02  0.81785449915E+02  0.00000000000E+00 0. -1.
         23    2    1    2    0    0 -0.81787116764E+02  0.18638053609E+03  0.77842307405E+03  0.81007673891E+03  0.94101030888E+02 0.  0.
         13    1    3    3    0    0 -0.24160259521E+02  0.43511097453E+01  0.18681717188E+03  0.18842320984E+03  0.00000000000E+00 0.  1.
        -13    1    3    3    0    0 -0.57626857244E+02  0.18202942635E+03  0.59160590217E+03  0.62165352908E+03  0.00000000000E+00 0. -1.
         22    1    1    2    0    0  0.81787116764E+02 -0.18638053609E+03  0.91059670208E+02  0.22297690517E+03  0.00000000000E+00 0. -1.
<mgrwt>
<rscale>  0 0.55785266E+03</rscale>
<asrwt>0</asrwt>
<pdfrwt beam="1">  1        4 0.12582378E-01 0.55785266E+03</pdfrwt>
<pdfrwt beam="2">  1       -4 0.14634895E+00 0.55785266E+03</pdfrwt>
<totfact> 0.33425712E+01</totfact>
</mgrwt>
</event>
<event>
 6    1  0.2003386E-005  0.1487238E+04  0.7818608E-02  0.8892984E-01
         -2   -1    0    0    0  501 -0.00000000000E+00  0.00000000000E+00  0.24643378831E+03  0.24643378831E+03  0.00000000000E+00 0.  1.
          2   -1    0    0  501    0  0.00000000000E+00 -0.00000000000E+00 -0.22438866557E+04  0.22438866557E+04  0.00000000000E+00 0. -1.
         23    2    1    2    0    0 -0.28004196205E+02 -0.73722140876E+03 -0.88798279423E+03  0.11579528206E+04  0.89786699797E+02 0.  0.
         11    1    3    3    0    0 -0.17903582369E+02 -0.46350778190E+03 -0.48901777023E+03  0.67401660346E+03  0.00000000000E+00 0.  1.
        -11    1    3    3    0    0 -0.10100613836E+02 -0.27371362686E+03 -0.39896502400E+03  0.48393621719E+03  0.00000000000E+00 0. -1.
         22    1    1    2    0    0  0.28004196205E+02  0.73722140876E+03 -0.11094700732E+04  0.13323676234E+04  0.00000000000E+00 0. -1.
<mgrwt>
<rscale>  0 0.14872384E+04</rscale>
<asrwt>0</asrwt>
<pdfrwt beam="1">  1        2 0.34521331E+00 0.14872384E+04</pdfrwt>
<pdfrwt beam="2">  1       -2 0.37912893E-01 0.14872384E+04</pdfrwt>
<totfact> 0.31016694E+01</totfact>
</mgrwt>
</event>
<event>
 6    1  0.2003386E-005  0.3921421E+04  0.7818608E-02  0.8020589E-01
          2   -1    0    0  501    0  0.00000000000E+00  0.00000000000E+00  0.16264545849E+04  0.16264545849E+04  0.00000000000E+00 0.  1.
         -2   -1    0    0    0  501 -0.00000000000E+00 -0.00000000000E+00 -0.23636600998E+04  0.23636600998E+04  0.00000000000E+00 0. -1.
         23    2    1    2    0    0 -0.15382300765E+04 -0.11449145812E+03  0.86097717038E+03  0.17689780482E+04  0.93496443840E+02 0.  0.
         11    1    3    3    0    0 -0.10515227676E+04 -0.80329735170E+02  0.63779470678E+03  0.12324508449E+04  0.00000000000E+00 0.  1.
        -11    1    3    3    0    0 -0.48670730887E+03 -0.34161722947E+02  0.22318246360E+03  0.53652720330E+03  0.00000000000E+00 0. -1.
         22    1    1    2    0    0  0.15382300765E+04  0.11449145812E+03 -0.15981826853E+04  0.22211366365E+04  0.00000000000E+00 0. -1.
<mgrwt>
<rscale>  0 0.39214211E+04</rscale>
<asrwt>0</asrwt>
<pdfrwt beam="1">  1        2 0.25022378E+00 0.39214211E+04</pdfrwt>
<pdfrwt beam="2">  1       -2 0.36364002E+00 0.39214211E+04</pdfrwt>
<totfact> 0.10904700E-01</totfact>
</mgrwt>
</event>
<event>
 6    1  0.2003386E-005  0.8835351E+03  0.7818608E-02  0.9446401E-01
         -1   -1    0    0    0  501 -0.00000000000E+00  0.00000000000E+00  0.31667293264E+03  0.31667293264E+03  0.00000000000E+00 0.  1.
          1   -1    0    0  501    0  0.00000000000E+00 -0.00000000000E+00 -0.61627808806E+03  0.61627808806E+03  0.00000000000E+00 0. -1.
         23    2    1    2    0    0  0.21461537791E+03  0.15263979922E+03  0.21692179256E+03  0.35315902634E+03  0.91145845009E+02 0.  0.
         13    1    3    3    0    0  0.17767456002E+02  0.40691184926E+02  0.71070435275E+02  0.83800130034E+02  0.00000000000E+00 0.  1.
        -13    1    3    3    0    0  0.19684792191E+03  0.11194861429E+03  0.14585135728E+03  0.26935889631E+03  0.00000000000E+00 0. -1.
         22    1    1    2    0    0 -0.21461537791E+03 -0.15263979922E+03 -0.51652694797E+03  0.57979199436E+03  0.00000000000E+00 0. -1.
<mgrwt>
<rscale>  0 0.88353515E+03</rscale>
<asrwt>0</asrwt>
<pdfrwt beam="1">  1        1 0.94812012E-01 0.88353515E+03</pdfrwt>
<pdfrwt beam="2">  1       -1 0.48718913E-01 0.88353515E+03</pdfrwt>
<totfact> 0.14005207E+02</totfact>
</mgrwt>
</event>
<event>
 6    1  0.2003386E-005  0.2074528E+04  0.7818608E-02  0.8572548E-01
         -2   -1    0    0    0  501 -0.00000000000E+00  0.00000000000E+00  0.43646274876E+03  0.43646274876E+03  0.00000000000E+00 0. -1.
          2   -1    0    0  501    0  0.00000000000E+00 -0.00000000000E+00 -0.24650826152E+04  0.24650826152E+04  0.00000000000E+00 0.  1.
         23    2    1    2    0    0  0.23848612759E+03 -0.73237283552E+03 -0.48800484464E+02  0.77717948481E+03  0.91547042930E+02 0.  0.
         11    1    3    3    0    0  0.13977591173E+03 -0.34327915751E+03  0.13831782091E+02  0.37090322684E+03  0.00000000000E+00 0.  1.
        -11    1    3    3    0    0  0.98710215855E+02 -0.38909367801E+03 -0.62632266554E+02  0.40627625798E+03  0.00000000000E+00 0. -1.
         22    1    1    2    0    0 -0.23848612759E+03  0.73237283552E+03 -0.19798193820E+04  0.21243658791E+04  0.00000000000E+00 0.  1.
<mgrwt>
<rscale>  0 0.20745281E+04</rscale>
<asrwt>0</asrwt>
<pdfrwt beam="1">  1        2 0.37924348E+00 0.20745281E+04</pdfrwt>
<pdfrwt beam="2">  1       -2 0.67148115E-01 0.20745281E+04</pdfrwt>
<totfact> 0.68559236E+00</totfact>
</mgrwt>
</event>
<event>
 6    1  0.2003386E-005  0.3989270E+04  0.7818608E-02  0.8006715E-01
          2   -1    0    0  501    0  0.00000000000E+00  0.00000000000E+00  0.45613184640E+04  0.45613184640E+04  0.00000000000E+00 0. -1.
         -2   -1    0    0    0  501 -0.00000000000E+00 -0.00000000000E+00 -0.87224079371E+03  0.87224079371E+03  0.00000000000E+00 0.  1.
         23    2    1    2    0    0  0.16752520229E+03 -0.77368001765E+03 -0.64645964485E+03  0.10263459348E+04  0.93970432896E+02 0.  0.
         11    1    3    3    0    0  0.70087586022E+02 -0.30453168244E+03 -0.19719298602E+03  0.36950898373E+03  0.00000000000E+00 0. -1.
        -11    1    3    3    0    0  0.97437616268E+02 -0.46914833521E+03 -0.44926665883E+03  0.65683695102E+03  0.00000000000E+00 0.  1.
         22    1    1    2    0    0 -0.16752520229E+03  0.77368001765E+03  0.43355373152E+04  0.44072133230E+04  0.00000000000E+00 0. -1.
<mgrwt>
<rscale>  0 0.39892696E+04</rscale>
<asrwt>0</asrwt>
<pdfrwt beam="1">  1        2 0.70174129E+00 0.39892696E+04</pdfrwt>
<pdfrwt beam="2">  1       -2 0.13419089E+00 0.39892696E+04</pdfrwt>
<totfact> 0.33581443E-02</totfact>
</mgrwt>
</event>
<event>
 6    1  0.2003386E-005  0.8448625E+03  0.7818608E-02  0.9497258E-01
          2   -1    0    0  501    0  0.00000000000E+00  0.00000000000E+00  0.26708027337E+03  0.26708027337E+03  0.00000000000E+00 0.  1.
         -2   -1    0    0    0  501 -0.00000000000E+00 -0.00000000000E+00 -0.66814430708E+03  0.66814430708E+03  0.00000000000E+00 0. -1.
         23    2    1    2    0    0  0.17912448747E+03 -0.35643973595E+03 -0.67515725704E+02  0.41523482945E+03  0.93416930999E+02 0.  0.
         13    1    3    3    0    0  0.98290877849E+02 -0.10205233364E+03 -0.37934858366E+02  0.14667934057E+03  0.00000000000E+00 0. -1.
        -13    1    3    3    0    0  0.80833609617E+02 -0.25438740231E+03 -0.29580867338E+02  0.26855548888E+03  0.00000000000E+00 0.  1.
         22    1    1    2    0    0 -0.17912448747E+03  0.35643973595E+03 -0.33354830801E+03  0.51998975100E+03  0.00000000000E+00 0. -1.
<mgrwt>
<rscale>  0 0.84486251E+03</rscale>
<asrwt>0</asrwt>
<pdfrwt beam="1">  1        2 0.41089273E-01 0.84486251E+03</pdfrwt>
<pdfrwt beam="2">  1       -2 0.10279143E+00 0.84486251E+03</pdfrwt>
<totfact> 0.97221996E+01</totfact>
</mgrwt>
</event>
<event>
 6    1  0.2003386E-005  0.6846417E+04  0.7818608E-02  0.7593485E-01
          2   -1    0    0  501    0  0.00000000000E+00  0.00000000000E+00  0.48143610404E+04  0.48143610404E+04  0.00000000000E+00 0. -1.
         -2   -1    0    0    0  501 -0.00000000000E+00 -0.00000000000E+00 -0.24340418156E+04  0.24340418156E+04  0.00000000000E+00 0.  1.
         23    2    1    2    0    0 -0.15960644927E+04  0.51278161894E+03 -0.19687473475E+04  0.25874215319E+04  0.91745366211E+02 0.  0.
         11    1    3    3    0    0 -0.95449589302E+02  0.35882411608E+02 -0.15526465032E+03  0.18575597756E+03  0.00000000000E+00 0. -1.
        -11    1    3    3    0    0 -0.15006149034E+04  0.47689920733E+03 -0.18134826972E+04  0.24016655544E+04  0.00000000000E+00 0.  1.
         22    1    1    2    0    0  0.15960644927E+04 -0.51278161894E+03  0.43490665723E+04  0.46609813241E+04  0.00000000000E+00 0. -1.
<mgrwt>
<rscale>  0 0.68464169E+04</rscale>
<asrwt>0</asrwt>
<pdfrwt beam="1">  1        2 0.74067093E+00 0.68464169E+04</pdfrwt>
<pdfrwt beam="2">  1       -2 0.37446797E+00 0.68464169E+04</pdfrwt>
<totfact> 0.38571135E-04</totfact>
</mgrwt>
</event>
<event>
 6    1  0.2003386E-005  0.2905698E+04  0.7818608E-02  0.8271184E-01
         -4   -1    0    0    0  501 -0.00000000000E+00  0.00000000000E+00  0.17717811693E+04  0.17717811693E+04  0.00000000000E+00 0.  1.
          4   -1    0    0  501    0  0.00000000000E+00 -0.00000000000E+00 -0.11913263068E+04  0.11913263068E+04  0.00000000000E+00 0. -1.
         23    2    1    2    0    0  0.39209887842E+03 -0.13064756361E+04  0.79618495784E+03  0.15821079858E+04  0.92385461392E+02 0.  0.
         13    1    3    3    0    0  0.20330449999E+03 -0.78380066136E+03  0.43315408324E+03  0.91831294029E+03  0.00000000000E+00 0. -1.
        -13    1    3    3    0    0  0.18879437842E+03 -0.52267497473E+03  0.36303087460E+03  0.66379504551E+03  0.00000000000E+00 0.  1.
         22    1    1    2    0    0 -0.39209887842E+03  0.13064756361E+04 -0.21573009536E+03  0.13809994903E+04  0.00000000000E+00 0. -1.
<mgrwt>
<rscale>  0 0.29056975E+04</rscale>
<asrwt>0</asrwt>
<pdfrwt beam="1">  1        4 0.18328097E+00 0.29056975E+04</pdfrwt>
<pdfrwt beam="2">  1       -4 0.27258172E+00 0.29056975E+04</pdfrwt>
<totfact> 0.13371758E-02</totfact>
</mgrwt>
</event>
<event>
 6    1  0.2003386E-005  0.2998507E+04  0.7818608E-02  0.8244157E-01
          2   -1    0    0  501    0  0.00000000000E+00  0.00000000000E+00  0.26002789232E+04  0.26002789232E+04  0.00000000000E+00 0. -1.
         -2   -1    0    0    0  501 -0.00000000000E+00 -0.00000000000E+00 -0.86443089139E+03  0.86443089139E+03  0.00000000000E+00 0.  1.
         23    2    1    2    0    0 -0.26548677168E+03 -0.12089736742E+04 -0.10592765280E+03  0.12456473452E+04  0.91192489301E+02 0.  0.
         13    1    3    3    0    0 -0.97650211820E+02 -0.59476960704E+03 -0.19131706896E+02  0.60303604497E+03  0.00000000000E+00 0. -1.
        -13    1    3    3    0    0 -0.16783655986E+03 -0.61420406714E+03 -0.86795945900E+02  0.64261130020E+03  0.00000000000E+00 0.  1.
         22    1    1    2    0    0  0.26548677168E+03  0.12089736742E+04  0.18417756847E+04  0.22190624695E+04  0.00000000000E+00 0. -1.
<mgrwt>
<rscale>  0 0.29985072E+04</rscale>
<asrwt>0</asrwt>
<pdfrwt beam="1">  1        2 0.40004291E+00 0.29985072E+04</pdfrwt>
<pdfrwt beam="2">  1       -2 0.13298937E+00 0.29985072E+04</pdfrwt>
<totfact> 0.10672847E+00</totfact>
</mgrwt>
</event>
<event>
 6    1  0.2003386E-005  0.2376280E+04  0.7818608E-02  0.8448438E-01
          2   -1    0    0  501    0  0.00000000000E+00  0.00000000000E+00  0.98145668645E+03  0.98145668645E+03  0.00000000000E+00 0. -1.
         -2   -1    0    0    0  501 -0.00000000000E+00 -0.00000000000E+00 -0.14383489897E+04  0.14383489897E+04  0.00000000000E+00 0.  1.
         23    2    1    2    0    0  0.10824975913E+04 -0.89131774323E+02 -0.71469179564E+03  0.13034696664E+04  0.92213339853E+02 0.  0.
         13    1    3    3    0    0  0.26754447804E+03 -0.57863590455E+02 -0.15839163919E+03  0.31625330701E+03  0.00000000000E+00 0. -1.
        -13    1    3    3    0    0  0.81495311330E+03 -0.31268183868E+02 -0.55630015645E+03  0.98721635940E+03  0.00000000000E+00 0.  1.
         22    1    1    2    0    0 -0.10824975913E+04  0.89131774323E+02  0.25779949237E+03  0.11163360098E+04  0.00000000000E+00 0. -1.
<mgrwt>
<rscale>  0 0.23762805E+04</rscale>
<asrwt>0</asrwt>
<pdfrwt beam="1">  1        2 0.15099334E+00 0.23762805E+04</pdfrwt>
<pdfrwt beam="2">  1       -2 0.22128446E+00 0.23762805E+04</pdfrwt>
<totfact> 0.22624862E+00</totfact>
</mgrwt>
</event>
<event>
 6    1  0.2003386E-005  0.1382454E+04  0.7818608E-02  0.8966618E-01
         -2   -1    0    0    0  501 -0.00000000000E+00  0.00000000000E+00  0.14872393301E+03  0.14872393301E+03  0.00000000000E+00 0.  1.
          2   -1    0    0  501    0  0.00000000000E+00 -0.00000000000E+00 -0.32126309474E+04  0.32126309474E+04  0.00000000000E+00 0. -1.
         23    2    1    2    0    0  0.56797965356E+03 -0.36599197547E+03 -0.18553706574E+04  0.19767570547E+04  0.92828679345E+02 0.  0.
         11    1    3    3    0    0  0.45477551373E+03 -0.24671970298E+03 -0.14281839111E+04  0.15190130558E+04  0.00000000000E+00 0. -1.
        -11    1    3    3    0    0  0.11320413984E+03 -0.11927227249E+03 -0.42718674633E+03  0.45774399887E+03  0.00000000000E+00 0.  1.
         22    1    1    2    0    0 -0.56797965356E+03  0.36599197547E+03 -0.12085363569E+04  0.13845978257E+04  0.00000000000E+00 0.  1.
<mgrwt>
<rscale>  0 0.13824545E+04</rscale>
<asrwt>0</asrwt>
<pdfrwt beam="1">  1        2 0.49425088E+00 0.13824545E+04</pdfrwt>
<pdfrwt beam="2">  1       -2 0.22880607E-01 0.13824545E+04</pdfrwt>
<totfact> 0.21137707E+01</totfact>
</mgrwt>
</event>
<event>
 6    1  0.2003386E-005  0.2465776E+04  0.7818608E-02  0.8415280E-01
          1   -1    0    0  501    0  0.00000000000E+00  0.00000000000E+00  0.30618755840E+04  0.30618755840E+04  0.00000000000E+00 0. -1.
         -1   -1    0    0    0  501 -0.00000000000E+00 -0.00000000000E+00 -0.49643200138E+03  0.49643200138E+03  0.00000000000E+00 0.  1.
         23    2    1    2    0    0  0.11064167023E+04  0.29480567645E+03  0.63145912781E+03  0.13107835750E+04  0.91349024547E+02 0.  0.
         11    1    3    3    0    0  0.71573122313E+03  0.23558134393E+03  0.41568280024E+03  0.86055908791E+03  0.00000000000E+00 0.  1.
        -11    1    3    3    0    0  0.39068547917E+03  0.59224332529E+02  0.21577632757E+03  0.45022448704E+03  0.00000000000E+00 0. -1.
         22    1    1    2    0    0 -0.11064167023E+04 -0.29480567645E+03  0.19339844548E+04  0.22475240104E+04  0.00000000000E+00 0. -1.
<mgrwt>
<rscale>  0 0.24657762E+04</rscale>
<asrwt>0</asrwt>
<pdfrwt beam="1">  1        1 0.47105777E+00 0.24657762E+04</pdfrwt>
<pdfrwt beam="2">  1       -1 0.76374156E-01 0.24657762E+04</pdfrwt>
<totfact> 0.82582914E-01</totfact>
</mgrwt>
</event>
<event>
 6    1  0.2003386E-005  0.1743663E+04  0.7818608E-02  0.8736846E-01
          2   -1    0    0  501    0  0.00000000000E+00  0.00000000000E+00  0.22542892020E+04  0.22542892020E+04  0.00000000000E+00 0. -1.
         -2   -1    0    0    0  501 -0.00000000000E+00 -0.00000000000E+00 -0.33717509684E+03  0.33717509684E+03  0.00000000000E+00 0.  1.
         23    2    1    2    0    0 -0.53640405930E+03  0.14232615304E+03 -0.33770537129E+02  0.56318006427E+03  0.89695523495E+02 0.  0.
         13    1    3    3    0    0 -0.32360663533E+03  0.12657239732E+03 -0.39544684644E+02  0.34972218728E+03  0.00000000000E+00 0. -1.
        -13    1    3    3    0    0 -0.21279742397E+03  0.15753755725E+02  0.57741475148E+01  0.21345787699E+03  0.00000000000E+00 0.  1.
         22    1    1    2    0    0  0.53640405930E+03 -0.14232615304E+03  0.19508846423E+04  0.20282842346E+04  0.00000000000E+00 0. -1.
<mgrwt>
<rscale>  0 0.17436630E+04</rscale>
<asrwt>0</asrwt>
<pdfrwt beam="1">  1        2 0.34681371E+00 0.17436630E+04</pdfrwt>
<pdfrwt beam="2">  1       -2 0.51873093E-01 0.17436630E+04</pdfrwt>
<totfact> 0.16023467E+01</totfact>
</mgrwt>
</event>
<event>
 6    1  0.2003386E-005  0.3680222E+04  0.7818608E-02  0.8072359E-01
         -2   -1    0    0    0  501 -0.00000000000E+00  0.00000000000E+00  0.11070552641E+04  0.11070552641E+04  0.00000000000E+00 0.  1.
          2   -1    0    0  501    0  0.00000000000E+00 -0.00000000000E+00 -0.30585720753E+04  0.30585720753E+04  0.00000000000E+00 0. -1.
         23    2    1    2    0    0  0.53406107827E+03  0.22040346702E+03 -0.29525427929E+04  0.30098367271E+04  0.88369993711E+02 0.  0.
         11    1    3    3    0    0  0.48922674311E+03  0.20325711798E+03 -0.28078373619E+04  0.28573776287E+04  0.00000000000E+00 0. -1.
        -11    1    3    3    0    0  0.44834335165E+02  0.17146349043E+02 -0.14470543103E+03  0.15245909834E+03  0.00000000000E+00 0.  1.
         22    1    1    2    0    0 -0.53406107827E+03 -0.22040346702E+03  0.10010259817E+04  0.11557906123E+04  0.00000000000E+00 0.  1.
<mgrwt>
<rscale>  0 0.36802219E+04</rscale>
<asrwt>0</asrwt>
<pdfrwt beam="1">  1        2 0.47054955E+00 0.36802219E+04</pdfrwt>
<pdfrwt beam="2">  1       -2 0.17031620E+00 0.36802219E+04</pdfrwt>
<totfact> 0.27433256E-01</totfact>
</mgrwt>
</event>
<event>
 6    1  0.2003386E-005  0.6814264E+03  0.7818608E-02  0.9749533E-01
          2   -1    0    0  501    0  0.00000000000E+00  0.00000000000E+00  0.15092158144E+04  0.15092158144E+04  0.00000000000E+00 0. -1.
         -2   -1    0    0    0  501 -0.00000000000E+00 -0.00000000000E+00 -0.76917751754E+02  0.76917751754E+02  0.00000000000E+00 0.  1.
         23    2    1    2    0    0 -0.14091335598E+03  0.26582580942E+03  0.38728464789E+03  0.49867185563E+03  0.90356440012E+02 0.  0.
         11    1    3    3    0    0 -0.14551273837E+03  0.23458092134E+03  0.30949608652E+03  0.41471676269E+03  0.00000000000E+00 0.  1.
        -11    1    3    3    0    0  0.45993823900E+01  0.31244888084E+02  0.77788561369E+02  0.83955092934E+02  0.00000000000E+00 0. -1.
         22    1    1    2    0    0  0.14091335598E+03 -0.26582580942E+03  0.10450134147E+04  0.10874617105E+04  0.00000000000E+00 0. -1.
<mgrwt>
<rscale>  0 0.68142641E+03</rscale>
<asrwt>0</asrwt>
<pdfrwt beam="1">  1        2 0.23218703E+00 0.68142641E+03</pdfrwt>
<pdfrwt beam="2">  1       -2 0.11833501E-01 0.68142641E+03</pdfrwt>
<totfact> 0.66368616E+02</totfact>
</mgrwt>
</event>
<event>
 6    1  0.2003386E-005  0.2050324E+04  0.7818608E-02  0.8583448E-01
         -1   -1    0    0    0  501 -0.00000000000E+00  0.00000000000E+00  0.15149801739E+04  0.15149801739E+04  0.00000000000E+00 0.  1.
          1   -1    0    0  501    0  0.00000000000E+00 -0.00000000000E+00 -0.69370985168E+03  0.69370985168E+03  0.00000000000E+00 0. -1.
         23    2    1    2    0    0  0.39953343235E+03 -0.56528173016E+03 -0.40015231677E+03  0.80475140118E+03  0.91282764381E+02 0.  0.
         11    1    3    3    0    0  0.12314451385E+03 -0.18059041036E+03 -0.17638246114E+03  0.28087050433E+03  0.00000000000E+00 0.  1.
        -11    1    3    3    0    0  0.27638891851E+03 -0.38469131979E+03 -0.22376985563E+03  0.52388089685E+03  0.00000000000E+00 0. -1.
         22    1    1    2    0    0 -0.39953343235E+03  0.56528173016E+03  0.12214226390E+04  0.14039386244E+04  0.00000000000E+00 0.  1.
<mgrwt>
<rscale>  0 0.20503236E+04</rscale>
<asrwt>0</asrwt>
<pdfrwt beam="1">  1        1 0.10672459E+00 0.20503236E+04</pdfrwt>
<pdfrwt beam="2">  1       -1 0.23307387E+00 0.20503236E+04</pdfrwt>
<totfact> 0.22975021E+00</totfact>
</mgrwt>
</event>
<event>
 6    1  0.2003386E-005  0.9083891E+03  0.7818608E-02  0.9415155E-01
          2   -1    0    0  501    0  0.00000000000E+00  0.00000000000E+00  0.14883294903E+04  0.14883294903E+04  0.00000000000E+00 0.  1.
         -2   -1    0    0    0  501 -0.00000000000E+00 -0.00000000000E+00 -0.13860688060E+03  0.13860688060E+03  0.00000000000E+00 0. -1.
         23    2    1    2    0    0  0.28760019688E+03  0.25402023156E+03  0.26467974006E+03  0.47604185780E+03  0.96541878474E+02 0.  0.
         11    1    3    3    0    0  0.11684394972E+03  0.53003658444E+02  0.57265761265E+02  0.14050360781E+03  0.00000000000E+00 0.  1.
        -11    1    3    3    0    0  0.17075624716E+03  0.20101657311E+03  0.20741397879E+03  0.33553824999E+03  0.00000000000E+00 0. -1.
         22    1    1    2    0    0 -0.28760019688E+03 -0.25402023156E+03  0.10850428697E+04  0.11508945131E+04  0.00000000000E+00 0.  1.
<mgrwt>
<rscale>  0 0.90838914E+03</rscale>
<asrwt>0</asrwt>
<pdfrwt beam="1">  1        2 0.22897376E+00 0.90838914E+03</pdfrwt>
<pdfrwt beam="2">  1       -2 0.21324136E-01 0.90838914E+03</pdfrwt>
<totfact> 0.24650234E+02</totfact>
</mgrwt>
</event>
<event>
 6    1  0.2003386E-005  0.1686551E+04  0.7818608E-02  0.8769072E-01
         -2   -1    0    0    0  501 -0.00000000000E+00  0.00000000000E+00  0.35570774046E+03  0.35570774046E+03  0.00000000000E+00 0. -1.
          2   -1    0    0  501    0  0.00000000000E+00 -0.00000000000E+00 -0.19991516961E+04  0.19991516961E+04  0.00000000000E+00 0.  1.
         23    2    1    2    0    0  0.45521520460E+03 -0.23544387910E+02 -0.18108664216E+04  0.18692613488E+04  0.84413107231E+02 0.  0.
         11    1    3    3    0    0  0.33134534562E+03  0.11869569384E+02 -0.12003364357E+04  0.12452863862E+04  0.00000000000E+00 0. -1.
        -11    1    3    3    0    0  0.12386985898E+03 -0.35413957293E+02 -0.61052998594E+03  0.62397496269E+03  0.00000000000E+00 0.  1.
         22    1    1    2    0    0 -0.45521520460E+03  0.23544387910E+02  0.16742246596E+03  0.48559808773E+03  0.00000000000E+00 0. -1.
<mgrwt>
<rscale>  0 0.16865512E+04</rscale>
<asrwt>0</asrwt>
<pdfrwt beam="1">  1        2 0.30756180E+00 0.16865512E+04</pdfrwt>
<pdfrwt beam="2">  1       -2 0.54724268E-01 0.16865512E+04</pdfrwt>
<totfact> 0.20018226E+01</totfact>
</mgrwt>
</event>
<event>
 6    1  0.2003386E-005  0.2959963E+04  0.7818608E-02  0.8255257E-01
          2   -1    0    0  501    0  0.00000000000E+00  0.00000000000E+00  0.18888982362E+04  0.18888982362E+04  0.00000000000E+00 0. -1.
         -2   -1    0    0    0  501 -0.00000000000E+00 -0.00000000000E+00 -0.11595884106E+04  0.11595884106E+04  0.00000000000E+00 0.  1.
         23    2    1    2    0    0  0.99058527258E+03 -0.77813552067E+02  0.14927239927E+04  0.17954442208E+04  0.89893828378E+02 0.  0.
         13    1    3    3    0    0  0.79239795982E+03 -0.26604031399E+02  0.11990200379E+04  0.14374461216E+04  0.00000000000E+00 0.  1.
        -13    1    3    3    0    0  0.19818731276E+03 -0.51209520668E+02  0.29370395481E+03  0.35799809918E+03  0.00000000000E+00 0. -1.
         22    1    1    2    0    0 -0.99058527258E+03  0.77813552067E+02 -0.76341416708E+03  0.12530424261E+04  0.00000000000E+00 0.  1.
<mgrwt>
<rscale>  0 0.29599625E+04</rscale>
<asrwt>0</asrwt>
<pdfrwt beam="1">  1        2 0.29059973E+00 0.29599625E+04</pdfrwt>
<pdfrwt beam="2">  1       -2 0.17839822E+00 0.29599625E+04</pdfrwt>
<totfact> 0.12306389E+00</totfact>
</mgrwt>
</event>
<event>
 6    1  0.2003386E-005  0.2580908E+03  0.7818608E-02  0.1108296E+00
         -2   -1    0    0    0  501 -0.00000000000E+00  0.00000000000E+00  0.21242850799E+02  0.21242850799E+02  0.00000000000E+00 0.  1.
          2   -1    0    0  501    0  0.00000000000E+00 -0.00000000000E+00 -0.78392080875E+03  0.78392080875E+03  0.00000000000E+00 0. -1.
         23    2    1    2    0    0  0.41603712979E+02  0.10273835525E+03 -0.38877641107E+03  0.41517852479E+03  0.94551949037E+02 0.  0.
         13    1    3    3    0    0  0.58670747925E+02  0.98034259426E+02 -0.24515199278E+03  0.27046713709E+03  0.00000000000E+00 0.  1.
        -13    1    3    3    0    0 -0.17067034946E+02  0.47040958287E+01 -0.14362441829E+03  0.14471138770E+03  0.00000000000E+00 0. -1.
         22    1    1    2    0    0 -0.41603712979E+02 -0.10273835525E+03 -0.37390154688E+03  0.38998513476E+03  0.00000000000E+00 0. -1.
<mgrwt>
<rscale>  0 0.25809078E+03</rscale>
<asrwt>0</asrwt>
<pdfrwt beam="1">  1        2 0.12060321E+00 0.25809078E+03</pdfrwt>
<pdfrwt beam="2">  1       -2 0.32681307E-02 0.25809078E+03</pdfrwt>
<totfact> 0.13471091E+04</totfact>
</mgrwt>
</event>
<event>
 6    1  0.2003386E-005  0.2655708E+04  0.7818608E-02  0.8349521E-01
         -2   -1    0    0    0  501 -0.00000000000E+00  0.00000000000E+00  0.10431549578E+04  0.10431549578E+04  0.00000000000E+00 0.  1.
          2   -1    0    0  501    0  0.00000000000E+00 -0.00000000000E+00 -0.16902529586E+04  0.16902529586E+04  0.00000000000E+00 0. -1.
         23    2    1    2    0    0  0.70710303549E+03 -0.10610678506E+04 -0.69958180227E+03  0.14572362055E+04  0.90900901924E+02 0.  0.
         13    1    3    3    0    0  0.48195626945E+03 -0.79516603378E+03 -0.51645940400E+03  0.10636264302E+04  0.00000000000E+00 0.  1.
        -13    1    3    3    0    0  0.22514676605E+03 -0.26590181687E+03 -0.18312239827E+03  0.39360977531E+03  0.00000000000E+00 0. -1.
         22    1    1    2    0    0 -0.70710303549E+03  0.10610678506E+04  0.52483801418E+02  0.12761717110E+04  0.00000000000E+00 0.  1.
<mgrwt>
<rscale>  0 0.26557076E+04</rscale>
<asrwt>0</asrwt>
<pdfrwt beam="1">  1        2 0.26003891E+00 0.26557076E+04</pdfrwt>
<pdfrwt beam="2">  1       -2 0.16048538E+00 0.26557076E+04</pdfrwt>
<totfact> 0.21846773E+00</totfact>
</mgrwt>
</event>
<event>
 6    1  0.2003386E-005  0.2418205E+04  0.7818608E-02  0.8432719E-01
         -2   -1    0    0    0  501 -0.00000000000E+00  0.00000000000E+00  0.77437865699E+03  0.77437865699E+03  0.00000000000E+00 0.  1.
          2   -1    0    0  501    0  0.00000000000E+00 -0.00000000000E+00 -0.18878731468E+04  0.18878731468E+04  0.00000000000E+00 0. -1.
         23    2    1    2    0    0 -0.10511208184E+04 -0.59158983921E+03 -0.49808500666E+03  0.13081608376E+04  0.91447199083E+02 0.  0.
         13    1    3    3    0    0 -0.40043243396E+03 -0.25852880053E+03 -0.23364673253E+03  0.53082395433E+03  0.00000000000E+00 0.  1.
        -13    1    3    3    0    0 -0.65068838449E+03 -0.33306103868E+03 -0.26443827414E+03  0.77733688323E+03  0.00000000000E+00 0. -1.
         22    1    1    2    0    0  0.10511208184E+04  0.59158983921E+03 -0.61540948311E+03  0.13540909662E+04  0.00000000000E+00 0.  1.
<mgrwt>
<rscale>  0 0.24182048E+04</rscale>
<asrwt>0</asrwt>
<pdfrwt beam="1">  1        2 0.29044202E+00 0.24182048E+04</pdfrwt>
<pdfrwt beam="2">  1       -2 0.11913518E+00 0.24182048E+04</pdfrwt>
<totfact> 0.37438632E+00</totfact>
</mgrwt>
</event>
<event>
 6    1  0.2003386E-005  0.2640451E+04  0.7818608E-02  0.8354589E-01
         -2   -1    0    0    0  501 -0.00000000000E+00  0.00000000000E+00  0.13186404514E+04  0.13186404514E+04  0.00000000000E+00 0.  1.
          2   -1    0    0  501    0  0.00000000000E+00 -0.00000000000E+00 -0.13218128659E+04  0.13218128659E+04  0.00000000000E+00 0. -1.
         23    2    1    2    0    0  0.29278291384E+03  0.11108653963E+04  0.64573258943E+03  0.13210513818E+04  0.91991373937E+02 0.  0.
         13    1    3    3    0    0  0.55352873699E+02  0.24163394573E+03  0.18287641766E+03  0.30804981495E+03  0.00000000000E+00 0.  1.
        -13    1    3    3    0    0  0.23743004014E+03  0.86923145057E+03  0.46285617178E+03  0.10130015668E+04  0.00000000000E+00 0. -1.
         22    1    1    2    0    0 -0.29278291384E+03 -0.11108653963E+04 -0.64890500390E+03  0.13194019355E+04  0.00000000000E+00 0. -1.
<mgrwt>
<rscale>  0 0.26404514E+04</rscale>
<asrwt>0</asrwt>
<pdfrwt beam="1">  1        2 0.20335582E+00 0.26404514E+04</pdfrwt>
<pdfrwt beam="2">  1       -2 0.20286776E+00 0.26404514E+04</pdfrwt>
<totfact> 0.18028731E+00</totfact>
</mgrwt>
</event>
<event>
 6    1  0.2003386E-005  0.3170356E+04  0.7818608E-02  0.8196690E-01
          2   -1    0    0  501    0  0.00000000000E+00  0.00000000000E+00  0.26822820524E+04  0.26822820524E+04  0.00000000000E+00 0. -1.
         -2   -1    0    0    0  501 -0.00000000000E+00 -0.00000000000E+00 -0.93681050270E+03  0.93681050270E+03  0.00000000000E+00 0.  1.
         23    2    1    2    0    0 -0.16247374184E+03 -0.10670030295E+03  0.26678534278E+04  0.26764521144E+04  0.90395447196E+02 0.  0.
         11    1    3    3    0    0 -0.12875169032E+03 -0.12190411012E+03  0.22328595687E+04  0.22398882703E+04  0.00000000000E+00 0. -1.
        -11    1    3    3    0    0 -0.33722051520E+02  0.15203807166E+02  0.43499385908E+03  0.43656384407E+03  0.00000000000E+00 0.  1.
         22    1    1    2    0    0  0.16247374184E+03  0.10670030295E+03 -0.92238187811E+03  0.94264044073E+03  0.00000000000E+00 0.  1.
<mgrwt>
<rscale>  0 0.31703564E+04</rscale>
<asrwt>0</asrwt>
<pdfrwt beam="1">  1        2 0.41265878E+00 0.31703564E+04</pdfrwt>
<pdfrwt beam="2">  1       -2 0.14412469E+00 0.31703564E+04</pdfrwt>
<totfact> 0.76435117E-01</totfact>
</mgrwt>
</event>
<event>
 6    1  0.2003386E-005  0.1620536E+04  0.7818608E-02  0.8808030E-01
          2   -1    0    0  501    0  0.00000000000E+00  0.00000000000E+00  0.22132731402E+04  0.22132731402E+04  0.00000000000E+00 0.  1.
         -2   -1    0    0    0  501 -0.00000000000E+00 -0.00000000000E+00 -0.29663515065E+03  0.29663515065E+03  0.00000000000E+00 0. -1.
         23    2    1    2    0    0 -0.61691539441E+03  0.38572093176E+03  0.15047354510E+04  0.16738287837E+04  0.90048756060E+02 0.  0.
         11    1    3    3    0    0 -0.34986207157E+03  0.24231957674E+03  0.78679486817E+03  0.89452133064E+03  0.00000000000E+00 0.  1.
        -11    1    3    3    0    0 -0.26705332284E+03  0.14340135503E+03  0.71794058285E+03  0.77930745305E+03  0.00000000000E+00 0. -1.
         22    1    1    2    0    0  0.61691539441E+03 -0.38572093176E+03  0.41190253853E+03  0.83607950717E+03  0.00000000000E+00 0. -1.
<mgrwt>
<rscale>  0 0.16205365E+04</rscale>
<asrwt>0</asrwt>
<pdfrwt beam="1">  1        2 0.34050355E+00 0.16205365E+04</pdfrwt>
<pdfrwt beam="2">  1       -2 0.45636178E-01 0.16205365E+04</pdfrwt>
<totfact> 0.22143359E+01</totfact>
</mgrwt>
</event>
<event>
 6    1  0.2003386E-005  0.1995221E+04  0.7818608E-02  0.8608858E-01
          2   -1    0    0  501    0  0.00000000000E+00  0.00000000000E+00  0.61546368440E+03  0.61546368440E+03  0.00000000000E+00 0. -1.
         -2   -1    0    0    0  501 -0.00000000000E+00 -0.00000000000E+00 -0.16170351250E+04  0.16170351250E+04  0.00000000000E+00 0.  1.
         23    2    1    2    0    0 -0.69477480462E+03  0.35481903432E+03 -0.11921457506E+04  0.14294252487E+04  0.11591580928E+03 0.  0.
         11    1    3    3    0    0 -0.64548376641E+03  0.32018621682E+03 -0.10348199844E+04  0.12609603111E+04  0.00000000000E+00 0. -1.
        -11    1    3    3    0    0 -0.49291038210E+02  0.34632817502E+02 -0.15732576620E+03  0.16846493762E+03  0.00000000000E+00 0.  1.
         22    1    1    2    0    0  0.69477480462E+03 -0.35481903432E+03  0.19057430997E+03  0.80307356068E+03  0.00000000000E+00 0. -1.
<mgrwt>
<rscale>  0 0.19952207E+04</rscale>
<asrwt>0</asrwt>
<pdfrwt beam="1">  1        2 0.94686720E-01 0.19952207E+04</pdfrwt>
<pdfrwt beam="2">  1       -2 0.24877464E+00 0.19952207E+04</pdfrwt>
<totfact> 0.29216539E+00</totfact>
</mgrwt>
</event>
<event>
 6    1  0.2003386E-005  0.3684620E+04  0.7818608E-02  0.8071379E-01
          2   -1    0    0  501    0  0.00000000000E+00  0.00000000000E+00  0.42980681283E+04  0.42980681283E+04  0.00000000000E+00 0. -1.
         -2   -1    0    0    0  501 -0.00000000000E+00 -0.00000000000E+00 -0.78968166168E+03  0.78968166168E+03  0.00000000000E+00 0.  1.
         23    2    1    2    0    0 -0.98985111953E+03  0.13992051392E+04  0.26840228947E+04  0.31858676804E+04  0.90519153639E+02 0.  0.
         13    1    3    3    0    0 -0.72254507241E+03  0.10307907850E+04  0.20430647937E+04  0.23997322299E+04  0.00000000000E+00 0. -1.
        -13    1    3    3    0    0 -0.26730604712E+03  0.36841435419E+03  0.64095810100E+03  0.78613545044E+03  0.00000000000E+00 0.  1.
         22    1    1    2    0    0  0.98985111953E+03 -0.13992051392E+04  0.82436357195E+03  0.19018821097E+04  0.00000000000E+00 0.  1.
<mgrwt>
<rscale>  0 0.36846197E+04</rscale>
<asrwt>0</asrwt>
<pdfrwt beam="1">  1        2 0.66124124E+00 0.36846197E+04</pdfrwt>
<pdfrwt beam="2">  1       -2 0.12148949E+00 0.36846197E+04</pdfrwt>
<totfact> 0.79014492E-02</totfact>
</mgrwt>
</event>
<event>
 6    1  0.2003386E-005  0.6008770E+04  0.7818608E-02  0.7689315E-01
          2   -1    0    0  501    0  0.00000000000E+00  0.00000000000E+00  0.36534499531E+04  0.36534499531E+04  0.00000000000E+00 0. -1.
         -2   -1    0    0    0  501 -0.00000000000E+00 -0.00000000000E+00 -0.24706316762E+04  0.24706316762E+04  0.00000000000E+00 0.  1.
         23    2    1    2    0    0  0.66350134693E+03  0.37406029012E+03 -0.23697290947E+04  0.24907982704E+04  0.91131244139E+02 0.  0.
         13    1    3    3    0    0  0.29214532766E+03  0.12913083826E+03 -0.88610260308E+03  0.94191373759E+03  0.00000000000E+00 0. -1.
        -13    1    3    3    0    0  0.37135601927E+03  0.24492945187E+03 -0.14836264916E+04  0.15488845328E+04  0.00000000000E+00 0.  1.
         22    1    1    2    0    0 -0.66350134693E+03 -0.37406029012E+03  0.35525473716E+04  0.36332833588E+04  0.00000000000E+00 0. -1.
<mgrwt>
<rscale>  0 0.60087700E+04</rscale>
<asrwt>0</asrwt>
<pdfrwt beam="1">  1        2 0.56206922E+00 0.60087700E+04</pdfrwt>
<pdfrwt beam="2">  1       -2 0.38009718E+00 0.60087700E+04</pdfrwt>
<totfact> 0.42371137E-03</totfact>
</mgrwt>
</event>
<event>
 6    1  0.2003386E-005  0.4410391E+04  0.7818608E-02  0.7926515E-01
         -2   -1    0    0    0  501 -0.00000000000E+00  0.00000000000E+00  0.35886075238E+04  0.35886075238E+04  0.00000000000E+00 0. -1.
          2   -1    0    0  501    0  0.00000000000E+00 -0.00000000000E+00 -0.13550900826E+04  0.13550900826E+04  0.00000000000E+00 0.  1.
         23    2    1    2    0    0 -0.13360528621E+04 -0.15579633420E+04  0.20185034805E+04  0.28800799023E+04  0.90647215509E+02 0.  0.
         11    1    3    3    0    0 -0.66830953940E+03 -0.79858535415E+03  0.10850893660E+04  0.15039265741E+04  0.00000000000E+00 0.  1.
        -11    1    3    3    0    0 -0.66774332269E+03 -0.75937798783E+03  0.93341411453E+03  0.13761533282E+04  0.00000000000E+00 0. -1.
         22    1    1    2    0    0  0.13360528621E+04  0.15579633420E+04  0.21501396066E+03  0.20636177041E+04  0.00000000000E+00 0.  1.
<mgrwt>
<rscale>  0 0.44103907E+04</rscale>
<asrwt>0</asrwt>
<pdfrwt beam="1">  1        2 0.20847540E+00 0.44103907E+04</pdfrwt>
<pdfrwt beam="2">  1       -2 0.55209346E+00 0.44103907E+04</pdfrwt>
<totfact> 0.98075888E-03</totfact>
</mgrwt>
</event>
<event>
 6    1  0.2003386E-005  0.3873997E+03  0.7818608E-02  0.1048232E+00
          2   -1    0    0  501    0  0.00000000000E+00  0.00000000000E+00  0.16195112874E+04  0.16195112874E+04  0.00000000000E+00 0. -1.
         -2   -1    0    0    0  501 -0.00000000000E+00 -0.00000000000E+00 -0.23167255431E+02  0.23167255431E+02  0.00000000000E+00 0.  1.
         23    2    1    2    0    0 -0.68509962199E+02  0.15810826493E+03  0.11143915452E+04  0.11308484559E+04  0.85193168093E+02 0.  0.
         11    1    3    3    0    0  0.75046152643E+01  0.86654045212E+02  0.56213830384E+03  0.56882749182E+03  0.00000000000E+00 0. -1.
        -11    1    3    3    0    0 -0.76014577463E+02  0.71454219715E+02  0.55225324138E+03  0.56202096413E+03  0.00000000000E+00 0.  1.
         22    1    1    2    0    0  0.68509962199E+02 -0.15810826493E+03  0.48195248671E+03  0.51183008685E+03  0.00000000000E+00 0.  1.
<mgrwt>
<rscale>  0 0.38739970E+03</rscale>
<asrwt>0</asrwt>
<pdfrwt beam="1">  1        2 0.24915549E+00 0.38739970E+03</pdfrwt>
<pdfrwt beam="2">  1       -2 0.35641944E-02 0.38739970E+03</pdfrwt>
<totfact> 0.38554440E+03</totfact>
</mgrwt>
</event>
<event>
 6    1  0.2003386E-005  0.8464651E+03  0.7818608E-02  0.9495094E-01
          2   -1    0    0  501    0  0.00000000000E+00  0.00000000000E+00  0.19666102065E+04  0.19666102065E+04  0.00000000000E+00 0. -1.
         -2   -1    0    0    0  501 -0.00000000000E+00 -0.00000000000E+00 -0.91083535799E+02  0.91083535799E+02  0.00000000000E+00 0.  1.
         23    2    1    2    0    0  0.35426280799E+03  0.16675409248E+03  0.13015678419E+04  0.13629003905E+04  0.10054632258E+03 0.  0.
         11    1    3    3    0    0  0.15634759604E+03  0.68693775177E+02  0.74015865762E+03  0.75960400472E+03  0.00000000000E+00 0.  1.
        -11    1    3    3    0    0  0.19791521195E+03  0.98060317307E+02  0.56140918428E+03  0.60329638582E+03  0.00000000000E+00 0. -1.
         22    1    1    2    0    0 -0.35426280799E+03 -0.16675409248E+03  0.57395882878E+03  0.69479335174E+03  0.00000000000E+00 0.  1.
<mgrwt>
<rscale>  0 0.84646515E+03</rscale>
<asrwt>0</asrwt>
<pdfrwt beam="1">  1        2 0.30255539E+00 0.84646515E+03</pdfrwt>
<pdfrwt beam="2">  1       -2 0.14012853E-01 0.84646515E+03</pdfrwt>
<totfact> 0.27823910E+02</totfact>
</mgrwt>
</event>
<event>
 6    1  0.2003386E-005  0.1433341E+04  0.7818608E-02  0.8930032E-01
         -2   -1    0    0    0  501 -0.00000000000E+00  0.00000000000E+00  0.10224025917E+04  0.10224025917E+04  0.00000000000E+00 0.  1.
          2   -1    0    0  501    0  0.00000000000E+00 -0.00000000000E+00 -0.50236247123E+03  0.50236247123E+03  0.00000000000E+00 0. -1.
         23    2    1    2    0    0  0.37041207798E+03 -0.47809525820E+03  0.66410323907E+03  0.90304618308E+03  0.93161758222E+02 0.  0.
         13    1    3    3    0    0  0.21296335245E+03 -0.20279877569E+03  0.29776095906E+03  0.41850008560E+03  0.00000000000E+00 0. -1.
        -13    1    3    3    0    0  0.15744872553E+03 -0.27529648251E+03  0.36634228002E+03  0.48454609748E+03  0.00000000000E+00 0.  1.
         22    1    1    2    0    0 -0.37041207798E+03  0.47809525820E+03 -0.14406311860E+03  0.62171887986E+03  0.00000000000E+00 0. -1.
<mgrwt>
<rscale>  0 0.14333411E+04</rscale>
<asrwt>0</asrwt>
<pdfrwt beam="1">  1        2 0.77286534E-01 0.14333411E+04</pdfrwt>
<pdfrwt beam="2">  1       -2 0.15729271E+00 0.14333411E+04</pdfrwt>
<totfact> 0.15674120E+01</totfact>
</mgrwt>
</event>
<event>
 6    1  0.2003386E-005  0.3714481E+04  0.7818608E-02  0.8064760E-01
          1   -1    0    0  501    0  0.00000000000E+00  0.00000000000E+00  0.25345152618E+04  0.25345152618E+04  0.00000000000E+00 0. -1.
         -1   -1    0    0    0  501 -0.00000000000E+00 -0.00000000000E+00 -0.13609472594E+04  0.13609472594E+04  0.00000000000E+00 0.  1.
         23    2    1    2    0    0  0.12342423014E+04  0.93826563750E+03 -0.48306898279E+03  0.16265106562E+04  0.92113015335E+02 0.  0.
         13    1    3    3    0    0  0.24584320687E+03  0.18855924616E+03 -0.58457730806E+02  0.31529474777E+03  0.00000000000E+00 0.  1.
        -13    1    3    3    0    0  0.98839909452E+03  0.74970639134E+03 -0.42461125199E+03  0.13112159085E+04  0.00000000000E+00 0. -1.
         22    1    1    2    0    0 -0.12342423014E+04 -0.93826563750E+03  0.16566369852E+04  0.22689518650E+04  0.00000000000E+00 0. -1.
<mgrwt>
<rscale>  0 0.37144806E+04</rscale>
<asrwt>0</asrwt>
<pdfrwt beam="1">  1        1 0.38992542E+00 0.37144806E+04</pdfrwt>
<pdfrwt beam="2">  1       -1 0.20937650E+00 0.37144806E+04</pdfrwt>
<totfact> 0.13334792E-01</totfact>
</mgrwt>
</event>
<event>
 6    1  0.2003386E-005  0.1592756E+04  0.7818608E-02  0.8825011E-01
          1   -1    0    0  501    0  0.00000000000E+00  0.00000000000E+00  0.61636000077E+03  0.61636000077E+03  0.00000000000E+00 0.  1.
         -1   -1    0    0    0  501 -0.00000000000E+00 -0.00000000000E+00 -0.10289734481E+04  0.10289734481E+04  0.00000000000E+00 0. -1.
         23    2    1    2    0    0  0.36138021095E+03 -0.65887827986E+03 -0.47200864199E+03  0.89151381951E+03  0.85372640357E+02 0.  0.
         11    1    3    3    0    0  0.78749781592E+02 -0.19635568428E+03 -0.99327485983E+02  0.23371570834E+03  0.00000000000E+00 0. -1.
        -11    1    3    3    0    0  0.28263042936E+03 -0.46252259558E+03 -0.37268115601E+03  0.65779811117E+03  0.00000000000E+00 0.  1.
         22    1    1    2    0    0 -0.36138021095E+03  0.65887827986E+03  0.59395194622E+02  0.75381962941E+03  0.00000000000E+00 0.  1.
<mgrwt>
<rscale>  0 0.15927562E+04</rscale>
<asrwt>0</asrwt>
<pdfrwt beam="1">  1        1 0.94824617E-01 0.15927562E+04</pdfrwt>
<pdfrwt beam="2">  1       -1 0.15830361E+00 0.15927562E+04</pdfrwt>
<totfact> 0.95194332E+00</totfact>
</mgrwt>
</event>
<event>
 6    1  0.2003386E-005  0.2446861E+04  0.7818608E-02  0.8422165E-01
          2   -1    0    0  501    0  0.00000000000E+00  0.00000000000E+00  0.21324451402E+04  0.21324451402E+04  0.00000000000E+00 0. -1.
         -2   -1    0    0    0  501 -0.00000000000E+00 -0.00000000000E+00 -0.70190899719E+03  0.70190899719E+03  0.00000000000E+00 0.  1.
         23    2    1    2    0    0 -0.11937609863E+04  0.25854279272E+03  0.68925642790E+03  0.14055765885E+04  0.93066936060E+02 0.  0.
         13    1    3    3    0    0 -0.24057312447E+03  0.37717829411E+02  0.17792513865E+03  0.30158815931E+03  0.00000000000E+00 0. -1.
        -13    1    3    3    0    0 -0.95318786187E+03  0.22082496330E+03  0.51133128925E+03  0.11039884292E+04  0.00000000000E+00 0.  1.
         22    1    1    2    0    0  0.11937609863E+04 -0.25854279272E+03  0.74127971511E+03  0.14287775489E+04  0.00000000000E+00 0. -1.
<mgrwt>
<rscale>  0 0.24468612E+04</rscale>
<asrwt>0</asrwt>
<pdfrwt beam="1">  1        2 0.32806848E+00 0.24468612E+04</pdfrwt>
<pdfrwt beam="2">  1       -2 0.10798600E+00 0.24468612E+04</pdfrwt>
<totfact> 0.34679118E+00</totfact>
</mgrwt>
</event>
<event>
 6    1  0.2516652E-005  0.3245075E+04  0.7818608E-02  0.8177013E-01
          2   -1    0    0  501    0  0.00000000000E+00  0.00000000000E+00  0.17879014827E+04  0.17879014827E+04  0.00000000000E+00 0.  1.
         -2   -1    0    0    0  501 -0.00000000000E+00 -0.00000000000E+00 -0.14724681650E+04  0.14724681650E+04  0.00000000000E+00 0. -1.
         23    2    1    2    0    0 -0.73732113079E+03 -0.13005020757E+04 -0.47228403546E+03  0.15705629347E+04  0.93100070491E+02 0.  0.
         13    1    3    3    0    0 -0.56580546974E+03 -0.92296976447E+03 -0.36146159868E+03  0.11413428508E+04  0.00000000000E+00 0. -1.
        -13    1    3    3    0    0 -0.17151566105E+03 -0.37753231120E+03 -0.11082243678E+03  0.42922008397E+03  0.00000000000E+00 0.  1.
         22    1    1    2    0    0  0.73732113079E+03  0.13005020757E+04  0.78771735319E+03  0.16898067130E+04  0.00000000000E+00 0.  1.
<mgrwt>
<rscale>  0 0.32450750E+04</rscale>
<asrwt>0</asrwt>
<pdfrwt beam="1">  1        2 0.27506177E+00 0.32450750E+04</pdfrwt>
<pdfrwt beam="2">  1       -2 0.22653356E+00 0.32450750E+04</pdfrwt>
<totfact> 0.66089315E-01</totfact>
</mgrwt>
</event>
<event>
 6    1  0.2003386E-005  0.2058169E+04  0.7818608E-02  0.8579898E-01
         -2   -1    0    0    0  501 -0.00000000000E+00  0.00000000000E+00  0.44661097838E+03  0.44661097838E+03  0.00000000000E+00 0.  1.
          2   -1    0    0  501    0  0.00000000000E+00 -0.00000000000E+00 -0.23712238294E+04  0.23712238294E+04  0.00000000000E+00 0. -1.
         23    2    1    2    0    0 -0.52962250462E+03 -0.87253709205E+03 -0.80614873516E+03  0.13036409784E+04  0.88221556291E+02 0.  0.
         11    1    3    3    0    0 -0.25835658626E+03 -0.46508633872E+03 -0.37009673506E+03  0.64809337401E+03  0.00000000000E+00 0.  1.
        -11    1    3    3    0    0 -0.27126591836E+03 -0.40745075333E+03 -0.43605200010E+03  0.65554760441E+03  0.00000000000E+00 0. -1.
         22    1    1    2    0    0  0.52962250462E+03  0.87253709205E+03 -0.11184641158E+04  0.15141938293E+04  0.00000000000E+00 0. -1.
<mgrwt>
<rscale>  0 0.20581687E+04</rscale>
<asrwt>0</asrwt>
<pdfrwt beam="1">  1        2 0.36480367E+00 0.20581687E+04</pdfrwt>
<pdfrwt beam="2">  1       -2 0.68709381E-01 0.20581687E+04</pdfrwt>
<totfact> 0.73932698E+00</totfact>
</mgrwt>
</event>
<event>
 6    1  0.2003386E-005  0.2820690E+03  0.7818608E-02  0.1094564E+00
          2   -1    0    0  501    0  0.00000000000E+00  0.00000000000E+00  0.22698989459E+04  0.22698989459E+04  0.00000000000E+00 0. -1.
         -2   -1    0    0    0  501 -0.00000000000E+00 -0.00000000000E+00 -0.87628275213E+01  0.87628275213E+01  0.00000000000E+00 0.  1.
         23    2    1    2    0    0 -0.65837071893E+02  0.42818564206E+02  0.20377331121E+04  0.20418562568E+04  0.10321234383E+03 0.  0.
         13    1    3    3    0    0 -0.13863638653E+01  0.16769769407E+02  0.14394123330E+04  0.14395106847E+04  0.00000000000E+00 0. -1.
        -13    1    3    3    0    0 -0.64450708027E+02  0.26048794799E+02  0.59832077910E+03  0.60234557206E+03  0.00000000000E+00 0.  1.
         22    1    1    2    0    0  0.65837071893E+02 -0.42818564206E+02  0.22340300632E+03  0.23680551663E+03  0.00000000000E+00 0.  1.
<mgrwt>
<rscale>  0 0.28206902E+03</rscale>
<asrwt>0</asrwt>
<pdfrwt beam="1">  1        2 0.34921475E+00 0.28206902E+03</pdfrwt>
<pdfrwt beam="2">  1       -2 0.13481291E-02 0.28206902E+03</pdfrwt>
<totfact> 0.73707917E+03</totfact>
</mgrwt>
</event>
<event>
 6    1  0.2003386E-005  0.2620831E+04  0.7818608E-02  0.8361160E-01
         -2   -1    0    0    0  501 -0.00000000000E+00  0.00000000000E+00  0.51853897619E+03  0.51853897619E+03  0.00000000000E+00 0.  1.
          2   -1    0    0  501    0  0.00000000000E+00 -0.00000000000E+00 -0.33115912773E+04  0.33115912773E+04  0.00000000000E+00 0. -1.
         23    2    1    2    0    0 -0.42413508126E+03  0.12361613695E+04 -0.12943152091E+04  0.18416136281E+04  0.91122972050E+02 0.  0.
         11    1    3    3    0    0 -0.37668964154E+03  0.10478398687E+04 -0.11399284072E+04  0.15935181988E+04  0.00000000000E+00 0. -1.
        -11    1    3    3    0    0 -0.47445439721E+02  0.18832150080E+03 -0.15438680193E+03  0.24809542927E+03  0.00000000000E+00 0.  1.
         22    1    1    2    0    0  0.42413508126E+03 -0.12361613695E+04 -0.14987370919E+04  0.19885166254E+04  0.00000000000E+00 0.  1.
<mgrwt>
<rscale>  0 0.26208313E+04</rscale>
<asrwt>0</asrwt>
<pdfrwt beam="1">  1        2 0.50947558E+00 0.26208313E+04</pdfrwt>
<pdfrwt beam="2">  1       -2 0.79775228E-01 0.26208313E+04</pdfrwt>
<totfact> 0.13443533E+00</totfact>
</mgrwt>
</event>
<event>
 6    1  0.2003386E-005  0.1693865E+04  0.7818608E-02  0.8764871E-01
         -4   -1    0    0    0  501 -0.00000000000E+00  0.00000000000E+00  0.63504007105E+03  0.63504007105E+03  0.00000000000E+00 0.  1.
          4   -1    0    0  501    0  0.00000000000E+00 -0.00000000000E+00 -0.11295269164E+04  0.11295269164E+04  0.00000000000E+00 0. -1.
         23    2    1    2    0    0  0.21506127925E+03  0.37974270836E+03 -0.10010724617E+04  0.10959229378E+04  0.91897408371E+02 0.  0.
         13    1    3    3    0    0  0.21564893273E+03  0.32865608737E+03 -0.85121731080E+03  0.93759809949E+03  0.00000000000E+00 0.  1.
        -13    1    3    3    0    0 -0.58765347625E+00  0.51086620994E+02 -0.14985515088E+03  0.15832483831E+03  0.00000000000E+00 0. -1.
         22    1    1    2    0    0 -0.21506127925E+03 -0.37974270836E+03  0.50658561636E+03  0.66864404962E+03  0.00000000000E+00 0.  1.
<mgrwt>
<rscale>  0 0.16938652E+04</rscale>
<asrwt>0</asrwt>
<pdfrwt beam="1">  1        4 0.17377337E+00 0.16938652E+04</pdfrwt>
<pdfrwt beam="2">  1       -4 0.97698473E-01 0.16938652E+04</pdfrwt>
<totfact> 0.33044348E-01</totfact>
</mgrwt>
</event>
<event>
 6    1  0.2003386E-005  0.1859485E+04  0.7818608E-02  0.8675290E-01
         -2   -1    0    0    0  501 -0.00000000000E+00  0.00000000000E+00  0.10027887901E+04  0.10027887901E+04  0.00000000000E+00 0. -1.
          2   -1    0    0  501    0  0.00000000000E+00 -0.00000000000E+00 -0.86201679946E+03  0.86201679946E+03  0.00000000000E+00 0.  1.
         23    2    1    2    0    0 -0.19035627781E+03  0.52757048914E+03 -0.67042183904E+03  0.87859995035E+03  0.88917360369E+02 0.  0.
         13    1    3    3    0    0 -0.77712442546E+02  0.32205913030E+03 -0.35409535171E+03  0.48491733856E+03  0.00000000000E+00 0.  1.
        -13    1    3    3    0    0 -0.11264383527E+03  0.20551135884E+03 -0.31632648733E+03  0.39368261179E+03  0.00000000000E+00 0. -1.
         22    1    1    2    0    0  0.19035627781E+03 -0.52757048914E+03  0.81119382970E+03  0.98620563924E+03  0.00000000000E+00 0. -1.
<mgrwt>
<rscale>  0 0.18594846E+04</rscale>
<asrwt>0</asrwt>
<pdfrwt beam="1">  1        2 0.13261797E+00 0.18594846E+04</pdfrwt>
<pdfrwt beam="2">  1       -2 0.15427520E+00 0.18594846E+04</pdfrwt>
<totfact> 0.81294734E+00</totfact>
</mgrwt>
</event>
<event>
 6    1  0.2003386E-005  0.2030951E+04  0.7818608E-02  0.8592285E-01
         -2   -1    0    0    0  501 -0.00000000000E+00  0.00000000000E+00  0.35523460104E+03  0.35523460104E+03  0.00000000000E+00 0.  1.
          2   -1    0    0  501    0  0.00000000000E+00 -0.00000000000E+00 -0.29028440415E+04  0.29028440415E+04  0.00000000000E+00 0. -1.
         23    2    1    2    0    0 -0.39258654667E+03  0.41384659554E+02 -0.27737139181E+04  0.28031499432E+04  0.91234959421E+02 0.  0.
         13    1    3    3    0    0 -0.12461562777E+03  0.43142483118E+02 -0.11402922280E+04  0.11478922832E+04  0.00000000000E+00 0. -1.
        -13    1    3    3    0    0 -0.26797091891E+03 -0.17578235642E+01 -0.16334216901E+04  0.16552576600E+04  0.00000000000E+00 0.  1.
         22    1    1    2    0    0  0.39258654667E+03 -0.41384659554E+02  0.22610447765E+03  0.45492869935E+03  0.00000000000E+00 0.  1.
<mgrwt>
<rscale>  0 0.20309512E+04</rscale>
<asrwt>0</asrwt>
<pdfrwt beam="1">  1        2 0.44659139E+00 0.20309512E+04</pdfrwt>
<pdfrwt beam="2">  1       -2 0.54651478E-01 0.20309512E+04</pdfrwt>
<totfact> 0.58522927E+00</totfact>
</mgrwt>
</event>
<event>
 6    1  0.2003386E-005  0.1752698E+04  0.7818608E-02  0.8731867E-01
         -2   -1    0    0    0  501 -0.00000000000E+00  0.00000000000E+00  0.65503448214E+03  0.65503448214E+03  0.00000000000E+00 0.  1.
          2   -1    0    0  501    0  0.00000000000E+00 -0.00000000000E+00 -0.11724379378E+04  0.11724379378E+04  0.00000000000E+00 0. -1.
         23    2    1    2    0    0 -0.30213112509E+03  0.47710934471E+03 -0.95486040353E+03  0.11131299777E+04  0.91560982674E+02 0.  0.
         13    1    3    3    0    0 -0.59971642540E+01  0.59949328041E+02 -0.90468679156E+02  0.10869438725E+03  0.00000000000E+00 0. -1.
        -13    1    3    3    0    0 -0.29613396083E+03  0.41716001667E+03 -0.86439172437E+03  0.10044355905E+04  0.00000000000E+00 0.  1.
         22    1    1    2    0    0  0.30213112509E+03 -0.47710934471E+03  0.43745694784E+03  0.71434244223E+03  0.00000000000E+00 0.  1.
<mgrwt>
<rscale>  0 0.17526977E+04</rscale>
<asrwt>0</asrwt>
<pdfrwt beam="1">  1        2 0.18037507E+00 0.17526977E+04</pdfrwt>
<pdfrwt beam="2">  1       -2 0.10077454E+00 0.17526977E+04</pdfrwt>
<totfact> 0.15124734E+01</totfact>
</mgrwt>
</event>
<event>
 6    1  0.2003386E-005  0.5460135E+04  0.7818608E-02  0.7761199E-01
         -2   -1    0    0    0  501 -0.00000000000E+00  0.00000000000E+00  0.25517026078E+04  0.25517026078E+04  0.00000000000E+00 0.  1.
          2   -1    0    0  501    0  0.00000000000E+00 -0.00000000000E+00 -0.29208998242E+04  0.29208998242E+04  0.00000000000E+00 0. -1.
         23    2    1    2    0    0  0.16725483033E+04 -0.19688963415E+04 -0.10670971602E+04  0.27965914152E+04  0.90865633992E+02 0.  0.
         13    1    3    3    0    0  0.10655571951E+04 -0.12029061757E+04 -0.69468125888E+03  0.17507077012E+04  0.00000000000E+00 0. -1.
        -13    1    3    3    0    0  0.60699110825E+03 -0.76599016582E+03 -0.37241590135E+03  0.10458837140E+04  0.00000000000E+00 0.  1.
         22    1    1    2    0    0 -0.16725483033E+04  0.19688963415E+04  0.69789994390E+03  0.26760110168E+04  0.00000000000E+00 0.  1.
<mgrwt>
<rscale>  0 0.54601347E+04</rscale>
<asrwt>0</asrwt>
<pdfrwt beam="1">  1        2 0.44936921E+00 0.54601347E+04</pdfrwt>
<pdfrwt beam="2">  1       -2 0.39256963E+00 0.54601347E+04</pdfrwt>
<totfact> 0.11368210E-02</totfact>
</mgrwt>
</event>
<event>
 6    1  0.2003386E-005  0.3296888E+04  0.7818608E-02  0.8163688E-01
          2   -1    0    0  501    0  0.00000000000E+00  0.00000000000E+00  0.19984412989E+04  0.19984412989E+04  0.00000000000E+00 0.  1.
         -2   -1    0    0    0  501 -0.00000000000E+00 -0.00000000000E+00 -0.13597434686E+04  0.13597434686E+04  0.00000000000E+00 0. -1.
         23    2    1    2    0    0  0.60366099201E+03  0.11306548329E+04 -0.73428841158E+03  0.14799200989E+04  0.90537745331E+02 0.  0.
         11    1    3    3    0    0  0.27053579803E+03  0.42791321024E+03 -0.26189954499E+03  0.56999184659E+03  0.00000000000E+00 0. -1.
        -11    1    3    3    0    0  0.33312519398E+03  0.70274162269E+03 -0.47238886659E+03  0.90992825234E+03  0.00000000000E+00 0.  1.
         22    1    1    2    0    0 -0.60366099201E+03 -0.11306548329E+04  0.13729862419E+04  0.18782646685E+04  0.00000000000E+00 0.  1.
<mgrwt>
<rscale>  0 0.32968879E+04</rscale>
<asrwt>0</asrwt>
<pdfrwt beam="1">  1        2 0.30745251E+00 0.32968879E+04</pdfrwt>
<pdfrwt beam="2">  1       -2 0.20919130E+00 0.32968879E+04</pdfrwt>
<totfact> 0.64820035E-01</totfact>
</mgrwt>
</event>
<event>
 6    1  0.2003386E-005  0.2586381E+04  0.7818608E-02  0.8372842E-01
         -2   -1    0    0    0  501 -0.00000000000E+00  0.00000000000E+00  0.68681034321E+03  0.68681034321E+03  0.00000000000E+00 0.  1.
          2   -1    0    0  501    0  0.00000000000E+00 -0.00000000000E+00 -0.24349390890E+04  0.24349390890E+04  0.00000000000E+00 0. -1.
         23    2    1    2    0    0 -0.58000705593E+03 -0.10188761234E+04 -0.15291190555E+04  0.19290709407E+04  0.92697728562E+02 0.  0.
         11    1    3    3    0    0 -0.33567308382E+03 -0.57910190638E+03 -0.79754410105E+03  0.10412070065E+04  0.00000000000E+00 0.  1.
        -11    1    3    3    0    0 -0.24433397211E+03 -0.43977421697E+03 -0.73157495440E+03  0.88786393425E+03  0.00000000000E+00 0. -1.
         22    1    1    2    0    0  0.58000705593E+03  0.10188761234E+04 -0.21900969036E+03  0.11926784915E+04  0.00000000000E+00 0.  1.
<mgrwt>
<rscale>  0 0.25863808E+04</rscale>
<asrwt>0</asrwt>
<pdfrwt beam="1">  1        2 0.37460601E+00 0.25863808E+04</pdfrwt>
<pdfrwt beam="2">  1       -2 0.10566313E+00 0.25863808E+04</pdfrwt>
<totfact> 0.24333642E+00</totfact>
</mgrwt>
</event>
<event>
 6    1  0.2003386E-005  0.1355541E+04  0.7818608E-02  0.8986644E-01
          1   -1    0    0  501    0  0.00000000000E+00  0.00000000000E+00  0.70576595231E+03  0.70576595231E+03  0.00000000000E+00 0. -1.
         -1   -1    0    0    0  501 -0.00000000000E+00 -0.00000000000E+00 -0.65088558143E+03  0.65088558143E+03  0.00000000000E+00 0.  1.
         23    2    1    2    0    0  0.13781812137E+03  0.65696067570E+03  0.99441573437E+02  0.68391320068E+03  0.85190818460E+02 0.  0.
         13    1    3    3    0    0  0.13304751507E+03  0.47932293564E+03  0.93204686102E+02  0.50610199704E+03  0.00000000000E+00 0.  1.
        -13    1    3    3    0    0  0.47706062992E+01  0.17763774006E+03  0.62368873355E+01  0.17781120365E+03  0.00000000000E+00 0. -1.
         22    1    1    2    0    0 -0.13781812137E+03 -0.65696067570E+03 -0.44561202561E+02  0.67273833306E+03  0.00000000000E+00 0. -1.
<mgrwt>
<rscale>  0 0.13555410E+04</rscale>
<asrwt>0</asrwt>
<pdfrwt beam="1">  1        1 0.10857938E+00 0.13555410E+04</pdfrwt>
<pdfrwt beam="2">  1       -1 0.10013624E+00 0.13555410E+04</pdfrwt>
<totfact> 0.25024010E+01</totfact>
</mgrwt>
</event>
<event>
 6    1  0.2003386E-005  0.1628497E+04  0.7818608E-02  0.8803230E-01
         -2   -1    0    0    0  501 -0.00000000000E+00  0.00000000000E+00  0.32807763974E+03  0.32807763974E+03  0.00000000000E+00 0.  1.
          2   -1    0    0  501    0  0.00000000000E+00 -0.00000000000E+00 -0.20208652264E+04  0.20208652264E+04  0.00000000000E+00 0. -1.
         23    2    1    2    0    0 -0.67794164585E+03 -0.16325198845E+03 -0.24987199862E+03  0.74636323283E+03  0.91465691503E+02 0.  0.
         11    1    3    3    0    0 -0.25438763213E+03 -0.90165842898E+02 -0.60021025459E+02  0.27648773952E+03  0.00000000000E+00 0. -1.
        -11    1    3    3    0    0 -0.42355401372E+03 -0.73086145551E+02 -0.18985097316E+03  0.46987549331E+03  0.00000000000E+00 0.  1.
         22    1    1    2    0    0  0.67794164585E+03  0.16325198845E+03 -0.14429155881E+04  0.16025796333E+04  0.00000000000E+00 0. -1.
<mgrwt>
<rscale>  0 0.16284971E+04</rscale>
<asrwt>0</asrwt>
<pdfrwt beam="1">  1        2 0.31090234E+00 0.16284971E+04</pdfrwt>
<pdfrwt beam="2">  1       -2 0.50473483E-01 0.16284971E+04</pdfrwt>
<totfact> 0.23109242E+01</totfact>
</mgrwt>
</event>
<event>
 6    1  0.2003386E-005  0.4682768E+04  0.7818608E-02  0.7879398E-01
          2   -1    0    0  501    0  0.00000000000E+00  0.00000000000E+00  0.18711751966E+04  0.18711751966E+04  0.00000000000E+00 0. -1.
         -2   -1    0    0    0  501 -0.00000000000E+00 -0.00000000000E+00 -0.29297514937E+04  0.29297514937E+04  0.00000000000E+00 0.  1.
         23    2    1    2    0    0  0.17233311262E+03  0.11057542003E+04  0.15779751023E+04  0.19367000345E+04  0.91709034186E+02 0.  0.
         13    1    3    3    0    0  0.67381941843E+02  0.44997037195E+03  0.72008573043E+03  0.85178466815E+03  0.00000000000E+00 0.  1.
        -13    1    3    3    0    0  0.10495117078E+03  0.65578382839E+03  0.85788937189E+03  0.10849153664E+04  0.00000000000E+00 0. -1.
         22    1    1    2    0    0 -0.17233311262E+03 -0.11057542003E+04 -0.26365513995E+04  0.28642266558E+04  0.00000000000E+00 0.  1.
<mgrwt>
<rscale>  0 0.46827677E+04</rscale>
<asrwt>0</asrwt>
<pdfrwt beam="1">  1        2 0.28787311E+00 0.46827677E+04</pdfrwt>
<pdfrwt beam="2">  1       -2 0.45073100E+00 0.46827677E+04</pdfrwt>
<totfact> 0.20228402E-02</totfact>
</mgrwt>
</event>
<event>
 6    1  0.2003386E-005  0.4183756E+04  0.7818608E-02  0.7968469E-01
         -2   -1    0    0    0  501 -0.00000000000E+00  0.00000000000E+00  0.12868231315E+04  0.12868231315E+04  0.00000000000E+00 0.  1.
          2   -1    0    0  501    0  0.00000000000E+00 -0.00000000000E+00 -0.34005865394E+04  0.34005865394E+04  0.00000000000E+00 0. -1.
         23    2    1    2    0    0  0.23210365792E+03  0.20761586659E+04 -0.11565378080E+04  0.23894567203E+04  0.87274298573E+02 0.  0.
         11    1    3    3    0    0  0.10725111631E+03  0.96029132771E+03 -0.58473321422E+03  0.11294136389E+04  0.00000000000E+00 0. -1.
        -11    1    3    3    0    0  0.12485254161E+03  0.11158673382E+04 -0.57180459377E+03  0.12600430814E+04  0.00000000000E+00 0.  1.
         22    1    1    2    0    0 -0.23210365792E+03 -0.20761586659E+04 -0.95722559986E+03  0.22979529505E+04  0.00000000000E+00 0.  1.
<mgrwt>
<rscale>  0 0.41837559E+04</rscale>
<asrwt>0</asrwt>
<pdfrwt beam="1">  1        2 0.52316716E+00 0.41837559E+04</pdfrwt>
<pdfrwt beam="2">  1       -2 0.19797279E+00 0.41837559E+04</pdfrwt>
<totfact> 0.10138931E-01</totfact>
</mgrwt>
</event>
<event>
 6    1  0.2003386E-005  0.1416390E+04  0.7818608E-02  0.8942039E-01
         -2   -1    0    0    0  501 -0.00000000000E+00  0.00000000000E+00  0.14356635021E+03  0.14356635021E+03  0.00000000000E+00 0.  1.
          2   -1    0    0  501    0  0.00000000000E+00 -0.00000000000E+00 -0.34934373963E+04  0.34934373963E+04  0.00000000000E+00 0. -1.
         23    2    1    2    0    0 -0.28374346285E+03 -0.64144200968E+03 -0.18727442218E+04  0.20018089998E+04  0.90056355041E+02 0.  0.
         13    1    3    3    0    0 -0.16840373916E+03 -0.31825627849E+03 -0.10641175825E+04  0.11233846659E+04  0.00000000000E+00 0. -1.
        -13    1    3    3    0    0 -0.11533972369E+03 -0.32318573119E+03 -0.80862663927E+03  0.87842433393E+03  0.00000000000E+00 0.  1.
         22    1    1    2    0    0  0.28374346285E+03  0.64144200968E+03 -0.14771268243E+04  0.16351947467E+04  0.00000000000E+00 0. -1.
<mgrwt>
<rscale>  0 0.14163899E+04</rscale>
<asrwt>0</asrwt>
<pdfrwt beam="1">  1        2 0.53745194E+00 0.14163899E+04</pdfrwt>
<pdfrwt beam="2">  1       -2 0.22087129E-01 0.14163899E+04</pdfrwt>
<totfact> 0.14559813E+01</totfact>
</mgrwt>
</event>
<event>
 6    1  0.2003386E-005  0.1748392E+04  0.7818608E-02  0.8734236E-01
         -1   -1    0    0    0  501 -0.00000000000E+00  0.00000000000E+00  0.48597441147E+03  0.48597441147E+03  0.00000000000E+00 0.  1.
          1   -1    0    0  501    0  0.00000000000E+00 -0.00000000000E+00 -0.15725492699E+04  0.15725492699E+04  0.00000000000E+00 0. -1.
         23    2    1    2    0    0 -0.22341037355E+01 -0.29407307795E+03  0.42127106601E+03  0.52226742078E+03  0.93861500919E+02 0.  0.
         11    1    3    3    0    0 -0.29646409052E+01 -0.29352485913E+03  0.37612339397E+03  0.47711051080E+03  0.00000000000E+00 0. -1.
        -11    1    3    3    0    0  0.73053716967E+00 -0.54821882326E+00  0.45147672040E+02  0.45156909982E+02  0.00000000000E+00 0.  1.
         22    1    1    2    0    0  0.22341037355E+01  0.29407307795E+03 -0.15078459244E+04  0.15362562606E+04  0.00000000000E+00 0. -1.
<mgrwt>
<rscale>  0 0.17483921E+04</rscale>
<asrwt>0</asrwt>
<pdfrwt beam="1">  1        1 0.24193066E+00 0.17483921E+04</pdfrwt>
<pdfrwt beam="2">  1       -1 0.74765294E-01 0.17483921E+04</pdfrwt>
<totfact> 0.99402194E+00</totfact>
</mgrwt>
</event>
<event>
 6    1  0.2003386E-005  0.3334774E+04  0.7818608E-02  0.8154103E-01
          1   -1    0    0  501    0  0.00000000000E+00  0.00000000000E+00  0.14803332369E+04  0.14803332369E+04  0.00000000000E+00 0. -1.
         -1   -1    0    0    0  501 -0.00000000000E+00 -0.00000000000E+00 -0.18780770040E+04  0.18780770040E+04  0.00000000000E+00 0.  1.
         23    2    1    2    0    0  0.15043278877E+04  0.64265658828E+03 -0.51756033468E+03  0.17181767533E+04  0.90844766008E+02 0.  0.
         13    1    3    3    0    0  0.89767008425E+03  0.41277806041E+03 -0.34938185235E+03  0.10479813863E+04  0.00000000000E+00 0.  1.
        -13    1    3    3    0    0  0.60665780341E+03  0.22987852786E+03 -0.16817848233E+03  0.67019536698E+03  0.00000000000E+00 0. -1.
         22    1    1    2    0    0 -0.15043278877E+04 -0.64265658828E+03  0.11981656757E+03  0.16402334876E+04  0.00000000000E+00 0. -1.
<mgrwt>
<rscale>  0 0.33347742E+04</rscale>
<asrwt>0</asrwt>
<pdfrwt beam="1">  1        1 0.22774358E+00 0.33347742E+04</pdfrwt>
<pdfrwt beam="2">  1       -1 0.28893492E+00 0.33347742E+04</pdfrwt>
<totfact> 0.21750993E-01</totfact>
</mgrwt>
</event>
<event>
 6    1  0.2003386E-005  0.1629077E+04  0.7818608E-02  0.8802882E-01
          2   -1    0    0  501    0  0.00000000000E+00  0.00000000000E+00  0.77727298660E+03  0.77727298660E+03  0.00000000000E+00 0. -1.
         -2   -1    0    0    0  501 -0.00000000000E+00 -0.00000000000E+00 -0.85359017907E+03  0.85359017907E+03  0.00000000000E+00 0.  1.
         23    2    1    2    0    0  0.62929213465E+03 -0.20159517282E+03  0.43492867579E+03  0.79538633041E+03  0.82627217876E+02 0.  0.
         13    1    3    3    0    0  0.19076230491E+03 -0.10130553173E+03  0.13480186879E+03  0.25460677831E+03  0.00000000000E+00 0. -1.
        -13    1    3    3    0    0  0.43852982974E+03 -0.10028964109E+03  0.30012680700E+03  0.54077955210E+03  0.00000000000E+00 0.  1.
         22    1    1    2    0    0 -0.62929213465E+03  0.20159517282E+03 -0.51124586826E+03  0.83547683526E+03  0.00000000000E+00 0.  1.
<mgrwt>
<rscale>  0 0.16290765E+04</rscale>
<asrwt>0</asrwt>
<pdfrwt beam="1">  1        2 0.11958046E+00 0.16290765E+04</pdfrwt>
<pdfrwt beam="2">  1       -2 0.13132157E+00 0.16290765E+04</pdfrwt>
<totfact> 0.14490957E+01</totfact>
</mgrwt>
</event>
<event>
 6    1  0.2003386E-005  0.4256048E+04  0.7818608E-02  0.7954796E-01
          2   -1    0    0  501    0  0.00000000000E+00  0.00000000000E+00  0.24619406622E+04  0.24619406622E+04  0.00000000000E+00 0. -1.
         -2   -1    0    0    0  501 -0.00000000000E+00 -0.00000000000E+00 -0.18393968364E+04  0.18393968364E+04  0.00000000000E+00 0.  1.
         23    2    1    2    0    0 -0.83769635279E+03 -0.57938836607E+03  0.21985433307E+04  0.24248512882E+04  0.94259930972E+02 0.  0.
         11    1    3    3    0    0 -0.53179726290E+03 -0.37354384448E+03  0.15070041425E+04  0.16411595956E+04  0.00000000000E+00 0.  1.
        -11    1    3    3    0    0 -0.30589908989E+03 -0.20584452159E+03  0.69153918823E+03  0.78369169265E+03  0.00000000000E+00 0. -1.
         22    1    1    2    0    0  0.83769635279E+03  0.57938836607E+03 -0.15759995049E+04  0.18764862104E+04  0.00000000000E+00 0.  1.
<mgrwt>
<rscale>  0 0.42560479E+04</rscale>
<asrwt>0</asrwt>
<pdfrwt beam="1">  1        2 0.37876010E+00 0.42560479E+04</pdfrwt>
<pdfrwt beam="2">  1       -2 0.28298413E+00 0.42560479E+04</pdfrwt>
<totfact> 0.11429145E-01</totfact>
</mgrwt>
</event>
<event>
 6    1  0.2003386E-005  0.1363476E+04  0.7818608E-02  0.8980689E-01
          4   -1    0    0  501    0  0.00000000000E+00  0.00000000000E+00  0.18003748745E+03  0.18003748745E+03  0.00000000000E+00 0. -1.
         -4   -1    0    0    0  501 -0.00000000000E+00 -0.00000000000E+00 -0.25815000574E+04  0.25815000574E+04  0.00000000000E+00 0.  1.
         23    2    1    2    0    0 -0.50185722692E+03 -0.22752674312E+03 -0.20085507985E+04  0.20847741038E+04  0.91529549682E+02 0.  0.
         11    1    3    3    0    0 -0.10874809042E+03 -0.83482194064E+02 -0.59077084993E+03  0.60646980223E+03  0.00000000000E+00 0. -1.
        -11    1    3    3    0    0 -0.39310913650E+03 -0.14404454906E+03 -0.14177799486E+04  0.14783043015E+04  0.00000000000E+00 0.  1.
         22    1    1    2    0    0  0.50185722692E+03  0.22752674312E+03 -0.39291177144E+03  0.67676344108E+03  0.00000000000E+00 0. -1.
<mgrwt>
<rscale>  0 0.13634761E+04</rscale>
<asrwt>0</asrwt>
<pdfrwt beam="1">  1        4 0.27698079E-01 0.13634761E+04</pdfrwt>
<pdfrwt beam="2">  1       -4 0.39715380E+00 0.13634761E+04</pdfrwt>
<totfact> 0.17830139E-01</totfact>
</mgrwt>
</event>
<event>
 6    1  0.2003386E-005  0.4645702E+04  0.7818608E-02  0.7885614E-01
         -2   -1    0    0    0  501 -0.00000000000E+00  0.00000000000E+00  0.16802130036E+04  0.16802130036E+04  0.00000000000E+00 0.  1.
          2   -1    0    0  501    0  0.00000000000E+00 -0.00000000000E+00 -0.32112810916E+04  0.32112810916E+04  0.00000000000E+00 0. -1.
         23    2    1    2    0    0 -0.13645470253E+04  0.42954526946E+02  0.12117417923E+04  0.18276991095E+04  0.91280818983E+02 0.  0.
         13    1    3    3    0    0 -0.24347633014E+03 -0.20622631483E+02  0.18970479595E+03  0.30934434838E+03  0.00000000000E+00 0.  1.
        -13    1    3    3    0    0 -0.11210706951E+04  0.63577158429E+02  0.10220369964E+04  0.15183547611E+04  0.00000000000E+00 0. -1.
         22    1    1    2    0    0  0.13645470253E+04 -0.42954526946E+02 -0.27428098803E+04  0.30637949858E+04  0.00000000000E+00 0. -1.
<mgrwt>
<rscale>  0 0.46457018E+04</rscale>
<asrwt>0</asrwt>
<pdfrwt beam="1">  1        2 0.49404324E+00 0.46457018E+04</pdfrwt>
<pdfrwt beam="2">  1       -2 0.25849431E+00 0.46457018E+04</pdfrwt>
<totfact> 0.54355111E-02</totfact>
</mgrwt>
</event>
<event>
 6    1  0.2003386E-005  0.1894992E+04  0.7818608E-02  0.8657353E-01
          2   -1    0    0  501    0  0.00000000000E+00  0.00000000000E+00  0.10053972166E+04  0.10053972166E+04  0.00000000000E+00 0. -1.
         -2   -1    0    0    0  501 -0.00000000000E+00 -0.00000000000E+00 -0.89292979496E+03  0.89292979496E+03  0.00000000000E+00 0.  1.
         23    2    1    2    0    0 -0.44563115524E+03 -0.80533361766E+03  0.27223183032E+03  0.96415677630E+03  0.91316798072E+02 0.  0.
         13    1    3    3    0    0 -0.59991388002E+02 -0.18000850082E+03  0.68867403486E+02  0.20185327906E+03  0.00000000000E+00 0. -1.
        -13    1    3    3    0    0 -0.38563976724E+03 -0.62532511683E+03  0.20336442683E+03  0.76230349725E+03  0.00000000000E+00 0.  1.
         22    1    1    2    0    0  0.44563115524E+03  0.80533361766E+03 -0.15976440863E+03  0.93417023529E+03  0.00000000000E+00 0. -1.
<mgrwt>
<rscale>  0 0.18949925E+04</rscale>
<asrwt>0</asrwt>
<pdfrwt beam="1">  1        2 0.15467650E+00 0.18949925E+04</pdfrwt>
<pdfrwt beam="2">  1       -2 0.13737381E+00 0.18949925E+04</pdfrwt>
<totfact> 0.88318014E+00</totfact>
</mgrwt>
</event>
<event>
 6    1  0.2003386E-005  0.2709238E+04  0.7818608E-02  0.8332014E-01
          2   -1    0    0  501    0  0.00000000000E+00  0.00000000000E+00  0.81146615773E+03  0.81146615773E+03  0.00000000000E+00 0.  1.
         -2   -1    0    0    0  501 -0.00000000000E+00 -0.00000000000E+00 -0.22613300823E+04  0.22613300823E+04  0.00000000000E+00 0. -1.
         23    2    1    2    0    0 -0.45872376761E+03  0.34555408044E+03 -0.21152397649E+04  0.21938422444E+04  0.94177559654E+02 0.  0.
         13    1    3    3    0    0 -0.19138127254E+03  0.15449182052E+03 -0.10822875640E+04  0.11098832755E+04  0.00000000000E+00 0.  1.
        -13    1    3    3    0    0 -0.26734249507E+03  0.19106225992E+03 -0.10329522009E+04  0.10839589689E+04  0.00000000000E+00 0. -1.
         22    1    1    2    0    0  0.45872376761E+03 -0.34555408044E+03  0.66537584036E+03  0.87895399561E+03  0.00000000000E+00 0.  1.
<mgrwt>
<rscale>  0 0.27092381E+04</rscale>
<asrwt>0</asrwt>
<pdfrwt beam="1">  1        2 0.12484095E+00 0.27092381E+04</pdfrwt>
<pdfrwt beam="2">  1       -2 0.34789694E+00 0.27092381E+04</pdfrwt>
<totfact> 0.47527359E-01</totfact>
</mgrwt>
</event>
<event>
 6    1  0.2003386E-005  0.1293453E+04  0.7818608E-02  0.9034773E-01
          2   -1    0    0  501    0  0.00000000000E+00  0.00000000000E+00  0.14972961413E+04  0.14972961413E+04  0.00000000000E+00 0. -1.
         -2   -1    0    0    0  501 -0.00000000000E+00 -0.00000000000E+00 -0.27934036723E+03  0.27934036723E+03  0.00000000000E+00 0.  1.
         23    2    1    2    0    0  0.52175280521E+03 -0.37664005553E+03  0.59906421780E+03  0.88382606975E+03  0.90481287324E+02 0.  0.
         13    1    3    3    0    0  0.22790505736E+03 -0.11041107669E+03  0.23966862877E+03  0.34867229980E+03  0.00000000000E+00 0. -1.
        -13    1    3    3    0    0  0.29384774785E+03 -0.26622897884E+03  0.35939558903E+03  0.53515376996E+03  0.00000000000E+00 0.  1.
         22    1    1    2    0    0 -0.52175280521E+03  0.37664005553E+03  0.61889155628E+03  0.89281043879E+03  0.00000000000E+00 0. -1.
<mgrwt>
<rscale>  0 0.12934531E+04</rscale>
<asrwt>0</asrwt>
<pdfrwt beam="1">  1        2 0.23035325E+00 0.12934531E+04</pdfrwt>
<pdfrwt beam="2">  1       -2 0.42975442E-01 0.12934531E+04</pdfrwt>
<totfact> 0.64101052E+01</totfact>
</mgrwt>
</event>
<event>
 6    1  0.2003386E-005  0.8645050E+03  0.7818608E-02  0.9471073E-01
          4   -1    0    0  501    0  0.00000000000E+00  0.00000000000E+00  0.78721283374E+03  0.78721283374E+03  0.00000000000E+00 0. -1.
         -4   -1    0    0    0  501 -0.00000000000E+00 -0.00000000000E+00 -0.23734653857E+03  0.23734653857E+03  0.00000000000E+00 0.  1.
         23    2    1    2    0    0  0.16865896473E+03 -0.33946936627E+03  0.51238692811E+03  0.64365255960E+03  0.89793966194E+02 0.  0.
         13    1    3    3    0    0  0.50269292888E+02 -0.18887036658E+03  0.29542479601E+03  0.35422426127E+03  0.00000000000E+00 0. -1.
        -13    1    3    3    0    0  0.11838967184E+03 -0.15059899969E+03  0.21696213210E+03  0.28942829833E+03  0.00000000000E+00 0.  1.
         22    1    1    2    0    0 -0.16865896473E+03  0.33946936627E+03  0.37479367060E+02  0.38090681272E+03  0.00000000000E+00 0.  1.
<mgrwt>
<rscale>  0 0.86450504E+03</rscale>
<asrwt>0</asrwt>
<pdfrwt beam="1">  1        4 0.12110967E+00 0.86450504E+03</pdfrwt>
<pdfrwt beam="2">  1       -4 0.36514852E-01 0.86450504E+03</pdfrwt>
<totfact> 0.75356742E+00</totfact>
</mgrwt>
</event>
<event>
 6    1  0.2003386E-005  0.2142310E+04  0.7818608E-02  0.8542831E-01
         -1   -1    0    0    0  501 -0.00000000000E+00  0.00000000000E+00  0.18738801055E+04  0.18738801055E+04  0.00000000000E+00 0.  1.
          1   -1    0    0  501    0  0.00000000000E+00 -0.00000000000E+00 -0.61229808067E+03  0.61229808067E+03  0.00000000000E+00 0. -1.
         23    2    1    2    0    0  0.43372700281E+03 -0.89524592364E+03  0.10867657652E+04  0.14761558590E+04  0.91607395193E+02 0.  0.
         11    1    3    3    0    0  0.14455007067E+03 -0.36478216131E+03  0.47889618485E+03  0.61911412842E+03  0.00000000000E+00 0.  1.
        -11    1    3    3    0    0  0.28917693214E+03 -0.53046376234E+03  0.60786958036E+03  0.85704173058E+03  0.00000000000E+00 0. -1.
         22    1    1    2    0    0 -0.43372700281E+03  0.89524592364E+03  0.17481625963E+03  0.10100223272E+04  0.00000000000E+00 0. -1.
<mgrwt>
<rscale>  0 0.21423101E+04</rscale>
<asrwt>0</asrwt>
<pdfrwt beam="1">  1        1 0.94199706E-01 0.21423101E+04</pdfrwt>
<pdfrwt beam="2">  1       -1 0.28828924E+00 0.21423101E+04</pdfrwt>
<totfact> 0.11988225E+00</totfact>
</mgrwt>
</event>
<event>
 6    1  0.2003386E-005  0.4513542E+04  0.7818608E-02  0.7908270E-01
          1   -1    0    0  501    0  0.00000000000E+00  0.00000000000E+00  0.31847046412E+04  0.31847046412E+04  0.00000000000E+00 0. -1.
         -1   -1    0    0    0  501 -0.00000000000E+00 -0.00000000000E+00 -0.15992109237E+04  0.15992109237E+04  0.00000000000E+00 0.  1.
         23    2    1    2    0    0 -0.13775087069E+04 -0.48139734040E+03 -0.10303754441E+04  0.17885783372E+04  0.89806879030E+02 0.  0.
         13    1    3    3    0    0 -0.47795908868E+03 -0.20917929768E+03 -0.34786784769E+03  0.62706690910E+03  0.00000000000E+00 0. -1.
        -13    1    3    3    0    0 -0.89954961824E+03 -0.27221804272E+03 -0.68250759644E+03  0.11615114281E+04  0.00000000000E+00 0.  1.
         22    1    1    2    0    0  0.13775087069E+04  0.48139734040E+03  0.26158691616E+04  0.29953372277E+04  0.00000000000E+00 0. -1.
<mgrwt>
<rscale>  0 0.45135416E+04</rscale>
<asrwt>0</asrwt>
<pdfrwt beam="1">  1        1 0.48995456E+00 0.45135416E+04</pdfrwt>
<pdfrwt beam="2">  1       -1 0.24603245E+00 0.45135416E+04</pdfrwt>
<totfact> 0.24233575E-02</totfact>
</mgrwt>
</event>
<event>
 6    1  0.2003386E-005  0.1530763E+04  0.7818608E-02  0.8864250E-01
         -2   -1    0    0    0  501 -0.00000000000E+00  0.00000000000E+00  0.12006210357E+04  0.12006210357E+04  0.00000000000E+00 0.  1.
          2   -1    0    0  501    0  0.00000000000E+00 -0.00000000000E+00 -0.48792161609E+03  0.48792161609E+03  0.00000000000E+00 0. -1.
         23    2    1    2    0    0 -0.59207352941E+03 -0.26555118457E+03 -0.84201572557E+02  0.66086581192E+03  0.92656465998E+02 0.  0.
         13    1    3    3    0    0 -0.24038580948E+03 -0.12477008264E+03  0.81218448379E+01  0.27095917642E+03  0.00000000000E+00 0.  1.
        -13    1    3    3    0    0 -0.35168771993E+03 -0.14078110192E+03 -0.92323417395E+02  0.38990663550E+03  0.00000000000E+00 0. -1.
         22    1    1    2    0    0  0.59207352941E+03  0.26555118457E+03  0.79690099215E+03  0.10276768398E+04  0.00000000000E+00 0.  1.
<mgrwt>
<rscale>  0 0.15307632E+04</rscale>
<asrwt>0</asrwt>
<pdfrwt beam="1">  1        2 0.75064864E-01 0.15307632E+04</pdfrwt>
<pdfrwt beam="2">  1       -2 0.18471093E+00 0.15307632E+04</pdfrwt>
<totfact> 0.10268118E+01</totfact>
</mgrwt>
</event>
<event>
 6    1  0.2003386E-005  0.2189545E+04  0.7818608E-02  0.8522792E-01
          2   -1    0    0  501    0  0.00000000000E+00  0.00000000000E+00  0.19111307617E+04  0.19111307617E+04  0.00000000000E+00 0. -1.
         -2   -1    0    0    0  501 -0.00000000000E+00 -0.00000000000E+00 -0.62712978446E+03  0.62712978446E+03  0.00000000000E+00 0.  1.
         23    2    1    2    0    0 -0.55397444569E+03 -0.86756732607E+03  0.10686815133E+04  0.14866317033E+04  0.91830781801E+02 0.  0.
         13    1    3    3    0    0 -0.20810653437E+03 -0.31881405137E+03  0.33279491379E+03  0.50567102314E+03  0.00000000000E+00 0.  1.
        -13    1    3    3    0    0 -0.34586791132E+03 -0.54875327470E+03  0.73588659955E+03  0.98096068014E+03  0.00000000000E+00 0. -1.
         22    1    1    2    0    0  0.55397444569E+03  0.86756732607E+03  0.21531946394E+03  0.10516288429E+04  0.00000000000E+00 0.  1.
<mgrwt>
<rscale>  0 0.21895452E+04</rscale>
<asrwt>0</asrwt>
<pdfrwt beam="1">  1        2 0.29402011E+00 0.21895452E+04</pdfrwt>
<pdfrwt beam="2">  1       -2 0.96481506E-01 0.21895452E+04</pdfrwt>
<totfact> 0.61552594E+00</totfact>
</mgrwt>
</event>
<event>
 6    1  0.2003386E-005  0.1503992E+04  0.7818608E-02  0.8881802E-01
          2   -1    0    0  501    0  0.00000000000E+00  0.00000000000E+00  0.11903302065E+04  0.11903302065E+04  0.00000000000E+00 0. -1.
         -2   -1    0    0    0  501 -0.00000000000E+00 -0.00000000000E+00 -0.47507678362E+03  0.47507678362E+03  0.00000000000E+00 0.  1.
         23    2    1    2    0    0  0.13935904427E+03 -0.69147376357E+03  0.63823307940E+03  0.95583737253E+03  0.93416862291E+02 0.  0.
         11    1    3    3    0    0  0.64951085083E+02 -0.14036007620E+03  0.15752308891E+03  0.22075578810E+03  0.00000000000E+00 0.  1.
        -11    1    3    3    0    0  0.74407959185E+02 -0.55111368737E+03  0.48070999049E+03  0.73508158442E+03  0.00000000000E+00 0. -1.
         22    1    1    2    0    0 -0.13935904427E+03  0.69147376357E+03  0.77020343492E+02  0.70956961761E+03  0.00000000000E+00 0. -1.
<mgrwt>
<rscale>  0 0.15039923E+04</rscale>
<asrwt>0</asrwt>
<pdfrwt beam="1">  1        2 0.18312772E+00 0.15039923E+04</pdfrwt>
<pdfrwt beam="2">  1       -2 0.73088736E-01 0.15039923E+04</pdfrwt>
<totfact> 0.31350365E+01</totfact>
</mgrwt>
</event>
<event>
 6    1  0.2003386E-005  0.4545633E+04  0.7818608E-02  0.7902696E-01
          2   -1    0    0  501    0  0.00000000000E+00  0.00000000000E+00  0.44507245504E+04  0.44507245504E+04  0.00000000000E+00 0.  1.
         -2   -1    0    0    0  501 -0.00000000000E+00 -0.00000000000E+00 -0.11606410757E+04  0.11606410757E+04  0.00000000000E+00 0. -1.
         23    2    1    2    0    0 -0.85484219828E+03 -0.21048593960E+04  0.16669037779E+04  0.28192516261E+04  0.91778350769E+02 0.  0.
         11    1    3    3    0    0 -0.48878187773E+03 -0.10840172571E+04  0.88285701123E+03  0.14810258742E+04  0.00000000000E+00 0. -1.
        -11    1    3    3    0    0 -0.36606032055E+03 -0.10208421389E+04  0.78404676668E+03  0.13382257519E+04  0.00000000000E+00 0.  1.
         22    1    1    2    0    0  0.85484219828E+03  0.21048593960E+04  0.16231796968E+04  0.27921140000E+04  0.00000000000E+00 0. -1.
<mgrwt>
<rscale>  0 0.45456325E+04</rscale>
<asrwt>0</asrwt>
<pdfrwt beam="1">  1        2 0.68472685E+00 0.45456325E+04</pdfrwt>
<pdfrwt beam="2">  1       -2 0.17856017E+00 0.45456325E+04</pdfrwt>
<totfact> 0.19085670E-02</totfact>
</mgrwt>
</event>
<event>
 6    1  0.2003386E-005  0.1973075E+04  0.7818608E-02  0.8619314E-01
          2   -1    0    0  501    0  0.00000000000E+00  0.00000000000E+00  0.16902572137E+04  0.16902572137E+04  0.00000000000E+00 0. -1.
         -2   -1    0    0    0  501 -0.00000000000E+00 -0.00000000000E+00 -0.57580342152E+03  0.57580342152E+03  0.00000000000E+00 0.  1.
         23    2    1    2    0    0  0.14725566494E+03  0.30070982178E+03 -0.50459029540E+03  0.61275655389E+03  0.93533952918E+02 0.  0.
         13    1    3    3    0    0  0.36246412693E+02  0.11764093030E+02 -0.54375702874E+02  0.66399648952E+02  0.00000000000E+00 0.  1.
        -13    1    3    3    0    0  0.11100925225E+03  0.28894572875E+03 -0.45021459253E+03  0.54635690494E+03  0.00000000000E+00 0. -1.
         22    1    1    2    0    0 -0.14725566494E+03 -0.30070982178E+03  0.16190440876E+04  0.16533040813E+04  0.00000000000E+00 0. -1.
<mgrwt>
<rscale>  0 0.19730746E+04</rscale>
<asrwt>0</asrwt>
<pdfrwt beam="1">  1        2 0.26003957E+00 0.19730746E+04</pdfrwt>
<pdfrwt beam="2">  1       -2 0.88585142E-01 0.19730746E+04</pdfrwt>
<totfact> 0.10134481E+01</totfact>
</mgrwt>
</event>
<event>
 6    1  0.2003386E-005  0.1982406E+04  0.7818608E-02  0.8614891E-01
          2   -1    0    0  501    0  0.00000000000E+00  0.00000000000E+00  0.14554632650E+04  0.14554632650E+04  0.00000000000E+00 0. -1.
         -2   -1    0    0    0  501 -0.00000000000E+00 -0.00000000000E+00 -0.67503115776E+03  0.67503115776E+03  0.00000000000E+00 0.  1.
         23    2    1    2    0    0 -0.43187910186E+03  0.31253770099E+03 -0.50439599669E+03  0.73945789204E+03  0.90461480577E+02 0.  0.
         11    1    3    3    0    0 -0.93020921385E+02  0.11211120749E+03 -0.16003044533E+03  0.21640600291E+03  0.00000000000E+00 0.  1.
        -11    1    3    3    0    0 -0.33885818047E+03  0.20042649350E+03 -0.34436555136E+03  0.52305188914E+03  0.00000000000E+00 0. -1.
         22    1    1    2    0    0  0.43187910186E+03 -0.31253770099E+03  0.12848281039E+04  0.13910365307E+04  0.00000000000E+00 0. -1.
<mgrwt>
<rscale>  0 0.19824057E+04</rscale>
<asrwt>0</asrwt>
<pdfrwt beam="1">  1        2 0.22391743E+00 0.19824057E+04</pdfrwt>
<pdfrwt beam="2">  1       -2 0.10385095E+00 0.19824057E+04</pdfrwt>
<totfact> 0.94484854E+00</totfact>
</mgrwt>
</event>
<event>
 6    1  0.2003386E-005  0.1081447E+04  0.7818608E-02  0.9223466E-01
          3   -1    0    0  501    0  0.00000000000E+00  0.00000000000E+00  0.16126848176E+03  0.16126848176E+03  0.00000000000E+00 0. -1.
         -3   -1    0    0    0  501 -0.00000000000E+00 -0.00000000000E+00 -0.18130143855E+04  0.18130143855E+04  0.00000000000E+00 0.  1.
         23    2    1    2    0    0 -0.24161596308E+03 -0.23411501549E+03 -0.67398809574E+02  0.35460887880E+03  0.89536268084E+02 0.  0.
         13    1    3    3    0    0 -0.73084499191E+02 -0.13219257567E+03 -0.24272502961E+02  0.15298815471E+03  0.00000000000E+00 0.  1.
        -13    1    3    3    0    0 -0.16853146389E+03 -0.10192243982E+03 -0.43126306613E+02  0.20162072409E+03  0.00000000000E+00 0. -1.
         22    1    1    2    0    0  0.24161596308E+03  0.23411501549E+03 -0.15843470942E+04  0.16196739885E+04  0.00000000000E+00 0.  1.
<mgrwt>
<rscale>  0 0.10814473E+04</rscale>
<asrwt>0</asrwt>
<pdfrwt beam="1">  1        3 0.24810538E-01 0.10814473E+04</pdfrwt>
<pdfrwt beam="2">  1       -3 0.27892527E+00 0.10814473E+04</pdfrwt>
<totfact> 0.20348279E+00</totfact>
</mgrwt>
</event>
<event>
 6    1  0.3196870E-005  0.3263658E+04  0.7818608E-02  0.8172205E-01
          2   -1    0    0  501    0  0.00000000000E+00  0.00000000000E+00  0.19196331391E+04  0.19196331391E+04  0.00000000000E+00 0. -1.
         -2   -1    0    0    0  501 -0.00000000000E+00 -0.00000000000E+00 -0.13871740741E+04  0.13871740741E+04  0.00000000000E+00 0.  1.
         23    2    1    2    0    0  0.30066107576E+03 -0.15994730484E+04  0.16754515211E+03  0.16389123487E+04  0.96183126220E+02 0.  0.
         11    1    3    3    0    0  0.17307645858E+03 -0.98120323423E+03  0.56740123435E+02  0.99796527444E+03  0.00000000000E+00 0. -1.
        -11    1    3    3    0    0  0.12758461719E+03 -0.61826981417E+03  0.11080502868E+03  0.64094707429E+03  0.00000000000E+00 0.  1.
         22    1    1    2    0    0 -0.30066107576E+03  0.15994730484E+04  0.36491391286E+03  0.16678948644E+04  0.00000000000E+00 0. -1.
<mgrwt>
<rscale>  0 0.32636577E+04</rscale>
<asrwt>0</asrwt>
<pdfrwt beam="1">  1        2 0.29532818E+00 0.32636577E+04</pdfrwt>
<pdfrwt beam="2">  1       -2 0.21341140E+00 0.32636577E+04</pdfrwt>
<totfact> 0.67539989E-01</totfact>
</mgrwt>
</event>
<event>
 6    1  0.2003386E-005  0.2264578E+04  0.7818608E-02  0.8492020E-01
          2   -1    0    0  501    0  0.00000000000E+00  0.00000000000E+00  0.16910408149E+04  0.16910408149E+04  0.00000000000E+00 0.  1.
         -2   -1    0    0    0  501 -0.00000000000E+00 -0.00000000000E+00 -0.75815915666E+03  0.75815915666E+03  0.00000000000E+00 0. -1.
         23    2    1    2    0    0 -0.17639935286E+03 -0.78588467726E+03 -0.39078034577E+03  0.89974440315E+03  0.89995859439E+02 0.  0.
         13    1    3    3    0    0 -0.12634791274E+03 -0.45934434970E+03 -0.27263462320E+03  0.54889950303E+03  0.00000000000E+00 0. -1.
        -13    1    3    3    0    0 -0.50051440121E+02 -0.32654032755E+03 -0.11814572257E+03  0.35084490012E+03  0.00000000000E+00 0.  1.
         22    1    1    2    0    0  0.17639935286E+03  0.78588467726E+03  0.13236620040E+04  0.15494555684E+04  0.00000000000E+00 0.  1.
<mgrwt>
<rscale>  0 0.22645777E+04</rscale>
<asrwt>0</asrwt>
<pdfrwt beam="1">  1        2 0.26016012E+00 0.22645777E+04</pdfrwt>
<pdfrwt beam="2">  1       -2 0.11663987E+00 0.22645777E+04</pdfrwt>
<totfact> 0.51379305E+00</totfact>
</mgrwt>
</event>
<event>
 6    1  0.2003386E-005  0.1767463E+04  0.7818608E-02  0.8723796E-01
         -2   -1    0    0    0  501 -0.00000000000E+00  0.00000000000E+00  0.16433855430E+03  0.16433855430E+03  0.00000000000E+00 0.  1.
          2   -1    0    0  501    0  0.00000000000E+00 -0.00000000000E+00 -0.47522731745E+04  0.47522731745E+04  0.00000000000E+00 0. -1.
         23    2    1    2    0    0  0.16240951544E+03  0.86621989629E+03 -0.22723836974E+04  0.24390141353E+04  0.91370259574E+02 0.  0.
         13    1    3    3    0    0  0.15808193735E+03  0.67030422650E+03 -0.17104767069E+04  0.18439165437E+04  0.00000000000E+00 0.  1.
        -13    1    3    3    0    0  0.43275780891E+01  0.19591566979E+03 -0.56190699046E+03  0.59509759160E+03  0.00000000000E+00 0. -1.
         22    1    1    2    0    0 -0.16240951544E+03 -0.86621989629E+03 -0.23155509228E+04  0.24775975935E+04  0.00000000000E+00 0.  1.
<mgrwt>
<rscale>  0 0.17674634E+04</rscale>
<asrwt>0</asrwt>
<pdfrwt beam="1">  1        2 0.73111888E+00 0.17674634E+04</pdfrwt>
<pdfrwt beam="2">  1       -2 0.25282857E-01 0.17674634E+04</pdfrwt>
<totfact> 0.92195902E-01</totfact>
</mgrwt>
</event>
<event>
 6    1  0.2003386E-005  0.5697952E+04  0.7818608E-02  0.7729023E-01
         -2   -1    0    0    0  501 -0.00000000000E+00  0.00000000000E+00  0.23754773961E+04  0.23754773961E+04  0.00000000000E+00 0.  1.
          2   -1    0    0  501    0  0.00000000000E+00 -0.00000000000E+00 -0.34168555553E+04  0.34168555553E+04  0.00000000000E+00 0. -1.
         23    2    1    2    0    0  0.90554442637E+03  0.18850642038E+04  0.14449479867E+04  0.25434415305E+04  0.87990761775E+02 0.  0.
         11    1    3    3    0    0  0.58736224645E+03  0.11286209619E+04  0.86180887598E+03  0.15367154007E+04  0.00000000000E+00 0. -1.
        -11    1    3    3    0    0  0.31818217992E+03  0.75644324189E+03  0.58313911076E+03  0.10067261297E+04  0.00000000000E+00 0.  1.
         22    1    1    2    0    0 -0.90554442637E+03 -0.18850642038E+04 -0.24863261459E+04  0.32488914208E+04  0.00000000000E+00 0. -1.
<mgrwt>
<rscale>  0 0.56979516E+04</rscale>
<asrwt>0</asrwt>
<pdfrwt beam="1">  1        2 0.52567009E+00 0.56979516E+04</pdfrwt>
<pdfrwt beam="2">  1       -2 0.36545806E+00 0.56979516E+04</pdfrwt>
<totfact> 0.79285271E-03</totfact>
</mgrwt>
</event>
<event>
 6    1  0.2003386E-005  0.1386671E+04  0.7818608E-02  0.8963523E-01
          2   -1    0    0  501    0  0.00000000000E+00  0.00000000000E+00  0.88944947130E+03  0.88944947130E+03  0.00000000000E+00 0. -1.
         -2   -1    0    0    0  501 -0.00000000000E+00 -0.00000000000E+00 -0.54046275222E+03  0.54046275222E+03  0.00000000000E+00 0.  1.
         23    2    1    2    0    0 -0.21387639107E+03 -0.12936401783E+03  0.83874805012E+03  0.88005376796E+03  0.92294003930E+02 0.  0.
         11    1    3    3    0    0 -0.95430908277E+02 -0.69608275180E+02  0.54626200583E+03  0.55888688412E+03  0.00000000000E+00 0. -1.
        -11    1    3    3    0    0 -0.11844548279E+03 -0.59755742651E+02  0.29248604429E+03  0.32116688384E+03  0.00000000000E+00 0.  1.
         22    1    1    2    0    0  0.21387639107E+03  0.12936401783E+03 -0.48976133104E+03  0.54985845556E+03  0.00000000000E+00 0.  1.
<mgrwt>
<rscale>  0 0.13866713E+04</rscale>
<asrwt>0</asrwt>
<pdfrwt beam="1">  1        2 0.13683838E+00 0.13866713E+04</pdfrwt>
<pdfrwt beam="2">  1       -2 0.83148116E-01 0.13866713E+04</pdfrwt>
<totfact> 0.36802289E+01</totfact>
</mgrwt>
</event>
<event>
 6    1  0.2003386E-005  0.3272265E+04  0.7818608E-02  0.8169989E-01
         -2   -1    0    0    0  501 -0.00000000000E+00  0.00000000000E+00  0.11716965072E+04  0.11716965072E+04  0.00000000000E+00 0.  1.
          2   -1    0    0  501    0  0.00000000000E+00 -0.00000000000E+00 -0.22846612705E+04  0.22846612705E+04  0.00000000000E+00 0. -1.
         23    2    1    2    0    0 -0.54792354085E+03 -0.84354112275E+03 -0.19180436302E+04  0.21679735904E+04  0.97140562016E+02 0.  0.
         13    1    3    3    0    0 -0.24101898476E+03 -0.28711050372E+03 -0.73426616890E+03  0.82442064454E+03  0.00000000000E+00 0.  1.
        -13    1    3    3    0    0 -0.30690455609E+03 -0.55643061904E+03 -0.11837774613E+04  0.13435529458E+04  0.00000000000E+00 0. -1.
         22    1    1    2    0    0  0.54792354085E+03  0.84354112275E+03  0.80507886690E+03  0.12883841874E+04  0.00000000000E+00 0.  1.
<mgrwt>
<rscale>  0 0.32722650E+04</rscale>
<asrwt>0</asrwt>
<pdfrwt beam="1">  1        2 0.35148635E+00 0.32722650E+04</pdfrwt>
<pdfrwt beam="2">  1       -2 0.18026100E+00 0.32722650E+04</pdfrwt>
<totfact> 0.69914401E-01</totfact>
</mgrwt>
</event>
<event>
 6    1  0.2003386E-005  0.6793122E+04  0.7818608E-02  0.7599155E-01
         -2   -1    0    0    0  501 -0.00000000000E+00  0.00000000000E+00  0.25117245210E+04  0.25117245210E+04  0.00000000000E+00 0.  1.
          2   -1    0    0  501    0  0.00000000000E+00 -0.00000000000E+00 -0.45931100223E+04  0.45931100223E+04  0.00000000000E+00 0. -1.
         23    2    1    2    0    0  0.26308938275E+04  0.96838558545E+03  0.96354550481E+03  0.29658760022E+04  0.92884589253E+02 0.  0.
         13    1    3    3    0    0  0.16476957281E+04  0.58830912148E+03  0.55714712552E+03  0.18361431737E+04  0.00000000000E+00 0.  1.
        -13    1    3    3    0    0  0.98319809937E+03  0.38007646397E+03  0.40639837929E+03  0.11297328285E+04  0.00000000000E+00 0. -1.
         22    1    1    2    0    0 -0.26308938275E+04 -0.96838558545E+03 -0.30449310060E+04  0.41389585411E+04  0.00000000000E+00 0. -1.
<mgrwt>
<rscale>  0 0.67931221E+04</rscale>
<asrwt>0</asrwt>
<pdfrwt beam="1">  1        2 0.70663232E+00 0.67931221E+04</pdfrwt>
<pdfrwt beam="2">  1       -2 0.38641915E+00 0.67931221E+04</pdfrwt>
<totfact> 0.56463825E-04</totfact>
</mgrwt>
</event>
<event>
 6    1  0.2003386E-005  0.1906101E+04  0.7818608E-02  0.8651825E-01
          2   -1    0    0  501    0  0.00000000000E+00  0.00000000000E+00  0.86314717118E+03  0.86314717118E+03  0.00000000000E+00 0. -1.
         -2   -1    0    0    0  501 -0.00000000000E+00 -0.00000000000E+00 -0.10523181360E+04  0.10523181360E+04  0.00000000000E+00 0.  1.
         23    2    1    2    0    0  0.50964588449E+02 -0.14742513959E+03 -0.10373242045E+04  0.10530875018E+04  0.92845140236E+02 0.  0.
         11    1    3    3    0    0 -0.40131051554E+01 -0.77503256157E+02 -0.27994359491E+03  0.29050176601E+03  0.00000000000E+00 0. -1.
        -11    1    3    3    0    0  0.54977693604E+02 -0.69921883430E+02 -0.75738060963E+03  0.76258573578E+03  0.00000000000E+00 0.  1.
         22    1    1    2    0    0 -0.50964588449E+02  0.14742513959E+03  0.84815323975E+03  0.86237780534E+03  0.00000000000E+00 0. -1.
<mgrwt>
<rscale>  0 0.19061012E+04</rscale>
<asrwt>0</asrwt>
<pdfrwt beam="1">  1        2 0.13279187E+00 0.19061012E+04</pdfrwt>
<pdfrwt beam="2">  1       -2 0.16189510E+00 0.19061012E+04</pdfrwt>
<totfact> 0.70934274E+00</totfact>
</mgrwt>
</event>
<event>
 6    1  0.2003386E-005  0.3243449E+04  0.7818608E-02  0.8177436E-01
          2   -1    0    0  501    0  0.00000000000E+00  0.00000000000E+00  0.13274003155E+04  0.13274003155E+04  0.00000000000E+00 0. -1.
         -2   -1    0    0    0  501 -0.00000000000E+00 -0.00000000000E+00 -0.19813097066E+04  0.19813097066E+04  0.00000000000E+00 0.  1.
         23    2    1    2    0    0 -0.64908331882E+03 -0.50854100727E+02 -0.18410275999E+04  0.19547731935E+04  0.88658447029E+02 0.  0.
         11    1    3    3    0    0 -0.52162869639E+03 -0.31830909395E+02 -0.13653020492E+04  0.14619026607E+04  0.00000000000E+00 0. -1.
        -11    1    3    3    0    0 -0.12745462243E+03 -0.19023191333E+02 -0.47572555068E+03  0.49287053286E+03  0.00000000000E+00 0.  1.
         22    1    1    2    0    0  0.64908331882E+03  0.50854100727E+02  0.11871182087E+04  0.13539368286E+04  0.00000000000E+00 0. -1.
<mgrwt>
<rscale>  0 0.32434495E+04</rscale>
<asrwt>0</asrwt>
<pdfrwt beam="1">  1        2 0.20421543E+00 0.32434495E+04</pdfrwt>
<pdfrwt beam="2">  1       -2 0.30481688E+00 0.32434495E+04</pdfrwt>
<totfact> 0.39697702E-01</totfact>
</mgrwt>
</event>
<event>
 6    1  0.2003386E-005  0.4889552E+04  0.7818608E-02  0.7845774E-01
          2   -1    0    0  501    0  0.00000000000E+00  0.00000000000E+00  0.26307292399E+04  0.26307292399E+04  0.00000000000E+00 0. -1.
         -2   -1    0    0    0  501 -0.00000000000E+00 -0.00000000000E+00 -0.22719670989E+04  0.22719670989E+04  0.00000000000E+00 0.  1.
         23    2    1    2    0    0  0.22511886494E+04  0.77074771221E+02 -0.77118225130E+03  0.23826635642E+04  0.92589092226E+02 0.  0.
         11    1    3    3    0    0  0.95761657438E+03  0.70595288069E+02 -0.30126219420E+03  0.10063657923E+04  0.00000000000E+00 0. -1.
        -11    1    3    3    0    0  0.12935720750E+04  0.64794831521E+01 -0.46992005711E+03  0.13762977719E+04  0.00000000000E+00 0.  1.
         22    1    1    2    0    0 -0.22511886494E+04 -0.77074771221E+02  0.11299443923E+04  0.25200327746E+04  0.00000000000E+00 0. -1.
<mgrwt>
<rscale>  0 0.48895522E+04</rscale>
<asrwt>0</asrwt>
<pdfrwt beam="1">  1        2 0.40472758E+00 0.48895522E+04</pdfrwt>
<pdfrwt beam="2">  1       -2 0.34953340E+00 0.48895522E+04</pdfrwt>
<totfact> 0.33581318E-02</totfact>
</mgrwt>
</event>
<event>
 6    1  0.2003386E-005  0.3515615E+04  0.7818608E-02  0.8110099E-01
          1   -1    0    0  501    0  0.00000000000E+00  0.00000000000E+00  0.42210044158E+04  0.42210044158E+04  0.00000000000E+00 0. -1.
         -1   -1    0    0    0  501 -0.00000000000E+00 -0.00000000000E+00 -0.73202635789E+03  0.73202635789E+03  0.00000000000E+00 0.  1.
         23    2    1    2    0    0  0.54619776667E+03 -0.16669028933E+04  0.16129342593E+04  0.23846776846E+04  0.90738516636E+02 0.  0.
         13    1    3    3    0    0  0.46575921145E+03 -0.13134609180E+04  0.12998150656E+04  0.19056837175E+04  0.00000000000E+00 0. -1.
        -13    1    3    3    0    0  0.80438555224E+02 -0.35344197530E+03  0.31311919366E+03  0.47899396709E+03  0.00000000000E+00 0.  1.
         22    1    1    2    0    0 -0.54619776667E+03  0.16669028933E+04  0.18760437986E+04  0.25683530891E+04  0.00000000000E+00 0. -1.
<mgrwt>
<rscale>  0 0.35156146E+04</rscale>
<asrwt>0</asrwt>
<pdfrwt beam="1">  1        1 0.64938528E+00 0.35156146E+04</pdfrwt>
<pdfrwt beam="2">  1       -1 0.11261944E+00 0.35156146E+04</pdfrwt>
<totfact> 0.35436824E-02</totfact>
</mgrwt>
</event>
<event>
 6    1  0.2003386E-005  0.4021410E+04  0.7818608E-02  0.8000241E-01
         -2   -1    0    0    0  501 -0.00000000000E+00  0.00000000000E+00  0.95014201932E+03  0.95014201932E+03  0.00000000000E+00 0.  1.
          2   -1    0    0  501    0  0.00000000000E+00 -0.00000000000E+00 -0.42550851099E+04  0.42550851099E+04  0.00000000000E+00 0. -1.
         23    2    1    2    0    0  0.11403249284E+04 -0.58599224292E+03  0.35003154645E+03  0.13319123410E+04  0.87980393661E+02 0.  0.
         11    1    3    3    0    0  0.71637772820E+03 -0.41202307228E+03  0.20869239560E+03  0.85235707161E+03  0.00000000000E+00 0. -1.
        -11    1    3    3    0    0  0.42394720018E+03 -0.17396917064E+03  0.14133915085E+03  0.47955526943E+03  0.00000000000E+00 0.  1.
         22    1    1    2    0    0 -0.11403249284E+04  0.58599224292E+03 -0.36549746370E+04  0.38733147882E+04  0.00000000000E+00 0. -1.
<mgrwt>
<rscale>  0 0.40214103E+04</rscale>
<asrwt>0</asrwt>
<pdfrwt beam="1">  1        2 0.65462847E+00 0.40214103E+04</pdfrwt>
<pdfrwt beam="2">  1       -2 0.14617570E+00 0.40214103E+04</pdfrwt>
<totfact> 0.52283282E-02</totfact>
</mgrwt>
</event>
<event>
 6    1  0.2003386E-005  0.2078845E+04  0.7818608E-02  0.8570620E-01
          1   -1    0    0  501    0  0.00000000000E+00  0.00000000000E+00  0.24436864534E+04  0.24436864534E+04  0.00000000000E+00 0. -1.
         -1   -1    0    0    0  501 -0.00000000000E+00 -0.00000000000E+00 -0.44211876209E+03  0.44211876209E+03  0.00000000000E+00 0.  1.
         23    2    1    2    0    0  0.61793262086E+03  0.10745942783E+03 -0.14448858873E+03  0.64997297455E+03  0.90551989630E+02 0.  0.
         13    1    3    3    0    0  0.43707612202E+03  0.34744550089E+02 -0.90344410167E+02  0.44766598335E+03  0.00000000000E+00 0.  1.
        -13    1    3    3    0    0  0.18085649884E+03  0.72714877743E+02 -0.54144178564E+02  0.20230699120E+03  0.00000000000E+00 0. -1.
         22    1    1    2    0    0 -0.61793262086E+03 -0.10745942783E+03  0.21460562801E+04  0.22358322410E+04  0.00000000000E+00 0. -1.
<mgrwt>
<rscale>  0 0.20788455E+04</rscale>
<asrwt>0</asrwt>
<pdfrwt beam="1">  1        1 0.37595175E+00 0.20788455E+04</pdfrwt>
<pdfrwt beam="2">  1       -1 0.68018272E-01 0.20788455E+04</pdfrwt>
<totfact> 0.29889194E+00</totfact>
</mgrwt>
</event>
<event>
 6    1  0.2003386E-005  0.1828103E+04  0.7818608E-02  0.8691496E-01
         -2   -1    0    0    0  501 -0.00000000000E+00  0.00000000000E+00  0.58340459495E+03  0.58340459495E+03  0.00000000000E+00 0. -1.
          2   -1    0    0  501    0  0.00000000000E+00 -0.00000000000E+00 -0.14320945616E+04  0.14320945616E+04  0.00000000000E+00 0.  1.
         23    2    1    2    0    0  0.60559122782E+03  0.44083985634E+03  0.14798165163E+03  0.76872939880E+03  0.89251359669E+02 0.  0.
         13    1    3    3    0    0  0.25842339248E+03  0.20814517641E+03  0.10765354664E+03  0.34885003992E+03  0.00000000000E+00 0. -1.
        -13    1    3    3    0    0  0.34716783535E+03  0.23269467992E+03  0.40328104991E+02  0.41987935888E+03  0.00000000000E+00 0.  1.
         22    1    1    2    0    0 -0.60559122782E+03 -0.44083985634E+03 -0.99667161826E+03  0.12467697577E+04  0.00000000000E+00 0.  1.
<mgrwt>
<rscale>  0 0.18281034E+04</rscale>
<asrwt>0</asrwt>
<pdfrwt beam="1">  1        2 0.22032224E+00 0.18281034E+04</pdfrwt>
<pdfrwt beam="2">  1       -2 0.89754554E-01 0.18281034E+04</pdfrwt>
<totfact> 0.13897499E+01</totfact>
</mgrwt>
</event>
<event>
 6    1  0.2003386E-005  0.4122915E+04  0.7818608E-02  0.7980200E-01
         -2   -1    0    0    0  501 -0.00000000000E+00  0.00000000000E+00  0.21777272907E+04  0.21777272907E+04  0.00000000000E+00 0. -1.
          2   -1    0    0  501    0  0.00000000000E+00 -0.00000000000E+00 -0.19513956310E+04  0.19513956310E+04  0.00000000000E+00 0.  1.
         23    2    1    2    0    0  0.10503019965E+04  0.53314902538E+03 -0.15798952772E+04  0.19727746394E+04  0.91588883990E+02 0.  0.
         13    1    3    3    0    0  0.16753823198E+03  0.98820346358E+02 -0.21050926937E+03  0.28661589719E+03  0.00000000000E+00 0. -1.
        -13    1    3    3    0    0  0.88276376455E+03  0.43432867902E+03 -0.13693860078E+04  0.16861587422E+04  0.00000000000E+00 0.  1.
         22    1    1    2    0    0 -0.10503019965E+04 -0.53314902538E+03  0.18062269369E+04  0.21563482823E+04  0.00000000000E+00 0. -1.
<mgrwt>
<rscale>  0 0.41229152E+04</rscale>
<asrwt>0</asrwt>
<pdfrwt beam="1">  1        2 0.30021471E+00 0.41229152E+04</pdfrwt>
<pdfrwt beam="2">  1       -2 0.33503497E+00 0.41229152E+04</pdfrwt>
<totfact> 0.10724826E-01</totfact>
</mgrwt>
</event>
<event>
 6    1  0.2003386E-005  0.3258092E+04  0.7818608E-02  0.8173642E-01
         -2   -1    0    0    0  501 -0.00000000000E+00  0.00000000000E+00  0.77372518074E+03  0.77372518074E+03  0.00000000000E+00 0.  1.
          2   -1    0    0  501    0  0.00000000000E+00 -0.00000000000E+00 -0.34298871812E+04  0.34298871812E+04  0.00000000000E+00 0. -1.
         23    2    1    2    0    0 -0.12804789293E+04 -0.18815065295E+03 -0.26028951072E+04  0.29082883413E+04  0.89728369859E+02 0.  0.
         13    1    3    3    0    0 -0.42922571481E+03 -0.10389039729E+03 -0.91617943699E+03  0.10170608092E+04  0.00000000000E+00 0. -1.
        -13    1    3    3    0    0 -0.85125321451E+03 -0.84260255661E+02 -0.16867156702E+04  0.18912275320E+04  0.00000000000E+00 0.  1.
         22    1    1    2    0    0  0.12804789293E+04  0.18815065295E+03 -0.53266893303E+02  0.12953240207E+04  0.00000000000E+00 0.  1.
<mgrwt>
<rscale>  0 0.32580915E+04</rscale>
<asrwt>0</asrwt>
<pdfrwt beam="1">  1        2 0.52767495E+00 0.32580915E+04</pdfrwt>
<pdfrwt beam="2">  1       -2 0.11903464E+00 0.32580915E+04</pdfrwt>
<totfact> 0.41239043E-01</totfact>
</mgrwt>
</event>
<event>
 6    1  0.2003386E-005  0.2959997E+04  0.7818608E-02  0.8255247E-01
         -2   -1    0    0    0  501 -0.00000000000E+00  0.00000000000E+00  0.10841094376E+04  0.10841094376E+04  0.00000000000E+00 0.  1.
          2   -1    0    0  501    0  0.00000000000E+00 -0.00000000000E+00 -0.20204565692E+04  0.20204565692E+04  0.00000000000E+00 0. -1.
         23    2    1    2    0    0  0.23567699981E+03  0.67167794700E+03 -0.18278636179E+04  0.19637344863E+04  0.92047890829E+02 0.  0.
         13    1    3    3    0    0  0.65403610622E+02  0.17949706708E+03 -0.38582796870E+03  0.43053461046E+03  0.00000000000E+00 0.  1.
        -13    1    3    3    0    0  0.17027338919E+03  0.49218087992E+03 -0.14420356492E+04  0.15331998758E+04  0.00000000000E+00 0. -1.
         22    1    1    2    0    0 -0.23567699981E+03 -0.67167794700E+03  0.89151648634E+03  0.11408315205E+04  0.00000000000E+00 0.  1.
<mgrwt>
<rscale>  0 0.29599973E+04</rscale>
<asrwt>0</asrwt>
<pdfrwt beam="1">  1        2 0.31083947E+00 0.29599973E+04</pdfrwt>
<pdfrwt beam="2">  1       -2 0.16678607E+00 0.29599973E+04</pdfrwt>
<totfact> 0.12562483E+00</totfact>
</mgrwt>
</event>
<event>
 6    1  0.2003386E-005  0.2716631E+04  0.7818608E-02  0.8329629E-01
         -2   -1    0    0    0  501 -0.00000000000E+00  0.00000000000E+00  0.14357556514E+04  0.14357556514E+04  0.00000000000E+00 0.  1.
          2   -1    0    0  501    0  0.00000000000E+00 -0.00000000000E+00 -0.12850525646E+04  0.12850525646E+04  0.00000000000E+00 0. -1.
         23    2    1    2    0    0 -0.53583329772E+02  0.40099486482E+03 -0.12216339227E+04  0.12900822037E+04  0.90854808534E+02 0.  0.
         13    1    3    3    0    0 -0.37791677385E+02  0.10444256692E+03 -0.23889620447E+03  0.26345370974E+03  0.00000000000E+00 0. -1.
        -13    1    3    3    0    0 -0.15791652388E+02  0.29655229791E+03 -0.98273771825E+03  0.10266284939E+04  0.00000000000E+00 0.  1.
         22    1    1    2    0    0  0.53583329772E+02 -0.40099486482E+03  0.13723370095E+04  0.14307260123E+04  0.00000000000E+00 0.  1.
<mgrwt>
<rscale>  0 0.27166314E+04</rscale>
<asrwt>0</asrwt>
<pdfrwt beam="1">  1        2 0.19770039E+00 0.27166314E+04</pdfrwt>
<pdfrwt beam="2">  1       -2 0.22088549E+00 0.27166314E+04</pdfrwt>
<totfact> 0.14418442E+00</totfact>
</mgrwt>
</event>
<event>
 6    1  0.2003386E-005  0.5311442E+04  0.7818608E-02  0.7782181E-01
          2   -1    0    0  501    0  0.00000000000E+00  0.00000000000E+00  0.51599363945E+04  0.51599363945E+04  0.00000000000E+00 0. -1.
         -2   -1    0    0    0  501 -0.00000000000E+00 -0.00000000000E+00 -0.13668490930E+04  0.13668490930E+04  0.00000000000E+00 0.  1.
         23    2    1    2    0    0  0.14410333004E+04  0.15133964126E+04 -0.11521817923E+03  0.20948787416E+04  0.91082593419E+02 0.  0.
         11    1    3    3    0    0  0.10817325738E+04  0.10881739590E+04 -0.61465232811E+02  0.15355930128E+04  0.00000000000E+00 0.  1.
        -11    1    3    3    0    0  0.35930072658E+03  0.42522245359E+03 -0.53752946424E+02  0.55928572878E+03  0.00000000000E+00 0. -1.
         22    1    1    2    0    0 -0.14410333004E+04 -0.15133964126E+04  0.39083054807E+04  0.44319067460E+04  0.00000000000E+00 0. -1.
<mgrwt>
<rscale>  0 0.53114421E+04</rscale>
<asrwt>0</asrwt>
<pdfrwt beam="1">  1        2 0.79383636E+00 0.53114421E+04</pdfrwt>
<pdfrwt beam="2">  1       -2 0.21028448E+00 0.53114421E+04</pdfrwt>
<totfact> 0.16654425E-03</totfact>
</mgrwt>
</event>
<event>
 6    1  0.2003386E-005  0.3639623E+04  0.7818608E-02  0.8081475E-01
         -2   -1    0    0    0  501 -0.00000000000E+00  0.00000000000E+00  0.11385416612E+04  0.11385416612E+04  0.00000000000E+00 0.  1.
          2   -1    0    0  501    0  0.00000000000E+00 -0.00000000000E+00 -0.29087327588E+04  0.29087327588E+04  0.00000000000E+00 0. -1.
         23    2    1    2    0    0  0.98722978838E+03  0.14469843862E+04 -0.14292889525E+04  0.22627294523E+04  0.93226581067E+02 0.  0.
         13    1    3    3    0    0  0.13852312386E+03  0.15539062289E+03 -0.18757966995E+03  0.28021604898E+03  0.00000000000E+00 0. -1.
        -13    1    3    3    0    0  0.84870666452E+03  0.12915937633E+04 -0.12417092825E+04  0.19825134033E+04  0.00000000000E+00 0.  1.
         22    1    1    2    0    0 -0.98722978838E+03 -0.14469843862E+04 -0.34090214509E+03  0.17845449677E+04  0.00000000000E+00 0.  1.
<mgrwt>
<rscale>  0 0.36396227E+04</rscale>
<asrwt>0</asrwt>
<pdfrwt beam="1">  1        2 0.44749733E+00 0.36396227E+04</pdfrwt>
<pdfrwt beam="2">  1       -2 0.17516026E+00 0.36396227E+04</pdfrwt>
<totfact> 0.31574494E-01</totfact>
</mgrwt>
</event>
<event>
 6    1  0.4969477E-005  0.3279614E+04  0.7818608E-02  0.8168102E-01
         -2   -1    0    0    0  501 -0.00000000000E+00  0.00000000000E+00  0.91612809032E+03  0.91612809032E+03  0.00000000000E+00 0.  1.
          2   -1    0    0  501    0  0.00000000000E+00 -0.00000000000E+00 -0.29351430874E+04  0.29351430874E+04  0.00000000000E+00 0. -1.
         23    2    1    2    0    0 -0.14579399706E+04  0.63535364016E+02 -0.18852814991E+04  0.23858325577E+04  0.91021767748E+02 0.  0.
         13    1    3    3    0    0 -0.77795453861E+03  0.45367910113E+02 -0.93468624211E+03  0.12169264080E+04  0.00000000000E+00 0. -1.
        -13    1    3    3    0    0 -0.67998543201E+03  0.18167453903E+02 -0.95059525698E+03  0.11689061497E+04  0.00000000000E+00 0.  1.
         22    1    1    2    0    0  0.14579399706E+04 -0.63535364016E+02 -0.13373349795E+03  0.14654386200E+04  0.00000000000E+00 0.  1.
<mgrwt>
<rscale>  0 0.32796140E+04</rscale>
<asrwt>0</asrwt>
<pdfrwt beam="1">  1        2 0.45156048E+00 0.32796140E+04</pdfrwt>
<pdfrwt beam="2">  1       -2 0.14094278E+00 0.32796140E+04</pdfrwt>
<totfact> 0.56391459E-01</totfact>
</mgrwt>
</event>
<event>
 6    1  0.2003386E-005  0.9830185E+03  0.7818608E-02  0.9327368E-01
          2   -1    0    0  501    0  0.00000000000E+00  0.00000000000E+00  0.93927231264E+03  0.93927231264E+03  0.00000000000E+00 0. -1.
         -2   -1    0    0    0  501 -0.00000000000E+00 -0.00000000000E+00 -0.25720053519E+03  0.25720053519E+03  0.00000000000E+00 0.  1.
         23    2    1    2    0    0  0.41269484322E+03  0.23097266584E+03  0.48641347903E+03  0.68466470436E+03  0.92207802409E+02 0.  0.
         13    1    3    3    0    0  0.13675285396E+03  0.12187559382E+03  0.15636297553E+03  0.24084099226E+03  0.00000000000E+00 0.  1.
        -13    1    3    3    0    0  0.27594198926E+03  0.10909707202E+03  0.33005050350E+03  0.44382371210E+03  0.00000000000E+00 0. -1.
         22    1    1    2    0    0 -0.41269484322E+03 -0.23097266584E+03  0.19565829842E+03  0.51180814347E+03  0.00000000000E+00 0.  1.
<mgrwt>
<rscale>  0 0.98301850E+03</rscale>
<asrwt>0</asrwt>
<pdfrwt beam="1">  1        2 0.14450343E+00 0.98301850E+03</pdfrwt>
<pdfrwt beam="2">  1       -2 0.39569314E-01 0.98301850E+03</pdfrwt>
<totfact> 0.16643874E+02</totfact>
</mgrwt>
</event>
<event>
 6    1  0.2003386E-005  0.1753497E+04  0.7818608E-02  0.8731428E-01
         -2   -1    0    0    0  501 -0.00000000000E+00  0.00000000000E+00  0.40949114843E+03  0.40949114843E+03  0.00000000000E+00 0.  1.
          2   -1    0    0  501    0  0.00000000000E+00 -0.00000000000E+00 -0.18771775499E+04  0.18771775499E+04  0.00000000000E+00 0. -1.
         23    2    1    2    0    0  0.38910443683E+03 -0.70015927530E+03 -0.11931307038E+04  0.14399065684E+04  0.90248411148E+02 0.  0.
         13    1    3    3    0    0  0.16464902103E+03 -0.37523816910E+03 -0.64996996368E+03  0.76835794872E+03  0.00000000000E+00 0. -1.
        -13    1    3    3    0    0  0.22445541581E+03 -0.32492110620E+03 -0.54316074015E+03  0.67154861967E+03  0.00000000000E+00 0.  1.
         22    1    1    2    0    0 -0.38910443683E+03  0.70015927530E+03 -0.27455569759E+03  0.84676212990E+03  0.00000000000E+00 0.  1.
<mgrwt>
<rscale>  0 0.17534966E+04</rscale>
<asrwt>0</asrwt>
<pdfrwt beam="1">  1        2 0.28879654E+00 0.17534966E+04</pdfrwt>
<pdfrwt beam="2">  1       -2 0.62998639E-01 0.17534966E+04</pdfrwt>
<totfact> 0.17294599E+01</totfact>
</mgrwt>
</event>
<event>
 6    1  0.2003386E-005  0.2816119E+04  0.7818608E-02  0.8298281E-01
         -1   -1    0    0    0  501 -0.00000000000E+00  0.00000000000E+00  0.10784117412E+04  0.10784117412E+04  0.00000000000E+00 0.  1.
          1   -1    0    0  501    0  0.00000000000E+00 -0.00000000000E+00 -0.18384742877E+04  0.18384742877E+04  0.00000000000E+00 0. -1.
         23    2    1    2    0    0 -0.55335975246E+03 -0.48655178034E+03 -0.16214084108E+04  0.17833709877E+04  0.92234453750E+02 0.  0.
         13    1    3    3    0    0 -0.12122826559E+03 -0.15166204152E+03 -0.48023310551E+03  0.51799758961E+03  0.00000000000E+00 0. -1.
        -13    1    3    3    0    0 -0.43213148688E+03 -0.33488973882E+03 -0.11411753053E+04  0.12653733981E+04  0.00000000000E+00 0.  1.
         22    1    1    2    0    0  0.55335975246E+03  0.48655178034E+03  0.86134586437E+03  0.11335150412E+04  0.00000000000E+00 0.  1.
<mgrwt>
<rscale>  0 0.28161195E+04</rscale>
<asrwt>0</asrwt>
<pdfrwt beam="1">  1        1 0.28284220E+00 0.28161195E+04</pdfrwt>
<pdfrwt beam="2">  1       -1 0.16590950E+00 0.28161195E+04</pdfrwt>
<totfact> 0.87494446E-01</totfact>
</mgrwt>
</event>
<event>
 6    1  0.2003386E-005  0.2986662E+04  0.7818608E-02  0.8247550E-01
          2   -1    0    0  501    0  0.00000000000E+00  0.00000000000E+00  0.19383699632E+04  0.19383699632E+04  0.00000000000E+00 0. -1.
         -2   -1    0    0    0  501 -0.00000000000E+00 -0.00000000000E+00 -0.11504704480E+04  0.11504704480E+04  0.00000000000E+00 0.  1.
         23    2    1    2    0    0  0.90586387761E+03  0.97802718952E+03 -0.29846955415E+03  0.13691531422E+04  0.91486085605E+02 0.  0.
         11    1    3    3    0    0  0.41666544963E+03  0.39266127960E+03 -0.10419701548E+03  0.58193641874E+03  0.00000000000E+00 0.  1.
        -11    1    3    3    0    0  0.48919842798E+03  0.58536590992E+03 -0.19427253867E+03  0.78721672347E+03  0.00000000000E+00 0. -1.
         22    1    1    2    0    0 -0.90586387761E+03 -0.97802718952E+03  0.10863690694E+04  0.17196872690E+04  0.00000000000E+00 0. -1.
<mgrwt>
<rscale>  0 0.29866619E+04</rscale>
<asrwt>0</asrwt>
<pdfrwt beam="1">  1        2 0.29821076E+00 0.29866619E+04</pdfrwt>
<pdfrwt beam="2">  1       -2 0.17699545E+00 0.29866619E+04</pdfrwt>
<totfact> 0.11788810E+00</totfact>
</mgrwt>
</event>
<event>
 6    1  0.2003386E-005  0.3843096E+03  0.7818608E-02  0.1049352E+00
         -2   -1    0    0    0  501 -0.00000000000E+00  0.00000000000E+00  0.39360477095E+02  0.39360477095E+02  0.00000000000E+00 0.  1.
          2   -1    0    0  501    0  0.00000000000E+00 -0.00000000000E+00 -0.93808493689E+03  0.93808493689E+03  0.00000000000E+00 0. -1.
         23    2    1    2    0    0  0.33490722015E+02  0.75014690343E+02 -0.88576027845E+03  0.89427749814E+03  0.91717722225E+02 0.  0.
         13    1    3    3    0    0  0.58039937737E+02  0.79172912247E+02 -0.71776627916E+03  0.72444835282E+03  0.00000000000E+00 0.  1.
        -13    1    3    3    0    0 -0.24549215723E+02 -0.41582219045E+01 -0.16799399929E+03  0.16982914532E+03  0.00000000000E+00 0. -1.
         22    1    1    2    0    0 -0.33490722015E+02 -0.75014690343E+02 -0.12964181346E+02  0.83167915847E+02  0.00000000000E+00 0.  1.
<mgrwt>
<rscale>  0 0.38430962E+03</rscale>
<asrwt>0</asrwt>
<pdfrwt beam="1">  1        2 0.14432074E+00 0.38430962E+03</pdfrwt>
<pdfrwt beam="2">  1       -2 0.60554589E-02 0.38430962E+03</pdfrwt>
<totfact> 0.42088049E+03</totfact>
</mgrwt>
</event>
<event>
 6    1  0.2003386E-005  0.2307847E+04  0.7818608E-02  0.8474834E-01
         -2   -1    0    0    0  501 -0.00000000000E+00  0.00000000000E+00  0.49738818292E+03  0.49738818292E+03  0.00000000000E+00 0.  1.
          2   -1    0    0  501    0  0.00000000000E+00 -0.00000000000E+00 -0.26770618423E+04  0.26770618423E+04  0.00000000000E+00 0. -1.
         23    2    1    2    0    0 -0.94140503781E+03  0.47676808815E+03 -0.45499465260E+03  0.11525526659E+04  0.88353034697E+02 0.  0.
         11    1    3    3    0    0 -0.57495308282E+03  0.33741474676E+03 -0.27464033704E+03  0.72100421185E+03  0.00000000000E+00 0.  1.
        -11    1    3    3    0    0 -0.36645195500E+03  0.13935334140E+03 -0.18035431556E+03  0.43154845408E+03  0.00000000000E+00 0. -1.
         22    1    1    2    0    0  0.94140503781E+03 -0.47676808815E+03 -0.17246790068E+04  0.20218973593E+04  0.00000000000E+00 0. -1.
<mgrwt>
<rscale>  0 0.23078466E+04</rscale>
<asrwt>0</asrwt>
<pdfrwt beam="1">  1        2 0.41185567E+00 0.23078466E+04</pdfrwt>
<pdfrwt beam="2">  1       -2 0.76521258E-01 0.23078466E+04</pdfrwt>
<totfact> 0.37919686E+00</totfact>
</mgrwt>
</event>
<event>
 6    1  0.2003386E-005  0.1255854E+04  0.7818608E-02  0.9065325E-01
         -2   -1    0    0    0  501 -0.00000000000E+00  0.00000000000E+00  0.26406634164E+03  0.26406634164E+03  0.00000000000E+00 0.  1.
          2   -1    0    0  501    0  0.00000000000E+00 -0.00000000000E+00 -0.14931556271E+04  0.14931556271E+04  0.00000000000E+00 0. -1.
         23    2    1    2    0    0 -0.35482768082E+03 -0.19872028342E+03  0.46003053803E+02  0.41884500101E+03  0.89007976010E+02 0.  0.
         13    1    3    3    0    0 -0.75605576726E+02 -0.81970607212E+02  0.31377284497E+02  0.11584436828E+03  0.00000000000E+00 0.  1.
        -13    1    3    3    0    0 -0.27922210410E+03 -0.11674967620E+03  0.14625769306E+02  0.30300063274E+03  0.00000000000E+00 0. -1.
         22    1    1    2    0    0  0.35482768082E+03  0.19872028342E+03 -0.12750923393E+04  0.13383769677E+04  0.00000000000E+00 0. -1.
<mgrwt>
<rscale>  0 0.12558537E+04</rscale>
<asrwt>0</asrwt>
<pdfrwt beam="1">  1        2 0.22971625E+00 0.12558537E+04</pdfrwt>
<pdfrwt beam="2">  1       -2 0.40625591E-01 0.12558537E+04</pdfrwt>
<totfact> 0.72199432E+01</totfact>
</mgrwt>
</event>
<event>
 6    1  0.2003386E-005  0.1370835E+04  0.7818608E-02  0.8975204E-01
         -2   -1    0    0    0  501 -0.00000000000E+00  0.00000000000E+00  0.76468250283E+03  0.76468250283E+03  0.00000000000E+00 0. -1.
          2   -1    0    0  501    0  0.00000000000E+00 -0.00000000000E+00 -0.61436912122E+03  0.61436912122E+03  0.00000000000E+00 0.  1.
         23    2    1    2    0    0 -0.58533008475E+03 -0.35048142019E+03  0.62574543837E+02  0.69119507094E+03  0.91577936926E+02 0.  0.
         13    1    3    3    0    0 -0.10115854532E+03 -0.10106459040E+03  0.17132137730E+00  0.14299346864E+03  0.00000000000E+00 0. -1.
        -13    1    3    3    0    0 -0.48417153944E+03 -0.24941682980E+03  0.62403222460E+02  0.54820160230E+03  0.00000000000E+00 0.  1.
         22    1    1    2    0    0  0.58533008475E+03  0.35048142019E+03  0.87738837775E+02  0.68785655312E+03  0.00000000000E+00 0.  1.
<mgrwt>
<rscale>  0 0.13708352E+04</rscale>
<asrwt>0</asrwt>
<pdfrwt beam="1">  1        2 0.94518326E-01 0.13708352E+04</pdfrwt>
<pdfrwt beam="2">  1       -2 0.11764346E+00 0.13708352E+04</pdfrwt>
<totfact> 0.26209572E+01</totfact>
</mgrwt>
</event>
<event>
 6    1  0.2003386E-005  0.4245120E+04  0.7818608E-02  0.7956845E-01
          2   -1    0    0  501    0  0.00000000000E+00  0.00000000000E+00  0.31064821596E+04  0.31064821596E+04  0.00000000000E+00 0. -1.
         -2   -1    0    0    0  501 -0.00000000000E+00 -0.00000000000E+00 -0.14502774515E+04  0.14502774515E+04  0.00000000000E+00 0.  1.
         23    2    1    2    0    0  0.17587120834E+04 -0.11745782095E+04  0.10133538146E+04  0.23463389648E+04  0.75620246640E+02 0.  0.
         13    1    3    3    0    0  0.91017717198E+03 -0.61222339477E+03  0.48386938460E+03  0.11989034785E+04  0.00000000000E+00 0. -1.
        -13    1    3    3    0    0  0.84853491140E+03 -0.56235481477E+03  0.52948443001E+03  0.11474354863E+04  0.00000000000E+00 0.  1.
         22    1    1    2    0    0 -0.17587120834E+04  0.11745782095E+04  0.64285089350E+03  0.22104206463E+04  0.00000000000E+00 0.  1.
<mgrwt>
<rscale>  0 0.42451200E+04</rscale>
<asrwt>0</asrwt>
<pdfrwt beam="1">  1        2 0.47792033E+00 0.42451200E+04</pdfrwt>
<pdfrwt beam="2">  1       -2 0.22311961E+00 0.42451200E+04</pdfrwt>
<totfact> 0.10879768E-01</totfact>
</mgrwt>
</event>
<event>
 6    1  0.2003386E-005  0.2712177E+04  0.7818608E-02  0.8331065E-01
         -2   -1    0    0    0  501 -0.00000000000E+00  0.00000000000E+00  0.15693873635E+04  0.15693873635E+04  0.00000000000E+00 0.  1.
          2   -1    0    0  501    0  0.00000000000E+00 -0.00000000000E+00 -0.11717793191E+04  0.11717793191E+04  0.00000000000E+00 0. -1.
         23    2    1    2    0    0 -0.75935923727E+03 -0.69288599582E+03  0.10906104046E+04  0.15014208515E+04  0.90089202647E+02 0.  0.
         11    1    3    3    0    0 -0.52223742231E+03 -0.51659848391E+03  0.81766208435E+03  0.10991711436E+04  0.00000000000E+00 0. -1.
        -11    1    3    3    0    0 -0.23712181495E+03 -0.17628751191E+03  0.27294832020E+03  0.40224970787E+03  0.00000000000E+00 0.  1.
         22    1    1    2    0    0  0.75935923727E+03  0.69288599582E+03 -0.69300236023E+03  0.12397458311E+04  0.00000000000E+00 0. -1.
<mgrwt>
<rscale>  0 0.27121767E+04</rscale>
<asrwt>0</asrwt>
<pdfrwt beam="1">  1        2 0.18027374E+00 0.27121767E+04</pdfrwt>
<pdfrwt beam="2">  1       -2 0.24144421E+00 0.27121767E+04</pdfrwt>
<totfact> 0.12525413E+00</totfact>
</mgrwt>
</event>
<event>
 6    1  0.2003386E-005  0.1599748E+04  0.7818608E-02  0.8820703E-01
         -2   -1    0    0    0  501 -0.00000000000E+00  0.00000000000E+00  0.16238897152E+04  0.16238897152E+04  0.00000000000E+00 0.  1.
          2   -1    0    0  501    0  0.00000000000E+00 -0.00000000000E+00 -0.39399120669E+03  0.39399120669E+03  0.00000000000E+00 0. -1.
         23    2    1    2    0    0 -0.27651482805E+03  0.19097899490E+03  0.15288797199E+04  0.15680774188E+04  0.91979166112E+02 0.  0.
         13    1    3    3    0    0 -0.20151687847E+03  0.11309239829E+03  0.85953764670E+03  0.89005837391E+03  0.00000000000E+00 0. -1.
        -13    1    3    3    0    0 -0.74997949582E+02  0.77886596606E+02  0.66934207316E+03  0.67801904492E+03  0.00000000000E+00 0.  1.
         22    1    1    2    0    0  0.27651482805E+03 -0.19097899490E+03 -0.29898121136E+03  0.44980350307E+03  0.00000000000E+00 0. -1.
<mgrwt>
<rscale>  0 0.15997478E+04</rscale>
<asrwt>0</asrwt>
<pdfrwt beam="1">  1        2 0.60614033E-01 0.15997478E+04</pdfrwt>
<pdfrwt beam="2">  1       -2 0.24982918E+00 0.15997478E+04</pdfrwt>
<totfact> 0.49982789E+00</totfact>
</mgrwt>
</event>
<event>
 6    1  0.2003386E-005  0.2199301E+04  0.7818608E-02  0.8518719E-01
          2   -1    0    0  501    0  0.00000000000E+00  0.00000000000E+00  0.15432943363E+04  0.15432943363E+04  0.00000000000E+00 0.  1.
         -2   -1    0    0    0  501 -0.00000000000E+00 -0.00000000000E+00 -0.78353922679E+03  0.78353922679E+03  0.00000000000E+00 0. -1.
         23    2    1    2    0    0 -0.80576298890E+03  0.72535505972E+03  0.56319972890E+03  0.12250041868E+04  0.89707112527E+02 0.  0.
         13    1    3    3    0    0 -0.39339575637E+03  0.32585451662E+03  0.30977193619E+03  0.59741111437E+03  0.00000000000E+00 0.  1.
        -13    1    3    3    0    0 -0.41236723254E+03  0.39950054310E+03  0.25342779271E+03  0.62759307240E+03  0.00000000000E+00 0. -1.
         22    1    1    2    0    0  0.80576298890E+03 -0.72535505972E+03  0.19655538065E+03  0.11018293764E+04  0.00000000000E+00 0. -1.
<mgrwt>
<rscale>  0 0.21993014E+04</rscale>
<asrwt>0</asrwt>
<pdfrwt beam="1">  1        2 0.23742990E+00 0.21993014E+04</pdfrwt>
<pdfrwt beam="2">  1       -2 0.12054450E+00 0.21993014E+04</pdfrwt>
<totfact> 0.57602102E+00</totfact>
</mgrwt>
</event>
<event>
 6    1  0.2003386E-005  0.7025449E+03  0.7818608E-02  0.9712890E-01
          2   -1    0    0  501    0  0.00000000000E+00  0.00000000000E+00  0.67153161115E+02  0.67153161115E+02  0.00000000000E+00 0. -1.
         -2   -1    0    0    0  501 -0.00000000000E+00 -0.00000000000E+00 -0.18374764051E+04  0.18374764051E+04  0.00000000000E+00 0.  1.
         23    2    1    2    0    0  0.70858181442E+02  0.30320174454E+03 -0.49712565733E+03  0.59391057481E+03  0.92971350046E+02 0.  0.
         11    1    3    3    0    0  0.29068227963E+02  0.11685443291E+03 -0.27971722470E+03  0.30453513124E+03  0.00000000000E+00 0.  1.
        -11    1    3    3    0    0  0.41789953479E+02  0.18634731162E+03 -0.21740843263E+03  0.28937544357E+03  0.00000000000E+00 0. -1.
         22    1    1    2    0    0 -0.70858181442E+02 -0.30320174454E+03 -0.12731975867E+04  0.13107189914E+04  0.00000000000E+00 0.  1.
<mgrwt>
<rscale>  0 0.70254494E+03</rscale>
<asrwt>0</asrwt>
<pdfrwt beam="1">  1        2 0.10331255E-01 0.70254494E+03</pdfrwt>
<pdfrwt beam="2">  1       -2 0.28268868E+00 0.70254494E+03</pdfrwt>
<totfact> 0.26909186E+01</totfact>
</mgrwt>
</event>
<event>
 6    1  0.2003386E-005  0.2793555E+04  0.7818608E-02  0.8305272E-01
         -2   -1    0    0    0  501 -0.00000000000E+00  0.00000000000E+00  0.76124949306E+03  0.76124949306E+03  0.00000000000E+00 0.  1.
          2   -1    0    0  501    0  0.00000000000E+00 -0.00000000000E+00 -0.25628754247E+04  0.25628754247E+04  0.00000000000E+00 0. -1.
         23    2    1    2    0    0  0.20237258098E+03 -0.42680773039E+02 -0.25436982433E+04  0.25537693988E+04  0.92526100791E+02 0.  0.
         13    1    3    3    0    0  0.76757706654E+02  0.27530923388E+02 -0.10457993581E+04  0.10489737817E+04  0.00000000000E+00 0.  1.
        -13    1    3    3    0    0  0.12561487433E+03 -0.70211696426E+02 -0.14978988852E+04  0.15047956171E+04  0.00000000000E+00 0. -1.
         22    1    1    2    0    0 -0.20237258098E+03  0.42680773039E+02  0.74207231164E+03  0.77035551898E+03  0.00000000000E+00 0.  1.
<mgrwt>
<rscale>  0 0.27935552E+04</rscale>
<asrwt>0</asrwt>
<pdfrwt beam="1">  1        2 0.39428853E+00 0.27935552E+04</pdfrwt>
<pdfrwt beam="2">  1       -2 0.11711531E+00 0.27935552E+04</pdfrwt>
<totfact> 0.15704484E+00</totfact>
</mgrwt>
</event>
<event>
 6    1  0.2003386E-005  0.2520614E+04  0.7818608E-02  0.8395678E-01
          1   -1    0    0  501    0  0.00000000000E+00  0.00000000000E+00  0.13102068984E+04  0.13102068984E+04  0.00000000000E+00 0. -1.
         -1   -1    0    0    0  501 -0.00000000000E+00 -0.00000000000E+00 -0.12123075804E+04  0.12123075804E+04  0.00000000000E+00 0.  1.
         23    2    1    2    0    0 -0.94514438503E+03 -0.65505232558E+02  0.87823633914E+03  0.12951128694E+04  0.91811943978E+02 0.  0.
         11    1    3    3    0    0 -0.38459158401E+03 -0.56215311703E+02  0.31348923405E+03  0.49934591981E+03  0.00000000000E+00 0. -1.
        -11    1    3    3    0    0 -0.56055280102E+03 -0.92899208551E+01  0.56474710510E+03  0.79576694960E+03  0.00000000000E+00 0.  1.
         22    1    1    2    0    0  0.94514438503E+03  0.65505232558E+02 -0.78033702113E+03  0.12274016093E+04  0.00000000000E+00 0.  1.
<mgrwt>
<rscale>  0 0.25206140E+04</rscale>
<asrwt>0</asrwt>
<pdfrwt beam="1">  1        1 0.20157029E+00 0.25206140E+04</pdfrwt>
<pdfrwt beam="2">  1       -1 0.18650886E+00 0.25206140E+04</pdfrwt>
<totfact> 0.14752175E+00</totfact>
</mgrwt>
</event>
<event>
 6    1  0.2003386E-005  0.2677277E+04  0.7818608E-02  0.8342416E-01
          2   -1    0    0  501    0  0.00000000000E+00  0.00000000000E+00  0.10832731155E+04  0.10832731155E+04  0.00000000000E+00 0. -1.
         -2   -1    0    0    0  501 -0.00000000000E+00 -0.00000000000E+00 -0.16542027684E+04  0.16542027684E+04  0.00000000000E+00 0.  1.
         23    2    1    2    0    0 -0.14069105128E+03 -0.68121523885E+03  0.88162757801E+03  0.11269571219E+04  0.94429840784E+02 0.  0.
         13    1    3    3    0    0 -0.52400193260E+02 -0.45243762295E+03  0.60513502804E+03  0.75738628524E+03  0.00000000000E+00 0. -1.
        -13    1    3    3    0    0 -0.88290858024E+02 -0.22877761590E+03  0.27649254997E+03  0.36957083670E+03  0.00000000000E+00 0.  1.
         22    1    1    2    0    0  0.14069105128E+03  0.68121523885E+03 -0.14525572309E+04  0.16105187619E+04  0.00000000000E+00 0.  1.
<mgrwt>
<rscale>  0 0.26772773E+04</rscale>
<asrwt>0</asrwt>
<pdfrwt beam="1">  1        2 0.16665740E+00 0.26772773E+04</pdfrwt>
<pdfrwt beam="2">  1       -2 0.25449273E+00 0.26772773E+04</pdfrwt>
<totfact> 0.11825382E+00</totfact>
</mgrwt>
</event>
<event>
 6    1  0.2003386E-005  0.1633201E+04  0.7818608E-02  0.8800407E-01
         -2   -1    0    0    0  501 -0.00000000000E+00  0.00000000000E+00  0.83057619252E+03  0.83057619252E+03  0.00000000000E+00 0.  1.
          2   -1    0    0  501    0  0.00000000000E+00 -0.00000000000E+00 -0.80286007217E+03  0.80286007217E+03  0.00000000000E+00 0. -1.
         23    2    1    2    0    0 -0.48168510409E+03  0.17671203347E+03  0.64604621022E+03  0.82995646886E+03  0.90577879092E+02 0.  0.
         11    1    3    3    0    0 -0.18896104976E+03  0.85234977351E+02  0.32893022464E+03  0.38880119904E+03  0.00000000000E+00 0.  1.
        -11    1    3    3    0    0 -0.29272405432E+03  0.91477056123E+02  0.31711598558E+03  0.44115526982E+03  0.00000000000E+00 0. -1.
         22    1    1    2    0    0  0.48168510409E+03 -0.17671203347E+03 -0.61833008987E+03  0.80347979584E+03  0.00000000000E+00 0. -1.
<mgrwt>
<rscale>  0 0.16332011E+04</rscale>
<asrwt>0</asrwt>
<pdfrwt beam="1">  1        2 0.12351693E+00 0.16332011E+04</pdfrwt>
<pdfrwt beam="2">  1       -2 0.12778095E+00 0.16332011E+04</pdfrwt>
<totfact> 0.14872813E+01</totfact>
</mgrwt>
</event>
<event>
 6    1  0.2003386E-005  0.5193067E+04  0.7818608E-02  0.7799396E-01
          2   -1    0    0  501    0  0.00000000000E+00  0.00000000000E+00  0.15552207665E+04  0.15552207665E+04  0.00000000000E+00 0. -1.
         -2   -1    0    0    0  501 -0.00000000000E+00 -0.00000000000E+00 -0.43350669765E+04  0.43350669765E+04  0.00000000000E+00 0.  1.
         23    2    1    2    0    0  0.14389466677E+04 -0.21575979469E+04 -0.15166119604E+04  0.30055768073E+04  0.87084403098E+02 0.  0.
         11    1    3    3    0    0  0.40021748843E+03 -0.65803946712E+03 -0.47750368363E+03  0.90620072072E+03  0.00000000000E+00 0. -1.
        -11    1    3    3    0    0  0.10387291792E+04 -0.14995584798E+04 -0.10391082768E+04  0.20993760866E+04  0.00000000000E+00 0.  1.
         22    1    1    2    0    0 -0.14389466677E+04  0.21575979469E+04 -0.12632342497E+04  0.28847109357E+04  0.00000000000E+00 0.  1.
<mgrwt>
<rscale>  0 0.51930670E+04</rscale>
<asrwt>0</asrwt>
<pdfrwt beam="1">  1        2 0.23926474E+00 0.51930670E+04</pdfrwt>
<pdfrwt beam="2">  1       -2 0.66693337E+00 0.51930670E+04</pdfrwt>
<totfact> 0.25300764E-03</totfact>
</mgrwt>
</event>
<event>
 6    1  0.2003386E-005  0.3455055E+04  0.7818608E-02  0.8124525E-01
         -2   -1    0    0    0  501 -0.00000000000E+00  0.00000000000E+00  0.21360958665E+04  0.21360958665E+04  0.00000000000E+00 0.  1.
          2   -1    0    0  501    0  0.00000000000E+00 -0.00000000000E+00 -0.13971052681E+04  0.13971052681E+04  0.00000000000E+00 0. -1.
         23    2    1    2    0    0 -0.12873424136E+03  0.11271049539E+04 -0.96102349932E+03  0.14894335318E+04  0.88926920944E+02 0.  0.
         13    1    3    3    0    0 -0.18272429102E+02  0.34356243253E+03 -0.33811779504E+03  0.48238228619E+03  0.00000000000E+00 0. -1.
        -13    1    3    3    0    0 -0.11046181226E+03  0.78354252138E+03 -0.62290570428E+03  0.10070512456E+04  0.00000000000E+00 0.  1.
         22    1    1    2    0    0  0.12873424136E+03 -0.11271049539E+04  0.17000140977E+04  0.20437676028E+04  0.00000000000E+00 0.  1.
<mgrwt>
<rscale>  0 0.34550547E+04</rscale>
<asrwt>0</asrwt>
<pdfrwt beam="1">  1        2 0.21493927E+00 0.34550547E+04</pdfrwt>
<pdfrwt beam="2">  1       -2 0.32863013E+00 0.34550547E+04</pdfrwt>
<totfact> 0.25354458E-01</totfact>
</mgrwt>
</event>
<event>
 6    1  0.2003386E-005  0.3309175E+04  0.7818608E-02  0.8160565E-01
         -1   -1    0    0    0  501 -0.00000000000E+00  0.00000000000E+00  0.12503843399E+04  0.12503843399E+04  0.00000000000E+00 0.  1.
          1   -1    0    0  501    0  0.00000000000E+00 -0.00000000000E+00 -0.21894543639E+04  0.21894543639E+04  0.00000000000E+00 0. -1.
         23    2    1    2    0    0  0.19819194234E+03  0.44341936988E+03 -0.21126576060E+04  0.21697172150E+04  0.91923060859E+02 0.  0.
         11    1    3    3    0    0  0.25867557727E+01  0.88524872907E+02 -0.34194718966E+03  0.35322970564E+03  0.00000000000E+00 0.  1.
        -11    1    3    3    0    0  0.19560518657E+03  0.35489449697E+03 -0.17707104163E+04  0.18164875093E+04  0.00000000000E+00 0. -1.
         22    1    1    2    0    0 -0.19819194234E+03 -0.44341936988E+03  0.11735875820E+04  0.12701214888E+04  0.00000000000E+00 0.  1.
<mgrwt>
<rscale>  0 0.33091748E+04</rscale>
<asrwt>0</asrwt>
<pdfrwt beam="1">  1        1 0.33683913E+00 0.33091748E+04</pdfrwt>
<pdfrwt beam="2">  1       -1 0.19236682E+00 0.33091748E+04</pdfrwt>
<totfact> 0.31227331E-01</totfact>
</mgrwt>
</event>
<event>
 6    1  0.2003386E-005  0.1657316E+04  0.7818608E-02  0.8786090E-01
         -1   -1    0    0    0  501 -0.00000000000E+00  0.00000000000E+00  0.50662611559E+03  0.50662611559E+03  0.00000000000E+00 0.  1.
          1   -1    0    0  501    0  0.00000000000E+00 -0.00000000000E+00 -0.13553866024E+04  0.13553866024E+04  0.00000000000E+00 0. -1.
         23    2    1    2    0    0  0.51278309935E+03  0.24636696105E+03  0.24745906252E+03  0.62696596308E+03  0.90593293103E+02 0.  0.
         13    1    3    3    0    0  0.31894859775E+03  0.18697574219E+03  0.19295959445E+03  0.41703901648E+03  0.00000000000E+00 0.  1.
        -13    1    3    3    0    0  0.19383450160E+03  0.59391218862E+02  0.54499468071E+02  0.20992694660E+03  0.00000000000E+00 0. -1.
         22    1    1    2    0    0 -0.51278309935E+03 -0.24636696105E+03 -0.10962195493E+04  0.12350467549E+04  0.00000000000E+00 0. -1.
<mgrwt>
<rscale>  0 0.16573162E+04</rscale>
<asrwt>0</asrwt>
<pdfrwt beam="1">  1        1 0.20852102E+00 0.16573162E+04</pdfrwt>
<pdfrwt beam="2">  1       -1 0.77942479E-01 0.16573162E+04</pdfrwt>
<totfact> 0.13006512E+01</totfact>
</mgrwt>
</event>
<event>
 6    1  0.2003386E-005  0.1226902E+04  0.7818608E-02  0.9089630E-01
         -2   -1    0    0    0  501 -0.00000000000E+00  0.00000000000E+00  0.10799585474E+03  0.10799585474E+03  0.00000000000E+00 0.  1.
          2   -1    0    0  501    0  0.00000000000E+00 -0.00000000000E+00 -0.34845981604E+04  0.34845981604E+04  0.00000000000E+00 0. -1.
         23    2    1    2    0    0 -0.36751703284E+03 -0.45847067932E+03 -0.12154533633E+04  0.13529893884E+04  0.89382735738E+02 0.  0.
         11    1    3    3    0    0 -0.92978523245E+02 -0.15156294157E+03 -0.44895447194E+03  0.48288347344E+03  0.00000000000E+00 0. -1.
        -11    1    3    3    0    0 -0.27453850959E+03 -0.30690773775E+03 -0.76649889141E+03  0.87010591497E+03  0.00000000000E+00 0.  1.
         22    1    1    2    0    0  0.36751703284E+03  0.45847067932E+03 -0.21611489423E+04  0.22396046268E+04  0.00000000000E+00 0.  1.
<mgrwt>
<rscale>  0 0.12269020E+04</rscale>
<asrwt>0</asrwt>
<pdfrwt beam="1">  1        2 0.53609207E+00 0.12269020E+04</pdfrwt>
<pdfrwt beam="2">  1       -2 0.16614746E-01 0.12269020E+04</pdfrwt>
<totfact> 0.24801021E+01</totfact>
</mgrwt>
</event>
<event>
 6    1  0.2003386E-005  0.1543029E+04  0.7818608E-02  0.8856333E-01
         -2   -1    0    0    0  501 -0.00000000000E+00  0.00000000000E+00  0.31982610036E+03  0.31982610036E+03  0.00000000000E+00 0.  1.
          2   -1    0    0  501    0  0.00000000000E+00 -0.00000000000E+00 -0.18611194867E+04  0.18611194867E+04  0.00000000000E+00 0. -1.
         23    2    1    2    0    0 -0.36605908105E+02 -0.36589650333E+03 -0.17275936168E+04  0.17687223230E+04  0.92621311927E+02 0.  0.
         13    1    3    3    0    0  0.16749044870E+02 -0.24316321472E+03 -0.11917090426E+04  0.12163795961E+04  0.00000000000E+00 0.  1.
        -13    1    3    3    0    0 -0.53354952976E+02 -0.12273328862E+03 -0.53588457412E+03  0.55234272687E+03  0.00000000000E+00 0. -1.
         22    1    1    2    0    0  0.36605908105E+02  0.36589650333E+03  0.18630023037E+03  0.41222326414E+03  0.00000000000E+00 0.  1.
<mgrwt>
<rscale>  0 0.15430290E+04</rscale>
<asrwt>0</asrwt>
<pdfrwt beam="1">  1        2 0.28632607E+00 0.15430290E+04</pdfrwt>
<pdfrwt beam="2">  1       -2 0.49204016E-01 0.15430290E+04</pdfrwt>
<totfact> 0.30053598E+01</totfact>
</mgrwt>
</event>
<event>
 6    1  0.2003386E-005  0.2003713E+04  0.7818608E-02  0.8604887E-01
         -2   -1    0    0    0  501 -0.00000000000E+00  0.00000000000E+00  0.11408916034E+04  0.11408916034E+04  0.00000000000E+00 0. -1.
          2   -1    0    0  501    0  0.00000000000E+00 -0.00000000000E+00 -0.87976518327E+03  0.87976518327E+03  0.00000000000E+00 0.  1.
         23    2    1    2    0    0 -0.20686022442E+03 -0.94376158311E+03 -0.12827622844E+03  0.97896993312E+03  0.91925300990E+02 0.  0.
         11    1    3    3    0    0 -0.95741881575E+02 -0.48293937851E+03 -0.11061350575E+03  0.50461103719E+03  0.00000000000E+00 0.  1.
        -11    1    3    3    0    0 -0.11111834285E+03 -0.46082220460E+03 -0.17662722694E+02  0.47435889593E+03  0.00000000000E+00 0. -1.
         22    1    1    2    0    0  0.20686022442E+03  0.94376158311E+03  0.38940264859E+03  0.10416868536E+04  0.00000000000E+00 0. -1.
<mgrwt>
<rscale>  0 0.20037133E+04</rscale>
<asrwt>0</asrwt>
<pdfrwt beam="1">  1        2 0.13534849E+00 0.20037133E+04</pdfrwt>
<pdfrwt beam="2">  1       -2 0.17552179E+00 0.20037133E+04</pdfrwt>
<totfact> 0.54750130E+00</totfact>
</mgrwt>
</event>
<event>
 6    1  0.2003386E-005  0.1279498E+04  0.7818608E-02  0.9045983E-01
          2   -1    0    0  501    0  0.00000000000E+00  0.00000000000E+00  0.96042456711E+03  0.96042456711E+03  0.00000000000E+00 0. -1.
         -2   -1    0    0    0  501 -0.00000000000E+00 -0.00000000000E+00 -0.42614344013E+03  0.42614344013E+03  0.00000000000E+00 0.  1.
         23    2    1    2    0    0  0.58931149864E+03 -0.19310293899E+03  0.42540849245E+03  0.75694110341E+03  0.86085196867E+02 0.  0.
         13    1    3    3    0    0  0.25990801771E+03 -0.62411734527E+02  0.13891973461E+03  0.30124092508E+03  0.00000000000E+00 0.  1.
        -13    1    3    3    0    0  0.32940348093E+03 -0.13069120446E+03  0.28648875783E+03  0.45570017834E+03  0.00000000000E+00 0. -1.
         22    1    1    2    0    0 -0.58931149864E+03  0.19310293899E+03  0.10887263453E+03  0.62962690382E+03  0.00000000000E+00 0.  1.
<mgrwt>
<rscale>  0 0.12794978E+04</rscale>
<asrwt>0</asrwt>
<pdfrwt beam="1">  1        2 0.14775763E+00 0.12794978E+04</pdfrwt>
<pdfrwt beam="2">  1       -2 0.65560529E-01 0.12794978E+04</pdfrwt>
<totfact> 0.56231160E+01</totfact>
</mgrwt>
</event>
<event>
 6    1  0.2003386E-005  0.2722814E+04  0.7818608E-02  0.8327641E-01
          1   -1    0    0  501    0  0.00000000000E+00  0.00000000000E+00  0.10431421333E+04  0.10431421333E+04  0.00000000000E+00 0. -1.
         -1   -1    0    0    0  501 -0.00000000000E+00 -0.00000000000E+00 -0.17767746640E+04  0.17767746640E+04  0.00000000000E+00 0.  1.
         23    2    1    2    0    0 -0.10170100186E+04 -0.90277244656E+03 -0.37132398299E+03  0.14125877839E+04  0.90638174226E+02 0.  0.
         11    1    3    3    0    0 -0.22652161895E+03 -0.25324130898E+03 -0.88789758963E+02  0.35117919318E+03  0.00000000000E+00 0.  1.
        -11    1    3    3    0    0 -0.79048839968E+03 -0.64953113757E+03 -0.28253422403E+03  0.10614085907E+04  0.00000000000E+00 0. -1.
         22    1    1    2    0    0  0.10170100186E+04  0.90277244656E+03 -0.36230854772E+03  0.14073290134E+04  0.00000000000E+00 0.  1.
<mgrwt>
<rscale>  0 0.27228136E+04</rscale>
<asrwt>0</asrwt>
<pdfrwt beam="1">  1        1 0.16048341E+00 0.27228136E+04</pdfrwt>
<pdfrwt beam="2">  1       -1 0.27334994E+00 0.27228136E+04</pdfrwt>
<totfact> 0.59993959E-01</totfact>
</mgrwt>
</event>
<event>
 6    1  0.2003386E-005  0.1768560E+04  0.7818608E-02  0.8723200E-01
          2   -1    0    0  501    0  0.00000000000E+00  0.00000000000E+00  0.27108127175E+04  0.27108127175E+04  0.00000000000E+00 0. -1.
         -2   -1    0    0    0  501 -0.00000000000E+00 -0.00000000000E+00 -0.28845621496E+03  0.28845621496E+03  0.00000000000E+00 0.  1.
         23    2    1    2    0    0 -0.27805566296E+03  0.31995286069E+03 -0.96782200639E+02  0.44471523550E+03  0.93381269877E+02 0.  0.
         13    1    3    3    0    0 -0.85890190229E+02  0.10854203888E+03 -0.76867977838E+02  0.15832619808E+03  0.00000000000E+00 0. -1.
        -13    1    3    3    0    0 -0.19216547273E+03  0.21141082181E+03 -0.19914222801E+02  0.28638903742E+03  0.00000000000E+00 0.  1.
         22    1    1    2    0    0  0.27805566296E+03 -0.31995286069E+03  0.25191387032E+04  0.25545536970E+04  0.00000000000E+00 0. -1.
<mgrwt>
<rscale>  0 0.17685596E+04</rscale>
<asrwt>0</asrwt>
<pdfrwt beam="1">  1        2 0.41704809E+00 0.17685596E+04</pdfrwt>
<pdfrwt beam="2">  1       -2 0.44377881E-01 0.17685596E+04</pdfrwt>
<totfact> 0.11951611E+01</totfact>
</mgrwt>
</event>
<event>
 6    1  0.2003386E-005  0.2455944E+04  0.7818608E-02  0.8418851E-01
         -2   -1    0    0    0  501 -0.00000000000E+00  0.00000000000E+00  0.12423738206E+04  0.12423738206E+04  0.00000000000E+00 0.  1.
          2   -1    0    0  501    0  0.00000000000E+00 -0.00000000000E+00 -0.12137368744E+04  0.12137368744E+04  0.00000000000E+00 0. -1.
         23    2    1    2    0    0  0.20721323587E+03 -0.84522117539E+03 -0.84963661118E+03  0.12197043693E+04  0.91979438307E+02 0.  0.
         13    1    3    3    0    0  0.17176192279E+03 -0.51663586292E+03 -0.54017203995E+03  0.76694237444E+03  0.00000000000E+00 0.  1.
        -13    1    3    3    0    0  0.35451313072E+02 -0.32858531246E+03 -0.30946457124E+03  0.45276199489E+03  0.00000000000E+00 0. -1.
         22    1    1    2    0    0 -0.20721323587E+03  0.84522117539E+03  0.87827355738E+03  0.12364063256E+04  0.00000000000E+00 0.  1.
<mgrwt>
<rscale>  0 0.24559437E+04</rscale>
<asrwt>0</asrwt>
<pdfrwt beam="1">  1        2 0.18672875E+00 0.24559437E+04</pdfrwt>
<pdfrwt beam="2">  1       -2 0.19113443E+00 0.24559437E+04</pdfrwt>
<totfact> 0.25339194E+00</totfact>
</mgrwt>
</event>
<event>
 6    1  0.2003386E-005  0.4392308E+04  0.7818608E-02  0.7929767E-01
          2   -1    0    0  501    0  0.00000000000E+00  0.00000000000E+00  0.37213329261E+04  0.37213329261E+04  0.00000000000E+00 0. -1.
         -2   -1    0    0    0  501 -0.00000000000E+00 -0.00000000000E+00 -0.12960656614E+04  0.12960656614E+04  0.00000000000E+00 0.  1.
         23    2    1    2    0    0 -0.16182673044E+04 -0.92595250831E+03 -0.11054066257E+03  0.18699394599E+04  0.90979280510E+02 0.  0.
         13    1    3    3    0    0 -0.14555676263E+04 -0.80024424299E+03 -0.10102348186E+03  0.16641134899E+04  0.00000000000E+00 0. -1.
        -13    1    3    3    0    0 -0.16269967808E+03 -0.12570826532E+03 -0.95171807154E+01  0.20582597005E+03  0.00000000000E+00 0.  1.
         22    1    1    2    0    0  0.16182673044E+04  0.92595250831E+03  0.25358079273E+04  0.31474591277E+04  0.00000000000E+00 0. -1.
<mgrwt>
<rscale>  0 0.43923077E+04</rscale>
<asrwt>0</asrwt>
<pdfrwt beam="1">  1        2 0.57251275E+00 0.43923077E+04</pdfrwt>
<pdfrwt beam="2">  1       -2 0.19939472E+00 0.43923077E+04</pdfrwt>
<totfact> 0.57582016E-02</totfact>
</mgrwt>
</event>
<event>
 6    1  0.2003386E-005  0.9825578E+03  0.7818608E-02  0.9327885E-01
         -2   -1    0    0    0  501 -0.00000000000E+00  0.00000000000E+00  0.30113786728E+03  0.30113786728E+03  0.00000000000E+00 0.  1.
          2   -1    0    0  501    0  0.00000000000E+00 -0.00000000000E+00 -0.80147665655E+03  0.80147665655E+03  0.00000000000E+00 0. -1.
         23    2    1    2    0    0  0.25565698435E+03  0.39165871284E+03 -0.10016425112E+03  0.48706866691E+03  0.91901948273E+02 0.  0.
         13    1    3    3    0    0  0.17585158241E+03  0.32632600039E+03 -0.99954144086E+02  0.38393133303E+03  0.00000000000E+00 0. -1.
        -13    1    3    3    0    0  0.79805401936E+02  0.65332712450E+02 -0.21010703827E+00  0.10313733388E+03  0.00000000000E+00 0.  1.
         22    1    1    2    0    0 -0.25565698435E+03 -0.39165871284E+03 -0.40017453815E+03  0.61554585692E+03  0.00000000000E+00 0.  1.
<mgrwt>
<rscale>  0 0.98255783E+03</rscale>
<asrwt>0</asrwt>
<pdfrwt beam="1">  1        2 0.12330410E+00 0.98255783E+03</pdfrwt>
<pdfrwt beam="2">  1       -2 0.46328904E-01 0.98255783E+03</pdfrwt>
<totfact> 0.15163750E+02</totfact>
</mgrwt>
</event>
<event>
 6    1  0.2003386E-005  0.9170665E+03  0.7818608E-02  0.9404495E-01
          1   -1    0    0  501    0  0.00000000000E+00  0.00000000000E+00  0.11676835430E+04  0.11676835430E+04  0.00000000000E+00 0. -1.
         -1   -1    0    0    0  501 -0.00000000000E+00 -0.00000000000E+00 -0.18005971045E+03  0.18005971045E+03  0.00000000000E+00 0.  1.
         23    2    1    2    0    0  0.21870061549E+02  0.37967381133E+03  0.13410139644E+03  0.41332843575E+03  0.90701205457E+02 0.  0.
         13    1    3    3    0    0  0.19034568686E+02  0.33752096964E+02  0.38050572399E+02  0.54308055705E+02  0.00000000000E+00 0. -1.
        -13    1    3    3    0    0  0.28354928627E+01  0.34592171436E+03  0.96050824039E+02  0.35902038004E+03  0.00000000000E+00 0.  1.
         22    1    1    2    0    0 -0.21870061549E+02 -0.37967381133E+03  0.85352243613E+03  0.93441481772E+03  0.00000000000E+00 0.  1.
<mgrwt>
<rscale>  0 0.91706654E+03</rscale>
<asrwt>0</asrwt>
<pdfrwt beam="1">  1        1 0.17964362E+00 0.91706654E+03</pdfrwt>
<pdfrwt beam="2">  1       -1 0.27701495E-01 0.91706654E+03</pdfrwt>
<totfact> 0.13315202E+02</totfact>
</mgrwt>
</event>
<event>
 6    1  0.2003386E-005  0.3542582E+04  0.7818608E-02  0.8103772E-01
         -2   -1    0    0    0  501 -0.00000000000E+00  0.00000000000E+00  0.21305303098E+04  0.21305303098E+04  0.00000000000E+00 0.  1.
          2   -1    0    0  501    0  0.00000000000E+00 -0.00000000000E+00 -0.14726246118E+04  0.14726246118E+04  0.00000000000E+00 0. -1.
         23    2    1    2    0    0 -0.54625764876E+03  0.15562732873E+03  0.20342526793E+04  0.21142129155E+04  0.95367733729E+02 0.  0.
         13    1    3    3    0    0 -0.17336001308E+03  0.81086919634E+02  0.80759590256E+03  0.82996380916E+03  0.00000000000E+00 0.  1.
        -13    1    3    3    0    0 -0.37289763568E+03  0.74540409092E+02  0.12266567768E+04  0.12842491064E+04  0.00000000000E+00 0. -1.
         22    1    1    2    0    0  0.54625764876E+03 -0.15562732873E+03 -0.13763469813E+04  0.14889420060E+04  0.00000000000E+00 0. -1.
<mgrwt>
<rscale>  0 0.35425818E+04</rscale>
<asrwt>0</asrwt>
<pdfrwt beam="1">  1        2 0.22655763E+00 0.35425818E+04</pdfrwt>
<pdfrwt beam="2">  1       -2 0.32777390E+00 0.35425818E+04</pdfrwt>
<totfact> 0.23079417E-01</totfact>
</mgrwt>
</event>
<event>
 6    1  0.2003386E-005  0.1277065E+04  0.7818608E-02  0.9047953E-01
         -2   -1    0    0    0  501 -0.00000000000E+00  0.00000000000E+00  0.52263381648E+03  0.52263381648E+03  0.00000000000E+00 0.  1.
          2   -1    0    0  501    0  0.00000000000E+00 -0.00000000000E+00 -0.78013237789E+03  0.78013237789E+03  0.00000000000E+00 0. -1.
         23    2    1    2    0    0 -0.34575163113E+03 -0.51944624212E+03 -0.25126239200E+03  0.67874097157E+03  0.90487170192E+02 0.  0.
         11    1    3    3    0    0 -0.22240661465E+03 -0.35290709948E+03 -0.12251050405E+03  0.43476079251E+03  0.00000000000E+00 0. -1.
        -11    1    3    3    0    0 -0.12334501648E+03 -0.16653914264E+03 -0.12875188795E+03  0.24398017906E+03  0.00000000000E+00 0.  1.
         22    1    1    2    0    0  0.34575163113E+03  0.51944624212E+03 -0.62361694118E+01  0.62402522280E+03  0.00000000000E+00 0.  1.
<mgrwt>
<rscale>  0 0.12770647E+04</rscale>
<asrwt>0</asrwt>
<pdfrwt beam="1">  1        2 0.12002037E+00 0.12770647E+04</pdfrwt>
<pdfrwt beam="2">  1       -2 0.80405202E-01 0.12770647E+04</pdfrwt>
<totfact> 0.47803534E+01</totfact>
</mgrwt>
</event>
<event>
 6    1  0.2003386E-005  0.1086390E+04  0.7818608E-02  0.9218559E-01
         -2   -1    0    0    0  501 -0.00000000000E+00  0.00000000000E+00  0.54509168819E+03  0.54509168819E+03  0.00000000000E+00 0.  1.
          2   -1    0    0  501    0  0.00000000000E+00 -0.00000000000E+00 -0.54130527700E+03  0.54130527700E+03  0.00000000000E+00 0. -1.
         23    2    1    2    0    0 -0.10284310802E+03  0.12714933184E+03  0.51621858362E+03  0.54850256217E+03  0.87348595749E+02 0.  0.
         11    1    3    3    0    0 -0.39249720877E+02  0.11365126158E+03  0.34555652115E+03  0.36587765600E+03  0.00000000000E+00 0.  1.
        -11    1    3    3    0    0 -0.63593387144E+02  0.13498070258E+02  0.17066206247E+03  0.18262490617E+03  0.00000000000E+00 0. -1.
         22    1    1    2    0    0  0.10284310802E+03 -0.12714933184E+03 -0.51243217244E+03  0.53789440302E+03  0.00000000000E+00 0. -1.
<mgrwt>
<rscale>  0 0.10863904E+04</rscale>
<asrwt>0</asrwt>
<pdfrwt beam="1">  1        2 0.83277734E-01 0.10863904E+04</pdfrwt>
<pdfrwt beam="2">  1       -2 0.83860261E-01 0.10863904E+04</pdfrwt>
<totfact> 0.69305232E+01</totfact>
</mgrwt>
</event>
<event>
 6    1  0.2003386E-005  0.1301602E+04  0.7818608E-02  0.9028296E-01
         -1   -1    0    0    0  501 -0.00000000000E+00  0.00000000000E+00  0.90496144614E+03  0.90496144614E+03  0.00000000000E+00 0.  1.
          1   -1    0    0  501    0  0.00000000000E+00 -0.00000000000E+00 -0.46802190569E+03  0.46802190569E+03  0.00000000000E+00 0. -1.
         23    2    1    2    0    0 -0.24663227681E+03  0.58133394189E+03  0.67992311783E+02  0.64161566762E+03  0.90945470033E+02 0.  0.
         13    1    3    3    0    0 -0.11028102571E+03  0.35273472489E+03  0.66080703831E+02  0.37543354964E+03  0.00000000000E+00 0. -1.
        -13    1    3    3    0    0 -0.13635125110E+03  0.22859921700E+03  0.19116079517E+01  0.26618211799E+03  0.00000000000E+00 0.  1.
         22    1    1    2    0    0  0.24663227681E+03 -0.58133394189E+03  0.36894722867E+03  0.73136768421E+03  0.00000000000E+00 0.  1.
<mgrwt>
<rscale>  0 0.13016018E+04</rscale>
<asrwt>0</asrwt>
<pdfrwt beam="1">  1        1 0.72003370E-01 0.13016018E+04</pdfrwt>
<pdfrwt beam="2">  1       -1 0.13922484E+00 0.13016018E+04</pdfrwt>
<totfact> 0.20283428E+01</totfact>
</mgrwt>
</event>
<event>
 6    1  0.2003386E-005  0.1576327E+04  0.7818608E-02  0.8835225E-01
          2   -1    0    0  501    0  0.00000000000E+00  0.00000000000E+00  0.13290260433E+04  0.13290260433E+04  0.00000000000E+00 0. -1.
         -2   -1    0    0    0  501 -0.00000000000E+00 -0.00000000000E+00 -0.46741109415E+03  0.46741109415E+03  0.00000000000E+00 0.  1.
         23    2    1    2    0    0 -0.17214312952E+03  0.46363100173E+03 -0.26495110510E+03  0.56609651901E+03  0.75360586077E+02 0.  0.
         13    1    3    3    0    0 -0.14991189098E+03  0.31158170297E+03 -0.16820996589E+03  0.38451440195E+03  0.00000000000E+00 0. -1.
        -13    1    3    3    0    0 -0.22231238549E+02  0.15204929876E+03 -0.96741139205E+02  0.18158211706E+03  0.00000000000E+00 0.  1.
         22    1    1    2    0    0  0.17214312952E+03 -0.46363100173E+03  0.11265660542E+04  0.12303406184E+04  0.00000000000E+00 0. -1.
<mgrwt>
<rscale>  0 0.15763268E+04</rscale>
<asrwt>0</asrwt>
<pdfrwt beam="1">  1        2 0.20446554E+00 0.15763268E+04</pdfrwt>
<pdfrwt beam="2">  1       -2 0.71909400E-01 0.15763268E+04</pdfrwt>
<totfact> 0.26768328E+01</totfact>
</mgrwt>
</event>
<event>
 6    1  0.2003386E-005  0.2561788E+04  0.7818608E-02  0.8381298E-01
         -2   -1    0    0    0  501 -0.00000000000E+00  0.00000000000E+00  0.62041068385E+03  0.62041068385E+03  0.00000000000E+00 0.  1.
          2   -1    0    0  501    0  0.00000000000E+00 -0.00000000000E+00 -0.26445213292E+04  0.26445213292E+04  0.00000000000E+00 0. -1.
         23    2    1    2    0    0 -0.11895591677E+04 -0.29477047320E+03 -0.14806592658E+04  0.19243052763E+04  0.93049930917E+02 0.  0.
         11    1    3    3    0    0 -0.78054968718E+03 -0.19320575375E+03 -0.10393942623E+04  0.13141258349E+04  0.00000000000E+00 0. -1.
        -11    1    3    3    0    0 -0.40900948055E+03 -0.10156471945E+03 -0.44126500354E+03  0.61017944145E+03  0.00000000000E+00 0.  1.
         22    1    1    2    0    0  0.11895591677E+04  0.29477047320E+03 -0.54345137957E+03  0.13406267368E+04  0.00000000000E+00 0. -1.
<mgrwt>
<rscale>  0 0.25617879E+04</rscale>
<asrwt>0</asrwt>
<pdfrwt beam="1">  1        2 0.40684944E+00 0.25617879E+04</pdfrwt>
<pdfrwt beam="2">  1       -2 0.95447797E-01 0.25617879E+04</pdfrwt>
<totfact> 0.23428247E+00</totfact>
</mgrwt>
</event>
<event>
 6    1  0.2003386E-005  0.4789607E+03  0.7818608E-02  0.1019421E+00
          1   -1    0    0  501    0  0.00000000000E+00  0.00000000000E+00  0.85619176177E+03  0.85619176177E+03  0.00000000000E+00 0. -1.
         -1   -1    0    0    0  501 -0.00000000000E+00 -0.00000000000E+00 -0.66983635124E+02  0.66983635124E+02  0.00000000000E+00 0.  1.
         23    2    1    2    0    0  0.17385261434E+02 -0.11579155955E+03  0.79269734655E+03  0.80603399843E+03  0.87245577665E+02 0.  0.
         13    1    3    3    0    0  0.15960795336E+02 -0.38774671727E+02  0.54558640821E+03  0.54719534993E+03  0.00000000000E+00 0. -1.
        -13    1    3    3    0    0  0.14244660981E+01 -0.77016887824E+02  0.24711093833E+03  0.25883864850E+03  0.00000000000E+00 0.  1.
         22    1    1    2    0    0 -0.17385261434E+02  0.11579155955E+03 -0.34892199037E+01  0.11714139846E+03  0.00000000000E+00 0.  1.
<mgrwt>
<rscale>  0 0.47896069E+03</rscale>
<asrwt>0</asrwt>
<pdfrwt beam="1">  1        1 0.13172180E+00 0.47896069E+03</pdfrwt>
<pdfrwt beam="2">  1       -1 0.10305175E-01 0.47896069E+03</pdfrwt>
<totfact> 0.12019770E+03</totfact>
</mgrwt>
</event>
<event>
 6    1  0.2003386E-005  0.2170498E+04  0.7818608E-02  0.8530809E-01
          2   -1    0    0  501    0  0.00000000000E+00  0.00000000000E+00  0.17408905102E+04  0.17408905102E+04  0.00000000000E+00 0. -1.
         -2   -1    0    0    0  501 -0.00000000000E+00 -0.00000000000E+00 -0.67653021874E+03  0.67653021874E+03  0.00000000000E+00 0.  1.
         23    2    1    2    0    0  0.25212092375E+03 -0.10124470730E+04  0.20852502300E+03  0.10679511878E+04  0.91777004295E+02 0.  0.
         13    1    3    3    0    0  0.37730797821E+02 -0.11897706384E+03 -0.39247889858E+01  0.12487817581E+03  0.00000000000E+00 0. -1.
        -13    1    3    3    0    0  0.21439012593E+03 -0.89347000913E+03  0.21244981198E+03  0.94307301198E+03  0.00000000000E+00 0.  1.
         22    1    1    2    0    0 -0.25212092375E+03  0.10124470730E+04  0.85583526845E+03  0.13494695411E+04  0.00000000000E+00 0. -1.
<mgrwt>
<rscale>  0 0.21704977E+04</rscale>
<asrwt>0</asrwt>
<pdfrwt beam="1">  1        2 0.26782931E+00 0.21704977E+04</pdfrwt>
<pdfrwt beam="2">  1       -2 0.10408157E+00 0.21704977E+04</pdfrwt>
<totfact> 0.64020153E+00</totfact>
</mgrwt>
</event>
<event>
 6    1  0.2003386E-005  0.8714729E+03  0.7818608E-02  0.9461961E-01
          2   -1    0    0  501    0  0.00000000000E+00  0.00000000000E+00  0.92499738316E+03  0.92499738316E+03  0.00000000000E+00 0. -1.
         -2   -1    0    0    0  501 -0.00000000000E+00 -0.00000000000E+00 -0.20526140879E+03  0.20526140879E+03  0.00000000000E+00 0.  1.
         23    2    1    2    0    0 -0.15024343782E+02 -0.54399123153E+02  0.91797614592E+03  0.92414192918E+03  0.90405228148E+02 0.  0.
         13    1    3    3    0    0 -0.14136451506E+02  0.19597899255E+02  0.42028646830E+03  0.42098056054E+03  0.00000000000E+00 0. -1.
        -13    1    3    3    0    0 -0.88789227665E+00 -0.73997022408E+02  0.49768967762E+03  0.50316136864E+03  0.00000000000E+00 0.  1.
         22    1    1    2    0    0  0.15024343782E+02  0.54399123153E+02 -0.19824017155E+03  0.20611686278E+03  0.00000000000E+00 0.  1.
<mgrwt>
<rscale>  0 0.87147293E+03</rscale>
<asrwt>0</asrwt>
<pdfrwt beam="1">  1        2 0.14230729E+00 0.87147293E+03</pdfrwt>
<pdfrwt beam="2">  1       -2 0.31578679E-01 0.87147293E+03</pdfrwt>
<totfact> 0.26332937E+02</totfact>
</mgrwt>
</event>
<event>
 6    1  0.2003386E-005  0.1186060E+04  0.7818608E-02  0.9125146E-01
         -2   -1    0    0    0  501 -0.00000000000E+00  0.00000000000E+00  0.12126904506E+03  0.12126904506E+03  0.00000000000E+00 0. -1.
          2   -1    0    0  501    0  0.00000000000E+00 -0.00000000000E+00 -0.29000357599E+04  0.29000357599E+04  0.00000000000E+00 0.  1.
         23    2    1    2    0    0 -0.42306708718E+03  0.36318266395E+03 -0.18851227430E+04  0.19679829377E+04  0.91551511451E+02 0.  0.
         11    1    3    3    0    0 -0.20637042423E+03  0.12923906235E+03 -0.91185122884E+03  0.94380302541E+03  0.00000000000E+00 0.  1.
        -11    1    3    3    0    0 -0.21669666296E+03  0.23394360160E+03 -0.97327151416E+03  0.10241799123E+04  0.00000000000E+00 0. -1.
         22    1    1    2    0    0  0.42306708718E+03 -0.36318266395E+03 -0.89364397185E+03  0.10533218673E+04  0.00000000000E+00 0. -1.
<mgrwt>
<rscale>  0 0.11860600E+04</rscale>
<asrwt>0</asrwt>
<pdfrwt beam="1">  1        2 0.44615927E+00 0.11860600E+04</pdfrwt>
<pdfrwt beam="2">  1       -2 0.18656779E-01 0.11860600E+04</pdfrwt>
<totfact> 0.48533648E+01</totfact>
</mgrwt>
</event>
<event>
 6    1  0.2003386E-005  0.1826074E+04  0.7818608E-02  0.8692555E-01
         -2   -1    0    0    0  501 -0.00000000000E+00  0.00000000000E+00  0.55280953573E+03  0.55280953573E+03  0.00000000000E+00 0. -1.
          2   -1    0    0  501    0  0.00000000000E+00 -0.00000000000E+00 -0.15079991978E+04  0.15079991978E+04  0.00000000000E+00 0.  1.
         23    2    1    2    0    0 -0.48005784815E+03 -0.20413748352E+03 -0.13213458042E+04  0.14234721113E+04  0.90501202795E+02 0.  0.
         13    1    3    3    0    0 -0.39554804758E+03 -0.20319961645E+03 -0.11258291727E+04  0.12104708457E+04  0.00000000000E+00 0.  1.
        -13    1    3    3    0    0 -0.84509800567E+02 -0.93786707009E+00 -0.19551663142E+03  0.21300126560E+03  0.00000000000E+00 0. -1.
         22    1    1    2    0    0  0.48005784815E+03  0.20413748352E+03  0.36615614204E+03  0.63733662228E+03  0.00000000000E+00 0. -1.
<mgrwt>
<rscale>  0 0.18260738E+04</rscale>
<asrwt>0</asrwt>
<pdfrwt beam="1">  1        2 0.23199987E+00 0.18260738E+04</pdfrwt>
<pdfrwt beam="2">  1       -2 0.85047623E-01 0.18260738E+04</pdfrwt>
<totfact> 0.14242260E+01</totfact>
</mgrwt>
</event>
<event>
 6    1  0.2003386E-005  0.3141660E+04  0.7818608E-02  0.8204397E-01
          1   -1    0    0  501    0  0.00000000000E+00  0.00000000000E+00  0.11032288262E+04  0.11032288262E+04  0.00000000000E+00 0. -1.
         -1   -1    0    0    0  501 -0.00000000000E+00 -0.00000000000E+00 -0.22366223636E+04  0.22366223636E+04  0.00000000000E+00 0.  1.
         23    2    1    2    0    0 -0.14213474042E+04 -0.35870069170E+03  0.28975624415E+02  0.14690233789E+04  0.91079477943E+02 0.  0.
         11    1    3    3    0    0 -0.10470636319E+04 -0.24041224152E+03  0.54263530313E+02  0.10756787745E+04  0.00000000000E+00 0.  1.
        -11    1    3    3    0    0 -0.37428377228E+03 -0.11828845018E+03 -0.25287905899E+02  0.39334460441E+03  0.00000000000E+00 0. -1.
         22    1    1    2    0    0  0.14213474042E+04  0.35870069170E+03 -0.11623691618E+04  0.18708278109E+04  0.00000000000E+00 0. -1.
<mgrwt>
<rscale>  0 0.31416596E+04</rscale>
<asrwt>0</asrwt>
<pdfrwt beam="1">  1        1 0.16972751E+00 0.31416596E+04</pdfrwt>
<pdfrwt beam="2">  1       -1 0.34409575E+00 0.31416596E+04</pdfrwt>
<totfact> 0.18017121E-01</totfact>
</mgrwt>
</event>
<event>
 6    1  0.2003386E-005  0.2701241E+04  0.7818608E-02  0.8334602E-01
         -2   -1    0    0    0  501 -0.00000000000E+00  0.00000000000E+00  0.95619573541E+03  0.95619573541E+03  0.00000000000E+00 0.  1.
          2   -1    0    0  501    0  0.00000000000E+00 -0.00000000000E+00 -0.19077432531E+04  0.19077432531E+04  0.00000000000E+00 0. -1.
         23    2    1    2    0    0  0.95096643248E+03 -0.70665231028E+02 -0.14881091344E+04  0.17697593419E+04  0.90821812731E+02 0.  0.
         11    1    3    3    0    0  0.51989522137E+03 -0.59411823970E+02 -0.74109237828E+03  0.90721481424E+03  0.00000000000E+00 0. -1.
        -11    1    3    3    0    0  0.43107121110E+03 -0.11253407058E+02 -0.74701675613E+03  0.86254452763E+03  0.00000000000E+00 0.  1.
         22    1    1    2    0    0 -0.95096643248E+03  0.70665231028E+02  0.53656161672E+03  0.10941796466E+04  0.00000000000E+00 0.  1.
<mgrwt>
<rscale>  0 0.27012412E+04</rscale>
<asrwt>0</asrwt>
<pdfrwt beam="1">  1        2 0.29349896E+00 0.27012412E+04</pdfrwt>
<pdfrwt beam="2">  1       -2 0.14710704E+00 0.27012412E+04</pdfrwt>
<totfact> 0.20808270E+00</totfact>
</mgrwt>
</event>
<event>
 6    1  0.2003386E-005  0.2516168E+04  0.7818608E-02  0.8397248E-01
          1   -1    0    0  501    0  0.00000000000E+00  0.00000000000E+00  0.25213306081E+04  0.25213306081E+04  0.00000000000E+00 0. -1.
         -1   -1    0    0    0  501 -0.00000000000E+00 -0.00000000000E+00 -0.62775383301E+03  0.62775383301E+03  0.00000000000E+00 0.  1.
         23    2    1    2    0    0 -0.11480548048E+04  0.46085332338E+03  0.67312231446E+03  0.14112913836E+04  0.90741933776E+02 0.  0.
         13    1    3    3    0    0 -0.43196107638E+03  0.15265922295E+03  0.20474084437E+03  0.50181074442E+03  0.00000000000E+00 0. -1.
        -13    1    3    3    0    0 -0.71609372842E+03  0.30819410043E+03  0.46838147009E+03  0.90948063913E+03  0.00000000000E+00 0.  1.
         22    1    1    2    0    0  0.11480548048E+04 -0.46085332338E+03  0.12204544607E+04  0.17377930576E+04  0.00000000000E+00 0.  1.
<mgrwt>
<rscale>  0 0.25161677E+04</rscale>
<asrwt>0</asrwt>
<pdfrwt beam="1">  1        1 0.38789701E+00 0.25161677E+04</pdfrwt>
<pdfrwt beam="2">  1       -1 0.96577514E-01 0.25161677E+04</pdfrwt>
<totfact> 0.11979911E+00</totfact>
</mgrwt>
</event>
<event>
 6    1  0.2003386E-005  0.1550607E+04  0.7818608E-02  0.8851480E-01
          2   -1    0    0  501    0  0.00000000000E+00  0.00000000000E+00  0.65018097498E+03  0.65018097498E+03  0.00000000000E+00 0. -1.
         -2   -1    0    0    0  501 -0.00000000000E+00 -0.00000000000E+00 -0.92450501446E+03  0.92450501446E+03  0.00000000000E+00 0.  1.
         23    2    1    2    0    0  0.67163954098E+02  0.22503724514E+03 -0.88463364009E+03  0.92075130844E+03  0.10026732456E+03 0.  0.
         11    1    3    3    0    0  0.85301526386E+02  0.11412956313E+03 -0.52265444330E+03  0.54172832184E+03  0.00000000000E+00 0.  1.
        -11    1    3    3    0    0 -0.18137572288E+02  0.11090768201E+03 -0.36197919679E+03  0.37902298659E+03  0.00000000000E+00 0. -1.
         22    1    1    2    0    0 -0.67163954098E+02 -0.22503724514E+03  0.61030960061E+03  0.65393468100E+03  0.00000000000E+00 0. -1.
<mgrwt>
<rscale>  0 0.15506071E+04</rscale>
<asrwt>0</asrwt>
<pdfrwt beam="1">  1        2 0.10002784E+00 0.15506071E+04</pdfrwt>
<pdfrwt beam="2">  1       -2 0.14223154E+00 0.15506071E+04</pdfrwt>
<totfact> 0.14902610E+01</totfact>
</mgrwt>
</event>
<event>
 6    1  0.2003386E-005  0.1021785E+04  0.7818608E-02  0.9284969E-01
         -2   -1    0    0    0  501 -0.00000000000E+00  0.00000000000E+00  0.40203826366E+03  0.40203826366E+03  0.00000000000E+00 0.  1.
          2   -1    0    0  501    0  0.00000000000E+00 -0.00000000000E+00 -0.64922014574E+03  0.64922014574E+03  0.00000000000E+00 0. -1.
         23    2    1    2    0    0 -0.19377464216E+03  0.46025521032E+03 -0.39613907434E+02  0.51045536330E+03  0.98040530838E+02 0.  0.
         11    1    3    3    0    0 -0.72481595981E+02  0.27033231617E+03  0.85686863314E+01  0.28001172352E+03  0.00000000000E+00 0. -1.
        -11    1    3    3    0    0 -0.12129304617E+03  0.18992289415E+03 -0.48182593765E+02  0.23044363978E+03  0.00000000000E+00 0.  1.
         22    1    1    2    0    0  0.19377464216E+03 -0.46025521032E+03 -0.20756797466E+03  0.54080304610E+03  0.00000000000E+00 0.  1.
<mgrwt>
<rscale>  0 0.10217854E+04</rscale>
<asrwt>0</asrwt>
<pdfrwt beam="1">  1        2 0.99880021E-01 0.10217854E+04</pdfrwt>
<pdfrwt beam="2">  1       -2 0.61852041E-01 0.10217854E+04</pdfrwt>
<totfact> 0.10909585E+02</totfact>
</mgrwt>
</event>
<event>
 6    1  0.2003386E-005  0.2144211E+04  0.7818608E-02  0.8542014E-01
          2   -1    0    0  501    0  0.00000000000E+00  0.00000000000E+00  0.26542023500E+04  0.26542023500E+04  0.00000000000E+00 0. -1.
         -2   -1    0    0    0  501 -0.00000000000E+00 -0.00000000000E+00 -0.43305288817E+03  0.43305288817E+03  0.00000000000E+00 0.  1.
         23    2    1    2    0    0 -0.68255904260E+03  0.55743353487E+03  0.23645457475E+03  0.91570445884E+03  0.77362119784E+02 0.  0.
         11    1    3    3    0    0 -0.15514213332E+03  0.11131016794E+03  0.82280592181E+02  0.20791616308E+03  0.00000000000E+00 0. -1.
        -11    1    3    3    0    0 -0.52741690928E+03  0.44612336692E+03  0.15417398257E+03  0.70778829576E+03  0.00000000000E+00 0.  1.
         22    1    1    2    0    0  0.68255904260E+03 -0.55743353487E+03  0.19846948871E+04  0.21715507793E+04  0.00000000000E+00 0. -1.
<mgrwt>
<rscale>  0 0.21442108E+04</rscale>
<asrwt>0</asrwt>
<pdfrwt beam="1">  1        2 0.40833881E+00 0.21442108E+04</pdfrwt>
<pdfrwt beam="2">  1       -2 0.66623523E-01 0.21442108E+04</pdfrwt>
<totfact> 0.53763829E+00</totfact>
</mgrwt>
</event>
<event>
 6    1  0.2003386E-005  0.2472685E+04  0.7818608E-02  0.8412782E-01
         -2   -1    0    0    0  501 -0.00000000000E+00  0.00000000000E+00  0.42912235325E+03  0.42912235325E+03  0.00000000000E+00 0.  1.
          2   -1    0    0  501    0  0.00000000000E+00 -0.00000000000E+00 -0.35620216667E+04  0.35620216667E+04  0.00000000000E+00 0. -1.
         23    2    1    2    0    0  0.94581191440E+03 -0.61893987092E+03 -0.76632273127E+03  0.13684866919E+04  0.88648497488E+02 0.  0.
         13    1    3    3    0    0  0.38928432303E+03 -0.23259073498E+03 -0.26021868622E+03  0.52283314625E+03  0.00000000000E+00 0.  1.
        -13    1    3    3    0    0  0.55652759137E+03 -0.38634913594E+03 -0.50610404504E+03  0.84565354561E+03  0.00000000000E+00 0. -1.
         22    1    1    2    0    0 -0.94581191440E+03  0.61893987092E+03 -0.23665765822E+04  0.26226573281E+04  0.00000000000E+00 0. -1.
<mgrwt>
<rscale>  0 0.24726853E+04</rscale>
<asrwt>0</asrwt>
<pdfrwt beam="1">  1        2 0.54800330E+00 0.24726853E+04</pdfrwt>
<pdfrwt beam="2">  1       -2 0.66018827E-01 0.24726853E+04</pdfrwt>
<totfact> 0.13893614E+00</totfact>
</mgrwt>
</event>
<event>
 6    1  0.2003386E-005  0.1757542E+04  0.7818608E-02  0.8729210E-01
         -2   -1    0    0    0  501 -0.00000000000E+00  0.00000000000E+00  0.35489208453E+03  0.35489208453E+03  0.00000000000E+00 0.  1.
          2   -1    0    0  501    0  0.00000000000E+00 -0.00000000000E+00 -0.21759803058E+04  0.21759803058E+04  0.00000000000E+00 0. -1.
         23    2    1    2    0    0 -0.71802066333E+02  0.55666172232E+03 -0.18822414371E+04  0.19662773800E+04  0.91575639273E+02 0.  0.
         13    1    3    3    0    0 -0.24732103483E+02  0.45317815599E+03 -0.14526849768E+04  0.15219315885E+04  0.00000000000E+00 0.  1.
        -13    1    3    3    0    0 -0.47069962850E+02  0.10348356633E+03 -0.42955646029E+03  0.44434579156E+03  0.00000000000E+00 0. -1.
         22    1    1    2    0    0  0.71802066333E+02 -0.55666172232E+03  0.61153215884E+02  0.56459501028E+03  0.00000000000E+00 0.  1.
<mgrwt>
<rscale>  0 0.17575417E+04</rscale>
<asrwt>0</asrwt>
<pdfrwt beam="1">  1        2 0.33476621E+00 0.17575417E+04</pdfrwt>
<pdfrwt beam="2">  1       -2 0.54598781E-01 0.17575417E+04</pdfrwt>
<totfact> 0.15933960E+01</totfact>
</mgrwt>
</event>
<event>
 6    1  0.2003386E-005  0.5013721E+03  0.7818608E-02  0.1013421E+00
         -2   -1    0    0    0  501 -0.00000000000E+00  0.00000000000E+00  0.22339668564E+02  0.22339668564E+02  0.00000000000E+00 0.  1.
          2   -1    0    0  501    0  0.00000000000E+00 -0.00000000000E+00 -0.28130901285E+04  0.28130901285E+04  0.00000000000E+00 0. -1.
         23    2    1    2    0    0 -0.31834384085E+02 -0.30196770571E+02 -0.27896447380E+04  0.27915379347E+04  0.92956999099E+02 0.  0.
         13    1    3    3    0    0  0.70378782897E+01  0.30024716889E+02 -0.74831085232E+03  0.74894602412E+03  0.00000000000E+00 0. -1.
        -13    1    3    3    0    0 -0.38872262374E+02 -0.60221487460E+02 -0.20413338856E+04  0.20425919105E+04  0.00000000000E+00 0.  1.
         22    1    1    2    0    0  0.31834384085E+02  0.30196770571E+02 -0.11057219658E+01  0.43891862390E+02  0.00000000000E+00 0.  1.
<mgrwt>
<rscale>  0 0.50137212E+03</rscale>
<asrwt>0</asrwt>
<pdfrwt beam="1">  1        2 0.43278335E+00 0.50137212E+03</pdfrwt>
<pdfrwt beam="2">  1       -2 0.34368701E-02 0.50137212E+03</pdfrwt>
<totfact> 0.89644221E+02</totfact>
</mgrwt>
</event>
<event>
 6    1  0.2003386E-005  0.2675326E+04  0.7818608E-02  0.8343055E-01
         -2   -1    0    0    0  501 -0.00000000000E+00  0.00000000000E+00  0.20867766001E+04  0.20867766001E+04  0.00000000000E+00 0.  1.
          2   -1    0    0  501    0  0.00000000000E+00 -0.00000000000E+00 -0.85746713143E+03  0.85746713143E+03  0.00000000000E+00 0. -1.
         23    2    1    2    0    0 -0.75391870092E+03  0.45401381505E+03 -0.49100569079E+03  0.10118860525E+04  0.91130911316E+02 0.  0.
         11    1    3    3    0    0 -0.43719915207E+03  0.31211356197E+03 -0.28089332857E+03  0.60618399531E+03  0.00000000000E+00 0. -1.
        -11    1    3    3    0    0 -0.31671954885E+03  0.14190025308E+03 -0.21011236222E+03  0.40570205719E+03  0.00000000000E+00 0.  1.
         22    1    1    2    0    0  0.75391870092E+03 -0.45401381505E+03  0.17203151594E+04  0.19323576790E+04  0.00000000000E+00 0.  1.
<mgrwt>
<rscale>  0 0.26753260E+04</rscale>
<asrwt>0</asrwt>
<pdfrwt beam="1">  1        2 0.13191802E+00 0.26753260E+04</pdfrwt>
<pdfrwt beam="2">  1       -2 0.32104255E+00 0.26753260E+04</pdfrwt>
<totfact> 0.65043940E-01</totfact>
</mgrwt>
</event>
<event>
 6    1  0.2003386E-005  0.5218984E+04  0.7818608E-02  0.7795587E-01
         -2   -1    0    0    0  501 -0.00000000000E+00  0.00000000000E+00  0.15993802154E+04  0.15993802154E+04  0.00000000000E+00 0.  1.
          2   -1    0    0  501    0  0.00000000000E+00 -0.00000000000E+00 -0.42575537806E+04  0.42575537806E+04  0.00000000000E+00 0. -1.
         23    2    1    2    0    0 -0.86001961458E+03  0.16115139691E+04 -0.34195870143E+04  0.38779540946E+04  0.91332368338E+02 0.  0.
         13    1    3    3    0    0 -0.63723832280E+03  0.11574033206E+04 -0.25498782005E+04  0.28718520094E+04  0.00000000000E+00 0.  1.
        -13    1    3    3    0    0 -0.22278129179E+03  0.45411064851E+03 -0.86970881383E+03  0.10061020852E+04  0.00000000000E+00 0. -1.
         22    1    1    2    0    0  0.86001961458E+03 -0.16115139691E+04  0.76141344909E+03  0.19789799015E+04  0.00000000000E+00 0.  1.
<mgrwt>
<rscale>  0 0.52189835E+04</rscale>
<asrwt>0</asrwt>
<pdfrwt beam="1">  1        2 0.65500828E+00 0.52189835E+04</pdfrwt>
<pdfrwt beam="2">  1       -2 0.24605849E+00 0.52189835E+04</pdfrwt>
<totfact> 0.99929080E-03</totfact>
</mgrwt>
</event>
<event>
 6    1  0.2003386E-005  0.3228056E+04  0.7818608E-02  0.8181447E-01
          2   -1    0    0  501    0  0.00000000000E+00  0.00000000000E+00  0.30087378600E+04  0.30087378600E+04  0.00000000000E+00 0. -1.
         -2   -1    0    0    0  501 -0.00000000000E+00 -0.00000000000E+00 -0.86584033738E+03  0.86584033738E+03  0.00000000000E+00 0.  1.
         23    2    1    2    0    0 -0.35811055452E+03  0.13629713871E+04  0.20136249128E+04  0.24594295906E+04  0.90412667371E+02 0.  0.
         11    1    3    3    0    0 -0.57510413362E+02  0.31511951099E+03  0.50902092486E+03  0.60142335821E+03  0.00000000000E+00 0. -1.
        -11    1    3    3    0    0 -0.30060014115E+03  0.10478518762E+04  0.15046039879E+04  0.18580062324E+04  0.00000000000E+00 0.  1.
         22    1    1    2    0    0  0.35811055452E+03 -0.13629713871E+04  0.12927260978E+03  0.14151486067E+04  0.00000000000E+00 0.  1.
<mgrwt>
<rscale>  0 0.32280561E+04</rscale>
<asrwt>0</asrwt>
<pdfrwt beam="1">  1        2 0.46288274E+00 0.32280561E+04</pdfrwt>
<pdfrwt beam="2">  1       -2 0.13320621E+00 0.32280561E+04</pdfrwt>
<totfact> 0.58920662E-01</totfact>
</mgrwt>
</event>
<event>
 6    1  0.2003386E-005  0.1243568E+04  0.7818608E-02  0.9075554E-01
          2   -1    0    0  501    0  0.00000000000E+00  0.00000000000E+00  0.96214016614E+03  0.96214016614E+03  0.00000000000E+00 0. -1.
         -2   -1    0    0    0  501 -0.00000000000E+00 -0.00000000000E+00 -0.40182832494E+03  0.40182832494E+03  0.00000000000E+00 0.  1.
         23    2    1    2    0    0 -0.42501529158E+02  0.34655593280E+03 -0.28110214795E+03  0.45298830705E+03  0.65365083978E+02 0.  0.
         11    1    3    3    0    0 -0.43435753437E+02  0.17376681473E+03 -0.11217087153E+03  0.21133829516E+03  0.00000000000E+00 0.  1.
        -11    1    3    3    0    0  0.93422427980E+00  0.17278911807E+03 -0.16893127641E+03  0.24165001190E+03  0.00000000000E+00 0. -1.
         22    1    1    2    0    0  0.42501529158E+02 -0.34655593280E+03  0.84141398915E+03  0.91098018402E+03  0.00000000000E+00 0. -1.
<mgrwt>
<rscale>  0 0.12435677E+04</rscale>
<asrwt>0</asrwt>
<pdfrwt beam="1">  1        2 0.14802156E+00 0.12435677E+04</pdfrwt>
<pdfrwt beam="2">  1       -2 0.61819742E-01 0.12435677E+04</pdfrwt>
<totfact> 0.63762316E+01</totfact>
</mgrwt>
</event>
<event>
 6    1  0.2003386E-005  0.4107284E+04  0.7818608E-02  0.7983247E-01
          2   -1    0    0  501    0  0.00000000000E+00  0.00000000000E+00  0.16867012708E+04  0.16867012708E+04  0.00000000000E+00 0. -1.
         -2   -1    0    0    0  501 -0.00000000000E+00 -0.00000000000E+00 -0.25004099644E+04  0.25004099644E+04  0.00000000000E+00 0.  1.
         23    2    1    2    0    0  0.20420216370E+04 -0.10063721153E+03 -0.59327012854E+03  0.21307617087E+04  0.90530656040E+02 0.  0.
         11    1    3    3    0    0  0.14672472895E+04 -0.57573067883E+02 -0.38626676543E+03  0.15183317427E+04  0.00000000000E+00 0.  1.
        -11    1    3    3    0    0  0.57477434748E+03 -0.43064143643E+02 -0.20700336310E+03  0.61242996606E+03  0.00000000000E+00 0. -1.
         22    1    1    2    0    0 -0.20420216370E+04  0.10063721153E+03 -0.22043856507E+03  0.20563495265E+04  0.00000000000E+00 0. -1.
<mgrwt>
<rscale>  0 0.41072836E+04</rscale>
<asrwt>0</asrwt>
<pdfrwt beam="1">  1        2 0.25949250E+00 0.41072836E+04</pdfrwt>
<pdfrwt beam="2">  1       -2 0.38467845E+00 0.41072836E+04</pdfrwt>
<totfact> 0.72831953E-02</totfact>
</mgrwt>
</event>
<event>
 6    1  0.2003386E-005  0.8243819E+03  0.7818608E-02  0.9525381E-01
          2   -1    0    0  501    0  0.00000000000E+00  0.00000000000E+00  0.60354697145E+03  0.60354697145E+03  0.00000000000E+00 0. -1.
         -2   -1    0    0    0  501 -0.00000000000E+00 -0.00000000000E+00 -0.28150483491E+03  0.28150483491E+03  0.00000000000E+00 0.  1.
         23    2    1    2    0    0 -0.26047257839E+03  0.24102788406E+03  0.37626224046E+03  0.52605288624E+03  0.96010210599E+02 0.  0.
         13    1    3    3    0    0 -0.45429164472E+02  0.10083447684E+03  0.10309203621E+03  0.15119315009E+03  0.00000000000E+00 0. -1.
        -13    1    3    3    0    0 -0.21504341391E+03  0.14019340722E+03  0.27317020425E+03  0.37485973615E+03  0.00000000000E+00 0.  1.
         22    1    1    2    0    0  0.26047257839E+03 -0.24102788406E+03 -0.54220103920E+02  0.35899892013E+03  0.00000000000E+00 0.  1.
<mgrwt>
<rscale>  0 0.82438193E+03</rscale>
<asrwt>0</asrwt>
<pdfrwt beam="1">  1        2 0.92853380E-01 0.82438193E+03</pdfrwt>
<pdfrwt beam="2">  1       -2 0.43308436E-01 0.82438193E+03</pdfrwt>
<totfact> 0.25033534E+02</totfact>
</mgrwt>
</event>
<event>
 6    1  0.2003386E-005  0.8860575E+03  0.7818608E-02  0.9443180E-01
          1   -1    0    0  501    0  0.00000000000E+00  0.00000000000E+00  0.34887981137E+03  0.34887981137E+03  0.00000000000E+00 0. -1.
         -1   -1    0    0    0  501 -0.00000000000E+00 -0.00000000000E+00 -0.56258475029E+03  0.56258475029E+03  0.00000000000E+00 0.  1.
         23    2    1    2    0    0 -0.20885969110E+03  0.36859938419E+03 -0.22869250985E+03  0.48753944578E+03  0.76854216091E+02 0.  0.
         11    1    3    3    0    0 -0.50431455232E+02  0.16347083918E+03 -0.10009838099E+03  0.19820628854E+03  0.00000000000E+00 0.  1.
        -11    1    3    3    0    0 -0.15842823587E+03  0.20512854501E+03 -0.12859412887E+03  0.28933315724E+03  0.00000000000E+00 0. -1.
         22    1    1    2    0    0  0.20885969110E+03 -0.36859938419E+03  0.14987570938E+02  0.42392511588E+03  0.00000000000E+00 0. -1.
<mgrwt>
<rscale>  0 0.88605747E+03</rscale>
<asrwt>0</asrwt>
<pdfrwt beam="1">  1        1 0.53673817E-01 0.88605747E+03</pdfrwt>
<pdfrwt beam="2">  1       -1 0.86551500E-01 0.88605747E+03</pdfrwt>
<totfact> 0.95534009E+01</totfact>
</mgrwt>
</event>
<event>
 6    1  0.2003386E-005  0.2541331E+04  0.7818608E-02  0.8388407E-01
          2   -1    0    0  501    0  0.00000000000E+00  0.00000000000E+00  0.21306156573E+04  0.21306156573E+04  0.00000000000E+00 0. -1.
         -2   -1    0    0    0  501 -0.00000000000E+00 -0.00000000000E+00 -0.75780458634E+03  0.75780458634E+03  0.00000000000E+00 0.  1.
         23    2    1    2    0    0 -0.12424395634E+04 -0.23303742712E+03  0.55991067669E+03  0.13854998990E+04  0.90263465131E+02 0.  0.
         13    1    3    3    0    0 -0.80860823371E+03 -0.13950506989E+03  0.31772638807E+03  0.87991988148E+03  0.00000000000E+00 0. -1.
        -13    1    3    3    0    0 -0.43383132973E+03 -0.93532357228E+02  0.24218428862E+03  0.50558001756E+03  0.00000000000E+00 0.  1.
         22    1    1    2    0    0  0.12424395634E+04  0.23303742712E+03  0.81290039428E+03  0.15029203446E+04  0.00000000000E+00 0.  1.
<mgrwt>
<rscale>  0 0.25413306E+04</rscale>
<asrwt>0</asrwt>
<pdfrwt beam="1">  1        2 0.32778702E+00 0.25413306E+04</pdfrwt>
<pdfrwt beam="2">  1       -2 0.11658532E+00 0.25413306E+04</pdfrwt>
<totfact> 0.28627102E+00</totfact>
</mgrwt>
</event>
<event>
 6    1  0.2173885E-005  0.2309843E+04  0.7818608E-02  0.8474050E-01
          4   -1    0    0  501    0  0.00000000000E+00  0.00000000000E+00  0.12605581875E+04  0.12605581875E+04  0.00000000000E+00 0. -1.
         -4   -1    0    0    0  501 -0.00000000000E+00 -0.00000000000E+00 -0.10581370826E+04  0.10581370826E+04  0.00000000000E+00 0.  1.
         23    2    1    2    0    0 -0.98510933595E+02  0.91203049600E+03 -0.60005836259E+03  0.10998936761E+04  0.90509836957E+02 0.  0.
         13    1    3    3    0    0 -0.48214439337E+02  0.54326256732E+03 -0.40771388790E+03  0.68094747492E+03  0.00000000000E+00 0.  1.
        -13    1    3    3    0    0 -0.50296494259E+02  0.36876792869E+03 -0.19234447469E+03  0.41894620121E+03  0.00000000000E+00 0. -1.
         22    1    1    2    0    0  0.98510933595E+02 -0.91203049600E+03  0.80247946749E+03  0.12188015940E+04  0.00000000000E+00 0. -1.
<mgrwt>
<rscale>  0 0.23098427E+04</rscale>
<asrwt>0</asrwt>
<pdfrwt beam="1">  1        4 0.19393203E+00 0.23098427E+04</pdfrwt>
<pdfrwt beam="2">  1       -4 0.16279032E+00 0.23098427E+04</pdfrwt>
<totfact> 0.62344717E-02</totfact>
</mgrwt>
</event>
<event>
 6    1  0.2003386E-005  0.1367532E+04  0.7818608E-02  0.8977662E-01
         -2   -1    0    0    0  501 -0.00000000000E+00  0.00000000000E+00  0.17316485863E+03  0.17316485863E+03  0.00000000000E+00 0. -1.
          2   -1    0    0  501    0  0.00000000000E+00 -0.00000000000E+00 -0.26999456277E+04  0.26999456277E+04  0.00000000000E+00 0.  1.
         23    2    1    2    0    0  0.58048779544E+03 -0.12717069376E+03 -0.19666047322E+04  0.20564491990E+04  0.91162871828E+02 0.  0.
         11    1    3    3    0    0  0.11556095420E+03 -0.52303657291E+02 -0.33366168277E+03  0.35695955689E+03  0.00000000000E+00 0. -1.
        -11    1    3    3    0    0  0.46492684124E+03 -0.74867036467E+02 -0.16329430494E+04  0.16994896421E+04  0.00000000000E+00 0.  1.
         22    1    1    2    0    0 -0.58048779544E+03  0.12717069376E+03 -0.56017603688E+03  0.81666128738E+03  0.00000000000E+00 0. -1.
<mgrwt>
<rscale>  0 0.13675316E+04</rscale>
<asrwt>0</asrwt>
<pdfrwt beam="1">  1        2 0.41537623E+00 0.13675316E+04</pdfrwt>
<pdfrwt beam="2">  1       -2 0.26640749E-01 0.13675316E+04</pdfrwt>
<totfact> 0.33298516E+01</totfact>
</mgrwt>
</event>
<event>
 6    1  0.2003386E-005  0.2652884E+04  0.7818608E-02  0.8350456E-01
         -1   -1    0    0    0  501 -0.00000000000E+00  0.00000000000E+00  0.87731675324E+03  0.87731675324E+03  0.00000000000E+00 0.  1.
          1   -1    0    0  501    0  0.00000000000E+00 -0.00000000000E+00 -0.20054877925E+04  0.20054877925E+04  0.00000000000E+00 0. -1.
         23    2    1    2    0    0 -0.67373916505E+03 -0.10811541658E+04 -0.96011533342E+03  0.15978681609E+04  0.92425177305E+02 0.  0.
         13    1    3    3    0    0 -0.17452697169E+03 -0.21910557597E+03 -0.23684750561E+03  0.36682919483E+03  0.00000000000E+00 0. -1.
        -13    1    3    3    0    0 -0.49921219336E+03 -0.86204858985E+03 -0.72326782782E+03  0.12310389661E+04  0.00000000000E+00 0.  1.
         22    1    1    2    0    0  0.67373916505E+03  0.10811541658E+04 -0.16805570582E+03  0.12849363848E+04  0.00000000000E+00 0. -1.
<mgrwt>
<rscale>  0 0.26528837E+04</rscale>
<asrwt>0</asrwt>
<pdfrwt beam="1">  1        1 0.30853658E+00 0.26528837E+04</pdfrwt>
<pdfrwt beam="2">  1       -1 0.13497181E+00 0.26528837E+04</pdfrwt>
<totfact> 0.11936556E+00</totfact>
</mgrwt>
</event>
<event>
 6    1  0.2003386E-005  0.3844152E+04  0.7818608E-02  0.8036746E-01
          2   -1    0    0  501    0  0.00000000000E+00  0.00000000000E+00  0.23294419312E+04  0.23294419312E+04  0.00000000000E+00 0.  1.
         -2   -1    0    0    0  501 -0.00000000000E+00 -0.00000000000E+00 -0.15859490251E+04  0.15859490251E+04  0.00000000000E+00 0. -1.
         23    2    1    2    0    0  0.56443559024E+03 -0.17692824992E+04 -0.12831873009E+03  0.18638053191E+04  0.91413748085E+02 0.  0.
         11    1    3    3    0    0  0.23136604282E+03 -0.84421657619E+03 -0.88336100619E+02  0.87979266874E+03  0.00000000000E+00 0. -1.
        -11    1    3    3    0    0  0.33306954743E+03 -0.92506592305E+03 -0.39982629472E+02  0.98401265036E+03  0.00000000000E+00 0.  1.
         22    1    1    2    0    0 -0.56443559024E+03  0.17692824992E+04  0.87181163615E+03  0.20515856372E+04  0.00000000000E+00 0. -1.
<mgrwt>
<rscale>  0 0.38441520E+04</rscale>
<asrwt>0</asrwt>
<pdfrwt beam="1">  1        2 0.35837568E+00 0.38441520E+04</pdfrwt>
<pdfrwt beam="2">  1       -2 0.24399216E+00 0.38441520E+04</pdfrwt>
<totfact> 0.24390221E-01</totfact>
</mgrwt>
</event>
<event>
 6    1  0.2003386E-005  0.3541615E+04  0.7818608E-02  0.8103998E-01
          2   -1    0    0  501    0  0.00000000000E+00  0.00000000000E+00  0.20258185854E+04  0.20258185854E+04  0.00000000000E+00 0. -1.
         -2   -1    0    0    0  501 -0.00000000000E+00 -0.00000000000E+00 -0.15478971332E+04  0.15478971332E+04  0.00000000000E+00 0.  1.
         23    2    1    2    0    0 -0.18452772215E+03  0.42133688002E+03 -0.14852346624E+04  0.15573930319E+04  0.89307373474E+02 0.  0.
         13    1    3    3    0    0 -0.11718259977E+03  0.18830449119E+03 -0.60598894923E+03  0.64530066611E+03  0.00000000000E+00 0. -1.
        -13    1    3    3    0    0 -0.67345122378E+02  0.23303238883E+03 -0.87924571312E+03  0.91209236582E+03  0.00000000000E+00 0.  1.
         22    1    1    2    0    0  0.18452772215E+03 -0.42133688002E+03  0.19631561145E+04  0.20163226867E+04  0.00000000000E+00 0. -1.
<mgrwt>
<rscale>  0 0.35416148E+04</rscale>
<asrwt>0</asrwt>
<pdfrwt beam="1">  1        2 0.31166440E+00 0.35416148E+04</pdfrwt>
<pdfrwt beam="2">  1       -2 0.23813802E+00 0.35416148E+04</pdfrwt>
<totfact> 0.40269163E-01</totfact>
</mgrwt>
</event>
<event>
 6    1  0.2003386E-005  0.1404895E+04  0.7818608E-02  0.8950283E-01
          2   -1    0    0  501    0  0.00000000000E+00  0.00000000000E+00  0.22949819973E+04  0.22949819973E+04  0.00000000000E+00 0. -1.
         -2   -1    0    0    0  501 -0.00000000000E+00 -0.00000000000E+00 -0.21500484690E+03  0.21500484690E+03  0.00000000000E+00 0.  1.
         23    2    1    2    0    0  0.55332495290E+03 -0.25874378306E+03  0.16532306417E+04  0.17648496545E+04  0.91683693204E+02 0.  0.
         13    1    3    3    0    0  0.51728560800E+03 -0.21552877869E+03  0.14709399351E+04  0.15740715827E+04  0.00000000000E+00 0.  1.
        -13    1    3    3    0    0  0.36039344896E+02 -0.43215004368E+02  0.18229070665E+03  0.19077807189E+03  0.00000000000E+00 0. -1.
         22    1    1    2    0    0 -0.55332495290E+03  0.25874378306E+03  0.42674650868E+03  0.74513718968E+03  0.00000000000E+00 0.  1.
<mgrwt>
<rscale>  0 0.14048947E+04</rscale>
<asrwt>0</asrwt>
<pdfrwt beam="1">  1        2 0.35307414E+00 0.14048947E+04</pdfrwt>
<pdfrwt beam="2">  1       -2 0.33077670E-01 0.14048947E+04</pdfrwt>
<totfact> 0.37962117E+01</totfact>
</mgrwt>
</event>
<event>
 6    1  0.2003386E-005  0.2107321E+04  0.7818608E-02  0.8558025E-01
         -2   -1    0    0    0  501 -0.00000000000E+00  0.00000000000E+00  0.60308154689E+03  0.60308154689E+03  0.00000000000E+00 0.  1.
          2   -1    0    0  501    0  0.00000000000E+00 -0.00000000000E+00 -0.18408790075E+04  0.18408790075E+04  0.00000000000E+00 0. -1.
         23    2    1    2    0    0  0.24573796343E+03  0.65717337227E+03 -0.15287539830E+04  0.16844082614E+04  0.88760705099E+02 0.  0.
         13    1    3    3    0    0  0.18681166185E+03  0.37616657891E+03 -0.92110264866E+03  0.10123388669E+04  0.00000000000E+00 0. -1.
        -13    1    3    3    0    0  0.58926301579E+02  0.28100679337E+03 -0.60765133431E+03  0.67206939450E+03  0.00000000000E+00 0.  1.
         22    1    1    2    0    0 -0.24573796343E+03 -0.65717337227E+03  0.29095652235E+03  0.75955229299E+03  0.00000000000E+00 0.  1.
<mgrwt>
<rscale>  0 0.21073207E+04</rscale>
<asrwt>0</asrwt>
<pdfrwt beam="1">  1        2 0.28321215E+00 0.21073207E+04</pdfrwt>
<pdfrwt beam="2">  1       -2 0.92781778E-01 0.21073207E+04</pdfrwt>
<totfact> 0.74277173E+00</totfact>
</mgrwt>
</event>
<event>
 6    1  0.2003386E-005  0.3870591E+04  0.7818608E-02  0.8031174E-01
          2   -1    0    0  501    0  0.00000000000E+00  0.00000000000E+00  0.21894485418E+04  0.21894485418E+04  0.00000000000E+00 0. -1.
         -2   -1    0    0    0  501 -0.00000000000E+00 -0.00000000000E+00 -0.17106443645E+04  0.17106443645E+04  0.00000000000E+00 0.  1.
         23    2    1    2    0    0  0.18909757067E+02 -0.13532786648E+04 -0.11528218572E+04  0.17802051168E+04  0.91713138770E+02 0.  0.
         13    1    3    3    0    0 -0.85767660848E+01 -0.12101994932E+04 -0.10448174767E+04  0.15988433113E+04  0.00000000000E+00 0.  1.
        -13    1    3    3    0    0  0.27486523152E+02 -0.14307917162E+03 -0.10800438052E+03  0.18136180556E+03  0.00000000000E+00 0. -1.
         22    1    1    2    0    0 -0.18909757067E+02  0.13532786648E+04  0.16316260345E+04  0.21198877895E+04  0.00000000000E+00 0. -1.
<mgrwt>
<rscale>  0 0.38705906E+04</rscale>
<asrwt>0</asrwt>
<pdfrwt beam="1">  1        2 0.33683824E+00 0.38705906E+04</pdfrwt>
<pdfrwt beam="2">  1       -2 0.26317606E+00 0.38705906E+04</pdfrwt>
<totfact> 0.22266682E-01</totfact>
</mgrwt>
</event>
<event>
 6    1  0.2003386E-005  0.6160162E+04  0.7818608E-02  0.7670855E-01
          2   -1    0    0  501    0  0.00000000000E+00  0.00000000000E+00  0.30533723669E+04  0.30533723669E+04  0.00000000000E+00 0. -1.
         -2   -1    0    0    0  501 -0.00000000000E+00 -0.00000000000E+00 -0.31070235895E+04  0.31070235895E+04  0.00000000000E+00 0.  1.
         23    2    1    2    0    0 -0.21411447039E+04 -0.21690660685E+03  0.21757926271E+04  0.30616915500E+04  0.91282377723E+02 0.  0.
         11    1    3    3    0    0 -0.16261527617E+04 -0.19607549304E+03  0.16878097921E+04  0.23519184292E+04  0.00000000000E+00 0. -1.
        -11    1    3    3    0    0 -0.51499194220E+03 -0.20831113815E+02  0.48798283493E+03  0.70977312081E+03  0.00000000000E+00 0.  1.
         22    1    1    2    0    0  0.21411447039E+04  0.21690660685E+03 -0.22294438497E+04  0.30987044064E+04  0.00000000000E+00 0.  1.
<mgrwt>
<rscale>  0 0.61601623E+04</rscale>
<asrwt>0</asrwt>
<pdfrwt beam="1">  1        2 0.46974960E+00 0.61601623E+04</pdfrwt>
<pdfrwt beam="2">  1       -2 0.47800363E+00 0.61601623E+04</pdfrwt>
<totfact> 0.24566778E-03</totfact>
</mgrwt>
</event>
<event>
 6    1  0.2003386E-005  0.5288897E+04  0.7818608E-02  0.7785424E-01
         -2   -1    0    0    0  501 -0.00000000000E+00  0.00000000000E+00  0.30935255428E+04  0.30935255428E+04  0.00000000000E+00 0.  1.
          2   -1    0    0  501    0  0.00000000000E+00 -0.00000000000E+00 -0.22605621093E+04  0.22605621093E+04  0.00000000000E+00 0. -1.
         23    2    1    2    0    0  0.12718774847E+04 -0.51615345257E+03 -0.18706580708E+04  0.23219834386E+04  0.90325788969E+02 0.  0.
         13    1    3    3    0    0  0.87731853814E+03 -0.32103353611E+03 -0.13163802822E+04  0.16141893928E+04  0.00000000000E+00 0.  1.
        -13    1    3    3    0    0  0.39455894660E+03 -0.19511991646E+03 -0.55427778866E+03  0.70779404571E+03  0.00000000000E+00 0. -1.
         22    1    1    2    0    0 -0.12718774847E+04  0.51615345257E+03  0.27036215044E+04  0.30321042136E+04  0.00000000000E+00 0.  1.
<mgrwt>
<rscale>  0 0.52888965E+04</rscale>
<asrwt>0</asrwt>
<pdfrwt beam="1">  1        2 0.34777879E+00 0.52888965E+04</pdfrwt>
<pdfrwt beam="2">  1       -2 0.47592701E+00 0.52888965E+04</pdfrwt>
<totfact> 0.80144868E-03</totfact>
</mgrwt>
</event>
<event>
 6    1  0.2003386E-005  0.2543014E+04  0.7818608E-02  0.8387820E-01
          2   -1    0    0  501    0  0.00000000000E+00  0.00000000000E+00  0.14817458419E+04  0.14817458419E+04  0.00000000000E+00 0. -1.
         -2   -1    0    0    0  501 -0.00000000000E+00 -0.00000000000E+00 -0.10910984282E+04  0.10910984282E+04  0.00000000000E+00 0.  1.
         23    2    1    2    0    0  0.29070579078E+03  0.11581116192E+04 -0.24177191216E+03  0.12216645696E+04  0.90985074560E+02 0.  0.
         11    1    3    3    0    0  0.18584394382E+03  0.89429898008E+03 -0.17474824882E+03  0.92997074561E+03  0.00000000000E+00 0. -1.
        -11    1    3    3    0    0  0.10486184696E+03  0.26381263915E+03 -0.67023663340E+02  0.29169382402E+03  0.00000000000E+00 0.  1.
         22    1    1    2    0    0 -0.29070579078E+03 -0.11581116192E+04  0.63241932587E+03  0.13511797005E+04  0.00000000000E+00 0. -1.
<mgrwt>
<rscale>  0 0.25430144E+04</rscale>
<asrwt>0</asrwt>
<pdfrwt beam="1">  1        2 0.22796090E+00 0.25430144E+04</pdfrwt>
<pdfrwt beam="2">  1       -2 0.16786130E+00 0.25430144E+04</pdfrwt>
<totfact> 0.25509092E+00</totfact>
</mgrwt>
</event>
<event>
 6    1  0.2003386E-005  0.2650831E+04  0.7818608E-02  0.8351137E-01
         -2   -1    0    0    0  501 -0.00000000000E+00  0.00000000000E+00  0.71421023609E+03  0.71421023609E+03  0.00000000000E+00 0.  1.
          2   -1    0    0  501    0  0.00000000000E+00 -0.00000000000E+00 -0.24596758039E+04  0.24596758039E+04  0.00000000000E+00 0. -1.
         23    2    1    2    0    0  0.77738969671E+03 -0.10509485399E+04 -0.11243103806E+04  0.17265915500E+04  0.90647530222E+02 0.  0.
         11    1    3    3    0    0  0.25317229457E+03 -0.39614822669E+03 -0.44291159859E+03  0.64591045232E+03  0.00000000000E+00 0.  1.
        -11    1    3    3    0    0  0.52421740214E+03 -0.65480031319E+03 -0.68139878197E+03  0.10806810977E+04  0.00000000000E+00 0. -1.
         22    1    1    2    0    0 -0.77738969671E+03  0.10509485399E+04 -0.62115518725E+03  0.14472944900E+04  0.00000000000E+00 0.  1.
<mgrwt>
<rscale>  0 0.26508305E+04</rscale>
<asrwt>0</asrwt>
<pdfrwt beam="1">  1        2 0.37841166E+00 0.26508305E+04</pdfrwt>
<pdfrwt beam="2">  1       -2 0.10987850E+00 0.26508305E+04</pdfrwt>
<totfact> 0.21311014E+00</totfact>
</mgrwt>
</event>
<event>
 6    1  0.2003386E-005  0.2014222E+04  0.7818608E-02  0.8600000E-01
          2   -1    0    0  501    0  0.00000000000E+00  0.00000000000E+00  0.13769479335E+04  0.13769479335E+04  0.00000000000E+00 0. -1.
         -2   -1    0    0    0  501 -0.00000000000E+00 -0.00000000000E+00 -0.73660902612E+03  0.73660902612E+03  0.00000000000E+00 0.  1.
         23    2    1    2    0    0  0.10259888065E+03  0.12552058277E+03  0.13618654889E+04  0.13740418786E+04  0.83854202708E+02 0.  0.
         13    1    3    3    0    0  0.22160499519E+02 -0.87275718832E+01  0.11885331967E+03  0.12121621115E+03  0.00000000000E+00 0.  1.
        -13    1    3    3    0    0  0.80438381133E+02  0.13424815465E+03  0.12430121693E+04  0.12528256675E+04  0.00000000000E+00 0. -1.
         22    1    1    2    0    0 -0.10259888065E+03 -0.12552058277E+03 -0.72152658158E+03  0.73951508094E+03  0.00000000000E+00 0.  1.
<mgrwt>
<rscale>  0 0.20142217E+04</rscale>
<asrwt>0</asrwt>
<pdfrwt beam="1">  1        2 0.21183814E+00 0.20142217E+04</pdfrwt>
<pdfrwt beam="2">  1       -2 0.11332447E+00 0.20142217E+04</pdfrwt>
<totfact> 0.84623770E+00</totfact>
</mgrwt>
</event>
<event>
 6    1  0.2003386E-005  0.8868183E+03  0.7818608E-02  0.9442211E-01
         -2   -1    0    0    0  501 -0.00000000000E+00  0.00000000000E+00  0.14470080637E+03  0.14470080637E+03  0.00000000000E+00 0.  1.
          2   -1    0    0  501    0  0.00000000000E+00 -0.00000000000E+00 -0.13587463598E+04  0.13587463598E+04  0.00000000000E+00 0. -1.
         23    2    1    2    0    0  0.31823362191E+03  0.29756938742E+03 -0.53970605785E+03  0.70060600271E+03  0.98721647679E+02 0.  0.
         13    1    3    3    0    0  0.20252692871E+03  0.23115961723E+03 -0.42615592129E+03  0.52541487868E+03  0.00000000000E+00 0. -1.
        -13    1    3    3    0    0  0.11570669320E+03  0.66409770188E+02 -0.11355013656E+03  0.17519112403E+03  0.00000000000E+00 0.  1.
         22    1    1    2    0    0 -0.31823362191E+03 -0.29756938742E+03 -0.67433949562E+03  0.80284116349E+03  0.00000000000E+00 0. -1.
<mgrwt>
<rscale>  0 0.88681834E+03</rscale>
<asrwt>0</asrwt>
<pdfrwt beam="1">  1        2 0.20903790E+00 0.88681834E+03</pdfrwt>
<pdfrwt beam="2">  1       -2 0.22261662E-01 0.88681834E+03</pdfrwt>
<totfact> 0.27077741E+02</totfact>
</mgrwt>
</event>
<event>
 6    1  0.2003386E-005  0.1135375E+04  0.7818608E-02  0.9171382E-01
          1   -1    0    0  501    0  0.00000000000E+00  0.00000000000E+00  0.52735306363E+03  0.52735306363E+03  0.00000000000E+00 0. -1.
         -1   -1    0    0    0  501 -0.00000000000E+00 -0.00000000000E+00 -0.61110729892E+03  0.61110729892E+03  0.00000000000E+00 0.  1.
         23    2    1    2    0    0 -0.51334753140E+02 -0.52427476335E+03 -0.24459561220E+03  0.58767071768E+03  0.89613473048E+02 0.  0.
         13    1    3    3    0    0 -0.69494635474E+02 -0.48727884530E+03 -0.23462210975E+03  0.54526847682E+03  0.00000000000E+00 0. -1.
        -13    1    3    3    0    0  0.18159882333E+02 -0.36995918053E+02 -0.99735024460E+01  0.42402240861E+02  0.00000000000E+00 0.  1.
         22    1    1    2    0    0  0.51334753140E+02  0.52427476335E+03  0.16084137691E+03  0.55078964487E+03  0.00000000000E+00 0.  1.
<mgrwt>
<rscale>  0 0.11353754E+04</rscale>
<asrwt>0</asrwt>
<pdfrwt beam="1">  1        1 0.81131241E-01 0.11353754E+04</pdfrwt>
<pdfrwt beam="2">  1       -1 0.94016508E-01 0.11353754E+04</pdfrwt>
<totfact> 0.44872462E+01</totfact>
</mgrwt>
</event>
<event>
 6    1  0.2003386E-005  0.1043543E+04  0.7818608E-02  0.9262036E-01
         -1   -1    0    0    0  501 -0.00000000000E+00  0.00000000000E+00  0.55655534630E+03  0.55655534630E+03  0.00000000000E+00 0.  1.
          1   -1    0    0  501    0  0.00000000000E+00 -0.00000000000E+00 -0.48916158952E+03  0.48916158952E+03  0.00000000000E+00 0. -1.
         23    2    1    2    0    0  0.45618416068E+03  0.42582346164E+02  0.27550939575E+03  0.54249793396E+03  0.92094172140E+02 0.  0.
         13    1    3    3    0    0  0.23304418595E+03  0.88881024266E+01  0.19127442812E+03  0.30161979017E+03  0.00000000000E+00 0.  1.
        -13    1    3    3    0    0  0.22313997473E+03  0.33694243737E+02  0.84234967632E+02  0.24087814379E+03  0.00000000000E+00 0. -1.
         22    1    1    2    0    0 -0.45618416068E+03 -0.42582346164E+02 -0.20811563897E+03  0.50321900187E+03  0.00000000000E+00 0. -1.
<mgrwt>
<rscale>  0 0.10435430E+04</rscale>
<asrwt>0</asrwt>
<pdfrwt beam="1">  1        1 0.75255629E-01 0.10435430E+04</pdfrwt>
<pdfrwt beam="2">  1       -1 0.85623900E-01 0.10435430E+04</pdfrwt>
<totfact> 0.61598702E+01</totfact>
</mgrwt>
</event>
<event>
 6    1  0.2003386E-005  0.1300893E+04  0.7818608E-02  0.9028857E-01
         -2   -1    0    0    0  501 -0.00000000000E+00  0.00000000000E+00  0.80683869920E+03  0.80683869920E+03  0.00000000000E+00 0.  1.
          2   -1    0    0  501    0  0.00000000000E+00 -0.00000000000E+00 -0.52436811731E+03  0.52436811731E+03  0.00000000000E+00 0. -1.
         23    2    1    2    0    0  0.32960595392E+03  0.39865505347E+03  0.54014939006E+03  0.75331036844E+03  0.90272981001E+02 0.  0.
         13    1    3    3    0    0  0.18035865631E+03  0.16622570603E+03  0.29815233375E+03  0.38607647477E+03  0.00000000000E+00 0.  1.
        -13    1    3    3    0    0  0.14924729761E+03  0.23242934744E+03  0.24199705631E+03  0.36723389367E+03  0.00000000000E+00 0. -1.
         22    1    1    2    0    0 -0.32960595392E+03 -0.39865505347E+03 -0.25767880816E+03  0.57789644807E+03  0.00000000000E+00 0. -1.
<mgrwt>
<rscale>  0 0.13008928E+04</rscale>
<asrwt>0</asrwt>
<pdfrwt beam="1">  1        2 0.80672018E-01 0.13008928E+04</pdfrwt>
<pdfrwt beam="2">  1       -2 0.12412903E+00 0.13008928E+04</pdfrwt>
<totfact> 0.27846159E+01</totfact>
</mgrwt>
</event>
<event>
 6    1  0.2003386E-005  0.2035320E+04  0.7818608E-02  0.8590283E-01
          2   -1    0    0  501    0  0.00000000000E+00  0.00000000000E+00  0.41759146138E+04  0.41759146138E+04  0.00000000000E+00 0. -1.
         -2   -1    0    0    0  501 -0.00000000000E+00 -0.00000000000E+00 -0.24800125269E+03  0.24800125269E+03  0.00000000000E+00 0.  1.
         23    2    1    2    0    0  0.69897413371E+03  0.73688948688E+03  0.19744880064E+04  0.22222252497E+04  0.90062298767E+02 0.  0.
         13    1    3    3    0    0  0.27452892450E+03  0.24989317265E+03  0.79542387029E+03  0.87778805047E+03  0.00000000000E+00 0. -1.
        -13    1    3    3    0    0  0.42444520922E+03  0.48699631422E+03  0.11790641361E+04  0.13444371993E+04  0.00000000000E+00 0.  1.
         22    1    1    2    0    0 -0.69897413371E+03 -0.73688948688E+03  0.19534253547E+04  0.22016906168E+04  0.00000000000E+00 0.  1.
<mgrwt>
<rscale>  0 0.20353202E+04</rscale>
<asrwt>0</asrwt>
<pdfrwt beam="1">  1        2 0.64244835E+00 0.20353202E+04</pdfrwt>
<pdfrwt beam="2">  1       -2 0.38154042E-01 0.20353202E+04</pdfrwt>
<totfact> 0.14832290E+00</totfact>
</mgrwt>
</event>
<event>
 6    1  0.2003386E-005  0.9331792E+03  0.7818608E-02  0.9385030E-01
          2   -1    0    0  501    0  0.00000000000E+00  0.00000000000E+00  0.31091912505E+03  0.31091912505E+03  0.00000000000E+00 0. -1.
         -2   -1    0    0    0  501 -0.00000000000E+00 -0.00000000000E+00 -0.70020094443E+03  0.70020094443E+03  0.00000000000E+00 0.  1.
         23    2    1    2    0    0  0.43830180746E+03  0.12956064410E+03 -0.26995078904E+03  0.53874910327E+03  0.92101752687E+02 0.  0.
         13    1    3    3    0    0  0.26121328159E+03  0.36106784306E+02 -0.12675023892E+03  0.29257768442E+03  0.00000000000E+00 0.  1.
        -13    1    3    3    0    0  0.17708852586E+03  0.93453859797E+02 -0.14320055012E+03  0.24617141885E+03  0.00000000000E+00 0. -1.
         22    1    1    2    0    0 -0.43830180746E+03 -0.12956064410E+03 -0.11933103034E+03  0.47237096621E+03  0.00000000000E+00 0.  1.
<mgrwt>
<rscale>  0 0.93317922E+03</rscale>
<asrwt>0</asrwt>
<pdfrwt beam="1">  1        2 0.47833712E-01 0.93317922E+03</pdfrwt>
<pdfrwt beam="2">  1       -2 0.10772322E+00 0.93317922E+03</pdfrwt>
<totfact> 0.73031416E+01</totfact>
</mgrwt>
</event>
<event>
 6    1  0.2003386E-005  0.1155489E+04  0.7818608E-02  0.9152734E-01
         -2   -1    0    0    0  501 -0.00000000000E+00  0.00000000000E+00  0.42293138485E+03  0.42293138485E+03  0.00000000000E+00 0. -1.
          2   -1    0    0  501    0  0.00000000000E+00 -0.00000000000E+00 -0.78922691443E+03  0.78922691443E+03  0.00000000000E+00 0.  1.
         23    2    1    2    0    0  0.51862890844E+03  0.24403432787E+03 -0.18905233611E+03  0.61220509487E+03  0.10259432026E+03 0.  0.
         13    1    3    3    0    0  0.12787435375E+03  0.16751690189E+02 -0.59001221004E+02  0.14182247195E+03  0.00000000000E+00 0.  1.
        -13    1    3    3    0    0  0.39075455469E+03  0.22728263768E+03 -0.13005111511E+03  0.47038262291E+03  0.00000000000E+00 0. -1.
         22    1    1    2    0    0 -0.51862890844E+03 -0.24403432787E+03 -0.17724319347E+03  0.59995320440E+03  0.00000000000E+00 0. -1.
<mgrwt>
<rscale>  0 0.11554892E+04</rscale>
<asrwt>0</asrwt>
<pdfrwt beam="1">  1        2 0.12141953E+00 0.11554892E+04</pdfrwt>
<pdfrwt beam="2">  1       -2 0.65066367E-01 0.11554892E+04</pdfrwt>
<totfact> 0.75633313E+01</totfact>
</mgrwt>
</event>
<event>
 6    1  0.2003386E-005  0.1487694E+04  0.7818608E-02  0.8892678E-01
          2   -1    0    0  501    0  0.00000000000E+00  0.00000000000E+00  0.16510313308E+04  0.16510313308E+04  0.00000000000E+00 0. -1.
         -2   -1    0    0    0  501 -0.00000000000E+00 -0.00000000000E+00 -0.33512888144E+03  0.33512888144E+03  0.00000000000E+00 0.  1.
         23    2    1    2    0    0 -0.21874557639E+03 -0.60368050051E+03  0.16683615152E+03  0.66986498292E+03  0.92763247043E+02 0.  0.
         13    1    3    3    0    0 -0.59477384127E+02 -0.25147452489E+03  0.31549600415E+02  0.26033127584E+03  0.00000000000E+00 0. -1.
        -13    1    3    3    0    0 -0.15926819226E+03 -0.35220597562E+03  0.13528655111E+03  0.40953370709E+03  0.00000000000E+00 0.  1.
         22    1    1    2    0    0  0.21874557639E+03  0.60368050051E+03  0.11490662978E+04  0.13162952293E+04  0.00000000000E+00 0. -1.
<mgrwt>
<rscale>  0 0.14876939E+04</rscale>
<asrwt>0</asrwt>
<pdfrwt beam="1">  1        2 0.25400482E+00 0.14876939E+04</pdfrwt>
<pdfrwt beam="2">  1       -2 0.51558290E-01 0.14876939E+04</pdfrwt>
<totfact> 0.35882896E+01</totfact>
</mgrwt>
</event>
<event>
 6    1  0.2003386E-005  0.2172769E+04  0.7818608E-02  0.8529849E-01
         -2   -1    0    0    0  501 -0.00000000000E+00  0.00000000000E+00  0.60790706767E+03  0.60790706767E+03  0.00000000000E+00 0.  1.
          2   -1    0    0  501    0  0.00000000000E+00 -0.00000000000E+00 -0.19414664397E+04  0.19414664397E+04  0.00000000000E+00 0. -1.
         23    2    1    2    0    0  0.92553327678E+03  0.74918252018E+02 -0.11066192978E+02  0.93344875678E+03  0.94760382012E+02 0.  0.
         11    1    3    3    0    0  0.51790993715E+03  0.49333618942E+02  0.40265799888E+02  0.52181016050E+03  0.00000000000E+00 0.  1.
        -11    1    3    3    0    0  0.40762333963E+03  0.25584633076E+02 -0.51331992866E+02  0.41163859629E+03  0.00000000000E+00 0. -1.
         22    1    1    2    0    0 -0.92553327678E+03 -0.74918252018E+02 -0.13224931790E+04  0.16159247505E+04  0.00000000000E+00 0. -1.
<mgrwt>
<rscale>  0 0.21727689E+04</rscale>
<asrwt>0</asrwt>
<pdfrwt beam="1">  1        2 0.29868714E+00 0.21727689E+04</pdfrwt>
<pdfrwt beam="2">  1       -2 0.93524167E-01 0.21727689E+04</pdfrwt>
<totfact> 0.63769016E+00</totfact>
</mgrwt>
</event>
<event>
 6    1  0.2003386E-005  0.4019192E+04  0.7818608E-02  0.8000686E-01
          1   -1    0    0  501    0  0.00000000000E+00  0.00000000000E+00  0.33269147127E+04  0.33269147127E+04  0.00000000000E+00 0.  1.
         -1   -1    0    0    0  501 -0.00000000000E+00 -0.00000000000E+00 -0.12138800583E+04  0.12138800583E+04  0.00000000000E+00 0. -1.
         23    2    1    2    0    0  0.19024662208E+04 -0.33687874538E+03  0.16774990102E+04  0.25602503236E+04  0.89519719284E+02 0.  0.
         11    1    3    3    0    0  0.47870930655E+03 -0.91253426770E+02  0.47475506157E+03  0.68035443451E+03  0.00000000000E+00 0.  1.
        -11    1    3    3    0    0  0.14237569142E+04 -0.24562531861E+03  0.12027439486E+04  0.18798958891E+04  0.00000000000E+00 0. -1.
         22    1    1    2    0    0 -0.19024662208E+04  0.33687874538E+03  0.43553564425E+03  0.19805444473E+04  0.00000000000E+00 0. -1.
<mgrwt>
<rscale>  0 0.40191917E+04</rscale>
<asrwt>0</asrwt>
<pdfrwt beam="1">  1        1 0.51183303E+00 0.40191917E+04</pdfrwt>
<pdfrwt beam="2">  1       -1 0.18675078E+00 0.40191917E+04</pdfrwt>
<totfact> 0.49521141E-02</totfact>
</mgrwt>
</event>
<event>
 6    1  0.2003386E-005  0.6705475E+03  0.7818608E-02  0.9768969E-01
          2   -1    0    0  501    0  0.00000000000E+00  0.00000000000E+00  0.37661706727E+03  0.37661706727E+03  0.00000000000E+00 0. -1.
         -2   -1    0    0    0  501 -0.00000000000E+00 -0.00000000000E+00 -0.29846893160E+03  0.29846893160E+03  0.00000000000E+00 0.  1.
         23    2    1    2    0    0  0.41087002108E+02  0.10392137700E+03 -0.27180691175E+03  0.30772197022E+03  0.91247023749E+02 0.  0.
         11    1    3    3    0    0  0.68152211660E+02  0.73050524068E+02 -0.16015404868E+03  0.18876022444E+03  0.00000000000E+00 0. -1.
        -11    1    3    3    0    0 -0.27065209552E+02  0.30870852928E+02 -0.11165286306E+03  0.11896174578E+03  0.00000000000E+00 0.  1.
         22    1    1    2    0    0 -0.41087002108E+02 -0.10392137700E+03  0.34995504741E+03  0.36736402866E+03  0.00000000000E+00 0. -1.
<mgrwt>
<rscale>  0 0.67054752E+03</rscale>
<asrwt>0</asrwt>
<pdfrwt beam="1">  1        2 0.57941087E-01 0.67054752E+03</pdfrwt>
<pdfrwt beam="2">  1       -2 0.45918298E-01 0.67054752E+03</pdfrwt>
<totfact> 0.38616564E+02</totfact>
</mgrwt>
</event>
<event>
 6    1  0.2003386E-005  0.2101518E+04  0.7818608E-02  0.8560575E-01
          2   -1    0    0  501    0  0.00000000000E+00  0.00000000000E+00  0.18326139512E+04  0.18326139512E+04  0.00000000000E+00 0. -1.
         -2   -1    0    0    0  501 -0.00000000000E+00 -0.00000000000E+00 -0.60246982965E+03  0.60246982965E+03  0.00000000000E+00 0.  1.
         23    2    1    2    0    0 -0.26106497741E+03  0.10121296922E+04  0.51469032480E+03  0.11684206166E+04  0.87972555448E+02 0.  0.
         11    1    3    3    0    0 -0.15831663632E+03  0.55684481418E+03  0.33084725267E+03  0.66678347986E+03  0.00000000000E+00 0.  1.
        -11    1    3    3    0    0 -0.10274834108E+03  0.45528487807E+03  0.18384307213E+03  0.50163713674E+03  0.00000000000E+00 0. -1.
         22    1    1    2    0    0  0.26106497741E+03 -0.10121296922E+04  0.71545379674E+03  0.12666631642E+04  0.00000000000E+00 0.  1.
<mgrwt>
<rscale>  0 0.21015181E+04</rscale>
<asrwt>0</asrwt>
<pdfrwt beam="1">  1        2 0.28194060E+00 0.21015181E+04</pdfrwt>
<pdfrwt beam="2">  1       -2 0.92687667E-01 0.21015181E+04</pdfrwt>
<totfact> 0.75279146E+00</totfact>
</mgrwt>
</event>
<event>
 6    1  0.2003386E-005  0.2074090E+04  0.7818608E-02  0.8572744E-01
          2   -1    0    0  501    0  0.00000000000E+00  0.00000000000E+00  0.26370694993E+04  0.26370694993E+04  0.00000000000E+00 0. -1.
         -2   -1    0    0    0  501 -0.00000000000E+00 -0.00000000000E+00 -0.40782481058E+03  0.40782481058E+03  0.00000000000E+00 0.  1.
         23    2    1    2    0    0 -0.82174294408E+01  0.82598988386E+03  0.20130000228E+03  0.85517139004E+03  0.92030435349E+02 0.  0.
         13    1    3    3    0    0  0.39976252345E+02  0.26867276241E+03  0.72452902868E+02  0.28112733262E+03  0.00000000000E+00 0.  1.
        -13    1    3    3    0    0 -0.48193681786E+02  0.55731712145E+03  0.12884709941E+03  0.57404405741E+03  0.00000000000E+00 0. -1.
         22    1    1    2    0    0  0.82174294408E+01 -0.82598988386E+03  0.20279446864E+04  0.21897229198E+04  0.00000000000E+00 0. -1.
<mgrwt>
<rscale>  0 0.20740900E+04</rscale>
<asrwt>0</asrwt>
<pdfrwt beam="1">  1        2 0.40570299E+00 0.20740900E+04</pdfrwt>
<pdfrwt beam="2">  1       -2 0.62742280E-01 0.20740900E+04</pdfrwt>
<totfact> 0.62984458E+00</totfact>
</mgrwt>
</event>
<event>
 6    1  0.2003386E-005  0.2115930E+04  0.7818608E-02  0.8554258E-01
          2   -1    0    0  501    0  0.00000000000E+00  0.00000000000E+00  0.19472914810E+04  0.19472914810E+04  0.00000000000E+00 0. -1.
         -2   -1    0    0    0  501 -0.00000000000E+00 -0.00000000000E+00 -0.57479316650E+03  0.57479316650E+03  0.00000000000E+00 0.  1.
         23    2    1    2    0    0 -0.21609454188E+03  0.10170636318E+04  0.46667506624E+03  0.11430882591E+04  0.88033336518E+02 0.  0.
         11    1    3    3    0    0 -0.14730178291E+03  0.48636848084E+03  0.23752135935E+03  0.56095321601E+03  0.00000000000E+00 0.  1.
        -11    1    3    3    0    0 -0.68792758965E+02  0.53069515099E+03  0.22915370689E+03  0.58213504305E+03  0.00000000000E+00 0. -1.
         22    1    1    2    0    0  0.21609454188E+03 -0.10170636318E+04  0.90582324823E+03  0.13789963884E+04  0.00000000000E+00 0. -1.
<mgrwt>
<rscale>  0 0.21159299E+04</rscale>
<asrwt>0</asrwt>
<pdfrwt beam="1">  1        2 0.29958330E+00 0.21159299E+04</pdfrwt>
<pdfrwt beam="2">  1       -2 0.88429719E-01 0.21159299E+04</pdfrwt>
<totfact> 0.72394660E+00</totfact>
</mgrwt>
</event>
<event>
 6    1  0.2003386E-005  0.1212588E+04  0.7818608E-02  0.9101909E-01
          2   -1    0    0  501    0  0.00000000000E+00  0.00000000000E+00  0.11589555576E+04  0.11589555576E+04  0.00000000000E+00 0. -1.
         -2   -1    0    0    0  501 -0.00000000000E+00 -0.00000000000E+00 -0.31717545031E+03  0.31717545031E+03  0.00000000000E+00 0.  1.
         23    2    1    2    0    0 -0.55529141224E+03 -0.22606949066E+03  0.34002265743E+03  0.69432764032E+03  0.83782441092E+02 0.  0.
         11    1    3    3    0    0 -0.16952792328E+03 -0.35085834127E+02  0.12217534118E+03  0.21189041158E+03  0.00000000000E+00 0.  1.
        -11    1    3    3    0    0 -0.38576348897E+03 -0.19098365653E+03  0.21784731625E+03  0.48243722874E+03  0.00000000000E+00 0. -1.
         22    1    1    2    0    0  0.55529141224E+03  0.22606949066E+03  0.50175744990E+03  0.78180336764E+03  0.00000000000E+00 0.  1.
<mgrwt>
<rscale>  0 0.12125877E+04</rscale>
<asrwt>0</asrwt>
<pdfrwt beam="1">  1        2 0.17830085E+00 0.12125877E+04</pdfrwt>
<pdfrwt beam="2">  1       -2 0.48796224E-01 0.12125877E+04</pdfrwt>
<totfact> 0.78593360E+01</totfact>
</mgrwt>
</event>
<event>
 6    1  0.2003386E-005  0.8286087E+03  0.7818608E-02  0.9519506E-01
          2   -1    0    0  501    0  0.00000000000E+00  0.00000000000E+00  0.33444869869E+03  0.33444869869E+03  0.00000000000E+00 0. -1.
         -2   -1    0    0    0  501 -0.00000000000E+00 -0.00000000000E+00 -0.51322696267E+03  0.51322696267E+03  0.00000000000E+00 0.  1.
         23    2    1    2    0    0 -0.36614563307E+03 -0.34124621121E+02 -0.27461443067E+03  0.46766028637E+03  0.89810598095E+02 0.  0.
         13    1    3    3    0    0 -0.33651212841E+03 -0.51073428071E+02 -0.22717907388E+03  0.40921783835E+03  0.00000000000E+00 0. -1.
        -13    1    3    3    0    0 -0.29633504666E+02  0.16948806950E+02 -0.47435356797E+02  0.58442448018E+02  0.00000000000E+00 0.  1.
         22    1    1    2    0    0  0.36614563307E+03  0.34124621121E+02  0.95836166692E+02  0.38001537499E+03  0.00000000000E+00 0. -1.
<mgrwt>
<rscale>  0 0.82860869E+03</rscale>
<asrwt>0</asrwt>
<pdfrwt beam="1">  1        2 0.51453646E-01 0.82860869E+03</pdfrwt>
<pdfrwt beam="2">  1       -2 0.78957994E-01 0.82860869E+03</pdfrwt>
<totfact> 0.13935762E+02</totfact>
</mgrwt>
</event>
<event>
 6    1  0.2003386E-005  0.2149608E+04  0.7818608E-02  0.8539700E-01
         -2   -1    0    0    0  501 -0.00000000000E+00  0.00000000000E+00  0.20210279217E+04  0.20210279217E+04  0.00000000000E+00 0.  1.
          2   -1    0    0  501    0  0.00000000000E+00 -0.00000000000E+00 -0.57159227013E+03  0.57159227013E+03  0.00000000000E+00 0. -1.
         23    2    1    2    0    0 -0.77286735926E+03 -0.48840883384E+03  0.14030655133E+04  0.16771873250E+04  0.92181041578E+02 0.  0.
         13    1    3    3    0    0 -0.18443768617E+03 -0.14006689006E+03  0.42118340717E+03  0.48065731685E+03  0.00000000000E+00 0. -1.
        -13    1    3    3    0    0 -0.58842967309E+03 -0.34834194378E+03  0.98188210615E+03  0.11965300081E+04  0.00000000000E+00 0.  1.
         22    1    1    2    0    0  0.77286735926E+03  0.48840883384E+03  0.46370138242E+02  0.91543286685E+03  0.00000000000E+00 0. -1.
<mgrwt>
<rscale>  0 0.21496083E+04</rscale>
<asrwt>0</asrwt>
<pdfrwt beam="1">  1        2 0.87937274E-01 0.21496083E+04</pdfrwt>
<pdfrwt beam="2">  1       -2 0.31092737E+00 0.21496083E+04</pdfrwt>
<totfact> 0.13155451E+00</totfact>
</mgrwt>
</event>
<event>
 6    1  0.2003386E-005  0.1705990E+04  0.7818608E-02  0.8757955E-01
         -2   -1    0    0    0  501 -0.00000000000E+00  0.00000000000E+00  0.12656640092E+04  0.12656640092E+04  0.00000000000E+00 0.  1.
          2   -1    0    0  501    0  0.00000000000E+00 -0.00000000000E+00 -0.57487638780E+03  0.57487638780E+03  0.00000000000E+00 0. -1.
         23    2    1    2    0    0 -0.16747541071E+03  0.68604560776E+03 -0.16546469765E+03  0.73064192282E+03  0.88048078296E+02 0.  0.
         13    1    3    3    0    0 -0.17714074939E+03  0.64561242310E+03 -0.14852403384E+03  0.68575041712E+03  0.00000000000E+00 0. -1.
        -13    1    3    3    0    0  0.96653386758E+01  0.40433184663E+02 -0.16940663805E+02  0.44891505698E+02  0.00000000000E+00 0.  1.
         22    1    1    2    0    0  0.16747541071E+03 -0.68604560776E+03  0.85625231906E+03  0.11098984742E+04  0.00000000000E+00 0.  1.
<mgrwt>
<rscale>  0 0.17059899E+04</rscale>
<asrwt>0</asrwt>
<pdfrwt beam="1">  1        2 0.88442521E-01 0.17059899E+04</pdfrwt>
<pdfrwt beam="2">  1       -2 0.19471754E+00 0.17059899E+04</pdfrwt>
<totfact> 0.71525325E+00</totfact>
</mgrwt>
</event>
<event>
 6    1  0.2003386E-005  0.1555273E+04  0.7818608E-02  0.8848507E-01
          2   -1    0    0  501    0  0.00000000000E+00  0.00000000000E+00  0.97268593084E+03  0.97268593084E+03  0.00000000000E+00 0.  1.
         -2   -1    0    0    0  501 -0.00000000000E+00 -0.00000000000E+00 -0.62169952132E+03  0.62169952132E+03  0.00000000000E+00 0. -1.
         23    2    1    2    0    0  0.61813081614E+03  0.25023401878E+03 -0.22844435835E+03  0.71095872357E+03  0.92588939613E+02 0.  0.
         13    1    3    3    0    0  0.30364027077E+03  0.14327502495E+03 -0.70179963368E+02  0.34300200300E+03  0.00000000000E+00 0.  1.
        -13    1    3    3    0    0  0.31449054538E+03  0.10695899383E+03 -0.15826439498E+03  0.36795672057E+03  0.00000000000E+00 0. -1.
         22    1    1    2    0    0 -0.61813081614E+03 -0.25023401878E+03  0.57943076787E+03  0.88342672859E+03  0.00000000000E+00 0.  1.
<mgrwt>
<rscale>  0 0.15552728E+04</rscale>
<asrwt>0</asrwt>
<pdfrwt beam="1">  1        2 0.14964399E+00 0.15552728E+04</pdfrwt>
<pdfrwt beam="2">  1       -2 0.95646080E-01 0.15552728E+04</pdfrwt>
<totfact> 0.23162235E+01</totfact>
</mgrwt>
</event>
<event>
 6    1  0.2003386E-005  0.2021441E+04  0.7818608E-02  0.8596662E-01
         -1   -1    0    0    0  501 -0.00000000000E+00  0.00000000000E+00  0.87705730487E+03  0.87705730487E+03  0.00000000000E+00 0.  1.
          1   -1    0    0  501    0  0.00000000000E+00 -0.00000000000E+00 -0.11647533745E+04  0.11647533745E+04  0.00000000000E+00 0. -1.
         23    2    1    2    0    0 -0.13255729489E+02 -0.81523038464E+03 -0.74409703680E+03  0.11074241763E+04  0.89059596014E+02 0.  0.
         11    1    3    3    0    0  0.24885827110E+02 -0.48439815836E+03 -0.47998703682E+03  0.68238437535E+03  0.00000000000E+00 0.  1.
        -11    1    3    3    0    0 -0.38141556599E+02 -0.33083222629E+03 -0.26410999998E+03  0.42503980094E+03  0.00000000000E+00 0. -1.
         22    1    1    2    0    0  0.13255729489E+02  0.81523038464E+03  0.45640096713E+03  0.93438650312E+03  0.00000000000E+00 0.  1.
<mgrwt>
<rscale>  0 0.20214405E+04</rscale>
<asrwt>0</asrwt>
<pdfrwt beam="1">  1        1 0.17919283E+00 0.20214405E+04</pdfrwt>
<pdfrwt beam="2">  1       -1 0.13493189E+00 0.20214405E+04</pdfrwt>
<totfact> 0.48449086E+00</totfact>
</mgrwt>
</event>
<event>
 6    1  0.2003386E-005  0.1298110E+04  0.7818608E-02  0.9031065E-01
         -2   -1    0    0    0  501 -0.00000000000E+00  0.00000000000E+00  0.28337727998E+03  0.28337727998E+03  0.00000000000E+00 0.  1.
          2   -1    0    0  501    0  0.00000000000E+00 -0.00000000000E+00 -0.14866134874E+04  0.14866134874E+04  0.00000000000E+00 0. -1.
         23    2    1    2    0    0 -0.61641566484E+03 -0.83056778038E+02 -0.84105891019E+03  0.10502414396E+04  0.93596424690E+02 0.  0.
         13    1    3    3    0    0 -0.48698202908E+03 -0.63245459888E+02 -0.59469225004E+03  0.77123949400E+03  0.00000000000E+00 0. -1.
        -13    1    3    3    0    0 -0.12943363576E+03 -0.19811318149E+02 -0.24636666015E+03  0.27900194556E+03  0.00000000000E+00 0.  1.
         22    1    1    2    0    0  0.61641566484E+03  0.83056778038E+02 -0.36217729721E+03  0.71974932779E+03  0.00000000000E+00 0.  1.
<mgrwt>
<rscale>  0 0.12981101E+04</rscale>
<asrwt>0</asrwt>
<pdfrwt beam="1">  1        2 0.22870976E+00 0.12981101E+04</pdfrwt>
<pdfrwt beam="2">  1       -2 0.43596506E-01 0.12981101E+04</pdfrwt>
<totfact> 0.63151278E+01</totfact>
</mgrwt>
</event>
<event>
 6    1  0.2003386E-005  0.1981367E+04  0.7818608E-02  0.8615382E-01
         -2   -1    0    0    0  501 -0.00000000000E+00  0.00000000000E+00  0.90125708955E+03  0.90125708955E+03  0.00000000000E+00 0. -1.
          2   -1    0    0  501    0  0.00000000000E+00 -0.00000000000E+00 -0.10889834785E+04  0.10889834785E+04  0.00000000000E+00 0.  1.
         23    2    1    2    0    0  0.90706307870E+03 -0.37713034705E+03 -0.20885570976E+03  0.10076739415E+04  0.82433836356E+02 0.  0.
         13    1    3    3    0    0  0.20823147260E+03 -0.11098558533E+03 -0.77967288603E+02  0.24850964654E+03  0.00000000000E+00 0.  1.
        -13    1    3    3    0    0  0.69883160610E+03 -0.26614476173E+03 -0.13088842115E+03  0.75916429492E+03  0.00000000000E+00 0. -1.
         22    1    1    2    0    0 -0.90706307870E+03  0.37713034705E+03  0.21129320851E+02  0.98256662655E+03  0.00000000000E+00 0. -1.
<mgrwt>
<rscale>  0 0.19813673E+04</rscale>
<asrwt>0</asrwt>
<pdfrwt beam="1">  1        2 0.16753592E+00 0.19813673E+04</pdfrwt>
<pdfrwt beam="2">  1       -2 0.13865494E+00 0.19813673E+04</pdfrwt>
<totfact> 0.75839374E+00</totfact>
</mgrwt>
</event>
<event>
 6    1  0.2003386E-005  0.1111910E+04  0.7818608E-02  0.9193660E-01
          2   -1    0    0  501    0  0.00000000000E+00  0.00000000000E+00  0.45607882015E+03  0.45607882015E+03  0.00000000000E+00 0. -1.
         -2   -1    0    0    0  501 -0.00000000000E+00 -0.00000000000E+00 -0.67770343358E+03  0.67770343358E+03  0.00000000000E+00 0.  1.
         23    2    1    2    0    0 -0.71673216535E+02  0.28926870270E+03  0.36251684414E+03  0.47801196257E+03  0.90904024912E+02 0.  0.
         11    1    3    3    0    0 -0.78592017888E+02  0.28049583240E+03  0.31435729344E+03  0.42857336036E+03  0.00000000000E+00 0. -1.
        -11    1    3    3    0    0  0.69188013524E+01  0.87728703053E+01  0.48159550696E+02  0.49438602213E+02  0.00000000000E+00 0.  1.
         22    1    1    2    0    0  0.71673216535E+02 -0.28926870270E+03 -0.58414145756E+03  0.65577029116E+03  0.00000000000E+00 0.  1.
<mgrwt>
<rscale>  0 0.11119104E+04</rscale>
<asrwt>0</asrwt>
<pdfrwt beam="1">  1        2 0.70165972E-01 0.11119104E+04</pdfrwt>
<pdfrwt beam="2">  1       -2 0.10426207E+00 0.11119104E+04</pdfrwt>
<totfact> 0.50808101E+01</totfact>
</mgrwt>
</event>
<event>
 6    1  0.2003386E-005  0.7277812E+03  0.7818608E-02  0.9670868E-01
         -2   -1    0    0    0  501 -0.00000000000E+00  0.00000000000E+00  0.31498450736E+03  0.31498450736E+03  0.00000000000E+00 0.  1.
          2   -1    0    0  501    0  0.00000000000E+00 -0.00000000000E+00 -0.42039004509E+03  0.42039004509E+03  0.00000000000E+00 0. -1.
         23    2    1    2    0    0 -0.11716131285E+03 -0.13198028109E+03  0.26137880241E+03  0.32834099119E+03  0.91341996494E+02 0.  0.
         11    1    3    3    0    0 -0.10879304986E+03 -0.68901017546E+02  0.21094662411E+03  0.24714723575E+03  0.00000000000E+00 0.  1.
        -11    1    3    3    0    0 -0.83682629915E+01 -0.63079263541E+02  0.50432178297E+02  0.81193755438E+02  0.00000000000E+00 0. -1.
         22    1    1    2    0    0  0.11716131285E+03  0.13198028109E+03 -0.36678434013E+03  0.40703356126E+03  0.00000000000E+00 0. -1.
<mgrwt>
<rscale>  0 0.72778115E+03</rscale>
<asrwt>0</asrwt>
<pdfrwt beam="1">  1        2 0.64675392E-01 0.72778115E+03</pdfrwt>
<pdfrwt beam="2">  1       -2 0.48459155E-01 0.72778115E+03</pdfrwt>
<totfact> 0.30579757E+02</totfact>
</mgrwt>
</event>
<event>
 6    1  0.2003386E-005  0.1156193E+04  0.7818608E-02  0.9152089E-01
          2   -1    0    0  501    0  0.00000000000E+00  0.00000000000E+00  0.13245221127E+04  0.13245221127E+04  0.00000000000E+00 0. -1.
         -2   -1    0    0    0  501 -0.00000000000E+00 -0.00000000000E+00 -0.25231424127E+03  0.25231424127E+03  0.00000000000E+00 0.  1.
         23    2    1    2    0    0 -0.33938264549E+03  0.48518847321E+02  0.11692927755E+04  0.12205216936E+04  0.69949632555E+02 0.  0.
         13    1    3    3    0    0 -0.90707862670E+02  0.20112497861E+02  0.43280928672E+03  0.44266952412E+03  0.00000000000E+00 0.  1.
        -13    1    3    3    0    0 -0.24867478282E+03  0.28406349460E+02  0.73648348880E+03  0.77785216948E+03  0.00000000000E+00 0. -1.
         22    1    1    2    0    0  0.33938264549E+03 -0.48518847321E+02 -0.97084904065E+02  0.35631466038E+03  0.00000000000E+00 0.  1.
<mgrwt>
<rscale>  0 0.11561934E+04</rscale>
<asrwt>0</asrwt>
<pdfrwt beam="1">  1        2 0.20377263E+00 0.11561934E+04</pdfrwt>
<pdfrwt beam="2">  1       -2 0.38817576E-01 0.11561934E+04</pdfrwt>
<totfact> 0.99197844E+01</totfact>
</mgrwt>
</event>
<event>
 6    1  0.2003386E-005  0.1819752E+04  0.7818608E-02  0.8695865E-01
         -2   -1    0    0    0  501 -0.00000000000E+00  0.00000000000E+00  0.37367994396E+03  0.37367994396E+03  0.00000000000E+00 0.  1.
          2   -1    0    0  501    0  0.00000000000E+00 -0.00000000000E+00 -0.22154644296E+04  0.22154644296E+04  0.00000000000E+00 0. -1.
         23    2    1    2    0    0  0.26168153805E+03 -0.54185436520E+03 -0.18900512287E+04  0.19854780262E+04  0.88011163516E+02 0.  0.
         11    1    3    3    0    0  0.17818592518E+03 -0.26850097903E+03 -0.10164703175E+04  0.10663277667E+04  0.00000000000E+00 0.  1.
        -11    1    3    3    0    0  0.83495612871E+02 -0.27335338617E+03 -0.87358091118E+03  0.91915025947E+03  0.00000000000E+00 0. -1.
         22    1    1    2    0    0 -0.26168153805E+03  0.54185436520E+03  0.48266743081E+02  0.60366634736E+03  0.00000000000E+00 0.  1.
<mgrwt>
<rscale>  0 0.18197523E+04</rscale>
<asrwt>0</asrwt>
<pdfrwt beam="1">  1        2 0.34084068E+00 0.18197523E+04</pdfrwt>
<pdfrwt beam="2">  1       -2 0.57489222E-01 0.18197523E+04</pdfrwt>
<totfact> 0.13524692E+01</totfact>
</mgrwt>
</event>
<event>
 6    1  0.2003386E-005  0.1544093E+04  0.7818608E-02  0.8855650E-01
         -2   -1    0    0    0  501 -0.00000000000E+00  0.00000000000E+00  0.22827636738E+03  0.22827636738E+03  0.00000000000E+00 0.  1.
          2   -1    0    0  501    0  0.00000000000E+00 -0.00000000000E+00 -0.26111149622E+04  0.26111149622E+04  0.00000000000E+00 0. -1.
         23    2    1    2    0    0 -0.55134976928E+03  0.14732960725E+03 -0.21443403783E+04  0.22208656789E+04  0.91411840283E+02 0.  0.
         11    1    3    3    0    0 -0.92080859942E+02 -0.95530532199E+01 -0.33103532689E+03  0.34373613899E+03  0.00000000000E+00 0. -1.
        -11    1    3    3    0    0 -0.45926890933E+03  0.15688266047E+03 -0.18133050514E+04  0.18771295400E+04  0.00000000000E+00 0.  1.
         22    1    1    2    0    0  0.55134976928E+03 -0.14732960725E+03 -0.23849821653E+03  0.61852565067E+03  0.00000000000E+00 0.  1.
<mgrwt>
<rscale>  0 0.15440931E+04</rscale>
<asrwt>0</asrwt>
<pdfrwt beam="1">  1        2 0.40170999E+00 0.15440931E+04</pdfrwt>
<pdfrwt beam="2">  1       -2 0.35119441E-01 0.15440931E+04</pdfrwt>
<totfact> 0.22042972E+01</totfact>
</mgrwt>
</event>
<event>
 6    1  0.2003386E-005  0.2898023E+04  0.7818608E-02  0.8273466E-01
         -2   -1    0    0    0  501 -0.00000000000E+00  0.00000000000E+00  0.55095100931E+03  0.55095100931E+03  0.00000000000E+00 0.  1.
          2   -1    0    0  501    0  0.00000000000E+00 -0.00000000000E+00 -0.38109272108E+04  0.38109272108E+04  0.00000000000E+00 0. -1.
         23    2    1    2    0    0 -0.70436194429E+03  0.28785184968E+03 -0.34850721460E+04  0.35683716858E+04  0.92542904281E+02 0.  0.
         13    1    3    3    0    0 -0.21981030594E+03  0.55955714329E+02 -0.11712908729E+04  0.11930506785E+04  0.00000000000E+00 0.  1.
        -13    1    3    3    0    0 -0.48455163835E+03  0.23189613535E+03 -0.23137812731E+04  0.23753210073E+04  0.00000000000E+00 0. -1.
         22    1    1    2    0    0  0.70436194429E+03 -0.28785184968E+03  0.22509594445E+03  0.79350653440E+03  0.00000000000E+00 0.  1.
<mgrwt>
<rscale>  0 0.28980229E+04</rscale>
<asrwt>0</asrwt>
<pdfrwt beam="1">  1        2 0.58629647E+00 0.28980229E+04</pdfrwt>
<pdfrwt beam="2">  1       -2 0.84761698E-01 0.28980229E+04</pdfrwt>
<totfact> 0.50420966E-01</totfact>
</mgrwt>
</event>
<event>
 6    1  0.2003386E-005  0.9100720E+03  0.7818608E-02  0.9413078E-01
         -2   -1    0    0    0  501 -0.00000000000E+00  0.00000000000E+00  0.30980875638E+03  0.30980875638E+03  0.00000000000E+00 0.  1.
          2   -1    0    0  501    0  0.00000000000E+00 -0.00000000000E+00 -0.66834061473E+03  0.66834061473E+03  0.00000000000E+00 0. -1.
         23    2    1    2    0    0 -0.22145800703E+03 -0.14591481425E+03  0.20992933215E+03  0.35086721211E+03  0.93288231548E+02 0.  0.
         13    1    3    3    0    0 -0.18299012496E+03 -0.12822883482E+03  0.12515670078E+03  0.25610978049E+03  0.00000000000E+00 0. -1.
        -13    1    3    3    0    0 -0.38467882068E+02 -0.17685979430E+02  0.84772631364E+02  0.94757431621E+02  0.00000000000E+00 0.  1.
         22    1    1    2    0    0  0.22145800703E+03  0.14591481425E+03 -0.56846119050E+03  0.62728215900E+03  0.00000000000E+00 0. -1.
<mgrwt>
<rscale>  0 0.91007203E+03</rscale>
<asrwt>0</asrwt>
<pdfrwt beam="1">  1        2 0.10282163E+00 0.91007203E+03</pdfrwt>
<pdfrwt beam="2">  1       -2 0.47662886E-01 0.91007203E+03</pdfrwt>
<totfact> 0.18164737E+02</totfact>
</mgrwt>
</event>
<event>
 6    1  0.2003386E-005  0.1460356E+04  0.7818608E-02  0.8911252E-01
          2   -1    0    0  501    0  0.00000000000E+00  0.00000000000E+00  0.84268371305E+03  0.84268371305E+03  0.00000000000E+00 0. -1.
         -2   -1    0    0    0  501 -0.00000000000E+00 -0.00000000000E+00 -0.63269318879E+03  0.63269318879E+03  0.00000000000E+00 0.  1.
         23    2    1    2    0    0  0.11230279072E+03 -0.68547155786E+03  0.32307266827E+03  0.77162215426E+03  0.92420920375E+02 0.  0.
         11    1    3    3    0    0  0.71980620090E+02 -0.20399932782E+03  0.78853368406E+02  0.23024940636E+03  0.00000000000E+00 0. -1.
        -11    1    3    3    0    0  0.40322170628E+02 -0.48147223004E+03  0.24421929986E+03  0.54137274790E+03  0.00000000000E+00 0.  1.
         22    1    1    2    0    0 -0.11230279072E+03  0.68547155786E+03 -0.11308214401E+03  0.70375474758E+03  0.00000000000E+00 0.  1.
<mgrwt>
<rscale>  0 0.14603565E+04</rscale>
<asrwt>0</asrwt>
<pdfrwt beam="1">  1        2 0.12964365E+00 0.14603565E+04</pdfrwt>
<pdfrwt beam="2">  1       -2 0.97337413E-01 0.14603565E+04</pdfrwt>
<totfact> 0.27404249E+01</totfact>
</mgrwt>
</event>
<event>
 6    1  0.2003386E-005  0.2176687E+04  0.7818608E-02  0.8528195E-01
          2   -1    0    0  501    0  0.00000000000E+00  0.00000000000E+00  0.31927293847E+04  0.31927293847E+04  0.00000000000E+00 0. -1.
         -2   -1    0    0    0  501 -0.00000000000E+00 -0.00000000000E+00 -0.37099638881E+03  0.37099638881E+03  0.00000000000E+00 0.  1.
         23    2    1    2    0    0  0.79984621582E+02  0.71841654265E+03  0.27411670161E+04  0.28363945247E+04  0.92830066299E+02 0.  0.
         13    1    3    3    0    0 -0.20770817766E-01  0.15341960089E+03  0.72345028898E+03  0.73953897463E+03  0.00000000000E+00 0. -1.
        -13    1    3    3    0    0  0.80005392400E+02  0.56499694176E+03  0.20177167271E+04  0.20968555501E+04  0.00000000000E+00 0.  1.
         22    1    1    2    0    0 -0.79984621582E+02 -0.71841654265E+03  0.80565979829E+02  0.72733124884E+03  0.00000000000E+00 0.  1.
<mgrwt>
<rscale>  0 0.21766865E+04</rscale>
<asrwt>0</asrwt>
<pdfrwt beam="1">  1        2 0.49118912E+00 0.21766865E+04</pdfrwt>
<pdfrwt beam="2">  1       -2 0.57076369E-01 0.21766865E+04</pdfrwt>
<totfact> 0.34619370E+00</totfact>
</mgrwt>
</event>
<event>
 6    1  0.2137983E-005  0.2669819E+04  0.7818608E-02  0.8344865E-01
          2   -1    0    0  501    0  0.00000000000E+00  0.00000000000E+00  0.28066671514E+04  0.28066671514E+04  0.00000000000E+00 0. -1.
         -2   -1    0    0    0  501 -0.00000000000E+00 -0.00000000000E+00 -0.63491065703E+03  0.63491065703E+03  0.00000000000E+00 0.  1.
         23    2    1    2    0    0  0.47594265268E+03  0.54496261867E+03  0.25308817768E+04  0.26338175514E+04  0.90147998196E+02 0.  0.
         13    1    3    3    0    0  0.57363937248E+02  0.86603578909E+02  0.47733532177E+03  0.48850773851E+03  0.00000000000E+00 0.  1.
        -13    1    3    3    0    0  0.41857871543E+03  0.45835903976E+03  0.20535464550E+04  0.21453098129E+04  0.00000000000E+00 0. -1.
         22    1    1    2    0    0 -0.47594265268E+03 -0.54496261867E+03 -0.35912528241E+03  0.80776025704E+03  0.00000000000E+00 0.  1.
<mgrwt>
<rscale>  0 0.26698186E+04</rscale>
<asrwt>0</asrwt>
<pdfrwt beam="1">  1        2 0.43179494E+00 0.26698186E+04</pdfrwt>
<pdfrwt beam="2">  1       -2 0.97678564E-01 0.26698186E+04</pdfrwt>
<totfact> 0.17587442E+00</totfact>
</mgrwt>
</event>
<event>
 6    1  0.2003386E-005  0.3791673E+04  0.7818608E-02  0.8047944E-01
          2   -1    0    0  501    0  0.00000000000E+00  0.00000000000E+00  0.14452773772E+04  0.14452773772E+04  0.00000000000E+00 0. -1.
         -2   -1    0    0    0  501 -0.00000000000E+00 -0.00000000000E+00 -0.24868560240E+04  0.24868560240E+04  0.00000000000E+00 0.  1.
         23    2    1    2    0    0 -0.88906430748E+03  0.16153801889E+04 -0.97366405415E+03  0.20870044384E+04  0.87620419191E+02 0.  0.
         11    1    3    3    0    0 -0.39938735810E+03  0.66087486828E+03 -0.44137276138E+03  0.88942440254E+03  0.00000000000E+00 0.  1.
        -11    1    3    3    0    0 -0.48967694937E+03  0.95450532064E+03 -0.53229129277E+03  0.11975800358E+04  0.00000000000E+00 0. -1.
         22    1    1    2    0    0  0.88906430748E+03 -0.16153801889E+04 -0.67914592703E+02  0.18451289628E+04  0.00000000000E+00 0. -1.
<mgrwt>
<rscale>  0 0.37916734E+04</rscale>
<asrwt>0</asrwt>
<pdfrwt beam="1">  1        2 0.22235037E+00 0.37916734E+04</pdfrwt>
<pdfrwt beam="2">  1       -2 0.38259324E+00 0.37916734E+04</pdfrwt>
<totfact> 0.10532185E-01</totfact>
</mgrwt>
</event>
<event>
 6    1  0.2003386E-005  0.4516856E+04  0.7818608E-02  0.7907692E-01
         -1   -1    0    0    0  501 -0.00000000000E+00  0.00000000000E+00  0.18087316981E+04  0.18087316981E+04  0.00000000000E+00 0.  1.
          1   -1    0    0  501    0  0.00000000000E+00 -0.00000000000E+00 -0.28199299015E+04  0.28199299015E+04  0.00000000000E+00 0. -1.
         23    2    1    2    0    0 -0.79770111549E+03  0.16040630605E+04 -0.19133823593E+04  0.26228496386E+04  0.94672078155E+02 0.  0.
         11    1    3    3    0    0 -0.24278149961E+03  0.57616013490E+03 -0.63454437394E+03  0.89081418943E+03  0.00000000000E+00 0.  1.
        -11    1    3    3    0    0 -0.55491961589E+03  0.10279029256E+04 -0.12788379853E+04  0.17320354492E+04  0.00000000000E+00 0. -1.
         22    1    1    2    0    0  0.79770111549E+03 -0.16040630605E+04  0.90218415580E+03  0.20058119610E+04  0.00000000000E+00 0.  1.
<mgrwt>
<rscale>  0 0.45168558E+04</rscale>
<asrwt>0</asrwt>
<pdfrwt beam="1">  1        1 0.43383537E+00 0.45168558E+04</pdfrwt>
<pdfrwt beam="2">  1       -1 0.27826642E+00 0.45168558E+04</pdfrwt>
<totfact> 0.27640039E-02</totfact>
</mgrwt>
</event>
<event>
 6    1  0.2003386E-005  0.3663832E+04  0.7818608E-02  0.8076025E-01
          2   -1    0    0  501    0  0.00000000000E+00  0.00000000000E+00  0.43749673707E+04  0.43749673707E+04  0.00000000000E+00 0. -1.
         -2   -1    0    0    0  501 -0.00000000000E+00 -0.00000000000E+00 -0.76707241636E+03  0.76707241636E+03  0.00000000000E+00 0.  1.
         23    2    1    2    0    0  0.51777171337E+03  0.12309572207E+04  0.47420059514E+02  0.13393664244E+04  0.91162111555E+02 0.  0.
         11    1    3    3    0    0  0.13312110096E+03  0.31398229300E+03 -0.27631656559E+02  0.34215437492E+03  0.00000000000E+00 0. -1.
        -11    1    3    3    0    0  0.38465061241E+03  0.91697492766E+03  0.75051716074E+02  0.99721204950E+03  0.00000000000E+00 0.  1.
         22    1    1    2    0    0 -0.51777171337E+03 -0.12309572207E+04  0.35604748948E+04  0.38026733626E+04  0.00000000000E+00 0. -1.
<mgrwt>
<rscale>  0 0.36638323E+04</rscale>
<asrwt>0</asrwt>
<pdfrwt beam="1">  1        2 0.67307189E+00 0.36638323E+04</pdfrwt>
<pdfrwt beam="2">  1       -2 0.11801114E+00 0.36638323E+04</pdfrwt>
<totfact> 0.72325067E-02</totfact>
</mgrwt>
</event>
<event>
 6    1  0.2003386E-005  0.4101064E+04  0.7818608E-02  0.7984463E-01
         -2   -1    0    0    0  501 -0.00000000000E+00  0.00000000000E+00  0.15112810233E+04  0.15112810233E+04  0.00000000000E+00 0.  1.
          2   -1    0    0  501    0  0.00000000000E+00 -0.00000000000E+00 -0.27821968590E+04  0.27821968590E+04  0.00000000000E+00 0. -1.
         23    2    1    2    0    0 -0.97327648625E+03  0.13081999301E+04 -0.19356689292E+04  0.25326397718E+04  0.93786111559E+02 0.  0.
         11    1    3    3    0    0 -0.47209770960E+03  0.57046086012E+03 -0.91966775190E+03  0.11807161446E+04  0.00000000000E+00 0. -1.
        -11    1    3    3    0    0 -0.50117877665E+03  0.73773906999E+03 -0.10160011773E+04  0.13519236272E+04  0.00000000000E+00 0.  1.
         22    1    1    2    0    0  0.97327648625E+03 -0.13081999301E+04  0.66475309345E+03  0.17608381104E+04  0.00000000000E+00 0.  1.
<mgrwt>
<rscale>  0 0.41010639E+04</rscale>
<asrwt>0</asrwt>
<pdfrwt beam="1">  1        2 0.42803028E+00 0.41010639E+04</pdfrwt>
<pdfrwt beam="2">  1       -2 0.23250477E+00 0.41010639E+04</pdfrwt>
<totfact> 0.15293081E-01</totfact>
</mgrwt>
</event>
<event>
 6    1  0.2003386E-005  0.5106045E+04  0.7818608E-02  0.7812354E-01
         -2   -1    0    0    0  501 -0.00000000000E+00  0.00000000000E+00  0.18295252122E+04  0.18295252122E+04  0.00000000000E+00 0. -1.
          2   -1    0    0  501    0  0.00000000000E+00 -0.00000000000E+00 -0.35626309920E+04  0.35626309920E+04  0.00000000000E+00 0.  1.
         23    2    1    2    0    0 -0.11317396713E+04  0.99013408927E+03  0.13111811438E+04  0.19967353066E+04  0.80967242576E+02 0.  0.
         13    1    3    3    0    0 -0.92996084296E+03  0.80032661765E+03  0.10291050647E+04  0.16013766261E+04  0.00000000000E+00 0. -1.
        -13    1    3    3    0    0 -0.20177882836E+03  0.18980747162E+03  0.28207607914E+03  0.39535868054E+03  0.00000000000E+00 0.  1.
         22    1    1    2    0    0  0.11317396713E+04 -0.99013408927E+03 -0.30442869236E+04  0.33954208975E+04  0.00000000000E+00 0.  1.
<mgrwt>
<rscale>  0 0.51060447E+04</rscale>
<asrwt>0</asrwt>
<pdfrwt beam="1">  1        2 0.54809707E+00 0.51060447E+04</pdfrwt>
<pdfrwt beam="2">  1       -2 0.28146542E+00 0.51060447E+04</pdfrwt>
<totfact> 0.21818414E-02</totfact>
</mgrwt>
</event>
<event>
 6    1  0.2636302E-005  0.3886519E+04  0.7818608E-02  0.8027839E-01
          2   -1    0    0  501    0  0.00000000000E+00  0.00000000000E+00  0.20550856663E+04  0.20550856663E+04  0.00000000000E+00 0. -1.
         -2   -1    0    0    0  501 -0.00000000000E+00 -0.00000000000E+00 -0.18375181853E+04  0.18375181853E+04  0.00000000000E+00 0.  1.
         23    2    1    2    0    0 -0.14785451831E+03  0.32395053132E+03  0.20210376620E+04  0.20543139944E+04  0.93850152127E+02 0.  0.
         11    1    3    3    0    0 -0.59599825238E+01  0.52067220051E+02  0.49487357700E+03  0.49764080822E+03  0.00000000000E+00 0.  1.
        -11    1    3    3    0    0 -0.14189453579E+03  0.27188331127E+03  0.15261640850E+04  0.15566731862E+04  0.00000000000E+00 0. -1.
         22    1    1    2    0    0  0.14785451831E+03 -0.32395053132E+03 -0.18034701810E+04  0.18382898572E+04  0.00000000000E+00 0.  1.
<mgrwt>
<rscale>  0 0.38865189E+04</rscale>
<asrwt>0</asrwt>
<pdfrwt beam="1">  1        2 0.31616702E+00 0.38865189E+04</pdfrwt>
<pdfrwt beam="2">  1       -2 0.28269511E+00 0.38865189E+04</pdfrwt>
<totfact> 0.20097990E-01</totfact>
</mgrwt>
</event>
<event>
 6    1  0.2003386E-005  0.3479761E+04  0.7818608E-02  0.8118603E-01
         -2   -1    0    0    0  501 -0.00000000000E+00  0.00000000000E+00  0.12752942208E+04  0.12752942208E+04  0.00000000000E+00 0.  1.
          2   -1    0    0  501    0  0.00000000000E+00 -0.00000000000E+00 -0.23737137540E+04  0.23737137540E+04  0.00000000000E+00 0. -1.
         23    2    1    2    0    0  0.61089715325E+03 -0.98547022967E+02  0.11541033137E+04  0.13130357953E+04  0.95925458204E+02 0.  0.
         13    1    3    3    0    0  0.18131986837E+03 -0.72475771391E+02  0.33509388274E+03  0.38783700488E+03  0.00000000000E+00 0.  1.
        -13    1    3    3    0    0  0.42957728489E+03 -0.26071251576E+02  0.81900943092E+03  0.92519879042E+03  0.00000000000E+00 0. -1.
         22    1    1    2    0    0 -0.61089715325E+03  0.98547022967E+02 -0.22525228469E+04  0.23359721795E+04  0.00000000000E+00 0. -1.
<mgrwt>
<rscale>  0 0.34797606E+04</rscale>
<asrwt>0</asrwt>
<pdfrwt beam="1">  1        2 0.36518673E+00 0.34797606E+04</pdfrwt>
<pdfrwt beam="2">  1       -2 0.19619911E+00 0.34797606E+04</pdfrwt>
<totfact> 0.47731669E-01</totfact>
</mgrwt>
</event>
<event>
 6    1  0.2003386E-005  0.6155525E+03  0.7818608E-02  0.9873655E-01
          1   -1    0    0  501    0  0.00000000000E+00  0.00000000000E+00  0.14786862559E+04  0.14786862559E+04  0.00000000000E+00 0. -1.
         -1   -1    0    0    0  501 -0.00000000000E+00 -0.00000000000E+00 -0.64061064125E+02  0.64061064125E+02  0.00000000000E+00 0.  1.
         23    2    1    2    0    0 -0.19986851498E+03 -0.21804804401E+03  0.86935218586E+03  0.92241271374E+03  0.87061005253E+02 0.  0.
         11    1    3    3    0    0 -0.26778142165E+02 -0.55110346929E+02  0.28591211178E+03  0.29240375322E+03  0.00000000000E+00 0. -1.
        -11    1    3    3    0    0 -0.17309037281E+03 -0.16293769708E+03  0.58344007408E+03  0.63000896052E+03  0.00000000000E+00 0.  1.
         22    1    1    2    0    0  0.19986851498E+03  0.21804804401E+03  0.54527300591E+03  0.62033460628E+03  0.00000000000E+00 0.  1.
<mgrwt>
<rscale>  0 0.61555248E+03</rscale>
<asrwt>0</asrwt>
<pdfrwt beam="1">  1        1 0.22749017E+00 0.61555248E+03</pdfrwt>
<pdfrwt beam="2">  1       -1 0.98555494E-02 0.61555248E+03</pdfrwt>
<totfact> 0.44811278E+02</totfact>
</mgrwt>
</event>
<event>
 6    1  0.2003386E-005  0.6154945E+03  0.7818608E-02  0.9873771E-01
         -2   -1    0    0    0  501 -0.00000000000E+00  0.00000000000E+00  0.19546901779E+03  0.19546901779E+03  0.00000000000E+00 0.  1.
          2   -1    0    0  501    0  0.00000000000E+00 -0.00000000000E+00 -0.48451859490E+03  0.48451859490E+03  0.00000000000E+00 0. -1.
         23    2    1    2    0    0 -0.24259876382E+03  0.14080730185E+03 -0.26896188434E+03  0.39876817549E+03  0.89413120367E+02 0.  0.
         13    1    3    3    0    0 -0.83380118390E+01  0.37361439361E+02 -0.32730517193E+02  0.50365527380E+02  0.00000000000E+00 0.  1.
        -13    1    3    3    0    0 -0.23426075198E+03  0.10344586248E+03 -0.23623136715E+03  0.34840264811E+03  0.00000000000E+00 0. -1.
         22    1    1    2    0    0  0.24259876382E+03 -0.14080730185E+03 -0.20087692769E+02  0.28121943720E+03  0.00000000000E+00 0. -1.
<mgrwt>
<rscale>  0 0.61549451E+03</rscale>
<asrwt>0</asrwt>
<pdfrwt beam="1">  1        2 0.74541323E-01 0.61549451E+03</pdfrwt>
<pdfrwt beam="2">  1       -2 0.30072156E-01 0.61549451E+03</pdfrwt>
<totfact> 0.65570545E+02</totfact>
</mgrwt>
</event>
<event>
 6    1  0.2003386E-005  0.5036305E+03  0.7818608E-02  0.1012836E+00
         -2   -1    0    0    0  501 -0.00000000000E+00  0.00000000000E+00  0.61505304391E+02  0.61505304391E+02  0.00000000000E+00 0.  1.
          2   -1    0    0  501    0  0.00000000000E+00 -0.00000000000E+00 -0.10309830866E+04  0.10309830866E+04  0.00000000000E+00 0. -1.
         23    2    1    2    0    0  0.71953459305E+01  0.22205194701E+03 -0.71698929223E+03  0.75617116315E+03  0.91445845398E+02 0.  0.
         13    1    3    3    0    0 -0.16537813000E+02  0.60540997642E+02 -0.33395261047E+03  0.33979855458E+03  0.00000000000E+00 0. -1.
        -13    1    3    3    0    0  0.23733158930E+02  0.16151094937E+03 -0.38303668176E+03  0.41637260858E+03  0.00000000000E+00 0.  1.
         22    1    1    2    0    0 -0.71953459305E+01 -0.22205194701E+03 -0.25248849002E+03  0.33631722788E+03  0.00000000000E+00 0.  1.
<mgrwt>
<rscale>  0 0.50363053E+03</rscale>
<asrwt>0</asrwt>
<pdfrwt beam="1">  1        2 0.15861279E+00 0.50363053E+03</pdfrwt>
<pdfrwt beam="2">  1       -2 0.94623543E-02 0.50363053E+03</pdfrwt>
<totfact> 0.18198302E+03</totfact>
</mgrwt>
</event>
<event>
 6    1  0.2003386E-005  0.1870770E+04  0.7818608E-02  0.8669544E-01
          2   -1    0    0  501    0  0.00000000000E+00  0.00000000000E+00  0.71542527337E+03  0.71542527337E+03  0.00000000000E+00 0. -1.
         -2   -1    0    0    0  501 -0.00000000000E+00 -0.00000000000E+00 -0.12229726172E+04  0.12229726172E+04  0.00000000000E+00 0.  1.
         23    2    1    2    0    0 -0.80964565548E+03  0.44546059373E+03 -0.12050514575E+03  0.93651821160E+03  0.92647949302E+02 0.  0.
         11    1    3    3    0    0 -0.52805699743E+03  0.24669044019E+03 -0.52506921098E+02  0.58519854970E+03  0.00000000000E+00 0. -1.
        -11    1    3    3    0    0 -0.28158865806E+03  0.19877015353E+03 -0.67998224652E+02  0.35131966190E+03  0.00000000000E+00 0.  1.
         22    1    1    2    0    0  0.80964565548E+03 -0.44546059373E+03 -0.38704219807E+03  0.10018796789E+04  0.00000000000E+00 0.  1.
<mgrwt>
<rscale>  0 0.18707704E+04</rscale>
<asrwt>0</asrwt>
<pdfrwt beam="1">  1        2 0.11006543E+00 0.18707704E+04</pdfrwt>
<pdfrwt beam="2">  1       -2 0.18814963E+00 0.18707704E+04</pdfrwt>
<totfact> 0.59633624E+00</totfact>
</mgrwt>
</event>
<event>
 6    1  0.2003386E-005  0.2719372E+04  0.7818608E-02  0.8328747E-01
         -1   -1    0    0    0  501 -0.00000000000E+00  0.00000000000E+00  0.43334538344E+03  0.43334538344E+03  0.00000000000E+00 0.  1.
          1   -1    0    0  501    0  0.00000000000E+00 -0.00000000000E+00 -0.42662167905E+04  0.42662167905E+04  0.00000000000E+00 0. -1.
         23    2    1    2    0    0  0.14652281234E+03  0.70641791979E+03 -0.39071883339E+04  0.39742910401E+04  0.91506188095E+02 0.  0.
         13    1    3    3    0    0  0.59049415424E+02  0.13021830890E+03 -0.87435698216E+03  0.88597052642E+03  0.00000000000E+00 0. -1.
        -13    1    3    3    0    0  0.87473396921E+02  0.57619961089E+03 -0.30328313518E+04  0.30883205137E+04  0.00000000000E+00 0.  1.
         22    1    1    2    0    0 -0.14652281234E+03 -0.70641791979E+03  0.74316926917E+02  0.72527113382E+03  0.00000000000E+00 0.  1.
<mgrwt>
<rscale>  0 0.27193715E+04</rscale>
<asrwt>0</asrwt>
<pdfrwt beam="1">  1        1 0.65634105E+00 0.27193715E+04</pdfrwt>
<pdfrwt beam="2">  1       -1 0.66668520E-01 0.27193715E+04</pdfrwt>
<totfact> 0.10906438E-01</totfact>
</mgrwt>
</event>
<event>
 6    1  0.2003386E-005  0.2041649E+04  0.7818608E-02  0.8587392E-01
         -2   -1    0    0    0  501 -0.00000000000E+00  0.00000000000E+00  0.50955996961E+03  0.50955996961E+03  0.00000000000E+00 0.  1.
          2   -1    0    0  501    0  0.00000000000E+00 -0.00000000000E+00 -0.20450629644E+04  0.20450629644E+04  0.00000000000E+00 0. -1.
         23    2    1    2    0    0 -0.66302335505E+03  0.10919170437E+03 -0.17274886579E+04  0.18557801101E+04  0.90443111910E+02 0.  0.
         13    1    3    3    0    0 -0.33368440603E+03  0.59433254768E+02 -0.99432050821E+03  0.10505002940E+04  0.00000000000E+00 0.  1.
        -13    1    3    3    0    0 -0.32933894903E+03  0.49758449600E+02 -0.73316814965E+03  0.80527981616E+03  0.00000000000E+00 0. -1.
         22    1    1    2    0    0  0.66302335505E+03 -0.10919170437E+03  0.19198566308E+03  0.69884282387E+03  0.00000000000E+00 0.  1.
<mgrwt>
<rscale>  0 0.20416486E+04</rscale>
<asrwt>0</asrwt>
<pdfrwt beam="1">  1        2 0.31462507E+00 0.20416486E+04</pdfrwt>
<pdfrwt beam="2">  1       -2 0.78393843E-01 0.20416486E+04</pdfrwt>
<totfact> 0.84465331E+00</totfact>
</mgrwt>
</event>
<event>
 6    1  0.2003386E-005  0.1383006E+04  0.7818608E-02  0.8966212E-01
          4   -1    0    0  501    0  0.00000000000E+00  0.00000000000E+00  0.56087450226E+03  0.56087450226E+03  0.00000000000E+00 0. -1.
         -4   -1    0    0    0  501 -0.00000000000E+00 -0.00000000000E+00 -0.85255489325E+03  0.85255489325E+03  0.00000000000E+00 0.  1.
         23    2    1    2    0    0 -0.67290888085E+03 -0.43243339953E+02 -0.28095586463E+03  0.73904718649E+03  0.11215256400E+03 0.  0.
         11    1    3    3    0    0 -0.96206851255E+02  0.19914465282E+02 -0.74342437163E+02  0.12320366114E+03  0.00000000000E+00 0.  1.
        -11    1    3    3    0    0 -0.57670202959E+03 -0.63157805235E+02 -0.20661342747E+03  0.61584352534E+03  0.00000000000E+00 0. -1.
         22    1    1    2    0    0  0.67290888085E+03  0.43243339953E+02 -0.10724526364E+02  0.67438220902E+03  0.00000000000E+00 0. -1.
<mgrwt>
<rscale>  0 0.13830059E+04</rscale>
<asrwt>0</asrwt>
<pdfrwt beam="1">  1        4 0.86288386E-01 0.13830059E+04</pdfrwt>
<pdfrwt beam="2">  1       -4 0.13116229E+00 0.13830059E+04</pdfrwt>
<totfact> 0.96058664E-01</totfact>
</mgrwt>
</event>
<event>
 6    1  0.2003386E-005  0.2433164E+04  0.7818608E-02  0.8427191E-01
         -2   -1    0    0    0  501 -0.00000000000E+00  0.00000000000E+00  0.62909730852E+03  0.62909730852E+03  0.00000000000E+00 0. -1.
          2   -1    0    0  501    0  0.00000000000E+00 -0.00000000000E+00 -0.23526919887E+04  0.23526919887E+04  0.00000000000E+00 0.  1.
         23    2    1    2    0    0  0.82759977371E+03 -0.40545739894E+03 -0.18330703955E+04  0.20537257110E+04  0.91242168280E+02 0.  0.
         11    1    3    3    0    0  0.70653986160E+03 -0.31541526162E+03 -0.14892395407E+04  0.16782490199E+04  0.00000000000E+00 0.  1.
        -11    1    3    3    0    0  0.12105991212E+03 -0.90042137314E+02 -0.34383085477E+03  0.37547669103E+03  0.00000000000E+00 0. -1.
         22    1    1    2    0    0 -0.82759977371E+03  0.40545739894E+03  0.10947571535E+03  0.92806358621E+03  0.00000000000E+00 0. -1.
<mgrwt>
<rscale>  0 0.24331644E+04</rscale>
<asrwt>0</asrwt>
<pdfrwt beam="1">  1        2 0.36195261E+00 0.24331644E+04</pdfrwt>
<pdfrwt beam="2">  1       -2 0.96784203E-01 0.24331644E+04</pdfrwt>
<totfact> 0.33849475E+00</totfact>
</mgrwt>
</event>
<event>
 6    1  0.2003386E-005  0.1423474E+04  0.7818608E-02  0.8937000E-01
         -2   -1    0    0    0  501 -0.00000000000E+00  0.00000000000E+00  0.61976758304E+03  0.61976758304E+03  0.00000000000E+00 0.  1.
          2   -1    0    0  501    0  0.00000000000E+00 -0.00000000000E+00 -0.81735443482E+03  0.81735443482E+03  0.00000000000E+00 0. -1.
         23    2    1    2    0    0 -0.64799936476E+03 -0.87469697198E+02  0.17714947739E+03  0.68347658329E+03  0.90576917080E+02 0.  0.
         11    1    3    3    0    0 -0.59625260070E+03 -0.10372908579E+03  0.17091091268E+03  0.62887791116E+03  0.00000000000E+00 0. -1.
        -11    1    3    3    0    0 -0.51746764066E+02  0.16259388588E+02  0.62385647100E+01  0.54598672128E+02  0.00000000000E+00 0.  1.
         22    1    1    2    0    0  0.64799936476E+03  0.87469697198E+02 -0.37473632916E+03  0.75364543457E+03  0.00000000000E+00 0. -1.
<mgrwt>
<rscale>  0 0.14234743E+04</rscale>
<asrwt>0</asrwt>
<pdfrwt beam="1">  1        2 0.12574684E+00 0.14234743E+04</pdfrwt>
<pdfrwt beam="2">  1       -2 0.95348859E-01 0.14234743E+04</pdfrwt>
<totfact> 0.30059764E+01</totfact>
</mgrwt>
</event>
<event>
 6    1  0.2325723E-005  0.2953113E+04  0.7818608E-02  0.8257248E-01
         -2   -1    0    0    0  501 -0.00000000000E+00  0.00000000000E+00  0.76501938059E+03  0.76501938059E+03  0.00000000000E+00 0.  1.
          2   -1    0    0  501    0  0.00000000000E+00 -0.00000000000E+00 -0.28498877611E+04  0.28498877611E+04  0.00000000000E+00 0. -1.
         23    2    1    2    0    0  0.75758682529E+03 -0.11680580566E+03 -0.25862282565E+04  0.26989687598E+04  0.90963608038E+02 0.  0.
         13    1    3    3    0    0  0.29180852330E+03 -0.35073252888E+01 -0.92244398176E+03  0.96750577005E+03  0.00000000000E+00 0. -1.
        -13    1    3    3    0    0  0.46577830199E+03 -0.11329848037E+03 -0.16637842747E+04  0.17314629898E+04  0.00000000000E+00 0.  1.
         22    1    1    2    0    0 -0.75758682529E+03  0.11680580566E+03  0.50135987596E+03  0.91593838183E+03  0.00000000000E+00 0.  1.
<mgrwt>
<rscale>  0 0.29531132E+04</rscale>
<asrwt>0</asrwt>
<pdfrwt beam="1">  1        2 0.43844426E+00 0.29531132E+04</pdfrwt>
<pdfrwt beam="2">  1       -2 0.11769529E+00 0.29531132E+04</pdfrwt>
<totfact> 0.10318741E+00</totfact>
</mgrwt>
</event>
<event>
 6    1  0.2003386E-005  0.1367668E+04  0.7818608E-02  0.8977561E-01
         -2   -1    0    0    0  501 -0.00000000000E+00  0.00000000000E+00  0.37004689133E+03  0.37004689133E+03  0.00000000000E+00 0.  1.
          2   -1    0    0  501    0  0.00000000000E+00 -0.00000000000E+00 -0.12637013944E+04  0.12637013944E+04  0.00000000000E+00 0. -1.
         23    2    1    2    0    0 -0.43091941314E+03 -0.50674528318E+03 -0.62225879519E+03  0.91532086914E+03  0.90133027486E+02 0.  0.
         13    1    3    3    0    0 -0.40408557167E+03 -0.44945502247E+03 -0.53253221213E+03  0.80553430927E+03  0.00000000000E+00 0.  1.
        -13    1    3    3    0    0 -0.26833841470E+02 -0.57290260711E+02 -0.89726583057E+02  0.10978655987E+03  0.00000000000E+00 0. -1.
         22    1    1    2    0    0  0.43091941314E+03  0.50674528318E+03 -0.27139570786E+03  0.71842741658E+03  0.00000000000E+00 0.  1.
<mgrwt>
<rscale>  0 0.13676678E+04</rscale>
<asrwt>0</asrwt>
<pdfrwt beam="1">  1        2 0.19441560E+00 0.13676678E+04</pdfrwt>
<pdfrwt beam="2">  1       -2 0.56930291E-01 0.13676678E+04</pdfrwt>
<totfact> 0.48992313E+01</totfact>
</mgrwt>
</event>
<event>
 6    1  0.2003386E-005  0.2648633E+04  0.7818608E-02  0.8351867E-01
          2   -1    0    0  501    0  0.00000000000E+00  0.00000000000E+00  0.20014753343E+04  0.20014753343E+04  0.00000000000E+00 0. -1.
         -2   -1    0    0    0  501 -0.00000000000E+00 -0.00000000000E+00 -0.87626064381E+03  0.87626064381E+03  0.00000000000E+00 0.  1.
         23    2    1    2    0    0  0.70365435440E+03  0.40723367441E+03  0.16969226696E+04  0.18838452751E+04  0.91420774870E+02 0.  0.
         13    1    3    3    0    0  0.41050479198E+03  0.28892123705E+03  0.10465487053E+04  0.11607126509E+04  0.00000000000E+00 0.  1.
        -13    1    3    3    0    0  0.29314956242E+03  0.11831243736E+03  0.65037396424E+03  0.72313262417E+03  0.00000000000E+00 0. -1.
         22    1    1    2    0    0 -0.70365435440E+03 -0.40723367441E+03 -0.57170797911E+03  0.99389070296E+03  0.00000000000E+00 0.  1.
<mgrwt>
<rscale>  0 0.26486329E+04</rscale>
<asrwt>0</asrwt>
<pdfrwt beam="1">  1        2 0.30791928E+00 0.26486329E+04</pdfrwt>
<pdfrwt beam="2">  1       -2 0.13480933E+00 0.26486329E+04</pdfrwt>
<totfact> 0.23263179E+00</totfact>
</mgrwt>
</event>
<event>
 6    1  0.2846105E-005  0.3590604E+04  0.7818608E-02  0.8092647E-01
          2   -1    0    0  501    0  0.00000000000E+00  0.00000000000E+00  0.15063263280E+04  0.15063263280E+04  0.00000000000E+00 0. -1.
         -2   -1    0    0    0  501 -0.00000000000E+00 -0.00000000000E+00 -0.21397151680E+04  0.21397151680E+04  0.00000000000E+00 0.  1.
         23    2    1    2    0    0 -0.89900564473E+03  0.48805716182E+03  0.11798479867E+04  0.15641580382E+04  0.90211718484E+02 0.  0.
         11    1    3    3    0    0 -0.58703390103E+03  0.35998587805E+03  0.75827430316E+03  0.10242941727E+04  0.00000000000E+00 0. -1.
        -11    1    3    3    0    0 -0.31197174370E+03  0.12807128377E+03  0.42157368356E+03  0.53986386550E+03  0.00000000000E+00 0.  1.
         22    1    1    2    0    0  0.89900564473E+03 -0.48805716182E+03 -0.18132368267E+04  0.20818834579E+04  0.00000000000E+00 0.  1.
<mgrwt>
<rscale>  0 0.35906040E+04</rscale>
<asrwt>0</asrwt>
<pdfrwt beam="1">  1        2 0.23174251E+00 0.35906040E+04</pdfrwt>
<pdfrwt beam="2">  1       -2 0.32918695E+00 0.35906040E+04</pdfrwt>
<totfact> 0.21560961E-01</totfact>
</mgrwt>
</event>
<event>
 6    1  0.2003386E-005  0.7459185E+03  0.7818608E-02  0.9641775E-01
          2   -1    0    0  501    0  0.00000000000E+00  0.00000000000E+00  0.86317490063E+03  0.86317490063E+03  0.00000000000E+00 0. -1.
         -2   -1    0    0    0  501 -0.00000000000E+00 -0.00000000000E+00 -0.16114764632E+03  0.16114764632E+03  0.00000000000E+00 0.  1.
         23    2    1    2    0    0 -0.13720236793E+01 -0.36640462681E+03  0.32040120276E+03  0.49527370590E+03  0.91568990530E+02 0.  0.
         11    1    3    3    0    0 -0.39509584216E+02 -0.25737204144E+03  0.19919409793E+03  0.32784091204E+03  0.00000000000E+00 0. -1.
        -11    1    3    3    0    0  0.38137560536E+02 -0.10903258537E+03  0.12120710483E+03  0.16743279386E+03  0.00000000000E+00 0.  1.
         22    1    1    2    0    0  0.13720236793E+01  0.36640462681E+03  0.38162605155E+03  0.52904884105E+03  0.00000000000E+00 0. -1.
<mgrwt>
<rscale>  0 0.74591850E+03</rscale>
<asrwt>0</asrwt>
<pdfrwt beam="1">  1        2 0.13279614E+00 0.74591850E+03</pdfrwt>
<pdfrwt beam="2">  1       -2 0.24791946E-01 0.74591850E+03</pdfrwt>
<totfact> 0.45472375E+02</totfact>
</mgrwt>
</event>
<event>
 6    1  0.2003386E-005  0.3402191E+04  0.7818608E-02  0.8137369E-01
         -2   -1    0    0    0  501 -0.00000000000E+00  0.00000000000E+00  0.12423553047E+04  0.12423553047E+04  0.00000000000E+00 0.  1.
          2   -1    0    0  501    0  0.00000000000E+00 -0.00000000000E+00 -0.23292252329E+04  0.23292252329E+04  0.00000000000E+00 0. -1.
         23    2    1    2    0    0  0.17832132559E+03  0.59198440285E+03  0.11184761902E+04  0.12812103644E+04  0.90922941793E+02 0.  0.
         13    1    3    3    0    0  0.74622823900E+02  0.30081403897E+03  0.47222698887E+03  0.56485040578E+03  0.00000000000E+00 0. -1.
        -13    1    3    3    0    0  0.10369850169E+03  0.29117036388E+03  0.64624920135E+03  0.71635995861E+03  0.00000000000E+00 0.  1.
         22    1    1    2    0    0 -0.17832132559E+03 -0.59198440285E+03 -0.22053461184E+04  0.22903701732E+04  0.00000000000E+00 0. -1.
<mgrwt>
<rscale>  0 0.34021907E+04</rscale>
<asrwt>0</asrwt>
<pdfrwt beam="1">  1        2 0.35834234E+00 0.34021907E+04</pdfrwt>
<pdfrwt beam="2">  1       -2 0.19113159E+00 0.34021907E+04</pdfrwt>
<totfact> 0.55047972E-01</totfact>
</mgrwt>
</event>
<event>
 6    1  0.2003386E-005  0.2321709E+04  0.7818608E-02  0.8469411E-01
          2   -1    0    0  501    0  0.00000000000E+00  0.00000000000E+00  0.61214813430E+03  0.61214813430E+03  0.00000000000E+00 0. -1.
         -2   -1    0    0    0  501 -0.00000000000E+00 -0.00000000000E+00 -0.22013996501E+04  0.22013996501E+04  0.00000000000E+00 0.  1.
         23    2    1    2    0    0 -0.84969046141E+03 -0.37129814440E+03  0.46885863426E+02  0.93291445598E+03  0.91076373117E+02 0.  0.
         11    1    3    3    0    0 -0.80212826698E+03 -0.36739685006E+03  0.57105881996E+02  0.88411044779E+03  0.00000000000E+00 0. -1.
        -11    1    3    3    0    0 -0.47562194427E+02 -0.39012943440E+01 -0.10220018570E+02  0.48804008194E+02  0.00000000000E+00 0.  1.
         22    1    1    2    0    0  0.84969046141E+03  0.37129814440E+03 -0.16361373792E+04  0.18806333284E+04  0.00000000000E+00 0.  1.
<mgrwt>
<rscale>  0 0.23217086E+04</rscale>
<asrwt>0</asrwt>
<pdfrwt beam="1">  1        2 0.94176636E-01 0.23217086E+04</pdfrwt>
<pdfrwt beam="2">  1       -2 0.33867687E+00 0.23217086E+04</pdfrwt>
<totfact> 0.80351659E-01</totfact>
</mgrwt>
</event>
<event>
 6    1  0.2003386E-005  0.1625446E+04  0.7818608E-02  0.8805066E-01
         -2   -1    0    0    0  501 -0.00000000000E+00  0.00000000000E+00  0.61973106907E+03  0.61973106907E+03  0.00000000000E+00 0.  1.
          2   -1    0    0  501    0  0.00000000000E+00 -0.00000000000E+00 -0.10658147964E+04  0.10658147964E+04  0.00000000000E+00 0. -1.
         23    2    1    2    0    0 -0.32787739934E+03  0.34725083831E+03  0.45495178115E+03  0.66576563364E+03  0.90421358428E+02 0.  0.
         11    1    3    3    0    0 -0.12853920482E+03  0.20197577162E+03  0.22480718020E+03  0.32841255726E+03  0.00000000000E+00 0.  1.
        -11    1    3    3    0    0 -0.19933819452E+03  0.14527506669E+03  0.23014460095E+03  0.33735307638E+03  0.00000000000E+00 0. -1.
         22    1    1    2    0    0  0.32787739934E+03 -0.34725083831E+03 -0.90103550852E+03  0.10197802319E+04  0.00000000000E+00 0. -1.
<mgrwt>
<rscale>  0 0.16254458E+04</rscale>
<asrwt>0</asrwt>
<pdfrwt beam="1">  1        2 0.16397151E+00 0.16254458E+04</pdfrwt>
<pdfrwt beam="2">  1       -2 0.95343242E-01 0.16254458E+04</pdfrwt>
<totfact> 0.20240551E+01</totfact>
</mgrwt>
</event>
<event>
 6    1  0.2003386E-005  0.6770274E+04  0.7818608E-02  0.7601602E-01
          2   -1    0    0  501    0  0.00000000000E+00  0.00000000000E+00  0.23852697045E+04  0.23852697045E+04  0.00000000000E+00 0. -1.
         -2   -1    0    0    0  501 -0.00000000000E+00 -0.00000000000E+00 -0.48041332308E+04  0.48041332308E+04  0.00000000000E+00 0.  1.
         23    2    1    2    0    0  0.20500079053E+04  0.18505191789E+04 -0.32872977335E+04  0.42943845217E+04  0.91969495682E+02 0.  0.
         13    1    3    3    0    0  0.74190406456E+03  0.65468311600E+03 -0.11119057698E+04  0.14884105832E+04  0.00000000000E+00 0.  1.
        -13    1    3    3    0    0  0.13081038407E+04  0.11958360629E+04 -0.21753919637E+04  0.28059739385E+04  0.00000000000E+00 0. -1.
         22    1    1    2    0    0 -0.20500079053E+04 -0.18505191789E+04  0.86843420719E+03  0.28950184136E+04  0.00000000000E+00 0. -1.
<mgrwt>
<rscale>  0 0.67702743E+04</rscale>
<asrwt>0</asrwt>
<pdfrwt beam="1">  1        2 0.36696457E+00 0.67702743E+04</pdfrwt>
<pdfrwt beam="2">  1       -2 0.73909742E+00 0.67702743E+04</pdfrwt>
<totfact> 0.41968871E-04</totfact>
</mgrwt>
</event>
<event>
 6    1  0.2003386E-005  0.4181024E+04  0.7818608E-02  0.7968992E-01
          2   -1    0    0  501    0  0.00000000000E+00  0.00000000000E+00  0.24455078870E+04  0.24455078870E+04  0.00000000000E+00 0. -1.
         -2   -1    0    0    0  501 -0.00000000000E+00 -0.00000000000E+00 -0.17870485917E+04  0.17870485917E+04  0.00000000000E+00 0.  1.
         23    2    1    2    0    0  0.10787638998E+04 -0.48297671904E+03 -0.14149629470E+04  0.18459107452E+04  0.90930056381E+02 0.  0.
         13    1    3    3    0    0  0.73899441398E+03 -0.30864272733E+03 -0.10151694924E+04  0.12930360302E+04  0.00000000000E+00 0.  1.
        -13    1    3    3    0    0  0.33976948580E+03 -0.17433399170E+03 -0.39979345465E+03  0.55287471503E+03  0.00000000000E+00 0. -1.
         22    1    1    2    0    0 -0.10787638998E+04  0.48297671904E+03  0.20734222423E+04  0.23866457336E+04  0.00000000000E+00 0. -1.
<mgrwt>
<rscale>  0 0.41810245E+04</rscale>
<asrwt>0</asrwt>
<pdfrwt beam="1">  1        2 0.37623198E+00 0.41810245E+04</pdfrwt>
<pdfrwt beam="2">  1       -2 0.27493055E+00 0.41810245E+04</pdfrwt>
<totfact> 0.13160035E-01</totfact>
</mgrwt>
</event>
<event>
 6    1  0.2003386E-005  0.2082762E+04  0.7818608E-02  0.8568875E-01
          2   -1    0    0  501    0  0.00000000000E+00  0.00000000000E+00  0.10905976241E+04  0.10905976241E+04  0.00000000000E+00 0.  1.
         -2   -1    0    0    0  501 -0.00000000000E+00 -0.00000000000E+00 -0.99438507149E+03  0.99438507149E+03  0.00000000000E+00 0. -1.
         23    2    1    2    0    0  0.48186571550E+03 -0.87803467450E+03  0.32615720983E+03  0.10573572760E+04  0.92121801325E+02 0.  0.
         11    1    3    3    0    0  0.25629701990E+03 -0.37231640854E+03  0.15173684396E+03  0.47679318398E+03  0.00000000000E+00 0.  1.
        -11    1    3    3    0    0  0.22556869560E+03 -0.50571826596E+03  0.17442036587E+03  0.58056409206E+03  0.00000000000E+00 0. -1.
         22    1    1    2    0    0 -0.48186571550E+03  0.87803467450E+03 -0.22994465727E+03  0.10276254195E+04  0.00000000000E+00 0. -1.
<mgrwt>
<rscale>  0 0.20827616E+04</rscale>
<asrwt>0</asrwt>
<pdfrwt beam="1">  1        2 0.16778425E+00 0.20827616E+04</pdfrwt>
<pdfrwt beam="2">  1       -2 0.15298232E+00 0.20827616E+04</pdfrwt>
<totfact> 0.57933394E+00</totfact>
</mgrwt>
</event>
<event>
 6    1  0.2003386E-005  0.1579959E+04  0.7818608E-02  0.8832955E-01
         -2   -1    0    0    0  501 -0.00000000000E+00  0.00000000000E+00  0.33317859710E+03  0.33317859710E+03  0.00000000000E+00 0.  1.
          2   -1    0    0  501    0  0.00000000000E+00 -0.00000000000E+00 -0.18730732116E+04  0.18730732116E+04  0.00000000000E+00 0. -1.
         23    2    1    2    0    0  0.69250830174E+03 -0.35566301197E+03 -0.93672506733E+03  0.12214282567E+04  0.91483377467E+02 0.  0.
         11    1    3    3    0    0  0.22881903039E+03 -0.79474629524E+02 -0.33056265725E+03  0.40981219574E+03  0.00000000000E+00 0. -1.
        -11    1    3    3    0    0  0.46368927134E+03 -0.27618838244E+03 -0.60616241009E+03  0.81161606093E+03  0.00000000000E+00 0.  1.
         22    1    1    2    0    0 -0.69250830174E+03  0.35566301197E+03 -0.60316954720E+03  0.98482355208E+03  0.00000000000E+00 0.  1.
<mgrwt>
<rscale>  0 0.15799594E+04</rscale>
<asrwt>0</asrwt>
<pdfrwt beam="1">  1        2 0.28816511E+00 0.15799594E+04</pdfrwt>
<pdfrwt beam="2">  1       -2 0.51258246E-01 0.15799594E+04</pdfrwt>
<totfact> 0.27147132E+01</totfact>
</mgrwt>
</event>
<event>
 6    1  0.2003386E-005  0.2095835E+04  0.7818608E-02  0.8563080E-01
          2   -1    0    0  501    0  0.00000000000E+00  0.00000000000E+00  0.15204858833E+04  0.15204858833E+04  0.00000000000E+00 0. -1.
         -2   -1    0    0    0  501 -0.00000000000E+00 -0.00000000000E+00 -0.72222370737E+03  0.72222370737E+03  0.00000000000E+00 0.  1.
         23    2    1    2    0    0 -0.49703452346E+03 -0.54318401728E+03 -0.39502691346E+03  0.84055730043E+03  0.91641250639E+02 0.  0.
         11    1    3    3    0    0 -0.32985434798E+03 -0.38184910033E+03 -0.31493286575E+03  0.59480697393E+03  0.00000000000E+00 0.  1.
        -11    1    3    3    0    0 -0.16718017548E+03 -0.16133491694E+03 -0.80094047715E+02  0.24575032650E+03  0.00000000000E+00 0. -1.
         22    1    1    2    0    0  0.49703452346E+03  0.54318401728E+03  0.11932890894E+04  0.14021522902E+04  0.00000000000E+00 0. -1.
<mgrwt>
<rscale>  0 0.20958349E+04</rscale>
<asrwt>0</asrwt>
<pdfrwt beam="1">  1        2 0.23392090E+00 0.20958349E+04</pdfrwt>
<pdfrwt beam="2">  1       -2 0.11111134E+00 0.20958349E+04</pdfrwt>
<totfact> 0.73069961E+00</totfact>
</mgrwt>
</event>
<event>
 6    1  0.2003386E-005  0.1518857E+04  0.7818608E-02  0.8872009E-01
          2   -1    0    0  501    0  0.00000000000E+00  0.00000000000E+00  0.18690080847E+04  0.18690080847E+04  0.00000000000E+00 0. -1.
         -2   -1    0    0    0  501 -0.00000000000E+00 -0.00000000000E+00 -0.30857646006E+03  0.30857646006E+03  0.00000000000E+00 0.  1.
         23    2    1    2    0    0 -0.18370993457E+03  0.72648916308E+03  0.63144068943E+03  0.98403521531E+03  0.89844958505E+02 0.  0.
         13    1    3    3    0    0 -0.97575837882E+01  0.14105682175E+03  0.88103678791E+02  0.16659680555E+03  0.00000000000E+00 0. -1.
        -13    1    3    3    0    0 -0.17395235078E+03  0.58543234133E+03  0.54333701064E+03  0.81743840976E+03  0.00000000000E+00 0.  1.
         22    1    1    2    0    0  0.18370993457E+03 -0.72648916308E+03  0.92899093521E+03  0.11935493295E+04  0.00000000000E+00 0. -1.
<mgrwt>
<rscale>  0 0.15188573E+04</rscale>
<asrwt>0</asrwt>
<pdfrwt beam="1">  1        2 0.28753970E+00 0.15188573E+04</pdfrwt>
<pdfrwt beam="2">  1       -2 0.47473303E-01 0.15188573E+04</pdfrwt>
<totfact> 0.32054326E+01</totfact>
</mgrwt>
</event>
<event>
 6    1  0.2003386E-005  0.2486378E+04  0.7818608E-02  0.8407854E-01
          2   -1    0    0  501    0  0.00000000000E+00  0.00000000000E+00  0.17617874026E+04  0.17617874026E+04  0.00000000000E+00 0. -1.
         -2   -1    0    0    0  501 -0.00000000000E+00 -0.00000000000E+00 -0.87724511832E+03  0.87724511832E+03  0.00000000000E+00 0.  1.
         23    2    1    2    0    0  0.10809711404E+04 -0.42227155439E+03  0.91103817621E+03  0.14782078553E+04  0.91082560753E+02 0.  0.
         13    1    3    3    0    0  0.57871528791E+03 -0.26950598215E+03  0.47393211229E+03  0.79508270384E+03  0.00000000000E+00 0. -1.
        -13    1    3    3    0    0  0.50225585251E+03 -0.15276557224E+03  0.43710606392E+03  0.68312515146E+03  0.00000000000E+00 0.  1.
         22    1    1    2    0    0 -0.10809711404E+04  0.42227155439E+03 -0.26495891917E+02  0.11608246656E+04  0.00000000000E+00 0.  1.
<mgrwt>
<rscale>  0 0.24863784E+04</rscale>
<asrwt>0</asrwt>
<pdfrwt beam="1">  1        2 0.27104422E+00 0.24863784E+04</pdfrwt>
<pdfrwt beam="2">  1       -2 0.13496079E+00 0.24863784E+04</pdfrwt>
<totfact> 0.31945249E+00</totfact>
</mgrwt>
</event>
<event>
 6    1  0.2003386E-005  0.3999148E+04  0.7818608E-02  0.8004719E-01
          2   -1    0    0  501    0  0.00000000000E+00  0.00000000000E+00  0.23856124822E+04  0.23856124822E+04  0.00000000000E+00 0. -1.
         -2   -1    0    0    0  501 -0.00000000000E+00 -0.00000000000E+00 -0.16760037046E+04  0.16760037046E+04  0.00000000000E+00 0.  1.
         23    2    1    2    0    0 -0.64351557641E+03 -0.40588168457E+03 -0.15223065392E+04  0.17035877264E+04  0.77082445267E+02 0.  0.
         13    1    3    3    0    0 -0.31014266459E+03 -0.22894538013E+03 -0.71063254689E+03  0.80845721976E+03  0.00000000000E+00 0.  1.
        -13    1    3    3    0    0 -0.33337291182E+03 -0.17693630444E+03 -0.81167399227E+03  0.89513050663E+03  0.00000000000E+00 0. -1.
         22    1    1    2    0    0  0.64351557641E+03  0.40588168457E+03  0.22319153167E+04  0.23580284604E+04  0.00000000000E+00 0. -1.
<mgrwt>
<rscale>  0 0.39991476E+04</rscale>
<asrwt>0</asrwt>
<pdfrwt beam="1">  1        2 0.36701730E+00 0.39991476E+04</pdfrwt>
<pdfrwt beam="2">  1       -2 0.25784672E+00 0.39991476E+04</pdfrwt>
<totfact> 0.18385043E-01</totfact>
</mgrwt>
</event>
<event>
 6    1  0.2003386E-005  0.8921969E+03  0.7818608E-02  0.9435389E-01
         -2   -1    0    0    0  501 -0.00000000000E+00  0.00000000000E+00  0.19967413148E+03  0.19967413148E+03  0.00000000000E+00 0.  1.
          2   -1    0    0  501    0  0.00000000000E+00 -0.00000000000E+00 -0.99664296782E+03  0.99664296782E+03  0.00000000000E+00 0. -1.
         23    2    1    2    0    0 -0.43942096103E+03  0.33936016890E+02 -0.42522358109E+03  0.61974362695E+03  0.94998078868E+02 0.  0.
         11    1    3    3    0    0 -0.25811172110E+03 -0.65109934388E+01 -0.29951712369E+03  0.39544223471E+03  0.00000000000E+00 0. -1.
        -11    1    3    3    0    0 -0.18130923993E+03  0.40447010329E+02 -0.12570645740E+03  0.22430139224E+03  0.00000000000E+00 0.  1.
         22    1    1    2    0    0  0.43942096103E+03 -0.33936016890E+02 -0.37174525525E+03  0.57657347236E+03  0.00000000000E+00 0. -1.
<mgrwt>
<rscale>  0 0.89219688E+03</rscale>
<asrwt>0</asrwt>
<pdfrwt beam="1">  1        2 0.15332969E+00 0.89219688E+03</pdfrwt>
<pdfrwt beam="2">  1       -2 0.30719097E-01 0.89219688E+03</pdfrwt>
<totfact> 0.24868844E+02</totfact>
</mgrwt>
</event>
<event>
 6    1  0.2003386E-005  0.9990314E+03  0.7818608E-02  0.9309608E-01
          2   -1    0    0  501    0  0.00000000000E+00  0.00000000000E+00  0.96879670344E+03  0.96879670344E+03  0.00000000000E+00 0. -1.
         -2   -1    0    0    0  501 -0.00000000000E+00 -0.00000000000E+00 -0.25755242497E+03  0.25755242497E+03  0.00000000000E+00 0.  1.
         23    2    1    2    0    0 -0.16915710664E+03 -0.13503581389E+03 -0.18832866228E+03  0.30110306736E+03  0.91359588321E+02 0.  0.
         13    1    3    3    0    0 -0.50389137648E+01 -0.48734855261E+02 -0.31477557299E+02  0.58234984183E+02  0.00000000000E+00 0. -1.
        -13    1    3    3    0    0 -0.16411819288E+03 -0.86300958631E+02 -0.15685110498E+03  0.24286808318E+03  0.00000000000E+00 0.  1.
         22    1    1    2    0    0  0.16915710664E+03  0.13503581389E+03  0.89957294075E+03  0.92524606105E+03  0.00000000000E+00 0. -1.
<mgrwt>
<rscale>  0 0.99903141E+03</rscale>
<asrwt>0</asrwt>
<pdfrwt beam="1">  1        2 0.14904564E+00 0.99903141E+03</pdfrwt>
<pdfrwt beam="2">  1       -2 0.39623451E-01 0.99903141E+03</pdfrwt>
<totfact> 0.15860295E+02</totfact>
</mgrwt>
</event>
<event>
 6    1  0.2003386E-005  0.2013831E+04  0.7818608E-02  0.8600181E-01
         -2   -1    0    0    0  501 -0.00000000000E+00  0.00000000000E+00  0.11491756411E+04  0.11491756411E+04  0.00000000000E+00 0. -1.
          2   -1    0    0  501    0  0.00000000000E+00 -0.00000000000E+00 -0.88226611624E+03  0.88226611624E+03  0.00000000000E+00 0.  1.
         23    2    1    2    0    0  0.33239867712E+03 -0.82956087301E+03 -0.32904681982E+03  0.95727971775E+03  0.97224100925E+02 0.  0.
         13    1    3    3    0    0  0.23989920286E+03 -0.47108150678E+03 -0.19984688386E+03  0.56516209228E+03  0.00000000000E+00 0. -1.
        -13    1    3    3    0    0  0.92499474260E+02 -0.35847936622E+03 -0.12919993596E+03  0.39211762546E+03  0.00000000000E+00 0.  1.
         22    1    1    2    0    0 -0.33239867712E+03  0.82956087301E+03  0.59595634470E+03  0.10741620396E+04  0.00000000000E+00 0. -1.
<mgrwt>
<rscale>  0 0.20138309E+04</rscale>
<asrwt>0</asrwt>
<pdfrwt beam="1">  1        2 0.13573325E+00 0.20138309E+04</pdfrwt>
<pdfrwt beam="2">  1       -2 0.17679625E+00 0.20138309E+04</pdfrwt>
<totfact> 0.53382029E+00</totfact>
</mgrwt>
</event>
<event>
 6    1  0.2003386E-005  0.2807848E+04  0.7818608E-02  0.8300836E-01
          1   -1    0    0  501    0  0.00000000000E+00  0.00000000000E+00  0.10919906326E+04  0.10919906326E+04  0.00000000000E+00 0. -1.
         -1   -1    0    0    0  501 -0.00000000000E+00 -0.00000000000E+00 -0.18049631854E+04  0.18049631854E+04  0.00000000000E+00 0.  1.
         23    2    1    2    0    0 -0.79199240218E+03 -0.80835276902E+03  0.49770681979E+03  0.12397179544E+04  0.92208263117E+02 0.  0.
         11    1    3    3    0    0 -0.33097202623E+03 -0.29523794517E+03  0.23180238501E+03  0.50044007844E+03  0.00000000000E+00 0. -1.
        -11    1    3    3    0    0 -0.46102037596E+03 -0.51311482385E+03  0.26590443478E+03  0.73927787599E+03  0.00000000000E+00 0.  1.
         22    1    1    2    0    0  0.79199240218E+03  0.80835276902E+03 -0.12106793726E+04  0.16572358636E+04  0.00000000000E+00 0.  1.
<mgrwt>
<rscale>  0 0.28078482E+04</rscale>
<asrwt>0</asrwt>
<pdfrwt beam="1">  1        1 0.16799856E+00 0.28078482E+04</pdfrwt>
<pdfrwt beam="2">  1       -1 0.27768664E+00 0.28078482E+04</pdfrwt>
<totfact> 0.51237923E-01</totfact>
</mgrwt>
</event>
<event>
 6    1  0.2003386E-005  0.1005593E+04  0.7818608E-02  0.9302431E-01
         -2   -1    0    0    0  501 -0.00000000000E+00  0.00000000000E+00  0.18957035559E+03  0.18957035559E+03  0.00000000000E+00 0.  1.
          2   -1    0    0  501    0  0.00000000000E+00 -0.00000000000E+00 -0.13335656725E+04  0.13335656725E+04  0.00000000000E+00 0. -1.
         23    2    1    2    0    0  0.38538863558E+03 -0.22915584054E+03 -0.24708098057E+03  0.52039372501E+03  0.93401383172E+02 0.  0.
         13    1    3    3    0    0  0.18533770819E+03 -0.60456146861E+02 -0.12542099142E+03  0.23180905259E+03  0.00000000000E+00 0. -1.
        -13    1    3    3    0    0  0.20005092738E+03 -0.16869969368E+03 -0.12165998915E+03  0.28858467242E+03  0.00000000000E+00 0.  1.
         22    1    1    2    0    0 -0.38538863558E+03  0.22915584054E+03 -0.89691433637E+03  0.10027423031E+04  0.00000000000E+00 0. -1.
<mgrwt>
<rscale>  0 0.10055934E+04</rscale>
<asrwt>0</asrwt>
<pdfrwt beam="1">  1        2 0.20516396E+00 0.10055934E+04</pdfrwt>
<pdfrwt beam="2">  1       -2 0.29164669E-01 0.10055934E+04</pdfrwt>
<totfact> 0.17027351E+02</totfact>
</mgrwt>
</event>
<event>
 6    1  0.2003386E-005  0.2834959E+04  0.7818608E-02  0.8292497E-01
         -2   -1    0    0    0  501 -0.00000000000E+00  0.00000000000E+00  0.69289481601E+03  0.69289481601E+03  0.00000000000E+00 0. -1.
          2   -1    0    0  501    0  0.00000000000E+00 -0.00000000000E+00 -0.28997872585E+04  0.28997872585E+04  0.00000000000E+00 0.  1.
         23    2    1    2    0    0 -0.96519204473E+02  0.14069971423E+04 -0.12686935819E+04  0.18988184385E+04  0.83493367581E+02 0.  0.
         11    1    3    3    0    0  0.19553617031E+01  0.56570330092E+03 -0.51398828956E+03  0.76433501157E+03  0.00000000000E+00 0.  1.
        -11    1    3    3    0    0 -0.98474566176E+02  0.84129384140E+03 -0.75470529229E+03  0.11344834269E+04  0.00000000000E+00 0. -1.
         22    1    1    2    0    0  0.96519204473E+02 -0.14069971423E+04 -0.93819886066E+03  0.16938636360E+04  0.00000000000E+00 0.  1.
<mgrwt>
<rscale>  0 0.28349586E+04</rscale>
<asrwt>0</asrwt>
<pdfrwt beam="1">  1        2 0.44612112E+00 0.28349586E+04</pdfrwt>
<pdfrwt beam="2">  1       -2 0.10659920E+00 0.28349586E+04</pdfrwt>
<totfact> 0.12354699E+00</totfact>
</mgrwt>
</event>
<event>
 6    1  0.2003386E-005  0.7452675E+04  0.7818608E-02  0.7532471E-01
         -2   -1    0    0    0  501 -0.00000000000E+00  0.00000000000E+00  0.46417267210E+04  0.46417267210E+04  0.00000000000E+00 0.  1.
          2   -1    0    0  501    0  0.00000000000E+00 -0.00000000000E+00 -0.29914708214E+04  0.29914708214E+04  0.00000000000E+00 0. -1.
         23    2    1    2    0    0 -0.13038534025E+04  0.32195600281E+04 -0.55496220773E+03  0.35187610839E+04  0.89978020107E+02 0.  0.
         11    1    3    3    0    0 -0.25234688623E+03  0.71549406971E+03 -0.13473987315E+03  0.77056183930E+03  0.00000000000E+00 0. -1.
        -11    1    3    3    0    0 -0.10515065163E+04  0.25040659584E+04 -0.42022233458E+03  0.27481992446E+04  0.00000000000E+00 0.  1.
         22    1    1    2    0    0  0.13038534025E+04 -0.32195600281E+04  0.22052181073E+04  0.41144364584E+04  0.00000000000E+00 0.  1.
<mgrwt>
<rscale>  0 0.74526747E+04</rscale>
<asrwt>0</asrwt>
<pdfrwt beam="1">  1        2 0.46022628E+00 0.74526747E+04</pdfrwt>
<pdfrwt beam="2">  1       -2 0.71411180E+00 0.74526747E+04</pdfrwt>
<totfact> 0.22028963E-04</totfact>
</mgrwt>
</event>
<event>
 6    1  0.2003386E-005  0.1154961E+04  0.7818608E-02  0.9153219E-01
          1   -1    0    0  501    0  0.00000000000E+00  0.00000000000E+00  0.18042384396E+03  0.18042384396E+03  0.00000000000E+00 0. -1.
         -1   -1    0    0    0  501 -0.00000000000E+00 -0.00000000000E+00 -0.18483343999E+04  0.18483343999E+04  0.00000000000E+00 0.  1.
         23    2    1    2    0    0 -0.54319368647E+03 -0.16447137462E+03 -0.98866430878E+03  0.11436109802E+04  0.90987606162E+02 0.  0.
         11    1    3    3    0    0 -0.33410501476E+03 -0.54924392640E+02 -0.56933330000E+03  0.66240716805E+03  0.00000000000E+00 0. -1.
        -11    1    3    3    0    0 -0.20908867171E+03 -0.10954698198E+03 -0.41933100878E+03  0.48120381215E+03  0.00000000000E+00 0.  1.
         22    1    1    2    0    0  0.54319368647E+03  0.16447137462E+03 -0.67924624715E+03  0.88514726366E+03  0.00000000000E+00 0. -1.
<mgrwt>
<rscale>  0 0.11549608E+04</rscale>
<asrwt>0</asrwt>
<pdfrwt beam="1">  1        1 0.27757517E-01 0.11549608E+04</pdfrwt>
<pdfrwt beam="2">  1       -1 0.28435912E+00 0.11549608E+04</pdfrwt>
<totfact> 0.70918813E+00</totfact>
</mgrwt>
</event>
<event>
 6    1  0.2003386E-005  0.1449277E+04  0.7818608E-02  0.8918902E-01
         -2   -1    0    0    0  501 -0.00000000000E+00  0.00000000000E+00  0.71909055676E+03  0.71909055676E+03  0.00000000000E+00 0.  1.
          2   -1    0    0  501    0  0.00000000000E+00 -0.00000000000E+00 -0.73022892623E+03  0.73022892623E+03  0.00000000000E+00 0. -1.
         23    2    1    2    0    0 -0.34463743832E+03 -0.29546013331E+03 -0.56667425663E+03  0.73189926011E+03  0.92114925846E+02 0.  0.
         13    1    3    3    0    0 -0.15640699152E+03 -0.13167544932E+03 -0.32869710478E+03  0.38709605739E+03  0.00000000000E+00 0. -1.
        -13    1    3    3    0    0 -0.18823044680E+03 -0.16378468399E+03 -0.23797715184E+03  0.34480320273E+03  0.00000000000E+00 0.  1.
         22    1    1    2    0    0  0.34463743832E+03  0.29546013331E+03  0.55553588716E+03  0.71742022287E+03  0.00000000000E+00 0.  1.
<mgrwt>
<rscale>  0 0.14492767E+04</rscale>
<asrwt>0</asrwt>
<pdfrwt beam="1">  1        2 0.11234291E+00 0.14492767E+04</pdfrwt>
<pdfrwt beam="2">  1       -2 0.11062932E+00 0.14492767E+04</pdfrwt>
<totfact> 0.24396500E+01</totfact>
</mgrwt>
</event>
<event>
 6    1  0.2204525E-005  0.2575002E+04  0.7818608E-02  0.8376742E-01
         -2   -1    0    0    0  501 -0.00000000000E+00  0.00000000000E+00  0.12266487666E+04  0.12266487666E+04  0.00000000000E+00 0.  1.
          2   -1    0    0  501    0  0.00000000000E+00 -0.00000000000E+00 -0.13513721277E+04  0.13513721277E+04  0.00000000000E+00 0. -1.
         23    2    1    2    0    0  0.32781878187E+03 -0.11060288663E+04  0.50739595876E+03  0.12625970685E+04  0.77043440138E+02 0.  0.
         11    1    3    3    0    0  0.12980875177E+03 -0.56791020175E+03  0.26767985483E+03  0.64111216957E+03  0.00000000000E+00 0.  1.
        -11    1    3    3    0    0  0.19801003010E+03 -0.53811866456E+03  0.23971610393E+03  0.62148489897E+03  0.00000000000E+00 0. -1.
         22    1    1    2    0    0 -0.32781878187E+03  0.11060288663E+04 -0.63211931988E+03  0.13154238258E+04  0.00000000000E+00 0. -1.
<mgrwt>
<rscale>  0 0.25750021E+04</rscale>
<asrwt>0</asrwt>
<pdfrwt beam="1">  1        2 0.20790340E+00 0.25750021E+04</pdfrwt>
<pdfrwt beam="2">  1       -2 0.18871520E+00 0.25750021E+04</pdfrwt>
<totfact> 0.21632448E+00</totfact>
</mgrwt>
</event>
<event>
 6    1  0.2003386E-005  0.1175012E+04  0.7818608E-02  0.9135014E-01
          2   -1    0    0  501    0  0.00000000000E+00  0.00000000000E+00  0.24015133122E+04  0.24015133122E+04  0.00000000000E+00 0. -1.
         -2   -1    0    0    0  501 -0.00000000000E+00 -0.00000000000E+00 -0.14372738365E+03  0.14372738365E+03  0.00000000000E+00 0.  1.
         23    2    1    2    0    0  0.40384376766E+03 -0.42025643156E+03  0.10968131840E+04  0.12461783531E+04  0.10127225691E+03 0.  0.
         13    1    3    3    0    0  0.24311437937E+03 -0.29577924195E+03  0.63324581785E+03  0.73999339676E+03  0.00000000000E+00 0.  1.
        -13    1    3    3    0    0  0.16072938829E+03 -0.12447718961E+03  0.46356736619E+03  0.50618495630E+03  0.00000000000E+00 0. -1.
         22    1    1    2    0    0 -0.40384376766E+03  0.42025643156E+03  0.11609727445E+04  0.12990623428E+04  0.00000000000E+00 0. -1.
<mgrwt>
<rscale>  0 0.11750119E+04</rscale>
<asrwt>0</asrwt>
<pdfrwt beam="1">  1        2 0.36946356E+00 0.11750119E+04</pdfrwt>
<pdfrwt beam="2">  1       -2 0.22111907E-01 0.11750119E+04</pdfrwt>
<totfact> 0.70556200E+01</totfact>
</mgrwt>
</event>
<event>
 6    1  0.2003386E-005  0.9392026E+03  0.7818608E-02  0.9377861E-01
         -2   -1    0    0    0  501 -0.00000000000E+00  0.00000000000E+00  0.14988856454E+03  0.14988856454E+03  0.00000000000E+00 0.  1.
          2   -1    0    0  501    0  0.00000000000E+00 -0.00000000000E+00 -0.14712622678E+04  0.14712622678E+04  0.00000000000E+00 0. -1.
         23    2    1    2    0    0  0.33071165174E+03  0.15762542314E+03 -0.17237303145E+03  0.41515808177E+03  0.91803051521E+02 0.  0.
         11    1    3    3    0    0  0.26064350115E+03  0.13540818925E+03 -0.17445759163E+03  0.34162239927E+03  0.00000000000E+00 0. -1.
        -11    1    3    3    0    0  0.70068150589E+02  0.22217233897E+02  0.20845601809E+01  0.73535682496E+02  0.00000000000E+00 0.  1.
         22    1    1    2    0    0 -0.33071165174E+03 -0.15762542314E+03 -0.11490006718E+04  0.12059927506E+04  0.00000000000E+00 0. -1.
<mgrwt>
<rscale>  0 0.93920262E+03</rscale>
<asrwt>0</asrwt>
<pdfrwt beam="1">  1        2 0.22634804E+00 0.93920262E+03</pdfrwt>
<pdfrwt beam="2">  1       -2 0.23059779E-01 0.93920262E+03</pdfrwt>
<totfact> 0.21884571E+02</totfact>
</mgrwt>
</event>
<event>
 6    1  0.2003386E-005  0.2424706E+04  0.7818608E-02  0.8430311E-01
         -2   -1    0    0    0  501 -0.00000000000E+00  0.00000000000E+00  0.83752712351E+03  0.83752712351E+03  0.00000000000E+00 0.  1.
          2   -1    0    0  501    0  0.00000000000E+00 -0.00000000000E+00 -0.17549284479E+04  0.17549284479E+04  0.00000000000E+00 0. -1.
         23    2    1    2    0    0 -0.73455548298E+03 -0.81139626197E+03 -0.10124899244E+04  0.14938302971E+04  0.91964438780E+02 0.  0.
         11    1    3    3    0    0 -0.38548576593E+03 -0.43393566111E+03 -0.47471700616E+03  0.74983709541E+03  0.00000000000E+00 0.  1.
        -11    1    3    3    0    0 -0.34906971705E+03 -0.37746060087E+03 -0.53777291824E+03  0.74399320169E+03  0.00000000000E+00 0. -1.
         22    1    1    2    0    0  0.73455548298E+03  0.81139626197E+03  0.95088600009E+02  0.10986252743E+04  0.00000000000E+00 0.  1.
<mgrwt>
<rscale>  0 0.24247063E+04</rscale>
<asrwt>0</asrwt>
<pdfrwt beam="1">  1        2 0.26998899E+00 0.24247063E+04</pdfrwt>
<pdfrwt beam="2">  1       -2 0.12885033E+00 0.24247063E+04</pdfrwt>
<totfact> 0.36440620E+00</totfact>
</mgrwt>
</event>
<event>
 6    1  0.2003386E-005  0.1663867E+04  0.7818608E-02  0.8782245E-01
          2   -1    0    0  501    0  0.00000000000E+00  0.00000000000E+00  0.28765747716E+04  0.28765747716E+04  0.00000000000E+00 0. -1.
         -2   -1    0    0    0  501 -0.00000000000E+00 -0.00000000000E+00 -0.24060324036E+03  0.24060324036E+03  0.00000000000E+00 0.  1.
         23    2    1    2    0    0 -0.72899712103E+02  0.14364908150E+03  0.28462752845E+04  0.28522684137E+04  0.90568661853E+02 0.  0.
         11    1    3    3    0    0 -0.26164163312E+02  0.11179844763E+02  0.10946046819E+04  0.10949744115E+04  0.00000000000E+00 0. -1.
        -11    1    3    3    0    0 -0.46735548791E+02  0.13246923674E+03  0.17516706026E+04  0.17572940022E+04  0.00000000000E+00 0.  1.
         22    1    1    2    0    0  0.72899712103E+02 -0.14364908150E+03 -0.21030375318E+03  0.26490959825E+03  0.00000000000E+00 0.  1.
<mgrwt>
<rscale>  0 0.16638668E+04</rscale>
<asrwt>0</asrwt>
<pdfrwt beam="1">  1        2 0.44254994E+00 0.16638668E+04</pdfrwt>
<pdfrwt beam="2">  1       -2 0.37015885E-01 0.16638668E+04</pdfrwt>
<totfact> 0.13688107E+01</totfact>
</mgrwt>
</event>
<event>
 6    1  0.2003386E-005  0.3325173E+04  0.7818608E-02  0.8156520E-01
          2   -1    0    0  501    0  0.00000000000E+00  0.00000000000E+00  0.15022529322E+04  0.15022529322E+04  0.00000000000E+00 0. -1.
         -2   -1    0    0    0  501 -0.00000000000E+00 -0.00000000000E+00 -0.18400319588E+04  0.18400319588E+04  0.00000000000E+00 0.  1.
         23    2    1    2    0    0  0.86943449146E+03  0.11747507129E+04 -0.96306140990E+03  0.17526517159E+04  0.91351987981E+02 0.  0.
         11    1    3    3    0    0  0.33579183188E+03  0.52733908370E+03 -0.42450554620E+03  0.75567692985E+03  0.00000000000E+00 0.  1.
        -11    1    3    3    0    0  0.53364265958E+03  0.64741162920E+03 -0.53855586371E+03  0.99697478608E+03  0.00000000000E+00 0. -1.
         22    1    1    2    0    0 -0.86943449146E+03 -0.11747507129E+04  0.62528238331E+03  0.15896331751E+04  0.00000000000E+00 0. -1.
<mgrwt>
<rscale>  0 0.33251727E+04</rscale>
<asrwt>0</asrwt>
<pdfrwt beam="1">  1        2 0.23111584E+00 0.33251727E+04</pdfrwt>
<pdfrwt beam="2">  1       -2 0.28308184E+00 0.33251727E+04</pdfrwt>
<totfact> 0.42541716E-01</totfact>
</mgrwt>
</event>
<event>
 6    1  0.2003386E-005  0.2652534E+04  0.7818608E-02  0.8350572E-01
          2   -1    0    0  501    0  0.00000000000E+00  0.00000000000E+00  0.12797900770E+04  0.12797900770E+04  0.00000000000E+00 0. -1.
         -2   -1    0    0    0  501 -0.00000000000E+00 -0.00000000000E+00 -0.13744316582E+04  0.13744316582E+04  0.00000000000E+00 0.  1.
         23    2    1    2    0    0  0.85644507518E+03  0.45452501817E+03  0.85579808773E+03  0.12964932192E+04  0.91723179115E+02 0.  0.
         11    1    3    3    0    0  0.58402132761E+03  0.26083543477E+03  0.55729549350E+03  0.84834798415E+03  0.00000000000E+00 0. -1.
        -11    1    3    3    0    0  0.27242374758E+03  0.19368958340E+03  0.29850259424E+03  0.44814523508E+03  0.00000000000E+00 0.  1.
         22    1    1    2    0    0 -0.85644507518E+03 -0.45452501817E+03 -0.95043966890E+03  0.13577285160E+04  0.00000000000E+00 0.  1.
<mgrwt>
<rscale>  0 0.26525339E+04</rscale>
<asrwt>0</asrwt>
<pdfrwt beam="1">  1        2 0.19689078E+00 0.26525339E+04</pdfrwt>
<pdfrwt beam="2">  1       -2 0.21145102E+00 0.26525339E+04</pdfrwt>
<totfact> 0.16768252E+00</totfact>
</mgrwt>
</event>
<event>
 6    1  0.2003386E-005  0.1317075E+04  0.7818608E-02  0.9016133E-01
          2   -1    0    0  501    0  0.00000000000E+00  0.00000000000E+00  0.50139391593E+03  0.50139391593E+03  0.00000000000E+00 0. -1.
         -2   -1    0    0    0  501 -0.00000000000E+00 -0.00000000000E+00 -0.86493230111E+03  0.86493230111E+03  0.00000000000E+00 0.  1.
         23    2    1    2    0    0  0.36217801246E+03  0.49526170776E+03 -0.42175571378E+03  0.75000947280E+03  0.90439235366E+02 0.  0.
         11    1    3    3    0    0  0.27820471919E+03  0.35906598566E+03 -0.35560402687E+03  0.57687127833E+03  0.00000000000E+00 0.  1.
        -11    1    3    3    0    0  0.83973293263E+02  0.13619572210E+03 -0.66151686910E+02  0.17313819446E+03  0.00000000000E+00 0. -1.
         22    1    1    2    0    0 -0.36217801246E+03 -0.49526170776E+03  0.58217328598E+02  0.61631674424E+03  0.00000000000E+00 0. -1.
<mgrwt>
<rscale>  0 0.13170752E+04</rscale>
<asrwt>0</asrwt>
<pdfrwt beam="1">  1        2 0.77137526E-01 0.13170752E+04</pdfrwt>
<pdfrwt beam="2">  1       -2 0.13306651E+00 0.13170752E+04</pdfrwt>
<totfact> 0.24582186E+01</totfact>
</mgrwt>
</event>
<event>
 6    1  0.2003386E-005  0.2520197E+04  0.7818608E-02  0.8395825E-01
          2   -1    0    0  501    0  0.00000000000E+00  0.00000000000E+00  0.11826894302E+04  0.11826894302E+04  0.00000000000E+00 0. -1.
         -2   -1    0    0    0  501 -0.00000000000E+00 -0.00000000000E+00 -0.13425741061E+04  0.13425741061E+04  0.00000000000E+00 0.  1.
         23    2    1    2    0    0 -0.36958661623E+03  0.85835328053E+03 -0.92453035914E+03  0.13177671007E+04  0.91592170382E+02 0.  0.
         13    1    3    3    0    0 -0.12302159494E+03  0.26916577997E+03 -0.35344213124E+03  0.46098358980E+03  0.00000000000E+00 0. -1.
        -13    1    3    3    0    0 -0.24656502129E+03  0.58918750056E+03 -0.57108822790E+03  0.85678351092E+03  0.00000000000E+00 0.  1.
         22    1    1    2    0    0  0.36958661623E+03 -0.85835328053E+03  0.76464568326E+03  0.12074964356E+04  0.00000000000E+00 0. -1.
<mgrwt>
<rscale>  0 0.25201970E+04</rscale>
<asrwt>0</asrwt>
<pdfrwt beam="1">  1        2 0.18195222E+00 0.25201970E+04</pdfrwt>
<pdfrwt beam="2">  1       -2 0.20654986E+00 0.25201970E+04</pdfrwt>
<totfact> 0.20819358E+00</totfact>
</mgrwt>
</event>
<event>
 6    1  0.2003386E-005  0.2432297E+04  0.7818608E-02  0.8427510E-01
          2   -1    0    0  501    0  0.00000000000E+00  0.00000000000E+00  0.72052321484E+03  0.72052321484E+03  0.00000000000E+00 0. -1.
         -2   -1    0    0    0  501 -0.00000000000E+00 -0.00000000000E+00 -0.20526994394E+04  0.20526994394E+04  0.00000000000E+00 0.  1.
         23    2    1    2    0    0  0.92885743260E+03  0.68246494479E+03 -0.23099059905E+03  0.11791259468E+04  0.91906531545E+02 0.  0.
         13    1    3    3    0    0  0.22072790362E+03  0.20997963010E+03 -0.73525163288E+02  0.31339783364E+03  0.00000000000E+00 0.  1.
        -13    1    3    3    0    0  0.70812952897E+03  0.47248531469E+03 -0.15746543576E+03  0.86572811313E+03  0.00000000000E+00 0. -1.
         22    1    1    2    0    0 -0.92885743260E+03 -0.68246494479E+03 -0.11011856255E+04  0.15940967075E+04  0.00000000000E+00 0.  1.
<mgrwt>
<rscale>  0 0.24322973E+04</rscale>
<asrwt>0</asrwt>
<pdfrwt beam="1">  1        2 0.11084973E+00 0.24322973E+04</pdfrwt>
<pdfrwt beam="2">  1       -2 0.31579991E+00 0.24322973E+04</pdfrwt>
<totfact> 0.90056519E-01</totfact>
</mgrwt>
</event>
<event>
 6    1  0.2003386E-005  0.3157053E+04  0.7818608E-02  0.8200252E-01
          2   -1    0    0  501    0  0.00000000000E+00  0.00000000000E+00  0.11904912762E+04  0.11904912762E+04  0.00000000000E+00 0.  1.
         -2   -1    0    0    0  501 -0.00000000000E+00 -0.00000000000E+00 -0.20930406200E+04  0.20930406200E+04  0.00000000000E+00 0. -1.
         23    2    1    2    0    0 -0.11536909720E+04  0.51002340064E+02  0.66517898420E+03  0.13363862397E+04  0.99302582964E+02 0.  0.
         13    1    3    3    0    0 -0.13045663216E+03 -0.17526723646E+02  0.10101672791E+03  0.16592316968E+03  0.00000000000E+00 0.  1.
        -13    1    3    3    0    0 -0.10232343398E+04  0.68529063710E+02  0.56416225629E+03  0.11704630700E+04  0.00000000000E+00 0. -1.
         22    1    1    2    0    0  0.11536909720E+04 -0.51002340064E+02 -0.15677283280E+04  0.19471456566E+04  0.00000000000E+00 0. -1.
<mgrwt>
<rscale>  0 0.31570534E+04</rscale>
<asrwt>0</asrwt>
<pdfrwt beam="1">  1        2 0.18315250E+00 0.31570534E+04</pdfrwt>
<pdfrwt beam="2">  1       -2 0.32200625E+00 0.31570534E+04</pdfrwt>
<totfact> 0.37729617E-01</totfact>
</mgrwt>
</event>
<event>
 6    1  0.2003386E-005  0.3300013E+04  0.7818608E-02  0.8162892E-01
         -2   -1    0    0    0  501 -0.00000000000E+00  0.00000000000E+00  0.10369655389E+04  0.10369655389E+04  0.00000000000E+00 0.  1.
          2   -1    0    0  501    0  0.00000000000E+00 -0.00000000000E+00 -0.26254690638E+04  0.26254690638E+04  0.00000000000E+00 0. -1.
         23    2    1    2    0    0 -0.22155802765E+03 -0.41479694351E+03 -0.25486727169E+04  0.25932903930E+04  0.90983410206E+02 0.  0.
         13    1    3    3    0    0 -0.21002293409E+03 -0.32831938860E+03 -0.19842778195E+04  0.20221923050E+04  0.00000000000E+00 0.  1.
        -13    1    3    3    0    0 -0.11535093562E+02 -0.86477554909E+02 -0.56439489741E+03  0.57109808799E+03  0.00000000000E+00 0. -1.
         22    1    1    2    0    0  0.22155802765E+03  0.41479694351E+03  0.96016919193E+03  0.10691442097E+04  0.00000000000E+00 0.  1.
<mgrwt>
<rscale>  0 0.33000127E+04</rscale>
<asrwt>0</asrwt>
<pdfrwt beam="1">  1        2 0.40391831E+00 0.33000127E+04</pdfrwt>
<pdfrwt beam="2">  1       -2 0.15953316E+00 0.33000127E+04</pdfrwt>
<totfact> 0.62328008E-01</totfact>
</mgrwt>
</event>
<event>
 6    1  0.2003386E-005  0.6206947E+04  0.7818608E-02  0.7665259E-01
         -2   -1    0    0    0  501 -0.00000000000E+00  0.00000000000E+00  0.57770480343E+04  0.57770480343E+04  0.00000000000E+00 0.  1.
          2   -1    0    0  501    0  0.00000000000E+00 -0.00000000000E+00 -0.16672091863E+04  0.16672091863E+04  0.00000000000E+00 0. -1.
         23    2    1    2    0    0  0.22724642892E+03  0.29981833135E+04  0.11364776897E+04  0.32155906814E+04  0.87736938826E+02 0.  0.
         11    1    3    3    0    0  0.29641856540E+02  0.91937006956E+03  0.35427369149E+03  0.98571284508E+03  0.00000000000E+00 0.  1.
        -11    1    3    3    0    0  0.19760457238E+03  0.20788132440E+04  0.78220399821E+03  0.22298778364E+04  0.00000000000E+00 0. -1.
         22    1    1    2    0    0 -0.22724642892E+03 -0.29981833135E+04  0.29733611583E+04  0.42286665391E+04  0.00000000000E+00 0. -1.
<mgrwt>
<rscale>  0 0.62069469E+04</rscale>
<asrwt>0</asrwt>
<pdfrwt beam="1">  1        2 0.25649372E+00 0.62069469E+04</pdfrwt>
<pdfrwt beam="2">  1       -2 0.88877661E+00 0.62069469E+04</pdfrwt>
<totfact> 0.83201800E-05</totfact>
</mgrwt>
</event>
<event>
 6    1  0.2003386E-005  0.5038283E+04  0.7818608E-02  0.7822629E-01
          2   -1    0    0  501    0  0.00000000000E+00  0.00000000000E+00  0.30397076379E+04  0.30397076379E+04  0.00000000000E+00 0. -1.
         -2   -1    0    0    0  501 -0.00000000000E+00 -0.00000000000E+00 -0.20877251807E+04  0.20877251807E+04  0.00000000000E+00 0.  1.
         23    2    1    2    0    0 -0.19865344387E+04  0.67886527497E+03  0.18917123580E+04  0.28273742487E+04  0.91062391288E+02 0.  0.
         11    1    3    3    0    0 -0.67426314247E+03  0.21901950509E+03  0.69543857544E+03  0.99309372222E+03  0.00000000000E+00 0.  1.
        -11    1    3    3    0    0 -0.13122712963E+04  0.45984576989E+03  0.11962737826E+04  0.18342805265E+04  0.00000000000E+00 0. -1.
         22    1    1    2    0    0  0.19865344387E+04 -0.67886527497E+03 -0.93972990085E+03  0.23000585698E+04  0.00000000000E+00 0.  1.
<mgrwt>
<rscale>  0 0.50382831E+04</rscale>
<asrwt>0</asrwt>
<pdfrwt beam="1">  1        2 0.46764733E+00 0.50382831E+04</pdfrwt>
<pdfrwt beam="2">  1       -2 0.32118849E+00 0.50382831E+04</pdfrwt>
<totfact> 0.28071738E-02</totfact>
</mgrwt>
</event>
<event>
 6    1  0.2003386E-005  0.1487341E+04  0.7818608E-02  0.8892915E-01
         -2   -1    0    0    0  501 -0.00000000000E+00  0.00000000000E+00  0.41801815719E+03  0.41801815719E+03  0.00000000000E+00 0.  1.
          2   -1    0    0  501    0  0.00000000000E+00 -0.00000000000E+00 -0.13230192651E+04  0.13230192651E+04  0.00000000000E+00 0. -1.
         23    2    1    2    0    0 -0.39260531665E+03  0.10248140619E+03 -0.11798883666E+04  0.12509309254E+04  0.89723180974E+02 0.  0.
         13    1    3    3    0    0 -0.21459846853E+03  0.25689053016E+02 -0.72301535323E+03  0.75462814098E+03  0.00000000000E+00 0. -1.
        -13    1    3    3    0    0 -0.17800684812E+03  0.76792353173E+02 -0.45687301334E+03  0.49630278440E+03  0.00000000000E+00 0.  1.
         22    1    1    2    0    0  0.39260531665E+03 -0.10248140619E+03  0.27488725871E+03  0.49010649687E+03  0.00000000000E+00 0.  1.
<mgrwt>
<rscale>  0 0.14873414E+04</rscale>
<asrwt>0</asrwt>
<pdfrwt beam="1">  1        2 0.20354143E+00 0.14873414E+04</pdfrwt>
<pdfrwt beam="2">  1       -2 0.64310486E-01 0.14873414E+04</pdfrwt>
<totfact> 0.34626014E+01</totfact>
</mgrwt>
</event>
<event>
 6    1  0.2003386E-005  0.1763684E+04  0.7818608E-02  0.8725854E-01
         -2   -1    0    0    0  501 -0.00000000000E+00  0.00000000000E+00  0.82437301985E+03  0.82437301985E+03  0.00000000000E+00 0.  1.
          2   -1    0    0  501    0  0.00000000000E+00 -0.00000000000E+00 -0.94331771452E+03  0.94331771452E+03  0.00000000000E+00 0. -1.
         23    2    1    2    0    0 -0.53184038401E+03 -0.66199526125E+03  0.17001235358E+03  0.87070238679E+03  0.90147246208E+02 0.  0.
         13    1    3    3    0    0 -0.46586566499E+03 -0.60806512448E+03  0.17351569842E+03  0.78541817589E+03  0.00000000000E+00 0.  1.
        -13    1    3    3    0    0 -0.65974719023E+02 -0.53930136773E+02 -0.35033448451E+01  0.85284210892E+02  0.00000000000E+00 0. -1.
         22    1    1    2    0    0  0.53184038401E+03  0.66199526125E+03 -0.28895704825E+03  0.89698834759E+03  0.00000000000E+00 0.  1.
<mgrwt>
<rscale>  0 0.17636844E+04</rscale>
<asrwt>0</asrwt>
<pdfrwt beam="1">  1        2 0.14512580E+00 0.17636844E+04</pdfrwt>
<pdfrwt beam="2">  1       -2 0.12682662E+00 0.17636844E+04</pdfrwt>
<totfact> 0.12004608E+01</totfact>
</mgrwt>
</event>
<event>
 6    1  0.2003386E-005  0.2990339E+04  0.7818608E-02  0.8246495E-01
          2   -1    0    0  501    0  0.00000000000E+00  0.00000000000E+00  0.23284029744E+04  0.23284029744E+04  0.00000000000E+00 0. -1.
         -2   -1    0    0    0  501 -0.00000000000E+00 -0.00000000000E+00 -0.96011378960E+03  0.96011378960E+03  0.00000000000E+00 0.  1.
         23    2    1    2    0    0  0.14835872350E+04 -0.45489470051E+02  0.49969759457E+03  0.15687633729E+04  0.90666743882E+02 0.  0.
         11    1    3    3    0    0  0.10091772580E+04 -0.31069480516E+02  0.38419625735E+03  0.10802827477E+04  0.00000000000E+00 0. -1.
        -11    1    3    3    0    0  0.47440997692E+03 -0.14419989534E+02  0.11550133722E+03  0.48848062521E+03  0.00000000000E+00 0.  1.
         22    1    1    2    0    0 -0.14835872350E+04  0.45489470051E+02  0.86859159018E+03  0.17197533911E+04  0.00000000000E+00 0. -1.
<mgrwt>
<rscale>  0 0.29903390E+04</rscale>
<asrwt>0</asrwt>
<pdfrwt beam="1">  1        2 0.35821584E+00 0.29903390E+04</pdfrwt>
<pdfrwt beam="2">  1       -2 0.14770981E+00 0.29903390E+04</pdfrwt>
<totfact> 0.11677239E+00</totfact>
</mgrwt>
</event>
<event>
 6    1  0.2003386E-005  0.2417601E+04  0.7818608E-02  0.8432943E-01
         -1   -1    0    0    0  501 -0.00000000000E+00  0.00000000000E+00  0.65667067068E+03  0.65667067068E+03  0.00000000000E+00 0.  1.
          1   -1    0    0  501    0  0.00000000000E+00 -0.00000000000E+00 -0.22251623507E+04  0.22251623507E+04  0.00000000000E+00 0. -1.
         23    2    1    2    0    0  0.35062182003E+03 -0.98509315374E+02  0.58639415246E+03  0.69638736960E+03  0.91964779184E+02 0.  0.
         11    1    3    3    0    0  0.10893882252E+03 -0.72978267638E+02  0.17674335311E+03  0.22007205063E+03  0.00000000000E+00 0. -1.
        -11    1    3    3    0    0  0.24168299751E+03 -0.25531047736E+02  0.40965079935E+03  0.47631531897E+03  0.00000000000E+00 0.  1.
         22    1    1    2    0    0 -0.35062182003E+03  0.98509315374E+02 -0.21548858324E+04  0.21854456517E+04  0.00000000000E+00 0. -1.
<mgrwt>
<rscale>  0 0.24176012E+04</rscale>
<asrwt>0</asrwt>
<pdfrwt beam="1">  1        1 0.34233267E+00 0.24176012E+04</pdfrwt>
<pdfrwt beam="2">  1       -1 0.10102626E+00 0.24176012E+04</pdfrwt>
<totfact> 0.17439670E+00</totfact>
</mgrwt>
</event>
<event>
 6    1  0.2003386E-005  0.1964658E+04  0.7818608E-02  0.8623325E-01
          2   -1    0    0  501    0  0.00000000000E+00  0.00000000000E+00  0.18488793378E+04  0.18488793378E+04  0.00000000000E+00 0. -1.
         -2   -1    0    0    0  501 -0.00000000000E+00 -0.00000000000E+00 -0.52192159639E+03  0.52192159639E+03  0.00000000000E+00 0.  1.
         23    2    1    2    0    0 -0.15407068099E+03 -0.75548933971E+03  0.13952152337E+04  0.15967460251E+04  0.92034792853E+02 0.  0.
         11    1    3    3    0    0 -0.26913311426E+02 -0.36080669860E+03  0.64171839011E+03  0.73668737758E+03  0.00000000000E+00 0. -1.
        -11    1    3    3    0    0 -0.12715736956E+03 -0.39468264111E+03  0.75349684357E+03  0.86005864748E+03  0.00000000000E+00 0.  1.
         22    1    1    2    0    0  0.15407068099E+03  0.75548933971E+03 -0.68257492226E+02  0.77405490917E+03  0.00000000000E+00 0.  1.
<mgrwt>
<rscale>  0 0.19646578E+04</rscale>
<asrwt>0</asrwt>
<pdfrwt beam="1">  1        2 0.28444297E+00 0.19646578E+04</pdfrwt>
<pdfrwt beam="2">  1       -2 0.80295631E-01 0.19646578E+04</pdfrwt>
<totfact> 0.10352802E+01</totfact>
</mgrwt>
</event>
<event>
 6    1  0.2003386E-005  0.3549390E+04  0.7818608E-02  0.8102184E-01
          2   -1    0    0  501    0  0.00000000000E+00  0.00000000000E+00  0.26002534687E+04  0.26002534687E+04  0.00000000000E+00 0. -1.
         -2   -1    0    0    0  501 -0.00000000000E+00 -0.00000000000E+00 -0.12112442046E+04  0.12112442046E+04  0.00000000000E+00 0.  1.
         23    2    1    2    0    0 -0.54902183983E+03 -0.15712380082E+04  0.37289628656E+02  0.16673521951E+04  0.91972642532E+02 0.  0.
         13    1    3    3    0    0 -0.45150219418E+03 -0.12467142750E+04 -0.42224287631E+01  0.13259594805E+04  0.00000000000E+00 0.  1.
        -13    1    3    3    0    0 -0.97519645653E+02 -0.32452373317E+03  0.41512057419E+02  0.34139271462E+03  0.00000000000E+00 0. -1.
         22    1    1    2    0    0  0.54902183983E+03  0.15712380082E+04  0.13517196354E+04  0.21441454782E+04  0.00000000000E+00 0. -1.
<mgrwt>
<rscale>  0 0.35493898E+04</rscale>
<asrwt>0</asrwt>
<pdfrwt beam="1">  1        2 0.40003900E+00 0.35493898E+04</pdfrwt>
<pdfrwt beam="2">  1       -2 0.18634526E+00 0.35493898E+04</pdfrwt>
<totfact> 0.40839335E-01</totfact>
</mgrwt>
</event>
<event>
 6    1  0.2003386E-005  0.1970508E+04  0.7818608E-02  0.8620534E-01
          2   -1    0    0  501    0  0.00000000000E+00  0.00000000000E+00  0.10046918225E+04  0.10046918225E+04  0.00000000000E+00 0. -1.
         -2   -1    0    0    0  501 -0.00000000000E+00 -0.00000000000E+00 -0.96619255450E+03  0.96619255450E+03  0.00000000000E+00 0.  1.
         23    2    1    2    0    0  0.65254561389E+03  0.54287745826E+03  0.51548220443E+03  0.99720864317E+03  0.90396139498E+02 0.  0.
         11    1    3    3    0    0  0.38156411047E+03  0.32007569854E+03  0.35389654132E+03  0.61096839947E+03  0.00000000000E+00 0. -1.
        -11    1    3    3    0    0  0.27098150342E+03  0.22280175972E+03  0.16158566311E+03  0.38624024370E+03  0.00000000000E+00 0.  1.
         22    1    1    2    0    0 -0.65254561389E+03 -0.54287745826E+03 -0.47698293647E+03  0.97367573379E+03  0.00000000000E+00 0.  1.
<mgrwt>
<rscale>  0 0.19705083E+04</rscale>
<asrwt>0</asrwt>
<pdfrwt beam="1">  1        2 0.15456797E+00 0.19705083E+04</pdfrwt>
<pdfrwt beam="2">  1       -2 0.14864501E+00 0.19705083E+04</pdfrwt>
<totfact> 0.71488183E+00</totfact>
</mgrwt>
</event>
<event>
 6    1  0.2003386E-005  0.3001275E+04  0.7818608E-02  0.8243367E-01
          2   -1    0    0  501    0  0.00000000000E+00  0.00000000000E+00  0.12877921734E+04  0.12877921734E+04  0.00000000000E+00 0. -1.
         -2   -1    0    0    0  501 -0.00000000000E+00 -0.00000000000E+00 -0.17486614073E+04  0.17486614073E+04  0.00000000000E+00 0.  1.
         23    2    1    2    0    0  0.89380208089E+03  0.85605072801E+03 -0.10864121206E+04  0.16497276121E+04  0.98004538736E+02 0.  0.
         13    1    3    3    0    0  0.28696492851E+03  0.32160690408E+03 -0.33542366019E+03  0.54615831291E+03  0.00000000000E+00 0.  1.
        -13    1    3    3    0    0  0.60683715238E+03  0.53444382393E+03 -0.75098846043E+03  0.11035692992E+04  0.00000000000E+00 0. -1.
         22    1    1    2    0    0 -0.89380208089E+03 -0.85605072801E+03  0.62554288678E+03  0.13867259686E+04  0.00000000000E+00 0. -1.
<mgrwt>
<rscale>  0 0.30012747E+04</rscale>
<asrwt>0</asrwt>
<pdfrwt beam="1">  1        2 0.19812187E+00 0.30012747E+04</pdfrwt>
<pdfrwt beam="2">  1       -2 0.26902483E+00 0.30012747E+04</pdfrwt>
<totfact> 0.70677304E-01</totfact>
</mgrwt>
</event>
<event>
 6    1  0.2003386E-005  0.2720902E+04  0.7818608E-02  0.8328255E-01
         -2   -1    0    0    0  501 -0.00000000000E+00  0.00000000000E+00  0.19282967767E+04  0.19282967767E+04  0.00000000000E+00 0.  1.
          2   -1    0    0  501    0  0.00000000000E+00 -0.00000000000E+00 -0.95982480436E+03  0.95982480436E+03  0.00000000000E+00 0. -1.
         23    2    1    2    0    0 -0.52346248249E+03 -0.76406409076E+03  0.15403356787E+04  0.17996203160E+04  0.90511730041E+02 0.  0.
         13    1    3    3    0    0 -0.18846026080E+03 -0.32123412395E+03  0.68873559980E+03  0.78298490326E+03  0.00000000000E+00 0. -1.
        -13    1    3    3    0    0 -0.33500222169E+03 -0.44282996681E+03  0.85160007891E+03  0.10166354127E+04  0.00000000000E+00 0.  1.
         22    1    1    2    0    0  0.52346248249E+03  0.76406409076E+03 -0.57186370638E+03  0.10885012651E+04  0.00000000000E+00 0. -1.
<mgrwt>
<rscale>  0 0.27209021E+04</rscale>
<asrwt>0</asrwt>
<pdfrwt beam="1">  1        2 0.14766535E+00 0.27209021E+04</pdfrwt>
<pdfrwt beam="2">  1       -2 0.29666104E+00 0.27209021E+04</pdfrwt>
<totfact> 0.78046575E-01</totfact>
</mgrwt>
</event>
<event>
 6    1  0.2003386E-005  0.2932466E+04  0.7818608E-02  0.8263283E-01
         -2   -1    0    0    0  501 -0.00000000000E+00  0.00000000000E+00  0.13782022714E+04  0.13782022714E+04  0.00000000000E+00 0.  1.
          2   -1    0    0  501    0  0.00000000000E+00 -0.00000000000E+00 -0.15598868961E+04  0.15598868961E+04  0.00000000000E+00 0. -1.
         23    2    1    2    0    0 -0.95796999540E+03  0.10669974932E+04  0.20840880480E+03  0.14520329618E+04  0.93676730280E+02 0.  0.
         11    1    3    3    0    0 -0.30864236648E+03  0.38584244070E+03  0.36959563680E+02  0.49548007910E+03  0.00000000000E+00 0. -1.
        -11    1    3    3    0    0 -0.64932762891E+03  0.68115505248E+03  0.17144924112E+03  0.95655288274E+03  0.00000000000E+00 0.  1.
         22    1    1    2    0    0  0.95796999540E+03 -0.10669974932E+04 -0.39009342948E+03  0.14860562056E+04  0.00000000000E+00 0. -1.
<mgrwt>
<rscale>  0 0.29324663E+04</rscale>
<asrwt>0</asrwt>
<pdfrwt beam="1">  1        2 0.23998260E+00 0.29324663E+04</pdfrwt>
<pdfrwt beam="2">  1       -2 0.21203112E+00 0.29324663E+04</pdfrwt>
<totfact> 0.11234237E+00</totfact>
</mgrwt>
</event>
<event>
 6    1  0.3663667E-005  0.4674997E+04  0.7818608E-02  0.7880696E-01
         -2   -1    0    0    0  501 -0.00000000000E+00  0.00000000000E+00  0.21234184212E+04  0.21234184212E+04  0.00000000000E+00 0.  1.
          2   -1    0    0  501    0  0.00000000000E+00 -0.00000000000E+00 -0.25731620677E+04  0.25731620677E+04  0.00000000000E+00 0. -1.
         23    2    1    2    0    0  0.98983355624E+03 -0.77315732834E+03 -0.22044006506E+04  0.25387195283E+04  0.90398517301E+02 0.  0.
         11    1    3    3    0    0  0.54029816055E+03 -0.36600117183E+03 -0.11233176374E+04  0.12991233485E+04  0.00000000000E+00 0.  1.
        -11    1    3    3    0    0  0.44953539568E+03 -0.40715615652E+03 -0.10810830131E+04  0.12395961798E+04  0.00000000000E+00 0. -1.
         22    1    1    2    0    0 -0.98983355624E+03  0.77315732834E+03  0.17546570040E+04  0.21578609606E+04  0.00000000000E+00 0.  1.
<mgrwt>
<rscale>  0 0.46749972E+04</rscale>
<asrwt>0</asrwt>
<pdfrwt beam="1">  1        2 0.39587109E+00 0.46749972E+04</pdfrwt>
<pdfrwt beam="2">  1       -2 0.32667976E+00 0.46749972E+04</pdfrwt>
<totfact> 0.51317339E-02</totfact>
</mgrwt>
</event>
<event>
 6    1  0.2003386E-005  0.4259652E+03  0.7818608E-02  0.1035142E+00
          2   -1    0    0  501    0  0.00000000000E+00  0.00000000000E+00  0.25817298502E+03  0.25817298502E+03  0.00000000000E+00 0. -1.
         -2   -1    0    0    0  501 -0.00000000000E+00 -0.00000000000E+00 -0.17570234133E+03  0.17570234133E+03  0.00000000000E+00 0.  1.
         23    2    1    2    0    0 -0.91903568294E+02 -0.82402140372E+02  0.20790821164E+03  0.25788963928E+03  0.89693160128E+02 0.  0.
         11    1    3    3    0    0 -0.29024642940E+02 -0.60360784523E+02  0.16643652126E+03  0.17940727358E+03  0.00000000000E+00 0. -1.
        -11    1    3    3    0    0 -0.62878925353E+02 -0.22041355850E+02  0.41471690386E+02  0.78482365693E+02  0.00000000000E+00 0.  1.
         22    1    1    2    0    0  0.91903568294E+02  0.82402140372E+02 -0.12543756795E+03  0.17598568708E+03  0.00000000000E+00 0.  1.
<mgrwt>
<rscale>  0 0.42596525E+03</rscale>
<asrwt>0</asrwt>
<pdfrwt beam="1">  1        2 0.39718921E-01 0.42596525E+03</pdfrwt>
<pdfrwt beam="2">  1       -2 0.27031129E-01 0.42596525E+03</pdfrwt>
<totfact> 0.16028665E+03</totfact>
</mgrwt>
</event>
<event>
 6    1  0.2003386E-005  0.4674210E+04  0.7818608E-02  0.7880828E-01
         -2   -1    0    0    0  501 -0.00000000000E+00  0.00000000000E+00  0.21159575282E+04  0.21159575282E+04  0.00000000000E+00 0. -1.
          2   -1    0    0  501    0  0.00000000000E+00 -0.00000000000E+00 -0.25813649954E+04  0.25813649954E+04  0.00000000000E+00 0.  1.
         23    2    1    2    0    0 -0.11180888902E+04 -0.17774645799E+04 -0.12616530697E+04  0.24515464531E+04  0.93853310640E+02 0.  0.
         13    1    3    3    0    0 -0.65923782359E+03 -0.98542618579E+03 -0.74977801683E+03  0.14027923404E+04  0.00000000000E+00 0. -1.
        -13    1    3    3    0    0 -0.45885106664E+03 -0.79203839412E+03 -0.51187505289E+03  0.10487541127E+04  0.00000000000E+00 0.  1.
         22    1    1    2    0    0  0.11180888902E+04  0.17774645799E+04  0.79624560257E+03  0.22457760705E+04  0.00000000000E+00 0. -1.
<mgrwt>
<rscale>  0 0.46742095E+04</rscale>
<asrwt>0</asrwt>
<pdfrwt beam="1">  1        2 0.39713308E+00 0.46742095E+04</pdfrwt>
<pdfrwt beam="2">  1       -2 0.32553193E+00 0.46742095E+04</pdfrwt>
<totfact> 0.51594739E-02</totfact>
</mgrwt>
</event>
<event>
 6    1  0.2003386E-005  0.1971468E+04  0.7818608E-02  0.8620078E-01
         -2   -1    0    0    0  501 -0.00000000000E+00  0.00000000000E+00  0.72113559747E+03  0.72113559747E+03  0.00000000000E+00 0.  1.
          2   -1    0    0  501    0  0.00000000000E+00 -0.00000000000E+00 -0.13474183814E+04  0.13474183814E+04  0.00000000000E+00 0. -1.
         23    2    1    2    0    0 -0.77554922525E+03  0.52971475061E+03 -0.62058635718E+03  0.11293485875E+04  0.90699986721E+02 0.  0.
         13    1    3    3    0    0 -0.41758621922E+03  0.33948160008E+03 -0.35063108196E+03  0.64231469150E+03  0.00000000000E+00 0.  1.
        -13    1    3    3    0    0 -0.35796300603E+03  0.19023315053E+03 -0.26995527522E+03  0.48703389601E+03  0.00000000000E+00 0. -1.
         22    1    1    2    0    0  0.77554922525E+03 -0.52971475061E+03 -0.56964267065E+01  0.93920539132E+03  0.00000000000E+00 0.  1.
<mgrwt>
<rscale>  0 0.19714678E+04</rscale>
<asrwt>0</asrwt>
<pdfrwt beam="1">  1        2 0.20729513E+00 0.19714678E+04</pdfrwt>
<pdfrwt beam="2">  1       -2 0.11094394E+00 0.19714678E+04</pdfrwt>
<totfact> 0.92993307E+00</totfact>
</mgrwt>
</event>
<event>
 6    1  0.2003386E-005  0.3943345E+04  0.7818608E-02  0.8016074E-01
          2   -1    0    0  501    0  0.00000000000E+00  0.00000000000E+00  0.27890827962E+04  0.27890827962E+04  0.00000000000E+00 0. -1.
         -2   -1    0    0    0  501 -0.00000000000E+00 -0.00000000000E+00 -0.13938248196E+04  0.13938248196E+04  0.00000000000E+00 0.  1.
         23    2    1    2    0    0 -0.31790350884E+03  0.19093039372E+04  0.10909896340E+04  0.22235497134E+04  0.86085893374E+02 0.  0.
         11    1    3    3    0    0 -0.41301032602E+02  0.11916132334E+03  0.70677862000E+02  0.14457024746E+03  0.00000000000E+00 0. -1.
        -11    1    3    3    0    0 -0.27660247623E+03  0.17901426138E+04  0.10203117720E+04  0.20789794659E+04  0.00000000000E+00 0.  1.
         22    1    1    2    0    0  0.31790350884E+03 -0.19093039372E+04  0.30426834256E+03  0.19593579024E+04  0.00000000000E+00 0. -1.
<mgrwt>
<rscale>  0 0.39433452E+04</rscale>
<asrwt>0</asrwt>
<pdfrwt beam="1">  1        2 0.42908966E+00 0.39433452E+04</pdfrwt>
<pdfrwt beam="2">  1       -2 0.21443459E+00 0.39433452E+04</pdfrwt>
<totfact> 0.19948134E-01</totfact>
</mgrwt>
</event>
<event>
 6    1  0.2003386E-005  0.1958770E+04  0.7818608E-02  0.8626143E-01
         -2   -1    0    0    0  501 -0.00000000000E+00  0.00000000000E+00  0.58325741174E+03  0.58325741174E+03  0.00000000000E+00 0. -1.
          2   -1    0    0  501    0  0.00000000000E+00 -0.00000000000E+00 -0.16445482449E+04  0.16445482449E+04  0.00000000000E+00 0.  1.
         23    2    1    2    0    0 -0.47125482203E+03 -0.79023520470E+03 -0.15728710828E+03  0.93793142997E+03  0.91778793081E+02 0.  0.
         13    1    3    3    0    0 -0.18314470452E+03 -0.36545669799E+03 -0.10471123349E+03  0.42197751518E+03  0.00000000000E+00 0. -1.
        -13    1    3    3    0    0 -0.28811011751E+03 -0.42477850670E+03 -0.52575874788E+02  0.51595391478E+03  0.00000000000E+00 0.  1.
         22    1    1    2    0    0  0.47125482203E+03  0.79023520470E+03 -0.90400372485E+03  0.12898742267E+04  0.00000000000E+00 0.  1.
<mgrwt>
<rscale>  0 0.19587700E+04</rscale>
<asrwt>0</asrwt>
<pdfrwt beam="1">  1        2 0.25300742E+00 0.19587700E+04</pdfrwt>
<pdfrwt beam="2">  1       -2 0.89731912E-01 0.19587700E+04</pdfrwt>
<totfact> 0.10445355E+01</totfact>
</mgrwt>
</event>
<event>
 6    1  0.2396897E-005  0.3026178E+04  0.7818608E-02  0.8236295E-01
         -2   -1    0    0    0  501 -0.00000000000E+00  0.00000000000E+00  0.73467530495E+03  0.73467530495E+03  0.00000000000E+00 0.  1.
          2   -1    0    0  501    0  0.00000000000E+00 -0.00000000000E+00 -0.31162590020E+04  0.31162590020E+04  0.00000000000E+00 0. -1.
         23    2    1    2    0    0 -0.82873497372E+03 -0.29313373294E+03 -0.27568695603E+04  0.28951265223E+04  0.93267174269E+02 0.  0.
         11    1    3    3    0    0 -0.48757521279E+03 -0.21739204420E+03 -0.16104441200E+04  0.16966199199E+04  0.00000000000E+00 0. -1.
        -11    1    3    3    0    0 -0.34115976093E+03 -0.75741688734E+02 -0.11464254402E+04  0.11985066024E+04  0.00000000000E+00 0.  1.
         22    1    1    2    0    0  0.82873497372E+03  0.29313373294E+03  0.37528586321E+03  0.95580778464E+03  0.00000000000E+00 0.  1.
<mgrwt>
<rscale>  0 0.30261781E+04</rscale>
<asrwt>0</asrwt>
<pdfrwt beam="1">  1        2 0.47942446E+00 0.30261781E+04</pdfrwt>
<pdfrwt beam="2">  1       -2 0.11302697E+00 0.30261781E+04</pdfrwt>
<totfact> 0.77134762E-01</totfact>
</mgrwt>
</event>
<event>
 6    1  0.2003386E-005  0.3324701E+04  0.7818608E-02  0.8156639E-01
         -2   -1    0    0    0  501 -0.00000000000E+00  0.00000000000E+00  0.15316447542E+04  0.15316447542E+04  0.00000000000E+00 0. -1.
          2   -1    0    0  501    0  0.00000000000E+00 -0.00000000000E+00 -0.18042100166E+04  0.18042100166E+04  0.00000000000E+00 0.  1.
         23    2    1    2    0    0 -0.32438935654E+03  0.16175273814E+04 -0.33152269246E+03  0.16850673034E+04  0.89001332428E+02 0.  0.
         13    1    3    3    0    0 -0.70920113470E+02  0.56870041769E+03 -0.11744621896E+03  0.58501576211E+03  0.00000000000E+00 0. -1.
        -13    1    3    3    0    0 -0.25346924307E+03  0.10488269637E+04 -0.21407647350E+03  0.11000515413E+04  0.00000000000E+00 0.  1.
         22    1    1    2    0    0  0.32438935654E+03 -0.16175273814E+04  0.58957430091E+02  0.16507874675E+04  0.00000000000E+00 0.  1.
<mgrwt>
<rscale>  0 0.33247008E+04</rscale>
<asrwt>0</asrwt>
<pdfrwt beam="1">  1        2 0.27757077E+00 0.33247008E+04</pdfrwt>
<pdfrwt beam="2">  1       -2 0.23563766E+00 0.33247008E+04</pdfrwt>
<totfact> 0.56406106E-01</totfact>
</mgrwt>
</event>
<event>
 6    1  0.2003386E-005  0.1906523E+04  0.7818608E-02  0.8651616E-01
          2   -1    0    0  501    0  0.00000000000E+00  0.00000000000E+00  0.21339401438E+04  0.21339401438E+04  0.00000000000E+00 0. -1.
         -2   -1    0    0    0  501 -0.00000000000E+00 -0.00000000000E+00 -0.42583531206E+03  0.42583531206E+03  0.00000000000E+00 0.  1.
         23    2    1    2    0    0  0.90077298668E+03 -0.29088597311E+01  0.12629703344E+04  0.15550142127E+04  0.10758578559E+03 0.  0.
         13    1    3    3    0    0  0.67653734768E+03 -0.46713152164E+02  0.92063993113E+03  0.11434433891E+04  0.00000000000E+00 0. -1.
        -13    1    3    3    0    0  0.22423563900E+03  0.43804292433E+02  0.34233040325E+03  0.41157082358E+03  0.00000000000E+00 0.  1.
         22    1    1    2    0    0 -0.90077298668E+03  0.29088597311E+01  0.44513449737E+03  0.10047612431E+04  0.00000000000E+00 0.  1.
<mgrwt>
<rscale>  0 0.19065226E+04</rscale>
<asrwt>0</asrwt>
<pdfrwt beam="1">  1        2 0.32829848E+00 0.19065226E+04</pdfrwt>
<pdfrwt beam="2">  1       -2 0.65513126E-01 0.19065226E+04</pdfrwt>
<totfact> 0.11301317E+01</totfact>
</mgrwt>
</event>
<event>
 6    1  0.2003386E-005  0.2372894E+04  0.7818608E-02  0.8449722E-01
         -2   -1    0    0    0  501 -0.00000000000E+00  0.00000000000E+00  0.77389476464E+03  0.77389476464E+03  0.00000000000E+00 0.  1.
          2   -1    0    0  501    0  0.00000000000E+00 -0.00000000000E+00 -0.18189250005E+04  0.18189250005E+04  0.00000000000E+00 0. -1.
         23    2    1    2    0    0  0.75477540619E+03  0.72965785451E+03 -0.11233073342E+04  0.15401024229E+04  0.89496410718E+02 0.  0.
         13    1    3    3    0    0  0.33008239793E+03  0.38091512304E+03 -0.53034328996E+03  0.73165205227E+03  0.00000000000E+00 0. -1.
        -13    1    3    3    0    0  0.42469300826E+03  0.34874273147E+03 -0.59296404427E+03  0.80845037066E+03  0.00000000000E+00 0.  1.
         22    1    1    2    0    0 -0.75477540619E+03 -0.72965785451E+03  0.78277098385E+02  0.10527173422E+04  0.00000000000E+00 0.  1.
<mgrwt>
<rscale>  0 0.23728940E+04</rscale>
<asrwt>0</asrwt>
<pdfrwt beam="1">  1        2 0.27983461E+00 0.23728940E+04</pdfrwt>
<pdfrwt beam="2">  1       -2 0.11906073E+00 0.23728940E+04</pdfrwt>
<totfact> 0.41104446E+00</totfact>
</mgrwt>
</event>
<event>
 6    1  0.2003386E-005  0.7583497E+03  0.7818608E-02  0.9622341E-01
          2   -1    0    0  501    0  0.00000000000E+00  0.00000000000E+00  0.22614866117E+04  0.22614866117E+04  0.00000000000E+00 0. -1.
         -2   -1    0    0    0  501 -0.00000000000E+00 -0.00000000000E+00 -0.63574798127E+02  0.63574798127E+02  0.00000000000E+00 0.  1.
         23    2    1    2    0    0 -0.14793871363E+03  0.22394748766E+03  0.19119006498E+04  0.19328360588E+04  0.91939083445E+02 0.  0.
         11    1    3    3    0    0 -0.10034620358E+03  0.69433213287E+02  0.81619739817E+03  0.82526875893E+03  0.00000000000E+00 0.  1.
        -11    1    3    3    0    0 -0.47592510052E+02  0.15451427438E+03  0.10957032516E+04  0.11075672998E+04  0.00000000000E+00 0. -1.
         22    1    1    2    0    0  0.14793871363E+03 -0.22394748766E+03  0.28601116375E+03  0.39222535106E+03  0.00000000000E+00 0.  1.
<mgrwt>
<rscale>  0 0.75834967E+03</rscale>
<asrwt>0</asrwt>
<pdfrwt beam="1">  1        2 0.34792096E+00 0.75834967E+03</pdfrwt>
<pdfrwt beam="2">  1       -2 0.97807399E-02 0.75834967E+03</pdfrwt>
<totfact> 0.34941408E+02</totfact>
</mgrwt>
</event>
<event>
 6    1  0.2003386E-005  0.3703961E+04  0.7818608E-02  0.8067085E-01
          2   -1    0    0  501    0  0.00000000000E+00  0.00000000000E+00  0.22137623398E+04  0.22137623398E+04  0.00000000000E+00 0. -1.
         -2   -1    0    0    0  501 -0.00000000000E+00 -0.00000000000E+00 -0.15493225354E+04  0.15493225354E+04  0.00000000000E+00 0.  1.
         23    2    1    2    0    0 -0.26418329945E+03 -0.18258219628E+03  0.21842793657E+04  0.22096881563E+04  0.92283945625E+02 0.  0.
         11    1    3    3    0    0 -0.20011333529E+02 -0.40311774588E+02  0.48358944663E+03  0.48567915904E+03  0.00000000000E+00 0. -1.
        -11    1    3    3    0    0 -0.24417196592E+03 -0.14227042169E+03  0.17006899191E+04  0.17240089973E+04  0.00000000000E+00 0.  1.
         22    1    1    2    0    0  0.26418329945E+03  0.18258219628E+03 -0.15198395613E+04  0.15533967189E+04  0.00000000000E+00 0.  1.
<mgrwt>
<rscale>  0 0.37039611E+04</rscale>
<asrwt>0</asrwt>
<pdfrwt beam="1">  1        2 0.34057882E+00 0.37039611E+04</pdfrwt>
<pdfrwt beam="2">  1       -2 0.23835731E+00 0.37039611E+04</pdfrwt>
<totfact> 0.31087706E-01</totfact>
</mgrwt>
</event>
<event>
 6    1  0.2003386E-005  0.1213680E+04  0.7818608E-02  0.9100966E-01
         -2   -1    0    0    0  501 -0.00000000000E+00  0.00000000000E+00  0.17810104428E+04  0.17810104428E+04  0.00000000000E+00 0.  1.
          2   -1    0    0  501    0  0.00000000000E+00 -0.00000000000E+00 -0.20676740555E+03  0.20676740555E+03  0.00000000000E+00 0. -1.
         23    2    1    2    0    0  0.59209848414E+03  0.25653969775E+02  0.97727870854E+03  0.11465851529E+04  0.91351506082E+02 0.  0.
         11    1    3    3    0    0  0.29060642906E+03 -0.31992497357E+02  0.49597510555E+03  0.57573164045E+03  0.00000000000E+00 0.  1.
        -11    1    3    3    0    0  0.30149205509E+03  0.57646467133E+02  0.48130360300E+03  0.57085351248E+03  0.00000000000E+00 0. -1.
         22    1    1    2    0    0 -0.59209848414E+03 -0.25653969775E+02  0.59696432875E+03  0.84119269546E+03  0.00000000000E+00 0. -1.
<mgrwt>
<rscale>  0 0.12136802E+04</rscale>
<asrwt>0</asrwt>
<pdfrwt beam="1">  1        2 0.31810371E-01 0.12136802E+04</pdfrwt>
<pdfrwt beam="2">  1       -2 0.27400160E+00 0.12136802E+04</pdfrwt>
<totfact> 0.75653784E+00</totfact>
</mgrwt>
</event>
<event>
 6    1  0.2003386E-005  0.3308814E+04  0.7818608E-02  0.8160656E-01
         -2   -1    0    0    0  501 -0.00000000000E+00  0.00000000000E+00  0.11809199708E+04  0.11809199708E+04  0.00000000000E+00 0. -1.
          2   -1    0    0  501    0  0.00000000000E+00 -0.00000000000E+00 -0.23177371817E+04  0.23177371817E+04  0.00000000000E+00 0.  1.
         23    2    1    2    0    0 -0.10056094062E+04 -0.88867986713E+03  0.45199597735E+03  0.14189144925E+04  0.89530941163E+02 0.  0.
         13    1    3    3    0    0 -0.62908852684E+03 -0.56871161174E+03  0.24091566630E+03  0.88160400986E+03  0.00000000000E+00 0.  1.
        -13    1    3    3    0    0 -0.37652087940E+03 -0.31996825539E+03  0.21108031105E+03  0.53731048268E+03  0.00000000000E+00 0. -1.
         22    1    1    2    0    0  0.10056094062E+04  0.88867986713E+03 -0.15888131883E+04  0.20797426599E+04  0.00000000000E+00 0.  1.
<mgrwt>
<rscale>  0 0.33088138E+04</rscale>
<asrwt>0</asrwt>
<pdfrwt beam="1">  1        2 0.35657495E+00 0.33088138E+04</pdfrwt>
<pdfrwt beam="2">  1       -2 0.18168000E+00 0.33088138E+04</pdfrwt>
<totfact> 0.65268762E-01</totfact>
</mgrwt>
</event>
<event>
 6    1  0.2003386E-005  0.1240752E+04  0.7818608E-02  0.9077916E-01
          2   -1    0    0  501    0  0.00000000000E+00  0.00000000000E+00  0.59635390174E+03  0.59635390174E+03  0.00000000000E+00 0. -1.
         -2   -1    0    0    0  501 -0.00000000000E+00 -0.00000000000E+00 -0.64536575791E+03  0.64536575791E+03  0.00000000000E+00 0.  1.
         23    2    1    2    0    0  0.40874479597E+02  0.13162088161E+03  0.57728820589E+03  0.60043458474E+03  0.90913356246E+02 0.  0.
         13    1    3    3    0    0  0.52007778302E+02  0.13043779656E+03  0.42214420943E+03  0.44488713325E+03  0.00000000000E+00 0. -1.
        -13    1    3    3    0    0 -0.11133298705E+02  0.11830850479E+01  0.15514399645E+03  0.15554745149E+03  0.00000000000E+00 0.  1.
         22    1    1    2    0    0 -0.40874479597E+02 -0.13162088161E+03 -0.62630006206E+03  0.64128507490E+03  0.00000000000E+00 0.  1.
<mgrwt>
<rscale>  0 0.12407520E+04</rscale>
<asrwt>0</asrwt>
<pdfrwt beam="1">  1        2 0.91746755E-01 0.12407520E+04</pdfrwt>
<pdfrwt beam="2">  1       -2 0.99287039E-01 0.12407520E+04</pdfrwt>
<totfact> 0.41319254E+01</totfact>
</mgrwt>
</event>
<event>
 6    1  0.2003386E-005  0.1251507E+04  0.7818608E-02  0.9068930E-01
         -2   -1    0    0    0  501 -0.00000000000E+00  0.00000000000E+00  0.15817014821E+03  0.15817014821E+03  0.00000000000E+00 0.  1.
          2   -1    0    0  501    0  0.00000000000E+00 -0.00000000000E+00 -0.24756096678E+04  0.24756096678E+04  0.00000000000E+00 0. -1.
         23    2    1    2    0    0  0.45340063899E+03  0.40920033802E+03 -0.91158963707E+03  0.11009944598E+04  0.90421667634E+02 0.  0.
         11    1    3    3    0    0  0.94604499748E+02  0.67583621430E+02 -0.23753081800E+03  0.26445878083E+03  0.00000000000E+00 0. -1.
        -11    1    3    3    0    0  0.35879613925E+03  0.34161671659E+03 -0.67405881907E+03  0.83653567895E+03  0.00000000000E+00 0.  1.
         22    1    1    2    0    0 -0.45340063899E+03 -0.40920033802E+03 -0.14058498825E+04  0.15327853562E+04  0.00000000000E+00 0. -1.
<mgrwt>
<rscale>  0 0.12515072E+04</rscale>
<asrwt>0</asrwt>
<pdfrwt beam="1">  1        2 0.38086300E+00 0.12515072E+04</pdfrwt>
<pdfrwt beam="2">  1       -2 0.24333871E-01 0.12515072E+04</pdfrwt>
<totfact> 0.53557538E+01</totfact>
</mgrwt>
</event>
<event>
 6    1  0.2003386E-005  0.1091866E+04  0.7818608E-02  0.9213156E-01
         -2   -1    0    0    0  501 -0.00000000000E+00  0.00000000000E+00  0.97995455748E+02  0.97995455748E+02  0.00000000000E+00 0.  1.
          2   -1    0    0  501    0  0.00000000000E+00 -0.00000000000E+00 -0.30413956857E+04  0.30413956857E+04  0.00000000000E+00 0. -1.
         23    2    1    2    0    0  0.19602749849E+03  0.46099328332E+03 -0.88433341878E+03  0.10202645005E+04  0.89176611345E+02 0.  0.
         11    1    3    3    0    0  0.15266313589E+03  0.24621263601E+03 -0.50435345287E+03  0.58163485162E+03  0.00000000000E+00 0. -1.
        -11    1    3    3    0    0  0.43364362604E+02  0.21478064731E+03 -0.37997996590E+03  0.43862964889E+03  0.00000000000E+00 0.  1.
         22    1    1    2    0    0 -0.19602749849E+03 -0.46099328332E+03 -0.20590668112E+04  0.21191266409E+04  0.00000000000E+00 0. -1.
<mgrwt>
<rscale>  0 0.10918662E+04</rscale>
<asrwt>0</asrwt>
<pdfrwt beam="1">  1        2 0.46790707E+00 0.10918662E+04</pdfrwt>
<pdfrwt beam="2">  1       -2 0.15076223E-01 0.10918662E+04</pdfrwt>
<totfact> 0.57858968E+01</totfact>
</mgrwt>
</event>
<event>
 6    1  0.2003386E-005  0.3193619E+04  0.7818608E-02  0.8190505E-01
          2   -1    0    0  501    0  0.00000000000E+00  0.00000000000E+00  0.31587902558E+04  0.31587902558E+04  0.00000000000E+00 0. -1.
         -2   -1    0    0    0  501 -0.00000000000E+00 -0.00000000000E+00 -0.80720774937E+03  0.80720774937E+03  0.00000000000E+00 0.  1.
         23    2    1    2    0    0 -0.13066890447E+04  0.77351333591E+03  0.56901241550E+03  0.16243500237E+04  0.94756161228E+02 0.  0.
         11    1    3    3    0    0 -0.32417624659E+03  0.22940160240E+03  0.12078765565E+03  0.41509636447E+03  0.00000000000E+00 0.  1.
        -11    1    3    3    0    0 -0.98251279807E+03  0.54411173350E+03  0.44822475986E+03  0.12092536592E+04  0.00000000000E+00 0. -1.
         22    1    1    2    0    0  0.13066890447E+04 -0.77351333591E+03  0.17825700909E+04  0.23416479815E+04  0.00000000000E+00 0. -1.
<mgrwt>
<rscale>  0 0.31936186E+04</rscale>
<asrwt>0</asrwt>
<pdfrwt beam="1">  1        2 0.48596773E+00 0.31936186E+04</pdfrwt>
<pdfrwt beam="2">  1       -2 0.12418581E+00 0.31936186E+04</pdfrwt>
<totfact> 0.56589848E-01</totfact>
</mgrwt>
</event>
<event>
 6    1  0.2003386E-005  0.1762892E+04  0.7818608E-02  0.8726286E-01
          2   -1    0    0  501    0  0.00000000000E+00  0.00000000000E+00  0.14699665694E+04  0.14699665694E+04  0.00000000000E+00 0. -1.
         -2   -1    0    0    0  501 -0.00000000000E+00 -0.00000000000E+00 -0.52854736570E+03  0.52854736570E+03  0.00000000000E+00 0.  1.
         23    2    1    2    0    0  0.16722738827E+03  0.65333717662E+03  0.11113155059E+04  0.13030434330E+04  0.89919792354E+02 0.  0.
         13    1    3    3    0    0  0.65548025306E+01  0.16239343547E+03  0.23300924736E+03  0.28409136325E+03  0.00000000000E+00 0.  1.
        -13    1    3    3    0    0  0.16067258574E+03  0.49094374115E+03  0.87830625852E+03  0.10189520698E+04  0.00000000000E+00 0. -1.
         22    1    1    2    0    0 -0.16722738827E+03 -0.65333717662E+03 -0.16989630218E+03  0.69547050206E+03  0.00000000000E+00 0.  1.
<mgrwt>
<rscale>  0 0.17628919E+04</rscale>
<asrwt>0</asrwt>
<pdfrwt beam="1">  1        2 0.22614870E+00 0.17628919E+04</pdfrwt>
<pdfrwt beam="2">  1       -2 0.81314980E-01 0.17628919E+04</pdfrwt>
<totfact> 0.16654070E+01</totfact>
</mgrwt>
</event>
<event>
 6    1  0.2003386E-005  0.1001637E+04  0.7818608E-02  0.9306751E-01
         -2   -1    0    0    0  501 -0.00000000000E+00  0.00000000000E+00  0.12092375153E+03  0.12092375153E+03  0.00000000000E+00 0.  1.
          2   -1    0    0  501    0  0.00000000000E+00 -0.00000000000E+00 -0.20741926239E+04  0.20741926239E+04  0.00000000000E+00 0. -1.
         23    2    1    2    0    0  0.38925129076E+03 -0.13748473886E+03 -0.37984397941E+03  0.56843739218E+03  0.91766003269E+02 0.  0.
         13    1    3    3    0    0  0.13597179250E+03 -0.43037949208E+02 -0.75471585797E+02  0.16135846334E+03  0.00000000000E+00 0. -1.
        -13    1    3    3    0    0  0.25327949826E+03 -0.94446789653E+02 -0.30437239361E+03  0.40707892884E+03  0.00000000000E+00 0.  1.
         22    1    1    2    0    0 -0.38925129076E+03  0.13748473886E+03 -0.15734248930E+04  0.16266789833E+04  0.00000000000E+00 0.  1.
<mgrwt>
<rscale>  0 0.10016370E+04</rscale>
<asrwt>0</asrwt>
<pdfrwt beam="1">  1        2 0.31910655E+00 0.10016370E+04</pdfrwt>
<pdfrwt beam="2">  1       -2 0.18603655E-01 0.10016370E+04</pdfrwt>
<totfact> 0.14781532E+02</totfact>
</mgrwt>
</event>
<event>
 6    1  0.2003386E-005  0.2178853E+04  0.7818608E-02  0.8527282E-01
          2   -1    0    0  501    0  0.00000000000E+00  0.00000000000E+00  0.86102166510E+03  0.86102166510E+03  0.00000000000E+00 0. -1.
         -2   -1    0    0    0  501 -0.00000000000E+00 -0.00000000000E+00 -0.13784205210E+04  0.13784205210E+04  0.00000000000E+00 0.  1.
         23    2    1    2    0    0  0.35163390941E+03  0.89233099311E+03  0.26766651008E+03  0.99999527866E+03  0.91892269574E+02 0.  0.
         11    1    3    3    0    0  0.29245704492E+03  0.78631931155E+03  0.20620742819E+03  0.86391590232E+03  0.00000000000E+00 0. -1.
        -11    1    3    3    0    0  0.59176864484E+02  0.10601168156E+03  0.61459081889E+02  0.13607937634E+03  0.00000000000E+00 0.  1.
         22    1    1    2    0    0 -0.35163390941E+03 -0.89233099311E+03 -0.78506536598E+03  0.12394469074E+04  0.00000000000E+00 0.  1.
<mgrwt>
<rscale>  0 0.21788528E+04</rscale>
<asrwt>0</asrwt>
<pdfrwt beam="1">  1        2 0.13246487E+00 0.21788528E+04</pdfrwt>
<pdfrwt beam="2">  1       -2 0.21206469E+00 0.21788528E+04</pdfrwt>
<totfact> 0.31697270E+00</totfact>
</mgrwt>
</event>
<event>
 6    1  0.2003386E-005  0.1931163E+04  0.7818608E-02  0.8639498E-01
          2   -1    0    0  501    0  0.00000000000E+00  0.00000000000E+00  0.77951629037E+03  0.77951629037E+03  0.00000000000E+00 0.  1.
         -2   -1    0    0    0  501 -0.00000000000E+00 -0.00000000000E+00 -0.11960588904E+04  0.11960588904E+04  0.00000000000E+00 0. -1.
         23    2    1    2    0    0 -0.58079060404E+03  0.26368450961E+02 -0.99461366154E+03  0.11557098424E+04  0.91629051644E+02 0.  0.
         11    1    3    3    0    0 -0.28677703643E+03  0.35611326413E+02 -0.41468529083E+03  0.50544349399E+03  0.00000000000E+00 0.  1.
        -11    1    3    3    0    0 -0.29401356761E+03 -0.92428754520E+01 -0.57992837072E+03  0.65026634839E+03  0.00000000000E+00 0. -1.
         22    1    1    2    0    0  0.58079060404E+03 -0.26368450961E+02  0.57807106151E+03  0.81986533840E+03  0.00000000000E+00 0.  1.
<mgrwt>
<rscale>  0 0.19311627E+04</rscale>
<asrwt>0</asrwt>
<pdfrwt beam="1">  1        2 0.11992558E+00 0.19311627E+04</pdfrwt>
<pdfrwt beam="2">  1       -2 0.18400906E+00 0.19311627E+04</pdfrwt>
<totfact> 0.56649816E+00</totfact>
</mgrwt>
</event>
<event>
 6    1  0.2003386E-005  0.8909254E+03  0.7818608E-02  0.9436997E-01
          2   -1    0    0  501    0  0.00000000000E+00  0.00000000000E+00  0.60425210113E+03  0.60425210113E+03  0.00000000000E+00 0. -1.
         -2   -1    0    0    0  501 -0.00000000000E+00 -0.00000000000E+00 -0.32840100551E+03  0.32840100551E+03  0.00000000000E+00 0.  1.
         23    2    1    2    0    0 -0.41940592159E+03 -0.22805433464E+02 -0.35282269201E+00  0.42995039195E+03  0.91846612293E+02 0.  0.
         11    1    3    3    0    0 -0.20907448701E+03 -0.45296468039E+02  0.30825405499E+02  0.21613448767E+03  0.00000000000E+00 0.  1.
        -11    1    3    3    0    0 -0.21033143458E+03  0.22491034575E+02 -0.31178228191E+02  0.21381590428E+03  0.00000000000E+00 0. -1.
         22    1    1    2    0    0  0.41940592159E+03  0.22805433464E+02  0.27620391832E+03  0.50270271469E+03  0.00000000000E+00 0. -1.
<mgrwt>
<rscale>  0 0.89092536E+03</rscale>
<asrwt>0</asrwt>
<pdfrwt beam="1">  1        2 0.92961861E-01 0.89092536E+03</pdfrwt>
<pdfrwt beam="2">  1       -2 0.50523232E-01 0.89092536E+03</pdfrwt>
<totfact> 0.18284801E+02</totfact>
</mgrwt>
</event>
<event>
 6    1  0.2003386E-005  0.2600667E+04  0.7818608E-02  0.8367975E-01
         -1   -1    0    0    0  501 -0.00000000000E+00  0.00000000000E+00  0.19382706334E+04  0.19382706334E+04  0.00000000000E+00 0.  1.
          1   -1    0    0  501    0  0.00000000000E+00 -0.00000000000E+00 -0.87235901109E+03  0.87235901109E+03  0.00000000000E+00 0. -1.
         23    2    1    2    0    0  0.63881076419E+03  0.11295470253E+04  0.47271750399E+03  0.13838027676E+04  0.86559725822E+02 0.  0.
         11    1    3    3    0    0  0.61420711082E+03  0.10425253623E+04  0.44459131639E+03  0.12890969493E+04  0.00000000000E+00 0. -1.
        -11    1    3    3    0    0  0.24603653374E+02  0.87021662947E+02  0.28126187603E+02  0.94705818251E+02  0.00000000000E+00 0.  1.
         22    1    1    2    0    0 -0.63881076419E+03 -0.11295470253E+04  0.59319411832E+03  0.14268268769E+04  0.00000000000E+00 0.  1.
<mgrwt>
<rscale>  0 0.26006675E+04</rscale>
<asrwt>0</asrwt>
<pdfrwt beam="1">  1        1 0.13420908E+00 0.26006675E+04</pdfrwt>
<pdfrwt beam="2">  1       -1 0.29819548E+00 0.26006675E+04</pdfrwt>
<totfact> 0.57311303E-01</totfact>
</mgrwt>
</event>
<event>
 6    1  0.2851287E-005  0.3105022E+04  0.7818608E-02  0.8214361E-01
          1   -1    0    0  501    0  0.00000000000E+00  0.00000000000E+00  0.18743402680E+04  0.18743402680E+04  0.00000000000E+00 0. -1.
         -1   -1    0    0    0  501 -0.00000000000E+00 -0.00000000000E+00 -0.12859405415E+04  0.12859405415E+04  0.00000000000E+00 0.  1.
         23    2    1    2    0    0  0.92905855243E+03  0.12206532473E+04  0.56038489709E+02  0.15365343299E+04  0.68215032362E+02 0.  0.
         11    1    3    3    0    0  0.48237635120E+03  0.58115517231E+03  0.39715095381E+02  0.75631049663E+03  0.00000000000E+00 0.  1.
        -11    1    3    3    0    0  0.44668220123E+03  0.63949807494E+03  0.16323394329E+02  0.78022383324E+03  0.00000000000E+00 0. -1.
         22    1    1    2    0    0 -0.92905855243E+03 -0.12206532473E+04  0.53236123678E+03  0.16237464797E+04  0.00000000000E+00 0. -1.
<mgrwt>
<rscale>  0 0.31050218E+04</rscale>
<asrwt>0</asrwt>
<pdfrwt beam="1">  1        1 0.28836004E+00 0.31050218E+04</pdfrwt>
<pdfrwt beam="2">  1       -1 0.19783701E+00 0.31050218E+04</pdfrwt>
<totfact> 0.47655419E-01</totfact>
</mgrwt>
</event>
<event>
 6    1  0.2003386E-005  0.1836970E+04  0.7818608E-02  0.8686882E-01
         -1   -1    0    0    0  501 -0.00000000000E+00  0.00000000000E+00  0.94396051550E+03  0.94396051550E+03  0.00000000000E+00 0.  1.
          1   -1    0    0  501    0  0.00000000000E+00 -0.00000000000E+00 -0.89369740501E+03  0.89369740501E+03  0.00000000000E+00 0. -1.
         23    2    1    2    0    0 -0.43100527335E+03 -0.59383363365E+03  0.57395723655E+03  0.93618164917E+03  0.92764436861E+02 0.  0.
         11    1    3    3    0    0 -0.22726540025E+03 -0.27998579545E+03  0.22846934583E+03  0.42689559589E+03  0.00000000000E+00 0. -1.
        -11    1    3    3    0    0 -0.20373987310E+03 -0.31384783821E+03  0.34548789072E+03  0.50928605329E+03  0.00000000000E+00 0.  1.
         22    1    1    2    0    0  0.43100527335E+03  0.59383363365E+03 -0.52369412605E+03  0.90147627133E+03  0.00000000000E+00 0. -1.
<mgrwt>
<rscale>  0 0.18369704E+04</rscale>
<asrwt>0</asrwt>
<pdfrwt beam="1">  1        1 0.13749191E+00 0.18369704E+04</pdfrwt>
<pdfrwt beam="2">  1       -1 0.14522469E+00 0.18369704E+04</pdfrwt>
<totfact> 0.65918856E+00</totfact>
</mgrwt>
</event>
<event>
 6    1  0.2003386E-005  0.1538253E+04  0.7818608E-02  0.8859406E-01
         -2   -1    0    0    0  501 -0.00000000000E+00  0.00000000000E+00  0.29236339051E+03  0.29236339051E+03  0.00000000000E+00 0.  1.
          2   -1    0    0  501    0  0.00000000000E+00 -0.00000000000E+00 -0.20233582728E+04  0.20233582728E+04  0.00000000000E+00 0. -1.
         23    2    1    2    0    0  0.57392153249E+03 -0.50957226590E+03 -0.87246443611E+03  0.11641469386E+04  0.70668824072E+02 0.  0.
         13    1    3    3    0    0  0.15999242857E+03 -0.14972176167E+03 -0.29804529186E+03  0.36992591031E+03  0.00000000000E+00 0. -1.
        -13    1    3    3    0    0  0.41392910392E+03 -0.35985050423E+03 -0.57441914424E+03  0.79422102826E+03  0.00000000000E+00 0.  1.
         22    1    1    2    0    0 -0.57392153249E+03  0.50957226590E+03 -0.85853044621E+03  0.11515747248E+04  0.00000000000E+00 0. -1.
<mgrwt>
<rscale>  0 0.15382534E+04</rscale>
<asrwt>0</asrwt>
<pdfrwt beam="1">  1        2 0.31128589E+00 0.15382534E+04</pdfrwt>
<pdfrwt beam="2">  1       -2 0.44978983E-01 0.15382534E+04</pdfrwt>
<totfact> 0.29293555E+01</totfact>
</mgrwt>
</event>
<event>
 6    1  0.2003386E-005  0.4992876E+04  0.7818608E-02  0.7829607E-01
         -2   -1    0    0    0  501 -0.00000000000E+00  0.00000000000E+00  0.16174177197E+04  0.16174177197E+04  0.00000000000E+00 0.  1.
          2   -1    0    0  501    0  0.00000000000E+00 -0.00000000000E+00 -0.38531810933E+04  0.38531810933E+04  0.00000000000E+00 0. -1.
         23    2    1    2    0    0  0.18428384930E+04 -0.15282885083E+04 -0.34645000179E+03  0.24208079197E+04  0.92541366402E+02 0.  0.
         13    1    3    3    0    0  0.18779046583E+03 -0.12771631690E+03 -0.16346489813E+02  0.22769260943E+03  0.00000000000E+00 0.  1.
        -13    1    3    3    0    0  0.16550480271E+04 -0.14005721914E+04 -0.33010351198E+03  0.21931153103E+04  0.00000000000E+00 0. -1.
         22    1    1    2    0    0 -0.18428384930E+04  0.15282885083E+04 -0.18893133718E+04  0.30497908933E+04  0.00000000000E+00 0. -1.
<mgrwt>
<rscale>  0 0.49928763E+04</rscale>
<asrwt>0</asrwt>
<pdfrwt beam="1">  1        2 0.59279709E+00 0.49928763E+04</pdfrwt>
<pdfrwt beam="2">  1       -2 0.24883350E+00 0.49928763E+04</pdfrwt>
<totfact> 0.21198481E-02</totfact>
</mgrwt>
</event>
<event>
 6    1  0.2003386E-005  0.3659066E+04  0.7818608E-02  0.8077094E-01
         -2   -1    0    0    0  501 -0.00000000000E+00  0.00000000000E+00  0.70812198210E+03  0.70812198210E+03  0.00000000000E+00 0.  1.
          2   -1    0    0  501    0  0.00000000000E+00 -0.00000000000E+00 -0.47268560662E+04  0.47268560662E+04  0.00000000000E+00 0. -1.
         23    2    1    2    0    0 -0.11215394821E+04 -0.54026295784E+03 -0.39997187535E+04  0.41899493513E+04  0.90501854672E+02 0.  0.
         13    1    3    3    0    0 -0.36985570798E+03 -0.14134304442E+03 -0.11843565487E+04  0.12487880266E+04  0.00000000000E+00 0.  1.
        -13    1    3    3    0    0 -0.75168377414E+03 -0.39891991341E+03 -0.28153622048E+04  0.29411613247E+04  0.00000000000E+00 0. -1.
         22    1    1    2    0    0  0.11215394821E+04  0.54026295784E+03 -0.19015330594E+02  0.12450286970E+04  0.00000000000E+00 0.  1.
<mgrwt>
<rscale>  0 0.36590658E+04</rscale>
<asrwt>0</asrwt>
<pdfrwt beam="1">  1        2 0.72720864E+00 0.36590658E+04</pdfrwt>
<pdfrwt beam="2">  1       -2 0.10894184E+00 0.36590658E+04</pdfrwt>
<totfact> 0.38875658E-02</totfact>
</mgrwt>
</event>
<event>
 6    1  0.2003386E-005  0.1763524E+04  0.7818608E-02  0.8725941E-01
         -2   -1    0    0    0  501 -0.00000000000E+00  0.00000000000E+00  0.47771152327E+03  0.47771152327E+03  0.00000000000E+00 0.  1.
          2   -1    0    0  501    0  0.00000000000E+00 -0.00000000000E+00 -0.16275609354E+04  0.16275609354E+04  0.00000000000E+00 0. -1.
         23    2    1    2    0    0 -0.62122847085E+03  0.59437847789E+03 -0.35633073710E+03  0.93527994775E+03  0.92554840460E+02 0.  0.
         11    1    3    3    0    0 -0.50904140900E+03  0.43574332724E+03 -0.26467234528E+03  0.72044906390E+03  0.00000000000E+00 0. -1.
        -11    1    3    3    0    0 -0.11218706185E+03  0.15863515064E+03 -0.91658391824E+02  0.21483088386E+03  0.00000000000E+00 0.  1.
         22    1    1    2    0    0  0.62122847085E+03 -0.59437847789E+03 -0.79351867501E+03  0.11699925109E+04  0.00000000000E+00 0. -1.
<mgrwt>
<rscale>  0 0.17635244E+04</rscale>
<asrwt>0</asrwt>
<pdfrwt beam="1">  1        2 0.25039399E+00 0.17635244E+04</pdfrwt>
<pdfrwt beam="2">  1       -2 0.73494080E-01 0.17635244E+04</pdfrwt>
<totfact> 0.17018389E+01</totfact>
</mgrwt>
</event>
<event>
 6    1  0.2003386E-005  0.4080313E+04  0.7818608E-02  0.7988538E-01
         -2   -1    0    0    0  501 -0.00000000000E+00  0.00000000000E+00  0.13508616422E+04  0.13508616422E+04  0.00000000000E+00 0.  1.
          2   -1    0    0  501    0  0.00000000000E+00 -0.00000000000E+00 -0.30811726844E+04  0.30811726844E+04  0.00000000000E+00 0. -1.
         23    2    1    2    0    0  0.10594411940E+04 -0.22328939153E+03 -0.27423871154E+04  0.29499507346E+04  0.96168859586E+02 0.  0.
         11    1    3    3    0    0  0.85782393587E+03 -0.20984204157E+03 -0.22949633387E+04  0.24590145004E+04  0.00000000000E+00 0. -1.
        -11    1    3    3    0    0  0.20161725817E+03 -0.13447349962E+02 -0.44742377676E+03  0.49093623417E+03  0.00000000000E+00 0.  1.
         22    1    1    2    0    0 -0.10594411940E+04  0.22328939153E+03  0.10120760731E+04  0.14820835920E+04  0.00000000000E+00 0.  1.
<mgrwt>
<rscale>  0 0.40803127E+04</rscale>
<asrwt>0</asrwt>
<pdfrwt beam="1">  1        2 0.47402657E+00 0.40803127E+04</pdfrwt>
<pdfrwt beam="2">  1       -2 0.20782487E+00 0.40803127E+04</pdfrwt>
<totfact> 0.14330475E-01</totfact>
</mgrwt>
</event>
<event>
 6    1  0.2003386E-005  0.2479139E+04  0.7818608E-02  0.8410455E-01
         -2   -1    0    0    0  501 -0.00000000000E+00  0.00000000000E+00  0.10943357121E+04  0.10943357121E+04  0.00000000000E+00 0.  1.
          2   -1    0    0  501    0  0.00000000000E+00 -0.00000000000E+00 -0.14040778360E+04  0.14040778360E+04  0.00000000000E+00 0. -1.
         23    2    1    2    0    0  0.14594814643E+03  0.52239231893E+03  0.96636986437E+03  0.11118146865E+04  0.89814175116E+02 0.  0.
         11    1    3    3    0    0  0.11096935329E+03  0.39092674237E+03  0.63858116317E+03  0.75691731201E+03  0.00000000000E+00 0. -1.
        -11    1    3    3    0    0  0.34978793147E+02  0.13146557656E+03  0.32778870120E+03  0.35489737449E+03  0.00000000000E+00 0.  1.
         22    1    1    2    0    0 -0.14594814643E+03 -0.52239231893E+03 -0.12761119883E+04  0.13865988616E+04  0.00000000000E+00 0. -1.
<mgrwt>
<rscale>  0 0.24791390E+04</rscale>
<asrwt>0</asrwt>
<pdfrwt beam="1">  1        2 0.21601197E+00 0.24791390E+04</pdfrwt>
<pdfrwt beam="2">  1       -2 0.16835934E+00 0.24791390E+04</pdfrwt>
<totfact> 0.28159680E+00</totfact>
</mgrwt>
</event>
<event>
 6    1  0.2003386E-005  0.1435017E+04  0.7818608E-02  0.8928854E-01
          2   -1    0    0  501    0  0.00000000000E+00  0.00000000000E+00  0.29977467909E+04  0.29977467909E+04  0.00000000000E+00 0. -1.
         -2   -1    0    0    0  501 -0.00000000000E+00 -0.00000000000E+00 -0.17173508406E+03  0.17173508406E+03  0.00000000000E+00 0.  1.
         23    2    1    2    0    0  0.36777846092E+03 -0.60942815056E+03  0.13393665395E+04  0.15212168718E+04  0.11633734115E+03 0.  0.
         11    1    3    3    0    0  0.21254771341E+03 -0.35080494839E+03  0.89042195251E+03  0.98035294450E+03  0.00000000000E+00 0. -1.
        -11    1    3    3    0    0  0.15523074751E+03 -0.25862320217E+03  0.44894458697E+03  0.54086392729E+03  0.00000000000E+00 0.  1.
         22    1    1    2    0    0 -0.36777846092E+03  0.60942815056E+03  0.14866451673E+04  0.16482650031E+04  0.00000000000E+00 0.  1.
<mgrwt>
<rscale>  0 0.14350168E+04</rscale>
<asrwt>0</asrwt>
<pdfrwt beam="1">  1        2 0.46119177E+00 0.14350168E+04</pdfrwt>
<pdfrwt beam="2">  1       -2 0.26420784E-01 0.14350168E+04</pdfrwt>
<totfact> 0.22183679E+01</totfact>
</mgrwt>
</event>
<event>
 6    1  0.2003386E-005  0.1439962E+04  0.7818608E-02  0.8925389E-01
         -2   -1    0    0    0  501 -0.00000000000E+00  0.00000000000E+00  0.41997253981E+03  0.41997253981E+03  0.00000000000E+00 0.  1.
          2   -1    0    0  501    0  0.00000000000E+00 -0.00000000000E+00 -0.12343011712E+04  0.12343011712E+04  0.00000000000E+00 0. -1.
         23    2    1    2    0    0  0.35677393820E+03 -0.40204230348E+03  0.13650771729E+03  0.56202125908E+03  0.91147583704E+02 0.  0.
         11    1    3    3    0    0  0.18466958618E+03 -0.15649874108E+03  0.30479449889E+02  0.24397481199E+03  0.00000000000E+00 0. -1.
        -11    1    3    3    0    0  0.17210435202E+03 -0.24554356240E+03  0.10602826740E+03  0.31804644709E+03  0.00000000000E+00 0.  1.
         22    1    1    2    0    0 -0.35677393820E+03  0.40204230348E+03 -0.95083634870E+03  0.10922524519E+04  0.00000000000E+00 0. -1.
<mgrwt>
<rscale>  0 0.14399619E+04</rscale>
<asrwt>0</asrwt>
<pdfrwt beam="1">  1        2 0.18989249E+00 0.14399619E+04</pdfrwt>
<pdfrwt beam="2">  1       -2 0.64611159E-01 0.14399619E+04</pdfrwt>
<totfact> 0.38784061E+01</totfact>
</mgrwt>
</event>
<event>
 6    1  0.2003386E-005  0.3106385E+04  0.7818608E-02  0.8213988E-01
         -2   -1    0    0    0  501 -0.00000000000E+00  0.00000000000E+00  0.12126275757E+04  0.12126275757E+04  0.00000000000E+00 0. -1.
          2   -1    0    0  501    0  0.00000000000E+00 -0.00000000000E+00 -0.19894052157E+04  0.19894052157E+04  0.00000000000E+00 0.  1.
         23    2    1    2    0    0  0.35805323025E+03 -0.82444017682E+03 -0.16927419943E+04  0.19187189486E+04  0.90571648587E+02 0.  0.
         11    1    3    3    0    0  0.91346566684E+01 -0.76304634136E+02 -0.17148707364E+03  0.18791927940E+03  0.00000000000E+00 0. -1.
        -11    1    3    3    0    0  0.34891857358E+03 -0.74813554269E+03 -0.15212549207E+04  0.17307996692E+04  0.00000000000E+00 0.  1.
         22    1    1    2    0    0 -0.35805323025E+03  0.82444017682E+03  0.91596435427E+03  0.12833138428E+04  0.00000000000E+00 0. -1.
<mgrwt>
<rscale>  0 0.31063854E+04</rscale>
<asrwt>0</asrwt>
<pdfrwt beam="1">  1        2 0.30606234E+00 0.31063854E+04</pdfrwt>
<pdfrwt beam="2">  1       -2 0.18655809E+00 0.31063854E+04</pdfrwt>
<totfact> 0.93980367E-01</totfact>
</mgrwt>
</event>
<event>
 6    1  0.2003386E-005  0.3314350E+04  0.7818608E-02  0.8159254E-01
          1   -1    0    0  501    0  0.00000000000E+00  0.00000000000E+00  0.18720295479E+04  0.18720295479E+04  0.00000000000E+00 0. -1.
         -1   -1    0    0    0  501 -0.00000000000E+00 -0.00000000000E+00 -0.14669793942E+04  0.14669793942E+04  0.00000000000E+00 0.  1.
         23    2    1    2    0    0 -0.86816801769E+03  0.10238998141E+04  0.11794627625E+04  0.17892343052E+04  0.90224468379E+02 0.  0.
         11    1    3    3    0    0 -0.17498832426E+03  0.25974218709E+03  0.25341295375E+03  0.40287099984E+03  0.00000000000E+00 0. -1.
        -11    1    3    3    0    0 -0.69317969343E+03  0.76415762701E+03  0.92604980872E+03  0.13863633054E+04  0.00000000000E+00 0.  1.
         22    1    1    2    0    0  0.86816801769E+03 -0.10238998141E+04 -0.77441260878E+03  0.15497746368E+04  0.00000000000E+00 0.  1.
<mgrwt>
<rscale>  0 0.33143499E+04</rscale>
<asrwt>0</asrwt>
<pdfrwt beam="1">  1        1 0.28800454E+00 0.33143499E+04</pdfrwt>
<pdfrwt beam="2">  1       -1 0.22568914E+00 0.33143499E+04</pdfrwt>
<totfact> 0.30412468E-01</totfact>
</mgrwt>
</event>
<event>
 6    1  0.2003386E-005  0.3690038E+04  0.7818608E-02  0.8070173E-01
         -2   -1    0    0    0  501 -0.00000000000E+00  0.00000000000E+00  0.13195085540E+04  0.13195085540E+04  0.00000000000E+00 0. -1.
          2   -1    0    0  501    0  0.00000000000E+00 -0.00000000000E+00 -0.25798197575E+04  0.25798197575E+04  0.00000000000E+00 0.  1.
         23    2    1    2    0    0 -0.13834523386E+03 -0.15154504709E+04 -0.17308225047E+04  0.23064973669E+04  0.91945785178E+02 0.  0.
         11    1    3    3    0    0 -0.29228168462E+02 -0.80884703965E+03 -0.93634915371E+03  0.12376742532E+04  0.00000000000E+00 0.  1.
        -11    1    3    3    0    0 -0.10911706540E+03 -0.70660343127E+03 -0.79447335095E+03  0.10688231137E+04  0.00000000000E+00 0. -1.
         22    1    1    2    0    0  0.13834523386E+03  0.15154504709E+04  0.47051130115E+03  0.15928309446E+04  0.00000000000E+00 0.  1.
<mgrwt>
<rscale>  0 0.36900375E+04</rscale>
<asrwt>0</asrwt>
<pdfrwt beam="1">  1        2 0.39689534E+00 0.36900375E+04</pdfrwt>
<pdfrwt beam="2">  1       -2 0.20300132E+00 0.36900375E+04</pdfrwt>
<totfact> 0.32158529E-01</totfact>
</mgrwt>
</event>
<event>
 6    1  0.2003386E-005  0.2388597E+04  0.7818608E-02  0.8443785E-01
         -2   -1    0    0    0  501 -0.00000000000E+00  0.00000000000E+00  0.23415373875E+04  0.23415373875E+04  0.00000000000E+00 0.  1.
          2   -1    0    0  501    0  0.00000000000E+00 -0.00000000000E+00 -0.60915052588E+03  0.60915052588E+03  0.00000000000E+00 0. -1.
         23    2    1    2    0    0  0.63957390450E+02  0.10054131896E+04  0.16556742399E+04  0.19403260694E+04  0.93068991858E+02 0.  0.
         13    1    3    3    0    0  0.42678619295E+02  0.84784739854E+03  0.13286368065E+04  0.15766871723E+04  0.00000000000E+00 0. -1.
        -13    1    3    3    0    0  0.21278771155E+02  0.15756579103E+03  0.32703743341E+03  0.36363889707E+03  0.00000000000E+00 0.  1.
         22    1    1    2    0    0 -0.63957390450E+02 -0.10054131896E+04  0.76712621756E+02  0.10103618440E+04  0.00000000000E+00 0. -1.
<mgrwt>
<rscale>  0 0.23885969E+04</rscale>
<asrwt>0</asrwt>
<pdfrwt beam="1">  1        2 0.93715467E-01 0.23885969E+04</pdfrwt>
<pdfrwt beam="2">  1       -2 0.36023652E+00 0.23885969E+04</pdfrwt>
<totfact> 0.58782483E-01</totfact>
</mgrwt>
</event>
<event>
 6    1  0.2003386E-005  0.2687643E+04  0.7818608E-02  0.8339026E-01
          2   -1    0    0  501    0  0.00000000000E+00  0.00000000000E+00  0.18979484907E+04  0.18979484907E+04  0.00000000000E+00 0. -1.
         -2   -1    0    0    0  501 -0.00000000000E+00 -0.00000000000E+00 -0.95147803914E+03  0.95147803914E+03  0.00000000000E+00 0.  1.
         23    2    1    2    0    0  0.60130834825E+03 -0.11587480246E+04  0.14144866223E+03  0.13156961769E+04  0.82340705273E+02 0.  0.
         11    1    3    3    0    0  0.48146140056E+03 -0.90708733161E+03  0.14368534486E+03  0.10369464720E+04  0.00000000000E+00 0. -1.
        -11    1    3    3    0    0  0.11984694769E+03 -0.25166069298E+03 -0.22366826265E+01  0.27874970495E+03  0.00000000000E+00 0.  1.
         22    1    1    2    0    0 -0.60130834825E+03  0.11587480246E+04  0.80502178932E+03  0.15337303529E+04  0.00000000000E+00 0. -1.
<mgrwt>
<rscale>  0 0.26876431E+04</rscale>
<asrwt>0</asrwt>
<pdfrwt beam="1">  1        2 0.29199207E+00 0.26876431E+04</pdfrwt>
<pdfrwt beam="2">  1       -2 0.14638124E+00 0.26876431E+04</pdfrwt>
<totfact> 0.21370851E+00</totfact>
</mgrwt>
</event>
<event>
 6    1  0.2003386E-005  0.2035056E+04  0.7818608E-02  0.8590404E-01
          2   -1    0    0  501    0  0.00000000000E+00  0.00000000000E+00  0.97086620245E+03  0.97086620245E+03  0.00000000000E+00 0.  1.
         -2   -1    0    0    0  501 -0.00000000000E+00 -0.00000000000E+00 -0.10664320067E+04  0.10664320067E+04  0.00000000000E+00 0. -1.
         23    2    1    2    0    0  0.29402226356E+03  0.62379591837E+03  0.69799082847E+03  0.98596449974E+03  0.96769617468E+02 0.  0.
         13    1    3    3    0    0  0.22174219925E+03  0.53517781823E+03  0.61349316149E+03  0.84377648655E+03  0.00000000000E+00 0. -1.
        -13    1    3    3    0    0  0.72280064313E+02  0.88618100137E+02  0.84497666977E+02  0.14218801319E+03  0.00000000000E+00 0.  1.
         22    1    1    2    0    0 -0.29402226356E+03 -0.62379591837E+03 -0.79355663277E+03  0.10513337095E+04  0.00000000000E+00 0. -1.
<mgrwt>
<rscale>  0 0.20350556E+04</rscale>
<asrwt>0</asrwt>
<pdfrwt beam="1">  1        2 0.14936403E+00 0.20350556E+04</pdfrwt>
<pdfrwt beam="2">  1       -2 0.16406646E+00 0.20350556E+04</pdfrwt>
<totfact> 0.57302422E+00</totfact>
</mgrwt>
</event>
<event>
 6    1  0.2003386E-005  0.3856268E+04  0.7818608E-02  0.8034187E-01
          1   -1    0    0  501    0  0.00000000000E+00  0.00000000000E+00  0.97996168889E+03  0.97996168889E+03  0.00000000000E+00 0. -1.
         -1   -1    0    0    0  501 -0.00000000000E+00 -0.00000000000E+00 -0.37937201412E+04  0.37937201412E+04  0.00000000000E+00 0.  1.
         23    2    1    2    0    0  0.18682560208E+04 -0.46061325857E+03 -0.15323016364E+04  0.24618261460E+04  0.10047156353E+03 0.  0.
         11    1    3    3    0    0  0.69490241667E+03 -0.22142756896E+03 -0.58360240080E+03  0.93408313293E+03  0.00000000000E+00 0.  1.
        -11    1    3    3    0    0  0.11733536041E+04 -0.23918568961E+03 -0.94869923560E+03  0.15277430131E+04  0.00000000000E+00 0. -1.
         22    1    1    2    0    0 -0.18682560208E+04  0.46061325857E+03 -0.12814568159E+04  0.23118556841E+04  0.00000000000E+00 0. -1.
<mgrwt>
<rscale>  0 0.38562678E+04</rscale>
<asrwt>0</asrwt>
<pdfrwt beam="1">  1        1 0.15076334E+00 0.38562678E+04</pdfrwt>
<pdfrwt beam="2">  1       -1 0.58364925E+00 0.38562678E+04</pdfrwt>
<totfact> 0.64019933E-03</totfact>
</mgrwt>
</event>
<event>
 6    1  0.2003386E-005  0.1527875E+04  0.7818608E-02  0.8866125E-01
          1   -1    0    0  501    0  0.00000000000E+00  0.00000000000E+00  0.29972897595E+03  0.29972897595E+03  0.00000000000E+00 0. -1.
         -1   -1    0    0    0  501 -0.00000000000E+00 -0.00000000000E+00 -0.19470951736E+04  0.19470951736E+04  0.00000000000E+00 0.  1.
         23    2    1    2    0    0 -0.73914752138E+03 -0.15193827098E+03 -0.97446981190E+03  0.12357782344E+04  0.90178344340E+02 0.  0.
         11    1    3    3    0    0 -0.47253669100E+03 -0.58668767329E+02 -0.57558247264E+03  0.74701280539E+03  0.00000000000E+00 0.  1.
        -11    1    3    3    0    0 -0.26661083038E+03 -0.93269503648E+02 -0.39888733925E+03  0.48876542901E+03  0.00000000000E+00 0. -1.
         22    1    1    2    0    0  0.73914752138E+03  0.15193827098E+03 -0.67289638570E+03  0.10110459151E+04  0.00000000000E+00 0. -1.
<mgrwt>
<rscale>  0 0.15278754E+04</rscale>
<asrwt>0</asrwt>
<pdfrwt beam="1">  1        1 0.46112149E-01 0.15278754E+04</pdfrwt>
<pdfrwt beam="2">  1       -1 0.29955311E+00 0.15278754E+04</pdfrwt>
<totfact> 0.28233158E+00</totfact>
</mgrwt>
</event>
<event>
 6    1  0.2003386E-005  0.2537798E+04  0.7818608E-02  0.8389642E-01
         -2   -1    0    0    0  501 -0.00000000000E+00  0.00000000000E+00  0.11664479396E+04  0.11664479396E+04  0.00000000000E+00 0.  1.
          2   -1    0    0  501    0  0.00000000000E+00 -0.00000000000E+00 -0.13803479993E+04  0.13803479993E+04  0.00000000000E+00 0. -1.
         23    2    1    2    0    0  0.58755011411E+03  0.52472435554E+03  0.88912708660E+03  0.11913551725E+04  0.90715958136E+02 0.  0.
         11    1    3    3    0    0  0.26083108437E+03  0.18809556759E+03  0.40632186365E+03  0.51817975067E+03  0.00000000000E+00 0. -1.
        -11    1    3    3    0    0  0.32671902974E+03  0.33662878795E+03  0.48280522295E+03  0.67317542185E+03  0.00000000000E+00 0.  1.
         22    1    1    2    0    0 -0.58755011411E+03 -0.52472435554E+03 -0.11030271463E+04  0.13554407664E+04  0.00000000000E+00 0. -1.
<mgrwt>
<rscale>  0 0.25377975E+04</rscale>
<asrwt>0</asrwt>
<pdfrwt beam="1">  1        2 0.21236123E+00 0.25377975E+04</pdfrwt>
<pdfrwt beam="2">  1       -2 0.17945353E+00 0.25377975E+04</pdfrwt>
<totfact> 0.24155422E+00</totfact>
</mgrwt>
</event>
<event>
 6    1  0.2003386E-005  0.4515245E+04  0.7818608E-02  0.7907973E-01
          2   -1    0    0  501    0  0.00000000000E+00  0.00000000000E+00  0.49435646352E+04  0.49435646352E+04  0.00000000000E+00 0. -1.
         -2   -1    0    0    0  501 -0.00000000000E+00 -0.00000000000E+00 -0.10310088326E+04  0.10310088326E+04  0.00000000000E+00 0.  1.
         23    2    1    2    0    0  0.77535993675E+03 -0.13970217499E+04  0.40658451262E+04  0.43694720947E+04  0.91307148878E+02 0.  0.
         13    1    3    3    0    0  0.15941858311E+03 -0.22877985409E+03  0.76443379193E+03  0.81370358763E+03  0.00000000000E+00 0.  1.
        -13    1    3    3    0    0  0.61594135364E+03 -0.11682418958E+04  0.33014113342E+04  0.35557685071E+04  0.00000000000E+00 0. -1.
         22    1    1    2    0    0 -0.77535993675E+03  0.13970217499E+04 -0.15328932363E+03  0.16051013731E+04  0.00000000000E+00 0.  1.
<mgrwt>
<rscale>  0 0.45152448E+04</rscale>
<asrwt>0</asrwt>
<pdfrwt beam="1">  1        2 0.76054840E+00 0.45152448E+04</pdfrwt>
<pdfrwt beam="2">  1       -2 0.15861675E+00 0.45152448E+04</pdfrwt>
<totfact> 0.77657086E-03</totfact>
</mgrwt>
</event>
<event>
 6    1  0.2003386E-005  0.1578255E+04  0.7818608E-02  0.8834019E-01
          2   -1    0    0  501    0  0.00000000000E+00  0.00000000000E+00  0.13814634975E+04  0.13814634975E+04  0.00000000000E+00 0. -1.
         -2   -1    0    0    0  501 -0.00000000000E+00 -0.00000000000E+00 -0.45076973297E+03  0.45076973297E+03  0.00000000000E+00 0.  1.
         23    2    1    2    0    0 -0.49843081248E+03 -0.26792538852E+03  0.11011078342E+04  0.12412524831E+04  0.89732801070E+02 0.  0.
         13    1    3    3    0    0 -0.13554098480E+03 -0.29755778632E+02  0.25631227594E+03  0.29146654649E+03  0.00000000000E+00 0. -1.
        -13    1    3    3    0    0 -0.36288982768E+03 -0.23816960989E+03  0.84479555828E+03  0.94978593662E+03  0.00000000000E+00 0.  1.
         22    1    1    2    0    0  0.49843081248E+03  0.26792538852E+03 -0.17041406966E+03  0.59098074739E+03  0.00000000000E+00 0.  1.
<mgrwt>
<rscale>  0 0.15782546E+04</rscale>
<asrwt>0</asrwt>
<pdfrwt beam="1">  1        2 0.21253284E+00 0.15782546E+04</pdfrwt>
<pdfrwt beam="2">  1       -2 0.69349190E-01 0.15782546E+04</pdfrwt>
<totfact> 0.27023683E+01</totfact>
</mgrwt>
</event>
<event>
 6    1  0.2003386E-005  0.1723986E+04  0.7818608E-02  0.8747801E-01
          1   -1    0    0  501    0  0.00000000000E+00  0.00000000000E+00  0.11081735857E+04  0.11081735857E+04  0.00000000000E+00 0. -1.
         -1   -1    0    0    0  501 -0.00000000000E+00 -0.00000000000E+00 -0.67050149083E+03  0.67050149083E+03  0.00000000000E+00 0.  1.
         23    2    1    2    0    0  0.29086352705E+03  0.55837521779E+03 -0.38442764526E+03  0.74318849624E+03  0.90333002266E+02 0.  0.
         13    1    3    3    0    0  0.13934402256E+03  0.20060673241E+03 -0.18539366579E+03  0.30664414070E+03  0.00000000000E+00 0. -1.
        -13    1    3    3    0    0  0.15151950449E+03  0.35776848538E+03 -0.19903397947E+03  0.43654435555E+03  0.00000000000E+00 0.  1.
         22    1    1    2    0    0 -0.29086352705E+03 -0.55837521779E+03  0.82209974012E+03  0.10354865803E+04  0.00000000000E+00 0. -1.
<mgrwt>
<rscale>  0 0.17239861E+04</rscale>
<asrwt>0</asrwt>
<pdfrwt beam="1">  1        1 0.17048824E+00 0.17239861E+04</pdfrwt>
<pdfrwt beam="2">  1       -1 0.10315408E+00 0.17239861E+04</pdfrwt>
<totfact> 0.10534332E+01</totfact>
</mgrwt>
</event>
<event>
 6    1  0.2003386E-005  0.3454541E+04  0.7818608E-02  0.8124649E-01
          2   -1    0    0  501    0  0.00000000000E+00  0.00000000000E+00  0.18368680903E+04  0.18368680903E+04  0.00000000000E+00 0. -1.
         -2   -1    0    0    0  501 -0.00000000000E+00 -0.00000000000E+00 -0.16242117537E+04  0.16242117537E+04  0.00000000000E+00 0.  1.
         23    2    1    2    0    0  0.11407081718E+04 -0.12894899658E+04  0.22905696176E+03  0.17393747340E+04  0.94646017103E+02 0.  0.
         11    1    3    3    0    0  0.18490589615E+03 -0.22140212246E+03  0.73314907280E+02  0.29763092227E+03  0.00000000000E+00 0.  1.
        -11    1    3    3    0    0  0.95580227567E+03 -0.10680878433E+04  0.15574205448E+03  0.14417438117E+04  0.00000000000E+00 0. -1.
         22    1    1    2    0    0 -0.11407081718E+04  0.12894899658E+04 -0.16400625191E+02  0.17217051099E+04  0.00000000000E+00 0.  1.
<mgrwt>
<rscale>  0 0.34545406E+04</rscale>
<asrwt>0</asrwt>
<pdfrwt beam="1">  1        2 0.28259509E+00 0.34545406E+04</pdfrwt>
<pdfrwt beam="2">  1       -2 0.24987873E+00 0.34545406E+04</pdfrwt>
<totfact> 0.43705411E-01</totfact>
</mgrwt>
</event>
<event>
 6    1  0.2003386E-005  0.6021943E+04  0.7818608E-02  0.7687687E-01
         -2   -1    0    0    0  501 -0.00000000000E+00  0.00000000000E+00  0.20987835295E+04  0.20987835295E+04  0.00000000000E+00 0.  1.
          2   -1    0    0  501    0  0.00000000000E+00 -0.00000000000E+00 -0.43196211504E+04  0.43196211504E+04  0.00000000000E+00 0. -1.
         23    2    1    2    0    0 -0.22376541422E+04 -0.15962437564E+04 -0.24188614808E+04  0.36626282668E+04  0.94152893540E+02 0.  0.
         13    1    3    3    0    0 -0.39290825288E+03 -0.32174036210E+03 -0.42821460097E+03  0.66427516909E+03  0.00000000000E+00 0.  1.
        -13    1    3    3    0    0 -0.18447458893E+04 -0.12745033943E+04 -0.19906468799E+04  0.29983530977E+04  0.00000000000E+00 0. -1.
         22    1    1    2    0    0  0.22376541422E+04  0.15962437564E+04  0.19802385995E+03  0.27557764131E+04  0.00000000000E+00 0.  1.
<mgrwt>
<rscale>  0 0.60219431E+04</rscale>
<asrwt>0</asrwt>
<pdfrwt beam="1">  1        2 0.66455710E+00 0.60219431E+04</pdfrwt>
<pdfrwt beam="2">  1       -2 0.32288978E+00 0.60219431E+04</pdfrwt>
<totfact> 0.27859700E-03</totfact>
</mgrwt>
</event>
<event>
 6    1  0.2003386E-005  0.5876129E+04  0.7818608E-02  0.7705953E-01
          2   -1    0    0  501    0  0.00000000000E+00  0.00000000000E+00  0.45687494124E+04  0.45687494124E+04  0.00000000000E+00 0. -1.
         -2   -1    0    0    0  501 -0.00000000000E+00 -0.00000000000E+00 -0.18894058427E+04  0.18894058427E+04  0.00000000000E+00 0.  1.
         23    2    1    2    0    0  0.26977710904E+04  0.63659153786E+03  0.27177249573E+03  0.27866955838E+04  0.92705691488E+02 0.  0.
         11    1    3    3    0    0  0.19492610925E+04  0.43736744796E+03  0.16031309362E+03  0.20041480432E+04  0.00000000000E+00 0.  1.
        -11    1    3    3    0    0  0.74850999787E+03  0.19922408990E+03  0.11145940211E+03  0.78254754056E+03  0.00000000000E+00 0. -1.
         22    1    1    2    0    0 -0.26977710904E+04 -0.63659153786E+03  0.24075710740E+04  0.36714596713E+04  0.00000000000E+00 0. -1.
<mgrwt>
<rscale>  0 0.58761286E+04</rscale>
<asrwt>0</asrwt>
<pdfrwt beam="1">  1        2 0.70288452E+00 0.58761286E+04</pdfrwt>
<pdfrwt beam="2">  1       -2 0.29067782E+00 0.58761286E+04</pdfrwt>
<totfact> 0.25570214E-03</totfact>
</mgrwt>
</event>
<event>
 6    1  0.2003386E-005  0.1164055E+04  0.7818608E-02  0.9144915E-01
         -2   -1    0    0    0  501 -0.00000000000E+00  0.00000000000E+00  0.30710510032E+03  0.30710510032E+03  0.00000000000E+00 0.  1.
          2   -1    0    0  501    0  0.00000000000E+00 -0.00000000000E+00 -0.11030612535E+04  0.11030612535E+04  0.00000000000E+00 0. -1.
         23    2    1    2    0    0  0.20764140583E+03 -0.14910814437E+03  0.22981085037E+03  0.35302580606E+03  0.80411446106E+02 0.  0.
         13    1    3    3    0    0  0.15119091451E+03 -0.63134875519E+02  0.12409812838E+03  0.20553600805E+03  0.00000000000E+00 0.  1.
        -13    1    3    3    0    0  0.56450491319E+02 -0.85973268853E+02  0.10571272199E+03  0.14748979801E+03  0.00000000000E+00 0. -1.
         22    1    1    2    0    0 -0.20764140583E+03  0.14910814437E+03 -0.10257670035E+04  0.10571405477E+04  0.00000000000E+00 0. -1.
<mgrwt>
<rscale>  0 0.11640545E+04</rscale>
<asrwt>0</asrwt>
<pdfrwt beam="1">  1        2 0.16970173E+00 0.11640545E+04</pdfrwt>
<pdfrwt beam="2">  1       -2 0.47246939E-01 0.11640545E+04</pdfrwt>
<totfact> 0.91052851E+01</totfact>
</mgrwt>
</event>
<event>
 6    1  0.2003386E-005  0.2870356E+04  0.7818608E-02  0.8281753E-01
          2   -1    0    0  501    0  0.00000000000E+00  0.00000000000E+00  0.26117848029E+04  0.26117848029E+04  0.00000000000E+00 0. -1.
         -2   -1    0    0    0  501 -0.00000000000E+00 -0.00000000000E+00 -0.78863139718E+03  0.78863139718E+03  0.00000000000E+00 0.  1.
         23    2    1    2    0    0 -0.37993364344E+03 -0.12032698348E+04  0.10628602483E+03  0.12697258255E+04  0.93268881359E+02 0.  0.
         11    1    3    3    0    0 -0.22237084185E+03 -0.82230255119E+03  0.46041740108E+02  0.85308271512E+03  0.00000000000E+00 0.  1.
        -11    1    3    3    0    0 -0.15756280159E+03 -0.38096728357E+03  0.60244284724E+02  0.41664311040E+03  0.00000000000E+00 0. -1.
         22    1    1    2    0    0  0.37993364344E+03  0.12032698348E+04  0.17168673809E+04  0.21306903746E+04  0.00000000000E+00 0. -1.
<mgrwt>
<rscale>  0 0.28703557E+04</rscale>
<asrwt>0</asrwt>
<pdfrwt beam="1">  1        2 0.40181304E+00 0.28703557E+04</pdfrwt>
<pdfrwt beam="2">  1       -2 0.12132791E+00 0.28703557E+04</pdfrwt>
<totfact> 0.13383266E+00</totfact>
</mgrwt>
</event>
<event>
 6    1  0.2003386E-005  0.2541127E+04  0.7818608E-02  0.8388478E-01
         -1   -1    0    0    0  501 -0.00000000000E+00  0.00000000000E+00  0.82811895359E+03  0.82811895359E+03  0.00000000000E+00 0.  1.
          1   -1    0    0  501    0  0.00000000000E+00 -0.00000000000E+00 -0.19493964209E+04  0.19493964209E+04  0.00000000000E+00 0. -1.
         23    2    1    2    0    0  0.46965443099E+03 -0.17633751788E+03 -0.18353663313E+04  0.19048223526E+04  0.90046766491E+02 0.  0.
         13    1    3    3    0    0  0.19082547555E+03 -0.32509449700E+02 -0.79150896422E+03  0.81483597545E+03  0.00000000000E+00 0.  1.
        -13    1    3    3    0    0  0.27882895545E+03 -0.14382806819E+03 -0.10438573671E+04  0.10899863772E+04  0.00000000000E+00 0. -1.
         22    1    1    2    0    0 -0.46965443099E+03  0.17633751788E+03  0.71408886399E+03  0.87269302188E+03  0.00000000000E+00 0.  1.
<mgrwt>
<rscale>  0 0.25411274E+04</rscale>
<asrwt>0</asrwt>
<pdfrwt beam="1">  1        1 0.29990714E+00 0.25411274E+04</pdfrwt>
<pdfrwt beam="2">  1       -1 0.12740292E+00 0.25411274E+04</pdfrwt>
<totfact> 0.15232858E+00</totfact>
</mgrwt>
</event>
<event>
 6    1  0.2003386E-005  0.1699531E+04  0.7818608E-02  0.8761632E-01
          1   -1    0    0  501    0  0.00000000000E+00  0.00000000000E+00  0.19780727407E+04  0.19780727407E+04  0.00000000000E+00 0. -1.
         -1   -1    0    0    0  501 -0.00000000000E+00 -0.00000000000E+00 -0.36505310563E+03  0.36505310563E+03  0.00000000000E+00 0.  1.
         23    2    1    2    0    0 -0.42250394695E+02  0.37263403651E+03 -0.23840264811E+03  0.45410342940E+03  0.93449884690E+02 0.  0.
         13    1    3    3    0    0 -0.70298581090E+02  0.28126146716E+03 -0.19305906952E+03  0.34831265802E+03  0.00000000000E+00 0.  1.
        -13    1    3    3    0    0  0.28048186395E+02  0.91372569355E+02 -0.45343578583E+02  0.10579077138E+03  0.00000000000E+00 0. -1.
         22    1    1    2    0    0  0.42250394695E+02 -0.37263403651E+03  0.18514222832E+04  0.18890224170E+04  0.00000000000E+00 0. -1.
<mgrwt>
<rscale>  0 0.16995312E+04</rscale>
<asrwt>0</asrwt>
<pdfrwt beam="1">  1        1 0.30431888E+00 0.16995312E+04</pdfrwt>
<pdfrwt beam="2">  1       -1 0.56162017E-01 0.16995312E+04</pdfrwt>
<totfact> 0.94162909E+00</totfact>
</mgrwt>
</event>
<event>
 6    1  0.2003386E-005  0.5316822E+03  0.7818608E-02  0.1005825E+00
         -2   -1    0    0    0  501 -0.00000000000E+00  0.00000000000E+00  0.64963528580E+02  0.64963528580E+02  0.00000000000E+00 0.  1.
          2   -1    0    0  501    0  0.00000000000E+00 -0.00000000000E+00 -0.10878642774E+04  0.10878642774E+04  0.00000000000E+00 0. -1.
         23    2    1    2    0    0 -0.15144819094E+03  0.20850970086E+03 -0.51414970559E+03  0.58252922289E+03  0.92614933262E+02 0.  0.
         11    1    3    3    0    0 -0.72579164058E+02  0.13478356206E+03 -0.38425290347E+03  0.41362378737E+03  0.00000000000E+00 0. -1.
        -11    1    3    3    0    0 -0.78869026883E+02  0.73726138802E+02 -0.12989680213E+03  0.16890543552E+03  0.00000000000E+00 0.  1.
         22    1    1    2    0    0  0.15144819094E+03 -0.20850970086E+03 -0.50875104325E+03  0.57029858312E+03  0.00000000000E+00 0.  1.
<mgrwt>
<rscale>  0 0.53168224E+03</rscale>
<asrwt>0</asrwt>
<pdfrwt beam="1">  1        2 0.16736372E+00 0.53168224E+03</pdfrwt>
<pdfrwt beam="2">  1       -2 0.99943896E-02 0.53168224E+03</pdfrwt>
<totfact> 0.15368008E+03</totfact>
</mgrwt>
</event>
<event>
 6    1  0.2003386E-005  0.2932922E+04  0.7818608E-02  0.8263149E-01
         -2   -1    0    0    0  501 -0.00000000000E+00  0.00000000000E+00  0.63553055099E+03  0.63553055099E+03  0.00000000000E+00 0.  1.
          2   -1    0    0  501    0  0.00000000000E+00 -0.00000000000E+00 -0.33837998929E+04  0.33837998929E+04  0.00000000000E+00 0. -1.
         23    2    1    2    0    0 -0.11966716192E+04 -0.42822050164E+03 -0.37693038120E+03  0.13288575805E+04  0.91598006384E+02 0.  0.
         11    1    3    3    0    0 -0.12692231059E+03 -0.46268365483E+02 -0.11277724332E+02  0.13556261149E+03  0.00000000000E+00 0.  1.
        -11    1    3    3    0    0 -0.10697493086E+04 -0.38195213616E+03 -0.36565265687E+03  0.11932949690E+04  0.00000000000E+00 0. -1.
         22    1    1    2    0    0  0.11966716192E+04  0.42822050164E+03 -0.23713389607E+04  0.26904728634E+04  0.00000000000E+00 0. -1.
<mgrwt>
<rscale>  0 0.29329222E+04</rscale>
<asrwt>0</asrwt>
<pdfrwt beam="1">  1        2 0.52058460E+00 0.29329222E+04</pdfrwt>
<pdfrwt beam="2">  1       -2 0.97773931E-01 0.29329222E+04</pdfrwt>
<totfact> 0.73283858E-01</totfact>
</mgrwt>
</event>
<event>
 6    1  0.2003386E-005  0.1656606E+04  0.7818608E-02  0.8786508E-01
          2   -1    0    0  501    0  0.00000000000E+00  0.00000000000E+00  0.12714880739E+04  0.12714880739E+04  0.00000000000E+00 0.  1.
         -2   -1    0    0    0  501 -0.00000000000E+00 -0.00000000000E+00 -0.53959288721E+03  0.53959288721E+03  0.00000000000E+00 0. -1.
         23    2    1    2    0    0  0.51231507422E+03 -0.60427447190E+03  0.62184079496E+03  0.10112520158E+04  0.91270435740E+02 0.  0.
         13    1    3    3    0    0  0.31442276166E+03 -0.43673125239E+03  0.41561465562E+03  0.67994955830E+03  0.00000000000E+00 0. -1.
        -13    1    3    3    0    0  0.19789231256E+03 -0.16754321952E+03  0.20622613934E+03  0.33130245746E+03  0.00000000000E+00 0.  1.
         22    1    1    2    0    0 -0.51231507422E+03  0.60427447190E+03  0.11005439171E+03  0.79982894534E+03  0.00000000000E+00 0. -1.
<mgrwt>
<rscale>  0 0.16566061E+04</rscale>
<asrwt>0</asrwt>
<pdfrwt beam="1">  1        2 0.19561355E+00 0.16566061E+04</pdfrwt>
<pdfrwt beam="2">  1       -2 0.83014290E-01 0.16566061E+04</pdfrwt>
<totfact> 0.20856862E+01</totfact>
</mgrwt>
</event>
<event>
 6    1  0.2003386E-005  0.5342250E+04  0.7818608E-02  0.7777777E-01
          2   -1    0    0  501    0  0.00000000000E+00  0.00000000000E+00  0.40309447569E+04  0.40309447569E+04  0.00000000000E+00 0. -1.
         -2   -1    0    0    0  501 -0.00000000000E+00 -0.00000000000E+00 -0.17700340567E+04  0.17700340567E+04  0.00000000000E+00 0.  1.
         23    2    1    2    0    0  0.26329808227E+04 -0.26512129640E+02  0.64835860860E+03  0.27133235294E+04  0.92004261033E+02 0.  0.
         11    1    3    3    0    0  0.65580700838E+03 -0.38564342944E+02  0.18620218493E+03  0.68281863951E+03  0.00000000000E+00 0.  1.
        -11    1    3    3    0    0  0.19771738143E+04  0.12052213304E+02  0.46215642368E+03  0.20305048899E+04  0.00000000000E+00 0. -1.
         22    1    1    2    0    0 -0.26329808227E+04  0.26512129640E+02  0.16125520916E+04  0.30876552842E+04  0.00000000000E+00 0. -1.
<mgrwt>
<rscale>  0 0.53422503E+04</rscale>
<asrwt>0</asrwt>
<pdfrwt beam="1">  1        2 0.62014535E+00 0.53422503E+04</pdfrwt>
<pdfrwt beam="2">  1       -2 0.27231293E+00 0.53422503E+04</pdfrwt>
<totfact> 0.10676383E-02</totfact>
</mgrwt>
</event>
<event>
 6    1  0.2003386E-005  0.2431337E+04  0.7818608E-02  0.8427864E-01
          2   -1    0    0  501    0  0.00000000000E+00  0.00000000000E+00  0.84749140078E+03  0.84749140078E+03  0.00000000000E+00 0. -1.
         -2   -1    0    0    0  501 -0.00000000000E+00 -0.00000000000E+00 -0.17437934144E+04  0.17437934144E+04  0.00000000000E+00 0.  1.
         23    2    1    2    0    0  0.10076127373E+04  0.61368445892E+03 -0.14392800456E+03  0.11920140433E+04  0.91050344836E+02 0.  0.
         11    1    3    3    0    0  0.37819303550E+03  0.20493032767E+03 -0.14171325163E+02  0.43038034082E+03  0.00000000000E+00 0.  1.
        -11    1    3    3    0    0  0.62941970183E+03  0.40875413125E+03 -0.12975667940E+03  0.76163370246E+03  0.00000000000E+00 0. -1.
         22    1    1    2    0    0 -0.10076127373E+04 -0.61368445892E+03 -0.75237400902E+03  0.13992707719E+04  0.00000000000E+00 0.  1.
<mgrwt>
<rscale>  0 0.24313370E+04</rscale>
<asrwt>0</asrwt>
<pdfrwt beam="1">  1        2 0.13038329E+00 0.24313370E+04</pdfrwt>
<pdfrwt beam="2">  1       -2 0.26827591E+00 0.24313370E+04</pdfrwt>
<totfact> 0.14192594E+00</totfact>
</mgrwt>
</event>
<event>
 6    1  0.2003386E-005  0.3397015E+04  0.7818608E-02  0.8138639E-01
          2   -1    0    0  501    0  0.00000000000E+00  0.00000000000E+00  0.32797873000E+04  0.32797873000E+04  0.00000000000E+00 0. -1.
         -2   -1    0    0    0  501 -0.00000000000E+00 -0.00000000000E+00 -0.87960814374E+03  0.87960814374E+03  0.00000000000E+00 0.  1.
         23    2    1    2    0    0  0.14875240488E+04 -0.12879795430E+03  0.21892786112E+04  0.26514843891E+04  0.90066194648E+02 0.  0.
         13    1    3    3    0    0  0.10466826590E+04 -0.49736877867E+02  0.15450370769E+04  0.18668577650E+04  0.00000000000E+00 0. -1.
        -13    1    3    3    0    0  0.44084138980E+03 -0.79061076436E+02  0.64424153429E+03  0.78462662411E+03  0.00000000000E+00 0.  1.
         22    1    1    2    0    0 -0.14875240488E+04  0.12879795430E+03  0.21090054506E+03  0.15079110546E+04  0.00000000000E+00 0.  1.
<mgrwt>
<rscale>  0 0.33970149E+04</rscale>
<asrwt>0</asrwt>
<pdfrwt beam="1">  1        2 0.50458265E+00 0.33970149E+04</pdfrwt>
<pdfrwt beam="2">  1       -2 0.13532433E+00 0.33970149E+04</pdfrwt>
<totfact> 0.37286775E-01</totfact>
</mgrwt>
</event>
<event>
 6    1  0.2003386E-005  0.5281769E+04  0.7818608E-02  0.7786453E-01
         -1   -1    0    0    0  501 -0.00000000000E+00  0.00000000000E+00  0.19003635688E+04  0.19003635688E+04  0.00000000000E+00 0.  1.
          1   -1    0    0  501    0  0.00000000000E+00 -0.00000000000E+00 -0.36699665431E+04  0.36699665431E+04  0.00000000000E+00 0. -1.
         23    2    1    2    0    0 -0.17444677042E+04 -0.14787483955E+04 -0.22762920499E+04  0.32279812464E+04  0.92157703362E+02 0.  0.
         11    1    3    3    0    0 -0.82181348181E+03 -0.73722861635E+03 -0.11466187797E+04  0.15917342924E+04  0.00000000000E+00 0. -1.
        -11    1    3    3    0    0 -0.92265422241E+03 -0.74151977914E+03 -0.11296732702E+04  0.16362469540E+04  0.00000000000E+00 0.  1.
         22    1    1    2    0    0  0.17444677042E+04  0.14787483955E+04  0.50668907560E+03  0.23423488655E+04  0.00000000000E+00 0.  1.
<mgrwt>
<rscale>  0 0.52817689E+04</rscale>
<asrwt>0</asrwt>
<pdfrwt beam="1">  1        1 0.56461023E+00 0.52817689E+04</pdfrwt>
<pdfrwt beam="2">  1       -1 0.29236363E+00 0.52817689E+04</pdfrwt>
<totfact> 0.47632784E-03</totfact>
</mgrwt>
</event>
<event>
 6    1  0.2003386E-005  0.6981945E+03  0.7818608E-02  0.9720325E-01
          2   -1    0    0  501    0  0.00000000000E+00  0.00000000000E+00  0.47668517552E+04  0.47668517552E+04  0.00000000000E+00 0. -1.
         -2   -1    0    0    0  501 -0.00000000000E+00 -0.00000000000E+00 -0.25565904878E+02  0.25565904878E+02  0.00000000000E+00 0.  1.
         23    2    1    2    0    0 -0.32018232539E+03  0.21911706342E+02  0.32447925078E+04  0.32618984120E+04  0.91137190583E+02 0.  0.
         13    1    3    3    0    0 -0.14574555553E+03  0.36026017399E+02  0.11400995510E+04  0.11499420103E+04  0.00000000000E+00 0.  1.
        -13    1    3    3    0    0 -0.17443676986E+03 -0.14114311056E+02  0.21046929567E+04  0.21119564017E+04  0.00000000000E+00 0. -1.
         22    1    1    2    0    0  0.32018232539E+03 -0.21911706342E+02  0.14964933426E+04  0.15305192481E+04  0.00000000000E+00 0.  1.
<mgrwt>
<rscale>  0 0.69819447E+03</rscale>
<asrwt>0</asrwt>
<pdfrwt beam="1">  1        2 0.73336110E+00 0.69819447E+03</pdfrwt>
<pdfrwt beam="2">  1       -2 0.39332199E-02 0.69819447E+03</pdfrwt>
<totfact> 0.22613524E+01</totfact>
</mgrwt>
</event>
<event>
 6    1  0.2003386E-005  0.2646740E+04  0.7818608E-02  0.8352496E-01
          2   -1    0    0  501    0  0.00000000000E+00  0.00000000000E+00  0.19082446511E+04  0.19082446511E+04  0.00000000000E+00 0. -1.
         -2   -1    0    0    0  501 -0.00000000000E+00 -0.00000000000E+00 -0.91775900793E+03  0.91775900793E+03  0.00000000000E+00 0.  1.
         23    2    1    2    0    0  0.10652068935E+04  0.54757624874E+03 -0.10115853894E+03  0.12054505144E+04  0.91500921679E+02 0.  0.
         11    1    3    3    0    0  0.44146540833E+03  0.23742986406E+03 -0.86700006181E+02  0.50870574812E+03  0.00000000000E+00 0.  1.
        -11    1    3    3    0    0  0.62374148516E+03  0.31014638469E+03 -0.14458532760E+02  0.69674476633E+03  0.00000000000E+00 0. -1.
         22    1    1    2    0    0 -0.10652068935E+04 -0.54757624874E+03  0.10916441822E+04  0.16205531446E+04  0.00000000000E+00 0. -1.
<mgrwt>
<rscale>  0 0.26467404E+04</rscale>
<asrwt>0</asrwt>
<pdfrwt beam="1">  1        2 0.29357610E+00 0.26467404E+04</pdfrwt>
<pdfrwt beam="2">  1       -2 0.14119369E+00 0.26467404E+04</pdfrwt>
<totfact> 0.23261600E+00</totfact>
</mgrwt>
</event>
<event>
 6    1  0.2003386E-005  0.2261632E+04  0.7818608E-02  0.8493205E-01
         -2   -1    0    0    0  501 -0.00000000000E+00  0.00000000000E+00  0.12812196060E+04  0.12812196060E+04  0.00000000000E+00 0.  1.
          2   -1    0    0  501    0  0.00000000000E+00 -0.00000000000E+00 -0.99806801100E+03  0.99806801100E+03  0.00000000000E+00 0. -1.
         23    2    1    2    0    0  0.18357249184E+03 -0.52236268862E+03 -0.84973785766E+03  0.10183355362E+04  0.91603489133E+02 0.  0.
         11    1    3    3    0    0  0.14860835062E+01 -0.24586972327E+02 -0.13011367114E+02  0.27857195239E+02  0.00000000000E+00 0. -1.
        -11    1    3    3    0    0  0.18208640834E+03 -0.49777571629E+03 -0.83672649055E+03  0.99047834091E+03  0.00000000000E+00 0.  1.
         22    1    1    2    0    0 -0.18357249184E+03  0.52236268862E+03  0.11328894527E+04  0.12609520808E+04  0.00000000000E+00 0.  1.
<mgrwt>
<rscale>  0 0.22616315E+04</rscale>
<asrwt>0</asrwt>
<pdfrwt beam="1">  1        2 0.15354893E+00 0.22616315E+04</pdfrwt>
<pdfrwt beam="2">  1       -2 0.19711071E+00 0.22616315E+04</pdfrwt>
<totfact> 0.31917654E+00</totfact>
</mgrwt>
</event>
<event>
 6    1  0.2003386E-005  0.4855685E+03  0.7818608E-02  0.1017616E+00
          4   -1    0    0  501    0  0.00000000000E+00  0.00000000000E+00  0.17035516959E+03  0.17035516959E+03  0.00000000000E+00 0.  1.
         -4   -1    0    0    0  501 -0.00000000000E+00 -0.00000000000E+00 -0.34600770631E+03  0.34600770631E+03  0.00000000000E+00 0. -1.
         23    2    1    2    0    0 -0.22529940447E+03  0.56241617808E+02 -0.58330633500E+02  0.25619491053E+03  0.91161549721E+02 0.  0.
         13    1    3    3    0    0 -0.72229176875E+02  0.26340861022E+02  0.23067334828E+02  0.80268280707E+02  0.00000000000E+00 0. -1.
        -13    1    3    3    0    0 -0.15307022760E+03  0.29900756786E+02 -0.81397968329E+02  0.17592662983E+03  0.00000000000E+00 0.  1.
         22    1    1    2    0    0  0.22529940447E+03 -0.56241617808E+02 -0.11732190322E+03  0.26016796537E+03  0.00000000000E+00 0. -1.
<mgrwt>
<rscale>  0 0.48556854E+03</rscale>
<asrwt>0</asrwt>
<pdfrwt beam="1">  1        4 0.26208488E-01 0.48556854E+03</pdfrwt>
<pdfrwt beam="2">  1       -4 0.53231955E-01 0.48556854E+03</pdfrwt>
<totfact> 0.91554443E+01</totfact>
</mgrwt>
</event>
<event>
 6    1  0.2003386E-005  0.5760917E+04  0.7818608E-02  0.7720773E-01
          2   -1    0    0  501    0  0.00000000000E+00  0.00000000000E+00  0.23465175939E+04  0.23465175939E+04  0.00000000000E+00 0. -1.
         -2   -1    0    0    0  501 -0.00000000000E+00 -0.00000000000E+00 -0.35358958067E+04  0.35358958067E+04  0.00000000000E+00 0.  1.
         23    2    1    2    0    0  0.24137525649E+04 -0.12157132992E+03  0.10042978720E+04  0.26184900256E+04  0.83034724554E+02 0.  0.
         13    1    3    3    0    0  0.13162956930E+04 -0.71874745960E+02  0.59209944291E+03  0.14451235521E+04  0.00000000000E+00 0.  1.
        -13    1    3    3    0    0  0.10974568719E+04 -0.49696583964E+02  0.41219842911E+03  0.11733664735E+04  0.00000000000E+00 0. -1.
         22    1    1    2    0    0 -0.24137525649E+04  0.12157132992E+03 -0.21936760848E+04  0.32639233750E+04  0.00000000000E+00 0.  1.
<mgrwt>
<rscale>  0 0.57609172E+04</rscale>
<asrwt>0</asrwt>
<pdfrwt beam="1">  1        2 0.36100271E+00 0.57609172E+04</pdfrwt>
<pdfrwt beam="2">  1       -2 0.54398397E+00 0.57609172E+04</pdfrwt>
<totfact> 0.27271854E-03</totfact>
</mgrwt>
</event>
<event>
 6    1  0.2003386E-005  0.5233865E+03  0.7818608E-02  0.1007849E+00
         -2   -1    0    0    0  501 -0.00000000000E+00  0.00000000000E+00  0.40181781461E+02  0.40181781461E+02  0.00000000000E+00 0.  1.
          2   -1    0    0  501    0  0.00000000000E+00 -0.00000000000E+00 -0.17043383492E+04  0.17043383492E+04  0.00000000000E+00 0. -1.
         23    2    1    2    0    0 -0.72366613525E+02 -0.21997672152E+02 -0.16648799581E+04  0.16688805403E+04  0.87270606777E+02 0.  0.
         11    1    3    3    0    0  0.12818185518E+02  0.76322963918E+01 -0.60079117358E+03  0.60097636566E+03  0.00000000000E+00 0. -1.
        -11    1    3    3    0    0 -0.85184799043E+02 -0.29629968544E+02 -0.10640887845E+04  0.10679041747E+04  0.00000000000E+00 0.  1.
         22    1    1    2    0    0  0.72366613525E+02  0.21997672152E+02  0.72339031306E+00  0.75639590340E+02  0.00000000000E+00 0.  1.
<mgrwt>
<rscale>  0 0.52338648E+03</rscale>
<asrwt>0</asrwt>
<pdfrwt beam="1">  1        2 0.26220589E+00 0.52338648E+03</pdfrwt>
<pdfrwt beam="2">  1       -2 0.61818128E-02 0.52338648E+03</pdfrwt>
<totfact> 0.14822754E+03</totfact>
</mgrwt>
</event>
<event>
 6    1  0.2003386E-005  0.3260902E+04  0.7818608E-02  0.8172916E-01
         -2   -1    0    0    0  501 -0.00000000000E+00  0.00000000000E+00  0.10333830467E+04  0.10333830467E+04  0.00000000000E+00 0.  1.
          2   -1    0    0  501    0  0.00000000000E+00 -0.00000000000E+00 -0.25724925885E+04  0.25724925885E+04  0.00000000000E+00 0. -1.
         23    2    1    2    0    0 -0.12624488567E+04 -0.72318915232E+03  0.40494074920E+02  0.14583358214E+04  0.91235585250E+02 0.  0.
         13    1    3    3    0    0 -0.67126248701E+03 -0.35617548359E+03 -0.17240903824E+02  0.76009969764E+03  0.00000000000E+00 0. -1.
        -13    1    3    3    0    0 -0.59118636970E+03 -0.36701366873E+03  0.57734978744E+02  0.69823612376E+03  0.00000000000E+00 0.  1.
         22    1    1    2    0    0  0.12624488567E+04  0.72318915232E+03 -0.15796036167E+04  0.21475398138E+04  0.00000000000E+00 0.  1.
<mgrwt>
<rscale>  0 0.32609019E+04</rscale>
<asrwt>0</asrwt>
<pdfrwt beam="1">  1        2 0.39576809E+00 0.32609019E+04</pdfrwt>
<pdfrwt beam="2">  1       -2 0.15898201E+00 0.32609019E+04</pdfrwt>
<totfact> 0.67811343E-01</totfact>
</mgrwt>
</event>
<event>
 6    1  0.2003386E-005  0.5608237E+04  0.7818608E-02  0.7740969E-01
         -2   -1    0    0    0  501 -0.00000000000E+00  0.00000000000E+00  0.32555627813E+04  0.32555627813E+04  0.00000000000E+00 0.  1.
          2   -1    0    0  501    0  0.00000000000E+00 -0.00000000000E+00 -0.24152757210E+04  0.24152757210E+04  0.00000000000E+00 0. -1.
         23    2    1    2    0    0  0.48124145364E+02  0.17440775440E+04  0.26390272928E+04  0.31649277224E+04  0.90443479732E+02 0.  0.
         13    1    3    3    0    0 -0.25677167932E+02  0.48627042245E+03  0.71618601272E+03  0.86604887017E+03  0.00000000000E+00 0.  1.
        -13    1    3    3    0    0  0.73801313295E+02  0.12578071215E+04  0.19228412800E+04  0.22988788522E+04  0.00000000000E+00 0. -1.
         22    1    1    2    0    0 -0.48124145364E+02 -0.17440775440E+04 -0.17987402325E+04  0.25059107799E+04  0.00000000000E+00 0. -1.
<mgrwt>
<rscale>  0 0.56082374E+04</rscale>
<asrwt>0</asrwt>
<pdfrwt beam="1">  1        2 0.37158088E+00 0.56082374E+04</pdfrwt>
<pdfrwt beam="2">  1       -2 0.50085581E+00 0.56082374E+04</pdfrwt>
<totfact> 0.44492837E-03</totfact>
</mgrwt>
</event>
<event>
 6    1  0.2003386E-005  0.4590903E+04  0.7818608E-02  0.7894913E-01
          2   -1    0    0  501    0  0.00000000000E+00  0.00000000000E+00  0.38258895528E+04  0.38258895528E+04  0.00000000000E+00 0.  1.
         -2   -1    0    0    0  501 -0.00000000000E+00 -0.00000000000E+00 -0.13772214992E+04  0.13772214992E+04  0.00000000000E+00 0. -1.
         23    2    1    2    0    0  0.19043202723E+04  0.11533769013E+04  0.18534177913E+04  0.28985423611E+04  0.98368359415E+02 0.  0.
         11    1    3    3    0    0  0.15375304096E+04  0.89719985715E+03  0.15152334188E+04  0.23377124840E+04  0.00000000000E+00 0. -1.
        -11    1    3    3    0    0  0.36678986270E+03  0.25617704419E+03  0.33818437249E+03  0.56082987719E+03  0.00000000000E+00 0.  1.
         22    1    1    2    0    0 -0.19043202723E+04 -0.11533769013E+04  0.59525026235E+03  0.23045686909E+04  0.00000000000E+00 0. -1.
<mgrwt>
<rscale>  0 0.45909029E+04</rscale>
<asrwt>0</asrwt>
<pdfrwt beam="1">  1        2 0.58859839E+00 0.45909029E+04</pdfrwt>
<pdfrwt beam="2">  1       -2 0.21188023E+00 0.45909029E+04</pdfrwt>
<totfact> 0.39175369E-02</totfact>
</mgrwt>
</event>
<event>
 6    1  0.2003386E-005  0.4789820E+04  0.7818608E-02  0.7861773E-01
          2   -1    0    0  501    0  0.00000000000E+00  0.00000000000E+00  0.31088036480E+04  0.31088036480E+04  0.00000000000E+00 0. -1.
         -2   -1    0    0    0  501 -0.00000000000E+00 -0.00000000000E+00 -0.18449523490E+04  0.18449523490E+04  0.00000000000E+00 0.  1.
         23    2    1    2    0    0  0.22054280260E+04 -0.92539150872E+03  0.74043479151E+03  0.25054449336E+04  0.93532949247E+02 0.  0.
         13    1    3    3    0    0  0.17765604816E+04 -0.70479839266E+03  0.59268795372E+03  0.20010464587E+04  0.00000000000E+00 0. -1.
        -13    1    3    3    0    0  0.42886754440E+03 -0.22059311606E+03  0.14774683778E+03  0.50439847499E+03  0.00000000000E+00 0.  1.
         22    1    1    2    0    0 -0.22054280260E+04  0.92539150872E+03  0.52341650756E+03  0.24483110633E+04  0.00000000000E+00 0. -1.
<mgrwt>
<rscale>  0 0.47898203E+04</rscale>
<asrwt>0</asrwt>
<pdfrwt beam="1">  1        2 0.47827749E+00 0.47898203E+04</pdfrwt>
<pdfrwt beam="2">  1       -2 0.28383882E+00 0.47898203E+04</pdfrwt>
<totfact> 0.43844430E-02</totfact>
</mgrwt>
</event>
<event>
 6    1  0.2003386E-005  0.1015722E+04  0.7818608E-02  0.9291467E-01
         -2   -1    0    0    0  501 -0.00000000000E+00  0.00000000000E+00  0.13803363702E+03  0.13803363702E+03  0.00000000000E+00 0.  1.
          2   -1    0    0  501    0  0.00000000000E+00 -0.00000000000E+00 -0.18685511322E+04  0.18685511322E+04  0.00000000000E+00 0. -1.
         23    2    1    2    0    0 -0.13089050915E+03 -0.34164443210E+03 -0.18863784485E+03  0.42189360073E+03  0.92502597038E+02 0.  0.
         13    1    3    3    0    0 -0.10136505495E+03 -0.13636540738E+03 -0.80967167165E+02  0.18821817355E+03  0.00000000000E+00 0.  1.
        -13    1    3    3    0    0 -0.29525454195E+02 -0.20527902472E+03 -0.10767067769E+03  0.23367542718E+03  0.00000000000E+00 0. -1.
         22    1    1    2    0    0  0.13089050915E+03  0.34164443210E+03 -0.15418796503E+04  0.15846911685E+04  0.00000000000E+00 0. -1.
<mgrwt>
<rscale>  0 0.10157222E+04</rscale>
<asrwt>0</asrwt>
<pdfrwt beam="1">  1        2 0.28746939E+00 0.10157222E+04</pdfrwt>
<pdfrwt beam="2">  1       -2 0.21235945E-01 0.10157222E+04</pdfrwt>
<totfact> 0.15189858E+02</totfact>
</mgrwt>
</event>
<event>
 6    1  0.2003386E-005  0.4912778E+03  0.7818608E-02  0.1016081E+00
         -2   -1    0    0    0  501 -0.00000000000E+00  0.00000000000E+00  0.37532162162E+03  0.37532162162E+03  0.00000000000E+00 0. -1.
          2   -1    0    0  501    0  0.00000000000E+00 -0.00000000000E+00 -0.16076473610E+03  0.16076473610E+03  0.00000000000E+00 0.  1.
         23    2    1    2    0    0  0.11518467588E+03 -0.91078007978E+02 -0.92557114751E+02  0.19567231240E+03  0.90322318689E+02 0.  0.
         13    1    3    3    0    0  0.11315189909E+03 -0.62609660572E+02 -0.39145850248E+02  0.13511372786E+03  0.00000000000E+00 0.  1.
        -13    1    3    3    0    0  0.20327767890E+01 -0.28468347406E+02 -0.53411264503E+02  0.60558584538E+02  0.00000000000E+00 0. -1.
         22    1    1    2    0    0 -0.11518467588E+03  0.91078007978E+02  0.30711400027E+03  0.34041404533E+03  0.00000000000E+00 0. -1.
<mgrwt>
<rscale>  0 0.49127785E+03</rscale>
<asrwt>0</asrwt>
<pdfrwt beam="1">  1        2 0.24733036E-01 0.49127785E+03</pdfrwt>
<pdfrwt beam="2">  1       -2 0.57741788E-01 0.49127785E+03</pdfrwt>
<totfact> 0.62716847E+02</totfact>
</mgrwt>
</event>
<event>
 6    1  0.2003386E-005  0.3585226E+04  0.7818608E-02  0.8093884E-01
          1   -1    0    0  501    0  0.00000000000E+00  0.00000000000E+00  0.14432670834E+04  0.14432670834E+04  0.00000000000E+00 0. -1.
         -1   -1    0    0    0  501 -0.00000000000E+00 -0.00000000000E+00 -0.22265187191E+04  0.22265187191E+04  0.00000000000E+00 0.  1.
         23    2    1    2    0    0  0.47376525578E+03  0.13674424472E+04 -0.14728149057E+04  0.20667106741E+04  0.88073264592E+02 0.  0.
         13    1    3    3    0    0  0.36224196704E+03  0.96986944051E+03 -0.10078328762E+04  0.14448505392E+04  0.00000000000E+00 0. -1.
        -13    1    3    3    0    0  0.11152328873E+03  0.39757300671E+03 -0.46498202954E+03  0.62186013491E+03  0.00000000000E+00 0.  1.
         22    1    1    2    0    0 -0.47376525578E+03 -0.13674424472E+04  0.68956326992E+03  0.16030751284E+04  0.00000000000E+00 0. -1.
<mgrwt>
<rscale>  0 0.35852259E+04</rscale>
<asrwt>0</asrwt>
<pdfrwt beam="1">  1        1 0.22204109E+00 0.35852259E+04</pdfrwt>
<pdfrwt beam="2">  1       -1 0.34254134E+00 0.35852259E+04</pdfrwt>
<totfact> 0.10099256E-01</totfact>
</mgrwt>
</event>
<event>
 6    1  0.2003386E-005  0.3040648E+04  0.7818608E-02  0.8232218E-01
         -2   -1    0    0    0  501 -0.00000000000E+00  0.00000000000E+00  0.18060381881E+04  0.18060381881E+04  0.00000000000E+00 0.  1.
          2   -1    0    0  501    0  0.00000000000E+00 -0.00000000000E+00 -0.12798097665E+04  0.12798097665E+04  0.00000000000E+00 0. -1.
         23    2    1    2    0    0 -0.14093829160E+04 -0.56401506874E+03  0.21069276143E+03  0.15353525647E+04  0.91885018107E+02 0.  0.
         11    1    3    3    0    0 -0.36329667474E+03 -0.16243101566E+03  0.92923906406E+02  0.40866020250E+03  0.00000000000E+00 0. -1.
        -11    1    3    3    0    0 -0.10460862412E+04 -0.40158405308E+03  0.11776885503E+03  0.11266923622E+04  0.00000000000E+00 0.  1.
         22    1    1    2    0    0  0.14093829160E+04  0.56401506874E+03  0.31553566017E+03  0.15504953900E+04  0.00000000000E+00 0. -1.
<mgrwt>
<rscale>  0 0.30406482E+04</rscale>
<asrwt>0</asrwt>
<pdfrwt beam="1">  1        2 0.19689381E+00 0.30406482E+04</pdfrwt>
<pdfrwt beam="2">  1       -2 0.27785203E+00 0.30406482E+04</pdfrwt>
<totfact> 0.62901202E-01</totfact>
</mgrwt>
</event>
<event>
 6    1  0.2003386E-005  0.2852578E+04  0.7818608E-02  0.8287128E-01
          2   -1    0    0  501    0  0.00000000000E+00  0.00000000000E+00  0.26791395448E+04  0.26791395448E+04  0.00000000000E+00 0. -1.
         -2   -1    0    0    0  501 -0.00000000000E+00 -0.00000000000E+00 -0.75931119996E+03  0.75931119996E+03  0.00000000000E+00 0.  1.
         23    2    1    2    0    0  0.59335212787E+02 -0.57002302253E+03 -0.61155791282E+03  0.84300024453E+03  0.90550636948E+02 0.  0.
         13    1    3    3    0    0  0.12260742977E+02 -0.21127628153E+03 -0.28950929380E+03  0.35861347459E+03  0.00000000000E+00 0. -1.
        -13    1    3    3    0    0  0.47074469810E+02 -0.35874674100E+03 -0.32204861902E+03  0.48438676994E+03  0.00000000000E+00 0.  1.
         22    1    1    2    0    0 -0.59335212787E+02  0.57002302253E+03  0.25313862576E+04  0.25954505002E+04  0.00000000000E+00 0. -1.
<mgrwt>
<rscale>  0 0.28525782E+04</rscale>
<asrwt>0</asrwt>
<pdfrwt beam="1">  1        2 0.41217531E+00 0.28525782E+04</pdfrwt>
<pdfrwt beam="2">  1       -2 0.11681711E+00 0.28525782E+04</pdfrwt>
<totfact> 0.13430065E+00</totfact>
</mgrwt>
</event>
<event>
 6    1  0.2003386E-005  0.7229295E+03  0.7818608E-02  0.9678804E-01
         -2   -1    0    0    0  501 -0.00000000000E+00  0.00000000000E+00  0.11534879932E+03  0.11534879932E+03  0.00000000000E+00 0.  1.
          2   -1    0    0  501    0  0.00000000000E+00 -0.00000000000E+00 -0.11327102616E+04  0.11327102616E+04  0.00000000000E+00 0. -1.
         23    2    1    2    0    0  0.32321421236E+03  0.11885291934E+03 -0.67157645675E+03  0.76004193666E+03  0.89751683645E+02 0.  0.
         13    1    3    3    0    0  0.14917436776E+03  0.77846094602E+01 -0.28751681647E+03  0.32400541955E+03  0.00000000000E+00 0.  1.
        -13    1    3    3    0    0  0.17403984460E+03  0.11106830988E+03 -0.38405964027E+03  0.43603651711E+03  0.00000000000E+00 0. -1.
         22    1    1    2    0    0 -0.32321421236E+03 -0.11885291934E+03 -0.34578500549E+03  0.48801712421E+03  0.00000000000E+00 0.  1.
<mgrwt>
<rscale>  0 0.72292951E+03</rscale>
<asrwt>0</asrwt>
<pdfrwt beam="1">  1        2 0.17426311E+00 0.72292951E+03</pdfrwt>
<pdfrwt beam="2">  1       -2 0.17745970E-01 0.72292951E+03</pdfrwt>
<totfact> 0.55097362E+02</totfact>
</mgrwt>
</event>
<event>
 6    1  0.2003386E-005  0.2787863E+04  0.7818608E-02  0.8307046E-01
          2   -1    0    0  501    0  0.00000000000E+00  0.00000000000E+00  0.25761376390E+04  0.25761376390E+04  0.00000000000E+00 0. -1.
         -2   -1    0    0    0  501 -0.00000000000E+00 -0.00000000000E+00 -0.75424741978E+03  0.75424741978E+03  0.00000000000E+00 0.  1.
         23    2    1    2    0    0 -0.94783566590E+03 -0.82805040590E+03  0.20035490126E+03  0.12777193014E+04  0.91458200231E+02 0.  0.
         11    1    3    3    0    0 -0.59396032491E+03 -0.50315246540E+03  0.80418386012E+02  0.78257165027E+03  0.00000000000E+00 0.  1.
        -11    1    3    3    0    0 -0.35387534099E+03 -0.32489794050E+03  0.11993651525E+03  0.49514765110E+03  0.00000000000E+00 0. -1.
         22    1    1    2    0    0  0.94783566590E+03  0.82805040590E+03  0.16215353180E+04  0.20526657574E+04  0.00000000000E+00 0. -1.
<mgrwt>
<rscale>  0 0.27878631E+04</rscale>
<asrwt>0</asrwt>
<pdfrwt beam="1">  1        2 0.39632886E+00 0.27878631E+04</pdfrwt>
<pdfrwt beam="2">  1       -2 0.11603807E+00 0.27878631E+04</pdfrwt>
<totfact> 0.15786800E+00</totfact>
</mgrwt>
</event>
<event>
 6    1  0.2003386E-005  0.1622056E+04  0.7818608E-02  0.8807112E-01
         -2   -1    0    0    0  501 -0.00000000000E+00  0.00000000000E+00  0.71006845973E+03  0.71006845973E+03  0.00000000000E+00 0.  1.
          2   -1    0    0  501    0  0.00000000000E+00 -0.00000000000E+00 -0.92634178528E+03  0.92634178528E+03  0.00000000000E+00 0. -1.
         23    2    1    2    0    0  0.51053387381E+03  0.80720883732E+01  0.52378736616E+03  0.73729967209E+03  0.92453267107E+02 0.  0.
         11    1    3    3    0    0  0.18740458167E+03 -0.55099368806E+01  0.13211384785E+03  0.22935759292E+03  0.00000000000E+00 0. -1.
        -11    1    3    3    0    0  0.32312929214E+03  0.13582025254E+02  0.39167351831E+03  0.50794207918E+03  0.00000000000E+00 0.  1.
         22    1    1    2    0    0 -0.51053387381E+03 -0.80720883732E+01 -0.74006069171E+03  0.89911057292E+03  0.00000000000E+00 0. -1.
<mgrwt>
<rscale>  0 0.16220556E+04</rscale>
<asrwt>0</asrwt>
<pdfrwt beam="1">  1        2 0.14251412E+00 0.16220556E+04</pdfrwt>
<pdfrwt beam="2">  1       -2 0.10924130E+00 0.16220556E+04</pdfrwt>
<totfact> 0.18006716E+01</totfact>
</mgrwt>
</event>
<event>
 6    1  0.2003386E-005  0.4432085E+04  0.7818608E-02  0.7922636E-01
          2   -1    0    0  501    0  0.00000000000E+00  0.00000000000E+00  0.32447755102E+04  0.32447755102E+04  0.00000000000E+00 0.  1.
         -2   -1    0    0    0  501 -0.00000000000E+00 -0.00000000000E+00 -0.15134622304E+04  0.15134622304E+04  0.00000000000E+00 0. -1.
         23    2    1    2    0    0  0.46421449014E+03 -0.17166477350E+04 -0.55018852142E+03  0.18655530002E+04  0.12331280756E+03 0.  0.
         11    1    3    3    0    0  0.65897794854E+02 -0.19063587873E+03 -0.10165862468E+03  0.22587393297E+03  0.00000000000E+00 0. -1.
        -11    1    3    3    0    0  0.39831669528E+03 -0.15260118562E+04 -0.44852989674E+03  0.16396790672E+04  0.00000000000E+00 0.  1.
         22    1    1    2    0    0 -0.46421449014E+03  0.17166477350E+04  0.22815018012E+04  0.28926847405E+04  0.00000000000E+00 0.  1.
<mgrwt>
<rscale>  0 0.44320854E+04</rscale>
<asrwt>0</asrwt>
<pdfrwt beam="1">  1        2 0.49919623E+00 0.44320854E+04</pdfrwt>
<pdfrwt beam="2">  1       -2 0.23284034E+00 0.44320854E+04</pdfrwt>
<totfact> 0.75696806E-02</totfact>
</mgrwt>
</event>
<event>
 6    1  0.2003386E-005  0.1285694E+04  0.7818608E-02  0.9040987E-01
          2   -1    0    0  501    0  0.00000000000E+00  0.00000000000E+00  0.17094273554E+04  0.17094273554E+04  0.00000000000E+00 0. -1.
         -2   -1    0    0    0  501 -0.00000000000E+00 -0.00000000000E+00 -0.24174895272E+03  0.24174895272E+03  0.00000000000E+00 0.  1.
         23    2    1    2    0    0  0.14025138191E+03 -0.16888659678E+03  0.16492943443E+04  0.16662596836E+04  0.89757263468E+02 0.  0.
         13    1    3    3    0    0 -0.60364518502E+00 -0.56280820723E+02  0.44275124851E+03  0.44631442193E+03  0.00000000000E+00 0. -1.
        -13    1    3    3    0    0  0.14085502710E+03 -0.11260577606E+03  0.12065430958E+04  0.12199452616E+04  0.00000000000E+00 0.  1.
         22    1    1    2    0    0 -0.14025138191E+03  0.16888659678E+03 -0.18161594160E+03  0.28491662455E+03  0.00000000000E+00 0.  1.
<mgrwt>
<rscale>  0 0.12856940E+04</rscale>
<asrwt>0</asrwt>
<pdfrwt beam="1">  1        2 0.26298882E+00 0.12856940E+04</pdfrwt>
<pdfrwt beam="2">  1       -2 0.37192148E-01 0.12856940E+04</pdfrwt>
<totfact> 0.64777215E+01</totfact>
</mgrwt>
</event>
<event>
 6    1  0.2003386E-005  0.1113351E+04  0.7818608E-02  0.9192276E-01
          2   -1    0    0  501    0  0.00000000000E+00  0.00000000000E+00  0.16324541458E+04  0.16324541458E+04  0.00000000000E+00 0. -1.
         -2   -1    0    0    0  501 -0.00000000000E+00 -0.00000000000E+00 -0.18982926887E+03  0.18982926887E+03  0.00000000000E+00 0.  1.
         23    2    1    2    0    0  0.21053779032E+03  0.39545541024E+03  0.12563475357E+04  0.13370923281E+04  0.93250312440E+02 0.  0.
         11    1    3    3    0    0  0.23220469437E+02  0.13379828561E+03  0.37800564251E+03  0.40165835881E+03  0.00000000000E+00 0. -1.
        -11    1    3    3    0    0  0.18731732088E+03  0.26165712463E+03  0.87834189317E+03  0.93543396927E+03  0.00000000000E+00 0.  1.
         22    1    1    2    0    0 -0.21053779032E+03 -0.39545541024E+03  0.18627734126E+03  0.48519108659E+03  0.00000000000E+00 0.  1.
<mgrwt>
<rscale>  0 0.11133509E+04</rscale>
<asrwt>0</asrwt>
<pdfrwt beam="1">  1        2 0.25114678E+00 0.11133509E+04</pdfrwt>
<pdfrwt beam="2">  1       -2 0.29204504E-01 0.11133509E+04</pdfrwt>
<totfact> 0.11435723E+02</totfact>
</mgrwt>
</event>
<event>
 6    1  0.2003386E-005  0.3116076E+04  0.7818608E-02  0.8211340E-01
          1   -1    0    0  501    0  0.00000000000E+00  0.00000000000E+00  0.28299969642E+04  0.28299969642E+04  0.00000000000E+00 0. -1.
         -1   -1    0    0    0  501 -0.00000000000E+00 -0.00000000000E+00 -0.85776854510E+03  0.85776854510E+03  0.00000000000E+00 0.  1.
         23    2    1    2    0    0 -0.19434327407E+03 -0.13312260966E+04  0.59950312784E+02  0.13496594842E+04  0.89746614584E+02 0.  0.
         13    1    3    3    0    0 -0.34935340171E+02 -0.42411209725E+03 -0.13126990029E+02  0.42575094468E+03  0.00000000000E+00 0. -1.
        -13    1    3    3    0    0 -0.15940793390E+03 -0.90711399938E+03  0.73077302812E+02  0.92390853955E+03  0.00000000000E+00 0.  1.
         22    1    1    2    0    0  0.19434327407E+03  0.13312260966E+04  0.19122781063E+04  0.23381060250E+04  0.00000000000E+00 0. -1.
<mgrwt>
<rscale>  0 0.31160760E+04</rscale>
<asrwt>0</asrwt>
<pdfrwt beam="1">  1        1 0.43538414E+00 0.31160760E+04</pdfrwt>
<pdfrwt beam="2">  1       -1 0.13196439E+00 0.31160760E+04</pdfrwt>
<totfact> 0.32612547E-01</totfact>
</mgrwt>
</event>
<event>
 6    1  0.2003386E-005  0.4518832E+04  0.7818608E-02  0.7907348E-01
         -2   -1    0    0    0  501 -0.00000000000E+00  0.00000000000E+00  0.15116813979E+04  0.15116813979E+04  0.00000000000E+00 0.  1.
          2   -1    0    0  501    0  0.00000000000E+00 -0.00000000000E+00 -0.33770078730E+04  0.33770078730E+04  0.00000000000E+00 0. -1.
         23    2    1    2    0    0  0.18042273546E+04 -0.86833122617E+02  0.53368339603E+03  0.18856866568E+04  0.90663455960E+02 0.  0.
         13    1    3    3    0    0  0.13876476776E+04 -0.66216109137E+02  0.37024039456E+03  0.14377164533E+04  0.00000000000E+00 0. -1.
        -13    1    3    3    0    0  0.41657967698E+03 -0.20617013480E+02  0.16344300147E+03  0.44797020353E+03  0.00000000000E+00 0.  1.
         22    1    1    2    0    0 -0.18042273546E+04  0.86833122617E+02 -0.23990098711E+04  0.30030026140E+04  0.00000000000E+00 0. -1.
<mgrwt>
<rscale>  0 0.45188317E+04</rscale>
<asrwt>0</asrwt>
<pdfrwt beam="1">  1        2 0.51953967E+00 0.45188317E+04</pdfrwt>
<pdfrwt beam="2">  1       -2 0.23256637E+00 0.45188317E+04</pdfrwt>
<totfact> 0.61525172E-02</totfact>
</mgrwt>
</event>
<event>
 6    1  0.2003386E-005  0.1747043E+04  0.7818608E-02  0.8734980E-01
          2   -1    0    0  501    0  0.00000000000E+00  0.00000000000E+00  0.98227401650E+03  0.98227401650E+03  0.00000000000E+00 0. -1.
         -2   -1    0    0    0  501 -0.00000000000E+00 -0.00000000000E+00 -0.77680948559E+03  0.77680948559E+03  0.00000000000E+00 0.  1.
         23    2    1    2    0    0 -0.26709783518E+03  0.76271275727E+03  0.43132147304E+03  0.91998674845E+03  0.85237319024E+02 0.  0.
         11    1    3    3    0    0 -0.11739554841E+01  0.37752669450E+02  0.37263875451E+02  0.53058822412E+02  0.00000000000E+00 0. -1.
        -11    1    3    3    0    0 -0.26592387970E+03  0.72496008782E+03  0.39405759759E+03  0.86692792604E+03  0.00000000000E+00 0.  1.
         22    1    1    2    0    0  0.26709783518E+03 -0.76271275727E+03 -0.22585694213E+03  0.83909675364E+03  0.00000000000E+00 0.  1.
<mgrwt>
<rscale>  0 0.17470430E+04</rscale>
<asrwt>0</asrwt>
<pdfrwt beam="1">  1        2 0.15111908E+00 0.17470430E+04</pdfrwt>
<pdfrwt beam="2">  1       -2 0.11950915E+00 0.17470430E+04</pdfrwt>
<totfact> 0.13153209E+01</totfact>
</mgrwt>
</event>
<event>
 6    1  0.2003386E-005  0.1924948E+04  0.7818608E-02  0.8642537E-01
          2   -1    0    0  501    0  0.00000000000E+00  0.00000000000E+00  0.11561652554E+04  0.11561652554E+04  0.00000000000E+00 0. -1.
         -2   -1    0    0    0  501 -0.00000000000E+00 -0.00000000000E+00 -0.80123163630E+03  0.80123163630E+03  0.00000000000E+00 0.  1.
         23    2    1    2    0    0  0.46637217956E+03 -0.72673538948E+03  0.60500959443E+03  0.10584056072E+04  0.92403916548E+02 0.  0.
         11    1    3    3    0    0  0.26216206093E+03 -0.48832121615E+03  0.37330580711E+03  0.66823931488E+03  0.00000000000E+00 0. -1.
        -11    1    3    3    0    0  0.20421011863E+03 -0.23841417333E+03  0.23170378732E+03  0.39016629231E+03  0.00000000000E+00 0.  1.
         22    1    1    2    0    0 -0.46637217956E+03  0.72673538948E+03 -0.25007597533E+03  0.89899128451E+03  0.00000000000E+00 0.  1.
<mgrwt>
<rscale>  0 0.19249480E+04</rscale>
<asrwt>0</asrwt>
<pdfrwt beam="1">  1        2 0.17787158E+00 0.19249480E+04</pdfrwt>
<pdfrwt beam="2">  1       -2 0.12326640E+00 0.19249480E+04</pdfrwt>
<totfact> 0.93436742E+00</totfact>
</mgrwt>
</event>
<event>
 6    1  0.2003386E-005  0.1748212E+04  0.7818608E-02  0.8734335E-01
          2   -1    0    0  501    0  0.00000000000E+00  0.00000000000E+00  0.10894421701E+04  0.10894421701E+04  0.00000000000E+00 0. -1.
         -2   -1    0    0    0  501 -0.00000000000E+00 -0.00000000000E+00 -0.70133221192E+03  0.70133221192E+03  0.00000000000E+00 0.  1.
         23    2    1    2    0    0 -0.28794617304E+01  0.46284854454E+03 -0.56203147056E+03  0.73388943033E+03  0.92072012949E+02 0.  0.
         13    1    3    3    0    0  0.93038839069E+01  0.27715553355E+03 -0.26624166138E+03  0.38442993417E+03  0.00000000000E+00 0.  1.
        -13    1    3    3    0    0 -0.12183345637E+02  0.18569301099E+03 -0.29578980918E+03  0.34945949616E+03  0.00000000000E+00 0. -1.
         22    1    1    2    0    0  0.28794617304E+01 -0.46284854454E+03  0.95014142871E+03  0.10568849517E+04  0.00000000000E+00 0. -1.
<mgrwt>
<rscale>  0 0.17482115E+04</rscale>
<asrwt>0</asrwt>
<pdfrwt beam="1">  1        2 0.16760649E+00 0.17482115E+04</pdfrwt>
<pdfrwt beam="2">  1       -2 0.10789726E+00 0.17482115E+04</pdfrwt>
<totfact> 0.14435608E+01</totfact>
</mgrwt>
</event>
<event>
 6    1  0.2003386E-005  0.1419973E+04  0.7818608E-02  0.8939487E-01
         -2   -1    0    0    0  501 -0.00000000000E+00  0.00000000000E+00  0.54089595437E+03  0.54089595437E+03  0.00000000000E+00 0.  1.
          2   -1    0    0  501    0  0.00000000000E+00 -0.00000000000E+00 -0.93193694623E+03  0.93193694623E+03  0.00000000000E+00 0. -1.
         23    2    1    2    0    0  0.25026121200E+03  0.39000970384E+03 -0.74990019293E+03  0.88672866967E+03  0.95912412850E+02 0.  0.
         13    1    3    3    0    0  0.14233247111E+03  0.29171746841E+03 -0.47226506433E+03  0.57305488803E+03  0.00000000000E+00 0. -1.
        -13    1    3    3    0    0  0.10792874089E+03  0.98292235425E+02 -0.27763512861E+03  0.31367378164E+03  0.00000000000E+00 0.  1.
         22    1    1    2    0    0 -0.25026121200E+03 -0.39000970384E+03  0.35885920107E+03  0.58610423093E+03  0.00000000000E+00 0.  1.
<mgrwt>
<rscale>  0 0.14199731E+04</rscale>
<asrwt>0</asrwt>
<pdfrwt beam="1">  1        2 0.14337491E+00 0.14199731E+04</pdfrwt>
<pdfrwt beam="2">  1       -2 0.83214763E-01 0.14199731E+04</pdfrwt>
<totfact> 0.34308924E+01</totfact>
</mgrwt>
</event>
<event>
 6    1  0.2003386E-005  0.8999343E+03  0.7818608E-02  0.9425663E-01
         -2   -1    0    0    0  501 -0.00000000000E+00  0.00000000000E+00  0.62231476334E+03  0.62231476334E+03  0.00000000000E+00 0.  1.
          2   -1    0    0  501    0  0.00000000000E+00 -0.00000000000E+00 -0.32535055988E+03  0.32535055988E+03  0.00000000000E+00 0. -1.
         23    2    1    2    0    0 -0.73164087958E+01  0.22617918939E+03  0.55390571745E+03  0.60527738950E+03  0.91316038370E+02 0.  0.
         11    1    3    3    0    0  0.30174189771E+02  0.55025070461E+02  0.21197412793E+03  0.22106847586E+03  0.00000000000E+00 0.  1.
        -11    1    3    3    0    0 -0.37490598566E+02  0.17115411893E+03  0.34193158952E+03  0.38420891363E+03  0.00000000000E+00 0. -1.
         22    1    1    2    0    0  0.73164087958E+01 -0.22617918939E+03 -0.25694151398E+03  0.34238793372E+03  0.00000000000E+00 0. -1.
<mgrwt>
<rscale>  0 0.89993435E+03</rscale>
<asrwt>0</asrwt>
<pdfrwt beam="1">  1        2 0.50053932E-01 0.89993435E+03</pdfrwt>
<pdfrwt beam="2">  1       -2 0.95740733E-01 0.89993435E+03</pdfrwt>
<totfact> 0.92102020E+01</totfact>
</mgrwt>
</event>
<event>
 6    1  0.2003386E-005  0.2127753E+04  0.7818608E-02  0.8549115E-01
          3   -1    0    0  501    0  0.00000000000E+00  0.00000000000E+00  0.74923925880E+03  0.74923925880E+03  0.00000000000E+00 0. -1.
         -3   -1    0    0    0  501 -0.00000000000E+00 -0.00000000000E+00 -0.15106435166E+04  0.15106435166E+04  0.00000000000E+00 0.  1.
         23    2    1    2    0    0  0.62254398853E+03 -0.14915008674E+03 -0.12814665806E+04  0.14350969937E+04  0.86833277377E+02 0.  0.
         11    1    3    3    0    0  0.26701081215E+03 -0.75992525344E+02 -0.46477102030E+03  0.54137024209E+03  0.00000000000E+00 0.  1.
        -11    1    3    3    0    0  0.35553317638E+03 -0.73157561399E+02 -0.81669556032E+03  0.89372675161E+03  0.00000000000E+00 0. -1.
         22    1    1    2    0    0 -0.62254398853E+03  0.14915008674E+03  0.52006232283E+03  0.82478578168E+03  0.00000000000E+00 0. -1.
<mgrwt>
<rscale>  0 0.21277532E+04</rscale>
<asrwt>0</asrwt>
<pdfrwt beam="1">  1        3 0.11526758E+00 0.21277532E+04</pdfrwt>
<pdfrwt beam="2">  1       -3 0.23240669E+00 0.21277532E+04</pdfrwt>
<totfact> 0.13902293E-01</totfact>
</mgrwt>
</event>
<event>
 6    1  0.2003386E-005  0.1989913E+04  0.7818608E-02  0.8611351E-01
         -1   -1    0    0    0  501 -0.00000000000E+00  0.00000000000E+00  0.49626318159E+03  0.49626318159E+03  0.00000000000E+00 0. -1.
          1   -1    0    0  501    0  0.00000000000E+00 -0.00000000000E+00 -0.19947861610E+04  0.19947861610E+04  0.00000000000E+00 0.  1.
         23    2    1    2    0    0 -0.85952043481E+03  0.16941065051E+03 -0.16889037441E+03  0.89875596175E+03  0.10845724430E+03 0.  0.
         11    1    3    3    0    0 -0.54593962339E+03  0.54029909479E+02 -0.10625882105E+03  0.55880250586E+03  0.00000000000E+00 0.  1.
        -11    1    3    3    0    0 -0.31358081142E+03  0.11538074103E+03 -0.62631553360E+02  0.33995345589E+03  0.00000000000E+00 0. -1.
         22    1    1    2    0    0  0.85952043481E+03 -0.16941065051E+03 -0.13296326050E+04  0.15922933808E+04  0.00000000000E+00 0.  1.
<mgrwt>
<rscale>  0 0.19899135E+04</rscale>
<asrwt>0</asrwt>
<pdfrwt beam="1">  1        1 0.30689018E+00 0.19899135E+04</pdfrwt>
<pdfrwt beam="2">  1       -1 0.76348181E-01 0.19899135E+04</pdfrwt>
<totfact> 0.48037603E+00</totfact>
</mgrwt>
</event>
<event>
 6    1  0.2003386E-005  0.1088132E+04  0.7818608E-02  0.9216837E-01
          2   -1    0    0  501    0  0.00000000000E+00  0.00000000000E+00  0.15414243089E+03  0.15414243089E+03  0.00000000000E+00 0. -1.
         -2   -1    0    0    0  501 -0.00000000000E+00 -0.00000000000E+00 -0.19203511574E+04  0.19203511574E+04  0.00000000000E+00 0.  1.
         23    2    1    2    0    0 -0.40554187839E+03  0.54572263741E+02 -0.21628936336E+03  0.47146758120E+03  0.89767724303E+02 0.  0.
         13    1    3    3    0    0 -0.13420974912E+03  0.55442683000E+02 -0.51825355380E+02  0.15418176065E+03  0.00000000000E+00 0. -1.
        -13    1    3    3    0    0 -0.27133212927E+03 -0.87041925941E+00 -0.16446400798E+03  0.31728582055E+03  0.00000000000E+00 0.  1.
         22    1    1    2    0    0  0.40554187839E+03 -0.54572263741E+02 -0.15499193631E+04  0.16030260070E+04  0.00000000000E+00 0.  1.
<mgrwt>
<rscale>  0 0.10881316E+04</rscale>
<asrwt>0</asrwt>
<pdfrwt beam="1">  1        2 0.23714221E-01 0.10881316E+04</pdfrwt>
<pdfrwt beam="2">  1       -2 0.29543863E+00 0.10881316E+04</pdfrwt>
<totfact> 0.79389513E+00</totfact>
</mgrwt>
</event>
<event>
 6    1  0.2003386E-005  0.1441049E+04  0.7818608E-02  0.8924629E-01
         -2   -1    0    0    0  501 -0.00000000000E+00  0.00000000000E+00  0.37158183497E+03  0.37158183497E+03  0.00000000000E+00 0.  1.
          2   -1    0    0  501    0  0.00000000000E+00 -0.00000000000E+00 -0.13971507414E+04  0.13971507414E+04  0.00000000000E+00 0. -1.
         23    2    1    2    0    0 -0.33470058869E+03 -0.20121514536E+03 -0.12538339957E+04  0.13163865034E+04  0.90893998068E+02 0.  0.
         11    1    3    3    0    0 -0.27248764555E+02 -0.47322448034E+02 -0.12633844831E+03  0.13763470776E+03  0.00000000000E+00 0. -1.
        -11    1    3    3    0    0 -0.30745182413E+03 -0.15389269733E+03 -0.11274955473E+04  0.11787517956E+04  0.00000000000E+00 0.  1.
         22    1    1    2    0    0  0.33470058869E+03  0.20121514536E+03  0.22826508921E+03  0.45234607298E+03  0.00000000000E+00 0.  1.
<mgrwt>
<rscale>  0 0.14410494E+04</rscale>
<asrwt>0</asrwt>
<pdfrwt beam="1">  1        2 0.21494627E+00 0.14410494E+04</pdfrwt>
<pdfrwt beam="2">  1       -2 0.57166436E-01 0.14410494E+04</pdfrwt>
<totfact> 0.40417972E+01</totfact>
</mgrwt>
</event>
<event>
 6    1  0.2003386E-005  0.1031128E+04  0.7818608E-02  0.9275048E-01
         -2   -1    0    0    0  501 -0.00000000000E+00  0.00000000000E+00  0.11645548856E+03  0.11645548856E+03  0.00000000000E+00 0.  1.
          2   -1    0    0  501    0  0.00000000000E+00 -0.00000000000E+00 -0.22824710434E+04  0.22824710434E+04  0.00000000000E+00 0. -1.
         23    2    1    2    0    0 -0.14731325903E+03 -0.88869603063E+02 -0.22122038884E+04  0.22207907276E+04  0.92013093603E+02 0.  0.
         11    1    3    3    0    0 -0.32703544262E+02 -0.27243500599E+02 -0.11284587099E+04  0.11292611700E+04  0.00000000000E+00 0.  1.
        -11    1    3    3    0    0 -0.11460971477E+03 -0.61626102464E+02 -0.10837451785E+04  0.10915295576E+04  0.00000000000E+00 0. -1.
         22    1    1    2    0    0  0.14731325903E+03  0.88869603063E+02  0.46188333544E+02  0.17813580435E+03  0.00000000000E+00 0.  1.
<mgrwt>
<rscale>  0 0.10311281E+04</rscale>
<asrwt>0</asrwt>
<pdfrwt beam="1">  1        2 0.35114933E+00 0.10311281E+04</pdfrwt>
<pdfrwt beam="2">  1       -2 0.17916232E-01 0.10311281E+04</pdfrwt>
<totfact> 0.12061337E+02</totfact>
</mgrwt>
</event>
<event>
 6    1  0.2003386E-005  0.4209704E+03  0.7818608E-02  0.1036751E+00
         -2   -1    0    0    0  501 -0.00000000000E+00  0.00000000000E+00  0.69395870323E+02  0.69395870323E+02  0.00000000000E+00 0. -1.
          2   -1    0    0  501    0  0.00000000000E+00 -0.00000000000E+00 -0.63842442677E+03  0.63842442677E+03  0.00000000000E+00 0.  1.
         23    2    1    2    0    0  0.20040169672E+03 -0.14088919313E+02 -0.28028080497E+03  0.35606100200E+03  0.88672260698E+02 0.  0.
         11    1    3    3    0    0  0.11950990945E+03 -0.47432606322E+02 -0.13474132396E+03  0.18624632877E+03  0.00000000000E+00 0. -1.
        -11    1    3    3    0    0  0.80891787270E+02  0.33343687009E+02 -0.14553948101E+03  0.16981467323E+03  0.00000000000E+00 0.  1.
         22    1    1    2    0    0 -0.20040169672E+03  0.14088919313E+02 -0.28874775148E+03  0.35175929509E+03  0.00000000000E+00 0. -1.
<mgrwt>
<rscale>  0 0.42097040E+03</rscale>
<asrwt>0</asrwt>
<pdfrwt beam="1">  1        2 0.98219145E-01 0.42097040E+03</pdfrwt>
<pdfrwt beam="2">  1       -2 0.10676288E-01 0.42097040E+03</pdfrwt>
<totfact> 0.28165788E+03</totfact>
</mgrwt>
</event>
<event>
 6    1  0.2003386E-005  0.2175773E+04  0.7818608E-02  0.8528580E-01
         -2   -1    0    0    0  501 -0.00000000000E+00  0.00000000000E+00  0.16672941432E+04  0.16672941432E+04  0.00000000000E+00 0.  1.
          2   -1    0    0  501    0  0.00000000000E+00 -0.00000000000E+00 -0.70983114828E+03  0.70983114828E+03  0.00000000000E+00 0. -1.
         23    2    1    2    0    0  0.58502665990E+03 -0.56798858299E+03 -0.30417715532E+03  0.87492587332E+03  0.90023990065E+02 0.  0.
         11    1    3    3    0    0  0.23644273969E+03 -0.19134046878E+03 -0.77432453106E+02  0.31386641894E+03  0.00000000000E+00 0.  1.
        -11    1    3    3    0    0  0.34858392022E+03 -0.37664811421E+03 -0.22674470222E+03  0.56105945439E+03  0.00000000000E+00 0. -1.
         22    1    1    2    0    0 -0.58502665990E+03  0.56798858299E+03  0.12616401502E+04  0.15021994181E+04  0.00000000000E+00 0.  1.
<mgrwt>
<rscale>  0 0.21757733E+04</rscale>
<asrwt>0</asrwt>
<pdfrwt beam="1">  1        2 0.10920479E+00 0.21757733E+04</pdfrwt>
<pdfrwt beam="2">  1       -2 0.25650679E+00 0.21757733E+04</pdfrwt>
<totfact> 0.21604682E+00</totfact>
</mgrwt>
</event>
<event>
 6    1  0.2003386E-005  0.1614910E+04  0.7818608E-02  0.8811441E-01
          2   -1    0    0  501    0  0.00000000000E+00  0.00000000000E+00  0.23668152403E+04  0.23668152403E+04  0.00000000000E+00 0. -1.
         -2   -1    0    0    0  501 -0.00000000000E+00 -0.00000000000E+00 -0.27546856664E+03  0.27546856664E+03  0.00000000000E+00 0.  1.
         23    2    1    2    0    0 -0.54451554839E+03 -0.42835930375E+03  0.17196133547E+04  0.18560430448E+04  0.88525810129E+02 0.  0.
         13    1    3    3    0    0 -0.34967113398E+03 -0.22202616117E+03  0.98756588628E+03  0.10709117134E+04  0.00000000000E+00 0.  1.
        -13    1    3    3    0    0 -0.19484441440E+03 -0.20633314258E+03  0.73204746844E+03  0.78513133143E+03  0.00000000000E+00 0. -1.
         22    1    1    2    0    0  0.54451554839E+03  0.42835930375E+03  0.37173331893E+03  0.78624076207E+03  0.00000000000E+00 0. -1.
<mgrwt>
<rscale>  0 0.16149095E+04</rscale>
<asrwt>0</asrwt>
<pdfrwt beam="1">  1        2 0.36412541E+00 0.16149095E+04</pdfrwt>
<pdfrwt beam="2">  1       -2 0.42379781E-01 0.16149095E+04</pdfrwt>
<totfact> 0.21024379E+01</totfact>
</mgrwt>
</event>
<event>
 6    1  0.2003386E-005  0.3928920E+04  0.7818608E-02  0.8019041E-01
         -2   -1    0    0    0  501 -0.00000000000E+00  0.00000000000E+00  0.13595845299E+04  0.13595845299E+04  0.00000000000E+00 0.  1.
          2   -1    0    0  501    0  0.00000000000E+00 -0.00000000000E+00 -0.28384427837E+04  0.28384427837E+04  0.00000000000E+00 0. -1.
         23    2    1    2    0    0  0.13155642971E+04  0.14090645860E+04 -0.11391363956E+04  0.22405842447E+04  0.80084969499E+02 0.  0.
         11    1    3    3    0    0  0.67915890351E+03  0.67245847146E+03 -0.58060193522E+03  0.11182825310E+04  0.00000000000E+00 0. -1.
        -11    1    3    3    0    0  0.63640539360E+03  0.73660611454E+03 -0.55853446035E+03  0.11223017136E+04  0.00000000000E+00 0.  1.
         22    1    1    2    0    0 -0.13155642971E+04 -0.14090645860E+04 -0.33972185826E+03  0.19574430690E+04  0.00000000000E+00 0.  1.
<mgrwt>
<rscale>  0 0.39289199E+04</rscale>
<asrwt>0</asrwt>
<pdfrwt beam="1">  1        2 0.43668350E+00 0.39289199E+04</pdfrwt>
<pdfrwt beam="2">  1       -2 0.20916685E+00 0.39289199E+04</pdfrwt>
<totfact> 0.20149570E-01</totfact>
</mgrwt>
</event>
<event>
 6    1  0.2003386E-005  0.2240229E+04  0.7818608E-02  0.8501868E-01
         -2   -1    0    0    0  501 -0.00000000000E+00  0.00000000000E+00  0.12420599930E+04  0.12420599930E+04  0.00000000000E+00 0.  1.
          2   -1    0    0  501    0  0.00000000000E+00 -0.00000000000E+00 -0.10101413902E+04  0.10101413902E+04  0.00000000000E+00 0. -1.
         23    2    1    2    0    0  0.12297622757E+03  0.60288358594E+03 -0.82265673186E+03  0.10312505622E+04  0.90121322894E+02 0.  0.
         13    1    3    3    0    0  0.71161144441E+02  0.27538320419E+03 -0.31002132738E+03  0.42072917781E+03  0.00000000000E+00 0.  1.
        -13    1    3    3    0    0  0.51815083125E+02  0.32750038175E+03 -0.51263540448E+03  0.61052138440E+03  0.00000000000E+00 0. -1.
         22    1    1    2    0    0 -0.12297622757E+03 -0.60288358594E+03  0.10545753347E+04  0.12209508210E+04  0.00000000000E+00 0.  1.
<mgrwt>
<rscale>  0 0.22402287E+04</rscale>
<asrwt>0</asrwt>
<pdfrwt beam="1">  1        2 0.15540637E+00 0.22402287E+04</pdfrwt>
<pdfrwt beam="2">  1       -2 0.19108615E+00 0.22402287E+04</pdfrwt>
<totfact> 0.34449567E+00</totfact>
</mgrwt>
</event>
<event>
 6    1  0.2003386E-005  0.4993965E+04  0.7818608E-02  0.7829439E-01
         -2   -1    0    0    0  501 -0.00000000000E+00  0.00000000000E+00  0.26401488044E+04  0.26401488044E+04  0.00000000000E+00 0.  1.
          2   -1    0    0  501    0  0.00000000000E+00 -0.00000000000E+00 -0.23615794485E+04  0.23615794485E+04  0.00000000000E+00 0. -1.
         23    2    1    2    0    0  0.39758665734E+03 -0.23838390362E+04 -0.48623366124E+03  0.24668342995E+04  0.89914332713E+02 0.  0.
         13    1    3    3    0    0  0.10641486703E+03 -0.50929481232E+03 -0.13567620196E+03  0.53769262740E+03  0.00000000000E+00 0. -1.
        -13    1    3    3    0    0  0.29117179031E+03 -0.18745442238E+04 -0.35055745929E+03  0.19291416721E+04  0.00000000000E+00 0.  1.
         22    1    1    2    0    0 -0.39758665734E+03  0.23838390362E+04  0.76480301716E+03  0.25348939535E+04  0.00000000000E+00 0.  1.
<mgrwt>
<rscale>  0 0.49939648E+04</rscale>
<asrwt>0</asrwt>
<pdfrwt beam="1">  1        2 0.36331991E+00 0.49939648E+04</pdfrwt>
<pdfrwt beam="2">  1       -2 0.40617674E+00 0.49939648E+04</pdfrwt>
<totfact> 0.20614330E-02</totfact>
</mgrwt>
</event>
<event>
 6    1  0.2003386E-005  0.3280112E+04  0.7818608E-02  0.8167974E-01
         -2   -1    0    0    0  501 -0.00000000000E+00  0.00000000000E+00  0.14908452049E+04  0.14908452049E+04  0.00000000000E+00 0. -1.
          2   -1    0    0  501    0  0.00000000000E+00 -0.00000000000E+00 -0.18042002195E+04  0.18042002195E+04  0.00000000000E+00 0.  1.
         23    2    1    2    0    0  0.28459347669E+03 -0.11095550654E+04  0.10207254728E+04  0.15366721315E+04  0.85876998469E+02 0.  0.
         13    1    3    3    0    0  0.84857998348E+02 -0.47648796900E+03  0.46009726044E+03  0.66778076758E+03  0.00000000000E+00 0. -1.
        -13    1    3    3    0    0  0.19973547834E+03 -0.63306709637E+03  0.56062821239E+03  0.86889136395E+03  0.00000000000E+00 0.  1.
         22    1    1    2    0    0 -0.28459347669E+03  0.11095550654E+04 -0.13340804875E+04  0.17583732929E+04  0.00000000000E+00 0.  1.
<mgrwt>
<rscale>  0 0.32801117E+04</rscale>
<asrwt>0</asrwt>
<pdfrwt beam="1">  1        2 0.27756926E+00 0.32801117E+04</pdfrwt>
<pdfrwt beam="2">  1       -2 0.22936080E+00 0.32801117E+04</pdfrwt>
<totfact> 0.61960280E-01</totfact>
</mgrwt>
</event>
<event>
 6    1  0.2003386E-005  0.3896664E+04  0.7818608E-02  0.8025723E-01
          2   -1    0    0  501    0  0.00000000000E+00  0.00000000000E+00  0.36779086086E+04  0.36779086086E+04  0.00000000000E+00 0. -1.
         -2   -1    0    0    0  501 -0.00000000000E+00 -0.00000000000E+00 -0.10321077023E+04  0.10321077023E+04  0.00000000000E+00 0.  1.
         23    2    1    2    0    0  0.11341056772E+04 -0.15505698902E+04  0.94030512339E+03  0.21411296772E+04  0.98994434892E+02 0.  0.
         13    1    3    3    0    0  0.31095205435E+03 -0.46382767142E+03  0.23052579236E+03  0.60412699809E+03  0.00000000000E+00 0.  1.
        -13    1    3    3    0    0  0.82315362280E+03 -0.10867422188E+04  0.70977933103E+03  0.15370026791E+04  0.00000000000E+00 0. -1.
         22    1    1    2    0    0 -0.11341056772E+04  0.15505698902E+04  0.17054957829E+04  0.25688866337E+04  0.00000000000E+00 0.  1.
<mgrwt>
<rscale>  0 0.38966641E+04</rscale>
<asrwt>0</asrwt>
<pdfrwt beam="1">  1        2 0.56583209E+00 0.38966641E+04</pdfrwt>
<pdfrwt beam="2">  1       -2 0.15878580E+00 0.38966641E+04</pdfrwt>
<totfact> 0.12368062E-01</totfact>
</mgrwt>
</event>
<event>
 6    1  0.2003386E-005  0.6105055E+04  0.7818608E-02  0.7677511E-01
         -2   -1    0    0    0  501 -0.00000000000E+00  0.00000000000E+00  0.23732272091E+04  0.23732272091E+04  0.00000000000E+00 0.  1.
          2   -1    0    0  501    0  0.00000000000E+00 -0.00000000000E+00 -0.39262674664E+04  0.39262674664E+04  0.00000000000E+00 0. -1.
         23    2    1    2    0    0  0.44435846582E+03 -0.30151415618E+04 -0.94167073289E+03  0.31910697079E+04  0.87458722385E+02 0.  0.
         11    1    3    3    0    0  0.16384247735E+03 -0.13111278989E+04 -0.37456925904E+03  0.13733910056E+04  0.00000000000E+00 0. -1.
        -11    1    3    3    0    0  0.28051598847E+03 -0.17040136629E+04 -0.56710147385E+03  0.18176787023E+04  0.00000000000E+00 0.  1.
         22    1    1    2    0    0 -0.44435846582E+03  0.30151415618E+04 -0.61136952446E+03  0.31084249676E+04  0.00000000000E+00 0.  1.
<mgrwt>
<rscale>  0 0.61050552E+04</rscale>
<asrwt>0</asrwt>
<pdfrwt beam="1">  1        2 0.60404114E+00 0.61050552E+04</pdfrwt>
<pdfrwt beam="2">  1       -2 0.36511188E+00 0.61050552E+04</pdfrwt>
<totfact> 0.32501683E-03</totfact>
</mgrwt>
</event>
<event>
 6    1  0.2003386E-005  0.4227857E+04  0.7818608E-02  0.7960094E-01
         -1   -1    0    0    0  501 -0.00000000000E+00  0.00000000000E+00  0.19822951503E+04  0.19822951503E+04  0.00000000000E+00 0.  1.
          1   -1    0    0  501    0  0.00000000000E+00 -0.00000000000E+00 -0.22543030448E+04  0.22543030448E+04  0.00000000000E+00 0. -1.
         23    2    1    2    0    0 -0.17550225745E+04 -0.57307820402E+03  0.89384306373E+03  0.20530846683E+04  0.87626296557E+02 0.  0.
         13    1    3    3    0    0 -0.10708061049E+04 -0.32202988730E+03  0.57858476939E+03  0.12590032954E+04  0.00000000000E+00 0.  1.
        -13    1    3    3    0    0 -0.68421646961E+03 -0.25104831672E+03  0.31525829434E+03  0.79408137289E+03  0.00000000000E+00 0. -1.
         22    1    1    2    0    0  0.17550225745E+04  0.57307820402E+03 -0.11658509582E+04  0.21835135268E+04  0.00000000000E+00 0. -1.
<mgrwt>
<rscale>  0 0.42278571E+04</rscale>
<asrwt>0</asrwt>
<pdfrwt beam="1">  1        1 0.34681586E+00 0.42278571E+04</pdfrwt>
<pdfrwt beam="2">  1       -1 0.30496848E+00 0.42278571E+04</pdfrwt>
<totfact> 0.47116100E-02</totfact>
</mgrwt>
</event>
<event>
 6    1  0.2003386E-005  0.2188952E+04  0.7818608E-02  0.8523041E-01
         -2   -1    0    0    0  501 -0.00000000000E+00  0.00000000000E+00  0.10791011087E+04  0.10791011087E+04  0.00000000000E+00 0.  1.
          2   -1    0    0  501    0  0.00000000000E+00 -0.00000000000E+00 -0.11100698875E+04  0.11100698875E+04  0.00000000000E+00 0. -1.
         23    2    1    2    0    0 -0.73533237190E+03  0.69731026895E+03  0.39295829556E+03  0.10906859155E+04  0.90687572729E+02 0.  0.
         13    1    3    3    0    0 -0.27657861674E+03  0.28933025178E+03  0.11274040571E+03  0.41583425173E+03  0.00000000000E+00 0. -1.
        -13    1    3    3    0    0 -0.45875375516E+03  0.40798001717E+03  0.28021788986E+03  0.67485166376E+03  0.00000000000E+00 0.  1.
         22    1    1    2    0    0  0.73533237190E+03 -0.69731026895E+03 -0.42392707435E+03  0.10984850808E+04  0.00000000000E+00 0. -1.
<mgrwt>
<rscale>  0 0.21889519E+04</rscale>
<asrwt>0</asrwt>
<pdfrwt beam="1">  1        2 0.17077998E+00 0.21889519E+04</pdfrwt>
<pdfrwt beam="2">  1       -2 0.16601556E+00 0.21889519E+04</pdfrwt>
<totfact> 0.44724153E+00</totfact>
</mgrwt>
</event>
<event>
 6    1  0.2003386E-005  0.4333289E+04  0.7818608E-02  0.7940491E-01
          2   -1    0    0  501    0  0.00000000000E+00  0.00000000000E+00  0.33465600315E+04  0.33465600315E+04  0.00000000000E+00 0. -1.
         -2   -1    0    0    0  501 -0.00000000000E+00 -0.00000000000E+00 -0.14027387567E+04  0.14027387567E+04  0.00000000000E+00 0.  1.
         23    2    1    2    0    0 -0.11175138788E+04  0.18106725049E+04  0.52992438760E+03  0.21946018205E+04  0.89917210457E+02 0.  0.
         11    1    3    3    0    0 -0.38075597399E+03  0.65848401406E+03  0.15120652180E+03  0.77552544815E+03  0.00000000000E+00 0. -1.
        -11    1    3    3    0    0 -0.73675790476E+03  0.11521884908E+04  0.37871786580E+03  0.14190763723E+04  0.00000000000E+00 0.  1.
         22    1    1    2    0    0  0.11175138788E+04 -0.18106725049E+04  0.14138968871E+04  0.25546969677E+04  0.00000000000E+00 0. -1.
<mgrwt>
<rscale>  0 0.43332895E+04</rscale>
<asrwt>0</asrwt>
<pdfrwt beam="1">  1        2 0.51485539E+00 0.43332895E+04</pdfrwt>
<pdfrwt beam="2">  1       -2 0.21580596E+00 0.43332895E+04</pdfrwt>
<totfact> 0.83542158E-02</totfact>
</mgrwt>
</event>
<event>
 6    1  0.2003386E-005  0.3182143E+04  0.7818608E-02  0.8193549E-01
         -2   -1    0    0    0  501 -0.00000000000E+00  0.00000000000E+00  0.70947703010E+03  0.70947703010E+03  0.00000000000E+00 0.  1.
          2   -1    0    0  501    0  0.00000000000E+00 -0.00000000000E+00 -0.35681338803E+04  0.35681338803E+04  0.00000000000E+00 0. -1.
         23    2    1    2    0    0  0.15848410923E+04 -0.56790478015E+02 -0.15789104490E+04  0.22397941135E+04  0.93664392581E+02 0.  0.
         11    1    3    3    0    0  0.50644534843E+03 -0.38590232413E+02 -0.45179496543E+03  0.67977554220E+03  0.00000000000E+00 0.  1.
        -11    1    3    3    0    0  0.10783957439E+04 -0.18200245603E+02 -0.11271154836E+04  0.15600185713E+04  0.00000000000E+00 0. -1.
         22    1    1    2    0    0 -0.15848410923E+04  0.56790478015E+02 -0.12797464011E+04  0.20378167968E+04  0.00000000000E+00 0.  1.
<mgrwt>
<rscale>  0 0.31821433E+04</rscale>
<asrwt>0</asrwt>
<pdfrwt beam="1">  1        2 0.54894367E+00 0.31821433E+04</pdfrwt>
<pdfrwt beam="2">  1       -2 0.10915031E+00 0.31821433E+04</pdfrwt>
<totfact> 0.41026902E-01</totfact>
</mgrwt>
</event>
<event>
 6    1  0.2003386E-005  0.1496214E+04  0.7818608E-02  0.8886975E-01
          2   -1    0    0  501    0  0.00000000000E+00  0.00000000000E+00  0.63393334708E+03  0.63393334708E+03  0.00000000000E+00 0. -1.
         -2   -1    0    0    0  501 -0.00000000000E+00 -0.00000000000E+00 -0.88284347407E+03  0.88284347407E+03  0.00000000000E+00 0.  1.
         23    2    1    2    0    0  0.42929349741E+03  0.29478534607E+03  0.41577172374E+03  0.67238753305E+03  0.89708200112E+02 0.  0.
         13    1    3    3    0    0  0.30547329491E+02  0.22450129808E+02  0.66114708967E+02  0.76212219553E+02  0.00000000000E+00 0. -1.
        -13    1    3    3    0    0  0.39874616792E+03  0.27233521626E+03  0.34965701477E+03  0.59617531350E+03  0.00000000000E+00 0.  1.
         22    1    1    2    0    0 -0.42929349741E+03 -0.29478534607E+03 -0.66468185073E+03  0.84438928810E+03  0.00000000000E+00 0.  1.
<mgrwt>
<rscale>  0 0.14962138E+04</rscale>
<asrwt>0</asrwt>
<pdfrwt beam="1">  1        2 0.97528207E-01 0.14962138E+04</pdfrwt>
<pdfrwt beam="2">  1       -2 0.13582207E+00 0.14962138E+04</pdfrwt>
<totfact> 0.17400727E+01</totfact>
</mgrwt>
</event>
<event>
 6    1  0.2003386E-005  0.4989153E+04  0.7818608E-02  0.7830183E-01
         -2   -1    0    0    0  501 -0.00000000000E+00  0.00000000000E+00  0.18062013026E+04  0.18062013026E+04  0.00000000000E+00 0.  1.
          2   -1    0    0  501    0  0.00000000000E+00 -0.00000000000E+00 -0.34453034871E+04  0.34453034871E+04  0.00000000000E+00 0. -1.
         23    2    1    2    0    0  0.16747677773E+04 -0.17881585153E+04 -0.13093952543E+04  0.27794480258E+04  0.91964190159E+02 0.  0.
         11    1    3    3    0    0  0.73822880296E+03 -0.83867531829E+03 -0.63109950453E+03  0.12832165210E+04  0.00000000000E+00 0.  1.
        -11    1    3    3    0    0  0.93653897433E+03 -0.94948319706E+03 -0.67829574974E+03  0.14962315048E+04  0.00000000000E+00 0. -1.
         22    1    1    2    0    0 -0.16747677773E+04  0.17881585153E+04 -0.32970693026E+03  0.24720567639E+04  0.00000000000E+00 0.  1.
<mgrwt>
<rscale>  0 0.49891529E+04</rscale>
<asrwt>0</asrwt>
<pdfrwt beam="1">  1        2 0.53004669E+00 0.49891529E+04</pdfrwt>
<pdfrwt beam="2">  1       -2 0.27787713E+00 0.49891529E+04</pdfrwt>
<totfact> 0.28006027E-02</totfact>
</mgrwt>
</event>
<event>
 6    1  0.2003386E-005  0.2268943E+04  0.7818608E-02  0.8490268E-01
         -2   -1    0    0    0  501 -0.00000000000E+00  0.00000000000E+00  0.58043517272E+03  0.58043517272E+03  0.00000000000E+00 0.  1.
          2   -1    0    0  501    0  0.00000000000E+00 -0.00000000000E+00 -0.22173453955E+04  0.22173453955E+04  0.00000000000E+00 0. -1.
         23    2    1    2    0    0  0.25175739578E+03 -0.37590438636E+03  0.46067551149E+03  0.65195862626E+03  0.90234303041E+02 0.  0.
         13    1    3    3    0    0  0.15523646893E+03 -0.27790418848E+03  0.27352327221E+03  0.41969522239E+03  0.00000000000E+00 0. -1.
        -13    1    3    3    0    0  0.96520926854E+02 -0.98000197884E+02  0.18715223929E+03  0.23226340387E+03  0.00000000000E+00 0.  1.
         22    1    1    2    0    0 -0.25175739578E+03  0.37590438636E+03 -0.20975857342E+04  0.21458219419E+04  0.00000000000E+00 0. -1.
<mgrwt>
<rscale>  0 0.22689427E+04</rscale>
<asrwt>0</asrwt>
<pdfrwt beam="1">  1        2 0.34113006E+00 0.22689427E+04</pdfrwt>
<pdfrwt beam="2">  1       -2 0.89297719E-01 0.22689427E+04</pdfrwt>
<totfact> 0.49375558E+00</totfact>
</mgrwt>
</event>
<event>
 6    1  0.2003386E-005  0.2577849E+04  0.7818608E-02  0.8375765E-01
          2   -1    0    0  501    0  0.00000000000E+00  0.00000000000E+00  0.35485704961E+04  0.35485704961E+04  0.00000000000E+00 0.  1.
         -2   -1    0    0    0  501 -0.00000000000E+00 -0.00000000000E+00 -0.46816760478E+03  0.46816760478E+03  0.00000000000E+00 0. -1.
         23    2    1    2    0    0 -0.11417307526E+04 -0.40017710940E+03  0.85710478757E+03  0.14855831692E+04  0.92940332486E+02 0.  0.
         11    1    3    3    0    0 -0.58763010387E+03 -0.18282802469E+03  0.48588818444E+03  0.78410621306E+03  0.00000000000E+00 0. -1.
        -11    1    3    3    0    0 -0.55410064869E+03 -0.21734908471E+03  0.37121660314E+03  0.70147695610E+03  0.00000000000E+00 0.  1.
         22    1    1    2    0    0  0.11417307526E+04  0.40017710940E+03  0.22232981038E+04  0.25311549318E+04  0.00000000000E+00 0.  1.
<mgrwt>
<rscale>  0 0.25778485E+04</rscale>
<asrwt>0</asrwt>
<pdfrwt beam="1">  1        2 0.54593390E+00 0.25778485E+04</pdfrwt>
<pdfrwt beam="2">  1       -2 0.72025788E-01 0.25778485E+04</pdfrwt>
<totfact> 0.11637608E+00</totfact>
</mgrwt>
</event>
<event>
 6    1  0.2003386E-005  0.7954772E+04  0.7818608E-02  0.7486258E-01
          2   -1    0    0  501    0  0.00000000000E+00  0.00000000000E+00  0.33229610801E+04  0.33229610801E+04  0.00000000000E+00 0. -1.
         -2   -1    0    0    0  501 -0.00000000000E+00 -0.00000000000E+00 -0.47606939381E+04  0.47606939381E+04  0.00000000000E+00 0.  1.
         23    2    1    2    0    0  0.23035618656E+04 -0.50413036267E+03 -0.39731732182E+04  0.46211411176E+04  0.91077526747E+02 0.  0.
         11    1    3    3    0    0  0.19707519480E+04 -0.40347211619E+03 -0.34211142542E+04  0.39687120996E+04  0.00000000000E+00 0. -1.
        -11    1    3    3    0    0  0.33280991758E+03 -0.10065824648E+03 -0.55205896399E+03  0.65242901801E+03  0.00000000000E+00 0.  1.
         22    1    1    2    0    0 -0.23035618656E+04  0.50413036267E+03  0.25354403602E+04  0.34625139005E+04  0.00000000000E+00 0. -1.
<mgrwt>
<rscale>  0 0.79547723E+04</rscale>
<asrwt>0</asrwt>
<pdfrwt beam="1">  1        2 0.51122478E+00 0.79547723E+04</pdfrwt>
<pdfrwt beam="2">  1       -2 0.73241445E+00 0.79547723E+04</pdfrwt>
<totfact> 0.10939189E-04</totfact>
</mgrwt>
</event>
<event>
 6    1  0.2003386E-005  0.8806102E+03  0.7818608E-02  0.9450150E-01
         -2   -1    0    0    0  501 -0.00000000000E+00  0.00000000000E+00  0.33642337768E+03  0.33642337768E+03  0.00000000000E+00 0. -1.
          2   -1    0    0  501    0  0.00000000000E+00 -0.00000000000E+00 -0.57626367203E+03  0.57626367203E+03  0.00000000000E+00 0.  1.
         23    2    1    2    0    0 -0.22933844723E+03  0.22550371473E+03 -0.42570440194E+03  0.54121226561E+03  0.90765796835E+02 0.  0.
         11    1    3    3    0    0 -0.14703782299E+02  0.64366697237E+01 -0.68760625711E+02  0.70609174894E+02  0.00000000000E+00 0.  1.
        -11    1    3    3    0    0 -0.21463466493E+03  0.21906704501E+03 -0.35694377623E+03  0.47060309071E+03  0.00000000000E+00 0. -1.
         22    1    1    2    0    0  0.22933844723E+03 -0.22550371473E+03  0.18586410758E+03  0.37147478410E+03  0.00000000000E+00 0. -1.
<mgrwt>
<rscale>  0 0.88061018E+03</rscale>
<asrwt>0</asrwt>
<pdfrwt beam="1">  1        2 0.88655950E-01 0.88061018E+03</pdfrwt>
<pdfrwt beam="2">  1       -2 0.51757442E-01 0.88061018E+03</pdfrwt>
<totfact> 0.18436282E+02</totfact>
</mgrwt>
</event>
<event>
 6    1  0.2415294E-005  0.3397114E+04  0.7818608E-02  0.8138615E-01
         -2   -1    0    0    0  501 -0.00000000000E+00  0.00000000000E+00  0.12056063593E+04  0.12056063593E+04  0.00000000000E+00 0.  1.
          2   -1    0    0  501    0  0.00000000000E+00 -0.00000000000E+00 -0.23930656920E+04  0.23930656920E+04  0.00000000000E+00 0. -1.
         23    2    1    2    0    0 -0.13721020431E+04 -0.36115490655E+03  0.39260252678E+03  0.14750684246E+04  0.92699676352E+02 0.  0.
         13    1    3    3    0    0 -0.87270100791E+03 -0.25107378251E+03  0.29187439124E+03  0.95385310910E+03  0.00000000000E+00 0.  1.
        -13    1    3    3    0    0 -0.49940103522E+03 -0.11008112403E+03  0.10072813554E+03  0.52121531552E+03  0.00000000000E+00 0. -1.
         22    1    1    2    0    0  0.13721020431E+04  0.36115490655E+03 -0.15800618596E+04  0.21236036267E+04  0.00000000000E+00 0. -1.
<mgrwt>
<rscale>  0 0.33971136E+04</rscale>
<asrwt>0</asrwt>
<pdfrwt beam="1">  1        2 0.36816395E+00 0.33971136E+04</pdfrwt>
<pdfrwt beam="2">  1       -2 0.18547790E+00 0.33971136E+04</pdfrwt>
<totfact> 0.55283346E-01</totfact>
</mgrwt>
</event>
<event>
 6    1  0.2003386E-005  0.3145096E+04  0.7818608E-02  0.8203470E-01
          2   -1    0    0  501    0  0.00000000000E+00  0.00000000000E+00  0.36413262354E+04  0.36413262354E+04  0.00000000000E+00 0. -1.
         -2   -1    0    0    0  501 -0.00000000000E+00 -0.00000000000E+00 -0.67912260302E+03  0.67912260302E+03  0.00000000000E+00 0.  1.
         23    2    1    2    0    0 -0.21185325636E+03  0.79504953787E+03  0.33211812968E+04  0.34227570575E+04  0.89638713715E+02 0.  0.
         13    1    3    3    0    0 -0.63672899358E+02  0.13615633365E+03  0.51777932988E+03  0.53915509806E+03  0.00000000000E+00 0. -1.
        -13    1    3    3    0    0 -0.14818035701E+03  0.65889320422E+03  0.28034019669E+04  0.28836019595E+04  0.00000000000E+00 0.  1.
         22    1    1    2    0    0  0.21185325636E+03 -0.79504953787E+03 -0.35897766441E+03  0.89769178087E+03  0.00000000000E+00 0.  1.
<mgrwt>
<rscale>  0 0.31450958E+04</rscale>
<asrwt>0</asrwt>
<pdfrwt beam="1">  1        2 0.56020403E+00 0.31450958E+04</pdfrwt>
<pdfrwt beam="2">  1       -2 0.10448040E+00 0.31450958E+04</pdfrwt>
<totfact> 0.40502480E-01</totfact>
</mgrwt>
</event>
<event>
 6    1  0.2003386E-005  0.2235468E+04  0.7818608E-02  0.8503809E-01
         -2   -1    0    0    0  501 -0.00000000000E+00  0.00000000000E+00  0.24789197344E+04  0.24789197344E+04  0.00000000000E+00 0.  1.
          2   -1    0    0  501    0  0.00000000000E+00 -0.00000000000E+00 -0.50398120134E+03  0.50398120134E+03  0.00000000000E+00 0. -1.
         23    2    1    2    0    0 -0.10736534088E+04 -0.14993454118E+03  0.64496669832E+03  0.12670812803E+04  0.11958645356E+03 0.  0.
         11    1    3    3    0    0 -0.64085835947E+03 -0.14614407087E+03  0.40807404458E+03  0.77368078186E+03  0.00000000000E+00 0. -1.
        -11    1    3    3    0    0 -0.43279504937E+03 -0.37904703100E+01  0.23689265374E+03  0.49340049840E+03  0.00000000000E+00 0.  1.
         22    1    1    2    0    0  0.10736534088E+04  0.14993454118E+03  0.13299718347E+04  0.17158196555E+04  0.00000000000E+00 0.  1.
<mgrwt>
<rscale>  0 0.22354677E+04</rscale>
<asrwt>0</asrwt>
<pdfrwt beam="1">  1        2 0.77535571E-01 0.22354677E+04</pdfrwt>
<pdfrwt beam="2">  1       -2 0.38137226E+00 0.22354677E+04</pdfrwt>
<totfact> 0.54630481E-01</totfact>
</mgrwt>
</event>
<event>
 6    1  0.2003386E-005  0.1335842E+04  0.7818608E-02  0.9001615E-01
          2   -1    0    0  501    0  0.00000000000E+00  0.00000000000E+00  0.67973012240E+03  0.67973012240E+03  0.00000000000E+00 0. -1.
         -2   -1    0    0    0  501 -0.00000000000E+00 -0.00000000000E+00 -0.65631674626E+03  0.65631674626E+03  0.00000000000E+00 0.  1.
         23    2    1    2    0    0  0.27983660877E+03  0.16301395293E+03 -0.56834702746E+03  0.66146369978E+03  0.98151953815E+02 0.  0.
         11    1    3    3    0    0  0.14730938639E+03  0.13784517097E+03 -0.30699339742E+03  0.36735036755E+03  0.00000000000E+00 0. -1.
        -11    1    3    3    0    0  0.13252722239E+03  0.25168781959E+02 -0.26135363005E+03  0.29411333223E+03  0.00000000000E+00 0.  1.
         22    1    1    2    0    0 -0.27983660877E+03 -0.16301395293E+03  0.59176040360E+03  0.67458316888E+03  0.00000000000E+00 0. -1.
<mgrwt>
<rscale>  0 0.13358417E+04</rscale>
<asrwt>0</asrwt>
<pdfrwt beam="1">  1        2 0.10457387E+00 0.13358417E+04</pdfrwt>
<pdfrwt beam="2">  1       -2 0.10097181E+00 0.13358417E+04</pdfrwt>
<totfact> 0.33567912E+01</totfact>
</mgrwt>
</event>
<event>
 6    1  0.2003386E-005  0.2283795E+04  0.7818608E-02  0.8484338E-01
         -2   -1    0    0    0  501 -0.00000000000E+00  0.00000000000E+00  0.49203218227E+03  0.49203218227E+03  0.00000000000E+00 0.  1.
          2   -1    0    0  501    0  0.00000000000E+00 -0.00000000000E+00 -0.26500897091E+04  0.26500897091E+04  0.00000000000E+00 0. -1.
         23    2    1    2    0    0  0.77268048983E+03  0.78733052884E+03 -0.68391895055E+03  0.13009241717E+04  0.87943552646E+02 0.  0.
         11    1    3    3    0    0  0.59211236689E+03  0.54841428455E+03 -0.49097791959E+03  0.94467698185E+03  0.00000000000E+00 0. -1.
        -11    1    3    3    0    0  0.18056812294E+03  0.23891624429E+03 -0.19294103096E+03  0.35624718980E+03  0.00000000000E+00 0.  1.
         22    1    1    2    0    0 -0.77268048983E+03 -0.78733052884E+03 -0.14741385763E+04  0.18411977197E+04  0.00000000000E+00 0. -1.
<mgrwt>
<rscale>  0 0.22837946E+04</rscale>
<asrwt>0</asrwt>
<pdfrwt beam="1">  1        2 0.40770611E+00 0.22837946E+04</pdfrwt>
<pdfrwt beam="2">  1       -2 0.75697259E-01 0.22837946E+04</pdfrwt>
<totfact> 0.40381588E+00</totfact>
</mgrwt>
</event>
<event>
 6    1  0.2003386E-005  0.4490807E+03  0.7818608E-02  0.1027997E+00
         -2   -1    0    0    0  501 -0.00000000000E+00  0.00000000000E+00  0.10083333393E+03  0.10083333393E+03  0.00000000000E+00 0.  1.
          2   -1    0    0  501    0  0.00000000000E+00 -0.00000000000E+00 -0.50001682850E+03  0.50001682850E+03  0.00000000000E+00 0. -1.
         23    2    1    2    0    0  0.15882457277E+03 -0.12890938437E+03 -0.11243705999E+03  0.24861956746E+03  0.85596276618E+02 0.  0.
         13    1    3    3    0    0  0.15130041865E+03 -0.81352368541E+02 -0.74154617875E+02  0.18710673933E+03  0.00000000000E+00 0. -1.
        -13    1    3    3    0    0  0.75241541138E+01 -0.47557015832E+02 -0.38282442111E+02  0.61512828125E+02  0.00000000000E+00 0.  1.
         22    1    1    2    0    0 -0.15882457277E+03  0.12890938437E+03 -0.28674643458E+03  0.35223059498E+03  0.00000000000E+00 0. -1.
<mgrwt>
<rscale>  0 0.44908068E+03</rscale>
<asrwt>0</asrwt>
<pdfrwt beam="1">  1        2 0.76925665E-01 0.44908068E+03</pdfrwt>
<pdfrwt beam="2">  1       -2 0.15512821E-01 0.44908068E+03</pdfrwt>
<totfact> 0.20268530E+03</totfact>
</mgrwt>
</event>
<event>
 6    1  0.2003386E-005  0.4135571E+04  0.7818608E-02  0.7977742E-01
          2   -1    0    0  501    0  0.00000000000E+00  0.00000000000E+00  0.23646411926E+04  0.23646411926E+04  0.00000000000E+00 0. -1.
         -2   -1    0    0    0  501 -0.00000000000E+00 -0.00000000000E+00 -0.18081965540E+04  0.18081965540E+04  0.00000000000E+00 0.  1.
         23    2    1    2    0    0  0.31507940733E+03 -0.62817638639E+03 -0.16827889735E+04  0.18259147025E+04  0.91132683653E+02 0.  0.
         13    1    3    3    0    0  0.68322123149E+02 -0.20605493578E+03 -0.44749011829E+03  0.49736702247E+03  0.00000000000E+00 0.  1.
        -13    1    3    3    0    0  0.24675728418E+03 -0.42212145060E+03 -0.12352988552E+04  0.13285476800E+04  0.00000000000E+00 0. -1.
         22    1    1    2    0    0 -0.31507940733E+03  0.62817638639E+03  0.22392336122E+04  0.23469230442E+04  0.00000000000E+00 0. -1.
<mgrwt>
<rscale>  0 0.41355706E+04</rscale>
<asrwt>0</asrwt>
<pdfrwt beam="1">  1        2 0.36379095E+00 0.41355706E+04</pdfrwt>
<pdfrwt beam="2">  1       -2 0.27818409E+00 0.41355706E+04</pdfrwt>
<totfact> 0.14041285E-01</totfact>
</mgrwt>
</event>
<event>
 6    1  0.2003386E-005  0.1890359E+04  0.7818608E-02  0.8659670E-01
          1   -1    0    0  501    0  0.00000000000E+00  0.00000000000E+00  0.23900709847E+04  0.23900709847E+04  0.00000000000E+00 0. -1.
         -1   -1    0    0    0  501 -0.00000000000E+00 -0.00000000000E+00 -0.37378162058E+03  0.37378162058E+03  0.00000000000E+00 0.  1.
         23    2    1    2    0    0  0.40782099950E+03 -0.65813554661E+03  0.22352956370E+03  0.81104742622E+03  0.91499160563E+02 0.  0.
         13    1    3    3    0    0  0.20522785995E+03 -0.28676989938E+03  0.14239448671E+03  0.38030466672E+03  0.00000000000E+00 0. -1.
        -13    1    3    3    0    0  0.20259313955E+03 -0.37136564724E+03  0.81135076991E+02  0.43074275950E+03  0.00000000000E+00 0.  1.
         22    1    1    2    0    0 -0.40782099950E+03  0.65813554661E+03  0.17927598004E+04  0.19528051791E+04  0.00000000000E+00 0. -1.
<mgrwt>
<rscale>  0 0.18903593E+04</rscale>
<asrwt>0</asrwt>
<pdfrwt beam="1">  1        1 0.36770322E+00 0.18903593E+04</pdfrwt>
<pdfrwt beam="2">  1       -1 0.57504866E-01 0.18903593E+04</pdfrwt>
<totfact> 0.46311287E+00</totfact>
</mgrwt>
</event>
<event>
 6    1  0.2003386E-005  0.4960733E+04  0.7818608E-02  0.7834593E-01
          2   -1    0    0  501    0  0.00000000000E+00  0.00000000000E+00  0.34810976140E+04  0.34810976140E+04  0.00000000000E+00 0. -1.
         -2   -1    0    0    0  501 -0.00000000000E+00 -0.00000000000E+00 -0.17673212714E+04  0.17673212714E+04  0.00000000000E+00 0.  1.
         23    2    1    2    0    0 -0.20280657716E+04  0.12628116549E+04  0.15593748502E+04  0.28543462318E+04  0.88873155568E+02 0.  0.
         11    1    3    3    0    0 -0.14201829894E+04  0.85009504629E+03  0.10451859929E+04  0.19575482295E+04  0.00000000000E+00 0.  1.
        -11    1    3    3    0    0 -0.60788278226E+03  0.41271660858E+03  0.51418885727E+03  0.89679800228E+03  0.00000000000E+00 0. -1.
         22    1    1    2    0    0  0.20280657716E+04 -0.12628116549E+04  0.15440149247E+03  0.23940726536E+04  0.00000000000E+00 0.  1.
<mgrwt>
<rscale>  0 0.49607330E+04</rscale>
<asrwt>0</asrwt>
<pdfrwt beam="1">  1        2 0.53555348E+00 0.49607330E+04</pdfrwt>
<pdfrwt beam="2">  1       -2 0.27189558E+00 0.49607330E+04</pdfrwt>
<totfact> 0.28829016E-02</totfact>
</mgrwt>
</event>
<event>
 6    1  0.2003386E-005  0.2258903E+04  0.7818608E-02  0.8494304E-01
         -2   -1    0    0    0  501 -0.00000000000E+00  0.00000000000E+00  0.10100773781E+04  0.10100773781E+04  0.00000000000E+00 0.  1.
          2   -1    0    0  501    0  0.00000000000E+00 -0.00000000000E+00 -0.12629335190E+04  0.12629335190E+04  0.00000000000E+00 0. -1.
         23    2    1    2    0    0  0.31315344191E+03 -0.55605780442E+03  0.80849975664E+03  0.10345676399E+04  0.96917413407E+02 0.  0.
         13    1    3    3    0    0  0.16371941332E+03 -0.35593571312E+03  0.54838064677E+03  0.67395520024E+03  0.00000000000E+00 0. -1.
        -13    1    3    3    0    0  0.14943402859E+03 -0.20012209129E+03  0.26011910986E+03  0.36061243966E+03  0.00000000000E+00 0.  1.
         22    1    1    2    0    0 -0.31315344191E+03  0.55605780442E+03 -0.10613558975E+04  0.12384432572E+04  0.00000000000E+00 0. -1.
<mgrwt>
<rscale>  0 0.22589029E+04</rscale>
<asrwt>0</asrwt>
<pdfrwt beam="1">  1        2 0.19429746E+00 0.22589029E+04</pdfrwt>
<pdfrwt beam="2">  1       -2 0.15539652E+00 0.22589029E+04</pdfrwt>
<totfact> 0.43108079E+00</totfact>
</mgrwt>
</event>
<event>
 6    1  0.2003386E-005  0.2338009E+04  0.7818608E-02  0.8463084E-01
         -2   -1    0    0    0  501 -0.00000000000E+00  0.00000000000E+00  0.57298955044E+03  0.57298955044E+03  0.00000000000E+00 0.  1.
          2   -1    0    0  501    0  0.00000000000E+00 -0.00000000000E+00 -0.23849850329E+04  0.23849850329E+04  0.00000000000E+00 0. -1.
         23    2    1    2    0    0  0.83910408446E+03  0.79479000196E+03 -0.11136954972E+04  0.16076377064E+04  0.91621628379E+02 0.  0.
         13    1    3    3    0    0  0.79783239091E+03  0.72813660887E+03 -0.10530698732E+04  0.15085342565E+04  0.00000000000E+00 0. -1.
        -13    1    3    3    0    0  0.41271693552E+02  0.66653393096E+02 -0.60625624002E+02  0.99103449917E+02  0.00000000000E+00 0.  1.
         22    1    1    2    0    0 -0.83910408446E+03 -0.79479000196E+03 -0.69829998528E+03  0.13503368769E+04  0.00000000000E+00 0.  1.
<mgrwt>
<rscale>  0 0.23380090E+04</rscale>
<asrwt>0</asrwt>
<pdfrwt beam="1">  1        2 0.36692078E+00 0.23380090E+04</pdfrwt>
<pdfrwt beam="2">  1       -2 0.88152236E-01 0.23380090E+04</pdfrwt>
<totfact> 0.40623072E+00</totfact>
</mgrwt>
</event>
<event>
 6    1  0.2003386E-005  0.1407539E+04  0.7818608E-02  0.8948379E-01
         -2   -1    0    0    0  501 -0.00000000000E+00  0.00000000000E+00  0.23728228981E+03  0.23728228981E+03  0.00000000000E+00 0.  1.
          2   -1    0    0  501    0  0.00000000000E+00 -0.00000000000E+00 -0.20873511996E+04  0.20873511996E+04  0.00000000000E+00 0. -1.
         23    2    1    2    0    0 -0.27517422661E+02  0.19228589035E+03 -0.20410739724E+04  0.20522110122E+04  0.88634111143E+02 0.  0.
         11    1    3    3    0    0 -0.47940779778E+02  0.18083001171E+03 -0.16813437613E+04  0.16917194375E+04  0.00000000000E+00 0. -1.
        -11    1    3    3    0    0  0.20423357117E+02  0.11455878639E+02 -0.35973021112E+03  0.36049157474E+03  0.00000000000E+00 0.  1.
         22    1    1    2    0    0  0.27517422661E+02 -0.19228589035E+03  0.19100506257E+03  0.27242247724E+03  0.00000000000E+00 0.  1.
<mgrwt>
<rscale>  0 0.14075389E+04</rscale>
<asrwt>0</asrwt>
<pdfrwt beam="1">  1        2 0.32113096E+00 0.14075389E+04</pdfrwt>
<pdfrwt beam="2">  1       -2 0.36504967E-01 0.14075389E+04</pdfrwt>
<totfact> 0.41085690E+01</totfact>
</mgrwt>
</event>
<event>
 6    1  0.2003386E-005  0.4797534E+04  0.7818608E-02  0.7860522E-01
         -2   -1    0    0    0  501 -0.00000000000E+00  0.00000000000E+00  0.25935261971E+04  0.25935261971E+04  0.00000000000E+00 0. -1.
          2   -1    0    0  501    0  0.00000000000E+00 -0.00000000000E+00 -0.22186329474E+04  0.22186329474E+04  0.00000000000E+00 0.  1.
         23    2    1    2    0    0 -0.10363813058E+01 -0.23790253261E+04 -0.11250357378E+03  0.23837196786E+04  0.98487945746E+02 0.  0.
         13    1    3    3    0    0 -0.15026238113E+01 -0.60730543702E+03 -0.71750389461E+02  0.61153108678E+03  0.00000000000E+00 0.  1.
        -13    1    3    3    0    0  0.46624250554E+00 -0.17717198891E+04 -0.40753184315E+02  0.17721885918E+04  0.00000000000E+00 0. -1.
         22    1    1    2    0    0  0.10363813058E+01  0.23790253261E+04  0.48739682345E+03  0.24284394660E+04  0.00000000000E+00 0. -1.
<mgrwt>
<rscale>  0 0.47975338E+04</rscale>
<asrwt>0</asrwt>
<pdfrwt beam="1">  1        2 0.34132814E+00 0.47975338E+04</pdfrwt>
<pdfrwt beam="2">  1       -2 0.39900403E+00 0.47975338E+04</pdfrwt>
<totfact> 0.28109834E-02</totfact>
</mgrwt>
</event>
<event>
 6    1  0.2003386E-005  0.1449446E+04  0.7818608E-02  0.8918785E-01
         -2   -1    0    0    0  501 -0.00000000000E+00  0.00000000000E+00  0.20697805427E+03  0.20697805427E+03  0.00000000000E+00 0.  1.
          2   -1    0    0  501    0  0.00000000000E+00 -0.00000000000E+00 -0.25375805547E+04  0.25375805547E+04  0.00000000000E+00 0. -1.
         23    2    1    2    0    0  0.26832135617E+02 -0.72060693240E+03 -0.12351212391E+04  0.14330428796E+04  0.89961685782E+02 0.  0.
         11    1    3    3    0    0  0.17752027777E+02 -0.17827895974E+03 -0.23742836990E+03  0.29744033487E+03  0.00000000000E+00 0.  1.
        -11    1    3    3    0    0  0.90801078401E+01 -0.54232797266E+03 -0.99769286921E+03  0.11356025447E+04  0.00000000000E+00 0. -1.
         22    1    1    2    0    0 -0.26832135617E+02  0.72060693240E+03 -0.10954812613E+04  0.13115157294E+04  0.00000000000E+00 0.  1.
<mgrwt>
<rscale>  0 0.14494461E+04</rscale>
<asrwt>0</asrwt>
<pdfrwt beam="1">  1        2 0.39039699E+00 0.14494461E+04</pdfrwt>
<pdfrwt beam="2">  1       -2 0.31842779E-01 0.14494461E+04</pdfrwt>
<totfact> 0.29539131E+01</totfact>
</mgrwt>
</event>
<event>
 6    1  0.2003386E-005  0.1859619E+04  0.7818608E-02  0.8675222E-01
         -2   -1    0    0    0  501 -0.00000000000E+00  0.00000000000E+00  0.42680344103E+03  0.42680344103E+03  0.00000000000E+00 0.  1.
          2   -1    0    0  501    0  0.00000000000E+00 -0.00000000000E+00 -0.20256298158E+04  0.20256298158E+04  0.00000000000E+00 0. -1.
         23    2    1    2    0    0  0.78596964318E+03 -0.32778694144E+03 -0.12862702569E+04  0.15453037810E+04  0.90994741870E+02 0.  0.
         13    1    3    3    0    0  0.22975710743E+03 -0.10189218659E+03 -0.45679404850E+03  0.52137428863E+03  0.00000000000E+00 0.  1.
        -13    1    3    3    0    0  0.55621253574E+03 -0.22589475485E+03 -0.82947620835E+03  0.10239294924E+04  0.00000000000E+00 0. -1.
         22    1    1    2    0    0 -0.78596964318E+03  0.32778694144E+03 -0.31255611788E+03  0.90712947576E+03  0.00000000000E+00 0.  1.
<mgrwt>
<rscale>  0 0.18596191E+04</rscale>
<asrwt>0</asrwt>
<pdfrwt beam="1">  1        2 0.31163536E+00 0.18596191E+04</pdfrwt>
<pdfrwt beam="2">  1       -2 0.65662068E-01 0.18596191E+04</pdfrwt>
<totfact> 0.12974989E+01</totfact>
</mgrwt>
</event>
<event>
 6    1  0.2003386E-005  0.2432991E+04  0.7818608E-02  0.8427255E-01
          2   -1    0    0  501    0  0.00000000000E+00  0.00000000000E+00  0.55916086269E+03  0.55916086269E+03  0.00000000000E+00 0. -1.
         -2   -1    0    0    0  501 -0.00000000000E+00 -0.00000000000E+00 -0.26465748202E+04  0.26465748202E+04  0.00000000000E+00 0.  1.
         23    2    1    2    0    0 -0.10047467852E+04 -0.32867467270E+03 -0.18338565665E+04  0.21186135677E+04  0.89165013144E+02 0.  0.
         13    1    3    3    0    0 -0.81282693526E+03 -0.29730065967E+03 -0.14619600681E+04  0.16989415969E+04  0.00000000000E+00 0. -1.
        -13    1    3    3    0    0 -0.19191984995E+03 -0.31374013037E+02 -0.37189649846E+03  0.41967197079E+03  0.00000000000E+00 0.  1.
         22    1    1    2    0    0  0.10047467852E+04  0.32867467270E+03 -0.25355739095E+03  0.10871221152E+04  0.00000000000E+00 0. -1.
<mgrwt>
<rscale>  0 0.24329908E+04</rscale>
<asrwt>0</asrwt>
<pdfrwt beam="1">  1        2 0.86024749E-01 0.24329908E+04</pdfrwt>
<pdfrwt beam="2">  1       -2 0.40716535E+00 0.24329908E+04</pdfrwt>
<totfact> 0.32263713E-01</totfact>
</mgrwt>
</event>
<event>
 6    1  0.2003386E-005  0.3114359E+04  0.7818608E-02  0.8211808E-01
          2   -1    0    0  501    0  0.00000000000E+00  0.00000000000E+00  0.25357405088E+04  0.25357405088E+04  0.00000000000E+00 0. -1.
         -2   -1    0    0    0  501 -0.00000000000E+00 -0.00000000000E+00 -0.95625259939E+03  0.95625259939E+03  0.00000000000E+00 0.  1.
         23    2    1    2    0    0 -0.57058299831E+03  0.13753106153E+04  0.28431590786E+03  0.15185406106E+04  0.89921100331E+02 0.  0.
         13    1    3    3    0    0 -0.11015128088E+03  0.19013537214E+03  0.28325222575E+02  0.22155604856E+03  0.00000000000E+00 0. -1.
        -13    1    3    3    0    0 -0.46043171743E+03  0.11851752431E+04  0.25599068529E+03  0.12969845621E+04  0.00000000000E+00 0.  1.
         22    1    1    2    0    0  0.57058299831E+03 -0.13753106153E+04  0.12951720015E+04  0.19734524975E+04  0.00000000000E+00 0. -1.
<mgrwt>
<rscale>  0 0.31143593E+04</rscale>
<asrwt>0</asrwt>
<pdfrwt beam="1">  1        2 0.39011392E+00 0.31143593E+04</pdfrwt>
<pdfrwt beam="2">  1       -2 0.14711579E+00 0.31143593E+04</pdfrwt>
<totfact> 0.88740493E-01</totfact>
</mgrwt>
</event>
<event>
 6    1  0.2003386E-005  0.2367562E+04  0.7818608E-02  0.8451749E-01
         -2   -1    0    0    0  501 -0.00000000000E+00  0.00000000000E+00  0.52277555750E+03  0.52277555750E+03  0.00000000000E+00 0.  1.
          2   -1    0    0  501    0  0.00000000000E+00 -0.00000000000E+00 -0.26805711161E+04  0.26805711161E+04  0.00000000000E+00 0. -1.
         23    2    1    2    0    0 -0.10448561684E+04  0.55033865919E+03 -0.11489926866E+04  0.16501949466E+04  0.91444603063E+02 0.  0.
         11    1    3    3    0    0 -0.88089127569E+03  0.43866704776E+03 -0.91895176972E+03  0.13464288223E+04  0.00000000000E+00 0. -1.
        -11    1    3    3    0    0 -0.16396489275E+03  0.11167161143E+03 -0.23004091692E+03  0.30376612436E+03  0.00000000000E+00 0.  1.
         22    1    1    2    0    0  0.10448561684E+04 -0.55033865919E+03 -0.10088028720E+04  0.15531517270E+04  0.00000000000E+00 0. -1.
<mgrwt>
<rscale>  0 0.23675617E+04</rscale>
<asrwt>0</asrwt>
<pdfrwt beam="1">  1        2 0.41239556E+00 0.23675617E+04</pdfrwt>
<pdfrwt beam="2">  1       -2 0.80427007E-01 0.23675617E+04</pdfrwt>
<totfact> 0.33585976E+00</totfact>
</mgrwt>
</event>
<event>
 6    1  0.2003386E-005  0.3427434E+04  0.7818608E-02  0.8131206E-01
         -1   -1    0    0    0  501 -0.00000000000E+00  0.00000000000E+00  0.19783250110E+04  0.19783250110E+04  0.00000000000E+00 0. -1.
          1   -1    0    0  501    0  0.00000000000E+00 -0.00000000000E+00 -0.14845012418E+04  0.14845012418E+04  0.00000000000E+00 0.  1.
         23    2    1    2    0    0  0.10387362217E+04  0.22197361169E+02  0.16224559208E+04  0.19287870764E+04  0.91600818550E+02 0.  0.
         13    1    3    3    0    0  0.26197005842E+03 -0.25933613804E+02  0.45615802325E+03  0.52666973144E+03  0.00000000000E+00 0. -1.
        -13    1    3    3    0    0  0.77676616330E+03  0.48130974972E+02  0.11662978975E+04  0.14021173449E+04  0.00000000000E+00 0.  1.
         22    1    1    2    0    0 -0.10387362217E+04 -0.22197361169E+02 -0.11286321516E+04  0.15340391764E+04  0.00000000000E+00 0.  1.
<mgrwt>
<rscale>  0 0.34274340E+04</rscale>
<asrwt>0</asrwt>
<pdfrwt beam="1">  1        1 0.22838481E+00 0.34274340E+04</pdfrwt>
<pdfrwt beam="2">  1       -1 0.30435769E+00 0.34274340E+04</pdfrwt>
<totfact> 0.17028841E-01</totfact>
</mgrwt>
</event>
<event>
 6    1  0.2003386E-005  0.6192556E+04  0.7818608E-02  0.7666975E-01
          2   -1    0    0  501    0  0.00000000000E+00  0.00000000000E+00  0.30292477276E+04  0.30292477276E+04  0.00000000000E+00 0. -1.
         -2   -1    0    0    0  501 -0.00000000000E+00 -0.00000000000E+00 -0.31647918475E+04  0.31647918475E+04  0.00000000000E+00 0.  1.
         23    2    1    2    0    0  0.26731999709E+04 -0.79490322090E+03  0.12760295231E+04  0.30682741704E+04  0.90475554865E+02 0.  0.
         13    1    3    3    0    0  0.16169441692E+04 -0.43918240738E+03  0.74508417146E+03  0.18337230041E+04  0.00000000000E+00 0.  1.
        -13    1    3    3    0    0  0.10562558017E+04 -0.35572081351E+03  0.53094535164E+03  0.12345511663E+04  0.00000000000E+00 0. -1.
         22    1    1    2    0    0 -0.26731999709E+04  0.79490322090E+03 -0.14115736430E+04  0.31257654046E+04  0.00000000000E+00 0. -1.
<mgrwt>
<rscale>  0 0.61925563E+04</rscale>
<asrwt>0</asrwt>
<pdfrwt beam="1">  1        2 0.46603811E+00 0.61925563E+04</pdfrwt>
<pdfrwt beam="2">  1       -2 0.48689105E+00 0.61925563E+04</pdfrwt>
<totfact> 0.22290709E-03</totfact>
</mgrwt>
</event>
<event>
 6    1  0.2003386E-005  0.1711246E+04  0.7818608E-02  0.8754976E-01
         -2   -1    0    0    0  501 -0.00000000000E+00  0.00000000000E+00  0.55828489383E+03  0.55828489383E+03  0.00000000000E+00 0.  1.
          2   -1    0    0  501    0  0.00000000000E+00 -0.00000000000E+00 -0.13113214158E+04  0.13113214158E+04  0.00000000000E+00 0. -1.
         23    2    1    2    0    0 -0.61105921029E+03 -0.53151076416E+03 -0.67096244661E+03  0.10555834569E+04  0.90381297090E+02 0.  0.
         13    1    3    3    0    0 -0.49817407336E+03 -0.39196769055E+03 -0.49539750884E+03  0.80450902392E+03  0.00000000000E+00 0. -1.
        -13    1    3    3    0    0 -0.11288513693E+03 -0.13954307361E+03 -0.17556493777E+03  0.25107443300E+03  0.00000000000E+00 0.  1.
         22    1    1    2    0    0  0.61105921029E+03  0.53151076416E+03 -0.82074075366E+02  0.81402285271E+03  0.00000000000E+00 0.  1.
<mgrwt>
<rscale>  0 0.17112463E+04</rscale>
<asrwt>0</asrwt>
<pdfrwt beam="1">  1        2 0.20174175E+00 0.17112463E+04</pdfrwt>
<pdfrwt beam="2">  1       -2 0.85889985E-01 0.17112463E+04</pdfrwt>
<totfact> 0.18215061E+01</totfact>
</mgrwt>
</event>
<event>
 6    1  0.2003386E-005  0.2424776E+04  0.7818608E-02  0.8430286E-01
          2   -1    0    0  501    0  0.00000000000E+00  0.00000000000E+00  0.21955363659E+04  0.21955363659E+04  0.00000000000E+00 0. -1.
         -2   -1    0    0    0  501 -0.00000000000E+00 -0.00000000000E+00 -0.66948763418E+03  0.66948763418E+03  0.00000000000E+00 0.  1.
         23    2    1    2    0    0 -0.99554388368E+03  0.65471054716E+03  0.50994242119E+03  0.12990656484E+04  0.88185945377E+02 0.  0.
         11    1    3    3    0    0 -0.31717920008E+03  0.16055811819E+03  0.14778671945E+03  0.38499671261E+03  0.00000000000E+00 0.  1.
        -11    1    3    3    0    0 -0.67836468360E+03  0.49415242898E+03  0.36215570175E+03  0.91406893577E+03  0.00000000000E+00 0. -1.
         22    1    1    2    0    0  0.99554388368E+03 -0.65471054716E+03  0.10161063105E+04  0.15659583517E+04  0.00000000000E+00 0.  1.
<mgrwt>
<rscale>  0 0.24247758E+04</rscale>
<asrwt>0</asrwt>
<pdfrwt beam="1">  1        2 0.33777482E+00 0.24247758E+04</pdfrwt>
<pdfrwt beam="2">  1       -2 0.10299810E+00 0.24247758E+04</pdfrwt>
<totfact> 0.35875883E+00</totfact>
</mgrwt>
</event>
<event>
 6    1  0.2003386E-005  0.2527993E+04  0.7818608E-02  0.8393080E-01
         -2   -1    0    0    0  501 -0.00000000000E+00  0.00000000000E+00  0.52039554374E+03  0.52039554374E+03  0.00000000000E+00 0.  1.
          2   -1    0    0  501    0  0.00000000000E+00 -0.00000000000E+00 -0.30701402810E+04  0.30701402810E+04  0.00000000000E+00 0. -1.
         23    2    1    2    0    0 -0.39643653216E+03  0.41082111931E+03 -0.28757981678E+04  0.29330810691E+04  0.82544166619E+02 0.  0.
         13    1    3    3    0    0 -0.18752149176E+03  0.13737027737E+03 -0.11158995811E+04  0.11398538407E+04  0.00000000000E+00 0. -1.
        -13    1    3    3    0    0 -0.20891504040E+03  0.27345084195E+03 -0.17598985867E+04  0.17932272284E+04  0.00000000000E+00 0.  1.
         22    1    1    2    0    0  0.39643653216E+03 -0.41082111931E+03  0.32605343061E+03  0.65745475564E+03  0.00000000000E+00 0.  1.
<mgrwt>
<rscale>  0 0.25279931E+04</rscale>
<asrwt>0</asrwt>
<pdfrwt beam="1">  1        2 0.47232927E+00 0.25279931E+04</pdfrwt>
<pdfrwt beam="2">  1       -2 0.80060853E-01 0.25279931E+04</pdfrwt>
<totfact> 0.19310040E+00</totfact>
</mgrwt>
</event>
<event>
 6    1  0.2003386E-005  0.1320161E+04  0.7818608E-02  0.9013728E-01
         -2   -1    0    0    0  501 -0.00000000000E+00  0.00000000000E+00  0.40741582065E+03  0.40741582065E+03  0.00000000000E+00 0.  1.
          2   -1    0    0  501    0  0.00000000000E+00 -0.00000000000E+00 -0.10694392826E+04  0.10694392826E+04  0.00000000000E+00 0. -1.
         23    2    1    2    0    0  0.16481662626E+03 -0.44115038694E+03 -0.84536214153E+03  0.97149260409E+03  0.85921739244E+02 0.  0.
         13    1    3    3    0    0 -0.65650708541E+00 -0.94073905663E+02 -0.17520601563E+03  0.19886547876E+03  0.00000000000E+00 0.  1.
        -13    1    3    3    0    0  0.16547313335E+03 -0.34707648128E+03 -0.67015612590E+03  0.77262712533E+03  0.00000000000E+00 0. -1.
         22    1    1    2    0    0 -0.16481662626E+03  0.44115038694E+03  0.18333867953E+03  0.50536249920E+03  0.00000000000E+00 0.  1.
<mgrwt>
<rscale>  0 0.13201613E+04</rscale>
<asrwt>0</asrwt>
<pdfrwt beam="1">  1        2 0.16452912E+00 0.13201613E+04</pdfrwt>
<pdfrwt beam="2">  1       -2 0.62679358E-01 0.13201613E+04</pdfrwt>
<totfact> 0.52584996E+01</totfact>
</mgrwt>
</event>
<event>
 6    1  0.2003386E-005  0.1195246E+04  0.7818608E-02  0.9117028E-01
         -2   -1    0    0    0  501 -0.00000000000E+00  0.00000000000E+00  0.50029747762E+03  0.50029747762E+03  0.00000000000E+00 0.  1.
          2   -1    0    0  501    0  0.00000000000E+00 -0.00000000000E+00 -0.71388206839E+03  0.71388206839E+03  0.00000000000E+00 0. -1.
         23    2    1    2    0    0 -0.54641610040E+03 -0.22604283510E+03 -0.16564668744E+03  0.62091403997E+03  0.91812318904E+02 0.  0.
         13    1    3    3    0    0 -0.66369838525E+02 -0.54272308784E+02 -0.45651254386E+02  0.97131230784E+02  0.00000000000E+00 0. -1.
        -13    1    3    3    0    0 -0.48004626187E+03 -0.17177052632E+03 -0.11999543305E+03  0.52378280919E+03  0.00000000000E+00 0.  1.
         22    1    1    2    0    0  0.54641610040E+03  0.22604283510E+03 -0.47937903339E+02  0.59326550603E+03  0.00000000000E+00 0.  1.
<mgrwt>
<rscale>  0 0.11952462E+04</rscale>
<asrwt>0</asrwt>
<pdfrwt beam="1">  1        2 0.10982801E+00 0.11952462E+04</pdfrwt>
<pdfrwt beam="2">  1       -2 0.76968844E-01 0.11952462E+04</pdfrwt>
<totfact> 0.59485406E+01</totfact>
</mgrwt>
</event>
<event>
 6    1  0.2003386E-005  0.9146077E+03  0.7818608E-02  0.9407503E-01
         -2   -1    0    0    0  501 -0.00000000000E+00  0.00000000000E+00  0.71665035981E+03  0.71665035981E+03  0.00000000000E+00 0.  1.
          2   -1    0    0  501    0  0.00000000000E+00 -0.00000000000E+00 -0.29181150964E+03  0.29181150964E+03  0.00000000000E+00 0. -1.
         23    2    1    2    0    0  0.12131181424E+03 -0.20274029944E+03 -0.21089574244E+03  0.33024460520E+03  0.93617839081E+02 0.  0.
         13    1    3    3    0    0  0.75915333443E+02 -0.19250661615E+03 -0.18108388918E+03  0.27497874469E+03  0.00000000000E+00 0. -1.
        -13    1    3    3    0    0  0.45396480799E+02 -0.10233683285E+02 -0.29811853262E+02  0.55265860506E+02  0.00000000000E+00 0.  1.
         22    1    1    2    0    0 -0.12131181424E+03  0.20274029944E+03  0.63573459261E+03  0.67821726425E+03  0.00000000000E+00 0.  1.
<mgrwt>
<rscale>  0 0.91460773E+03</rscale>
<asrwt>0</asrwt>
<pdfrwt beam="1">  1        2 0.44894079E-01 0.91460773E+03</pdfrwt>
<pdfrwt beam="2">  1       -2 0.11025390E+00 0.91460773E+03</pdfrwt>
<totfact> 0.74162202E+01</totfact>
</mgrwt>
</event>
<event>
 6    1  0.2003386E-005  0.1708644E+04  0.7818608E-02  0.8756450E-01
          1   -1    0    0  501    0  0.00000000000E+00  0.00000000000E+00  0.68751195244E+03  0.68751195244E+03  0.00000000000E+00 0.  1.
         -1   -1    0    0    0  501 -0.00000000000E+00 -0.00000000000E+00 -0.10616050899E+04  0.10616050899E+04  0.00000000000E+00 0. -1.
         23    2    1    2    0    0  0.84479102438E+03 -0.89847895199E+02 -0.12588837474E+03  0.86404635402E+03  0.94782381550E+02 0.  0.
         11    1    3    3    0    0  0.58257245328E+03 -0.84696803686E+02 -0.12477472742E+03  0.60177482871E+03  0.00000000000E+00 0. -1.
        -11    1    3    3    0    0  0.26221857110E+03 -0.51510915133E+01 -0.11136473252E+01  0.26227152530E+03  0.00000000000E+00 0.  1.
         22    1    1    2    0    0 -0.84479102438E+03  0.89847895199E+02 -0.24820476275E+03  0.88507068836E+03  0.00000000000E+00 0.  1.
<mgrwt>
<rscale>  0 0.17086441E+04</rscale>
<asrwt>0</asrwt>
<pdfrwt beam="1">  1        1 0.10577107E+00 0.17086441E+04</pdfrwt>
<pdfrwt beam="2">  1       -1 0.16332386E+00 0.17086441E+04</pdfrwt>
<totfact> 0.73442169E+00</totfact>
</mgrwt>
</event>
<event>
 6    1  0.2003386E-005  0.2177614E+04  0.7818608E-02  0.8527804E-01
         -2   -1    0    0    0  501 -0.00000000000E+00  0.00000000000E+00  0.41385469140E+03  0.41385469140E+03  0.00000000000E+00 0.  1.
          2   -1    0    0  501    0  0.00000000000E+00 -0.00000000000E+00 -0.28645328720E+04  0.28645328720E+04  0.00000000000E+00 0. -1.
         23    2    1    2    0    0  0.73261094549E+03  0.72955986020E+03 -0.17308322721E+04  0.20185643540E+04  0.99223534589E+02 0.  0.
         13    1    3    3    0    0  0.23380233302E+03  0.17979993863E+03 -0.44595916222E+03  0.53466917175E+03  0.00000000000E+00 0.  1.
        -13    1    3    3    0    0  0.49880861247E+03  0.54975992157E+03 -0.12848731099E+04  0.14838951822E+04  0.00000000000E+00 0. -1.
         22    1    1    2    0    0 -0.73261094549E+03 -0.72955986020E+03 -0.71984590847E+03  0.12598232094E+04  0.00000000000E+00 0.  1.
<mgrwt>
<rscale>  0 0.21776137E+04</rscale>
<asrwt>0</asrwt>
<pdfrwt beam="1">  1        2 0.44069738E+00 0.21776137E+04</pdfrwt>
<pdfrwt beam="2">  1       -2 0.63669951E-01 0.21776137E+04</pdfrwt>
<totfact> 0.44187962E+00</totfact>
</mgrwt>
</event>
<event>
 6    1  0.2003386E-005  0.1271697E+04  0.7818608E-02  0.9052316E-01
          2   -1    0    0  501    0  0.00000000000E+00  0.00000000000E+00  0.25658794099E+04  0.25658794099E+04  0.00000000000E+00 0. -1.
         -2   -1    0    0    0  501 -0.00000000000E+00 -0.00000000000E+00 -0.15756903353E+03  0.15756903353E+03  0.00000000000E+00 0.  1.
         23    2    1    2    0    0  0.50898489514E+03  0.35759341318E+03  0.96349514956E+03  0.11504164310E+04  0.90533909430E+02 0.  0.
         11    1    3    3    0    0  0.23094182486E+03  0.21756258209E+03  0.48493379704E+03  0.57950702421E+03  0.00000000000E+00 0. -1.
        -11    1    3    3    0    0  0.27804307028E+03  0.14003083109E+03  0.47856135252E+03  0.57090940675E+03  0.00000000000E+00 0.  1.
         22    1    1    2    0    0 -0.50898489514E+03 -0.35759341318E+03  0.14448152268E+04  0.15730320125E+04  0.00000000000E+00 0.  1.
<mgrwt>
<rscale>  0 0.12716967E+04</rscale>
<asrwt>0</asrwt>
<pdfrwt beam="1">  1        2 0.39475065E+00 0.12716967E+04</pdfrwt>
<pdfrwt beam="2">  1       -2 0.24241392E-01 0.12716967E+04</pdfrwt>
<totfact> 0.47756446E+01</totfact>
</mgrwt>
</event>
<event>
 6    1  0.2003386E-005  0.2556684E+04  0.7818608E-02  0.8383065E-01
          2   -1    0    0  501    0  0.00000000000E+00  0.00000000000E+00  0.16184222820E+04  0.16184222820E+04  0.00000000000E+00 0. -1.
         -2   -1    0    0    0  501 -0.00000000000E+00 -0.00000000000E+00 -0.10097227815E+04  0.10097227815E+04  0.00000000000E+00 0.  1.
         23    2    1    2    0    0  0.36363955897E+03  0.10964219339E+04  0.86349576237E+03  0.14452266719E+04  0.93168747106E+02 0.  0.
         13    1    3    3    0    0  0.64551155263E+02  0.32863062483E+03  0.25116346373E+03  0.41862635456E+03  0.00000000000E+00 0. -1.
        -13    1    3    3    0    0  0.29908840370E+03  0.76779130910E+03  0.61233229865E+03  0.10266003173E+04  0.00000000000E+00 0.  1.
         22    1    1    2    0    0 -0.36363955897E+03 -0.10964219339E+04 -0.25479626183E+03  0.11829183916E+04  0.00000000000E+00 0. -1.
<mgrwt>
<rscale>  0 0.25566837E+04</rscale>
<asrwt>0</asrwt>
<pdfrwt beam="1">  1        2 0.24898804E+00 0.25566837E+04</pdfrwt>
<pdfrwt beam="2">  1       -2 0.15534197E+00 0.25566837E+04</pdfrwt>
<totfact> 0.26387434E+00</totfact>
</mgrwt>
</event>
<event>
 6    1  0.2003386E-005  0.2712666E+04  0.7818608E-02  0.8330907E-01
         -2   -1    0    0    0  501 -0.00000000000E+00  0.00000000000E+00  0.15926559721E+04  0.15926559721E+04  0.00000000000E+00 0.  1.
          2   -1    0    0  501    0  0.00000000000E+00 -0.00000000000E+00 -0.11550766879E+04  0.11550766879E+04  0.00000000000E+00 0. -1.
         23    2    1    2    0    0  0.59022225325E+03 -0.11266773201E+04 -0.25389429052E+03  0.13000103812E+04  0.88320940995E+02 0.  0.
         13    1    3    3    0    0  0.16375663493E+03 -0.27106448808E+03 -0.29776246460E+02  0.31808617863E+03  0.00000000000E+00 0. -1.
        -13    1    3    3    0    0  0.42646561832E+03 -0.85561283205E+03 -0.22411804406E+03  0.98192420260E+03  0.00000000000E+00 0.  1.
         22    1    1    2    0    0 -0.59022225325E+03  0.11266773201E+04  0.69147357473E+03  0.14477222788E+04  0.00000000000E+00 0.  1.
<mgrwt>
<rscale>  0 0.27126664E+04</rscale>
<asrwt>0</asrwt>
<pdfrwt beam="1">  1        2 0.17770410E+00 0.27126664E+04</pdfrwt>
<pdfrwt beam="2">  1       -2 0.24502400E+00 0.27126664E+04</pdfrwt>
<totfact> 0.12183270E+00</totfact>
</mgrwt>
</event>
<event>
 6    1  0.2003386E-005  0.1271138E+04  0.7818608E-02  0.9052772E-01
          2   -1    0    0  501    0  0.00000000000E+00  0.00000000000E+00  0.18833719995E+04  0.18833719995E+04  0.00000000000E+00 0. -1.
         -2   -1    0    0    0  501 -0.00000000000E+00 -0.00000000000E+00 -0.21448116072E+03  0.21448116072E+03  0.00000000000E+00 0.  1.
         23    2    1    2    0    0  0.11535751873E+02  0.43196491127E+03  0.16004358325E+04  0.16603456220E+04  0.92876113800E+02 0.  0.
         13    1    3    3    0    0  0.20107666722E+02  0.25792741797E+03  0.78614699023E+03  0.82762187105E+03  0.00000000000E+00 0. -1.
        -13    1    3    3    0    0 -0.85719148487E+01  0.17403749331E+03  0.81428884223E+03  0.83272375094E+03  0.00000000000E+00 0.  1.
         22    1    1    2    0    0 -0.11535751873E+02 -0.43196491127E+03  0.68455006373E+02  0.43750753827E+03  0.00000000000E+00 0.  1.
<mgrwt>
<rscale>  0 0.12711378E+04</rscale>
<asrwt>0</asrwt>
<pdfrwt beam="1">  1        2 0.28974953E+00 0.12711378E+04</pdfrwt>
<pdfrwt beam="2">  1       -2 0.32997103E-01 0.12711378E+04</pdfrwt>
<totfact> 0.65324216E+01</totfact>
</mgrwt>
</event>
<event>
 6    1  0.2003386E-005  0.8180646E+03  0.7818608E-02  0.9534231E-01
          1   -1    0    0  501    0  0.00000000000E+00  0.00000000000E+00  0.22141051300E+03  0.22141051300E+03  0.00000000000E+00 0. -1.
         -1   -1    0    0    0  501 -0.00000000000E+00 -0.00000000000E+00 -0.75564348525E+03  0.75564348525E+03  0.00000000000E+00 0.  1.
         23    2    1    2    0    0  0.77095807326E+02 -0.38662702369E+03 -0.37648656018E+03  0.55242692718E+03  0.89493915571E+02 0.  0.
         11    1    3    3    0    0 -0.15322520233E+02 -0.10352498757E+03 -0.75765005176E+02  0.12919960792E+03  0.00000000000E+00 0. -1.
        -11    1    3    3    0    0  0.92418327560E+02 -0.28310203612E+03 -0.30072155501E+03  0.42322731926E+03  0.00000000000E+00 0.  1.
         22    1    1    2    0    0 -0.77095807326E+02  0.38662702369E+03 -0.15774641207E+03  0.42462707106E+03  0.00000000000E+00 0. -1.
<mgrwt>
<rscale>  0 0.81806457E+03</rscale>
<asrwt>0</asrwt>
<pdfrwt beam="1">  1        1 0.34063157E-01 0.81806457E+03</pdfrwt>
<pdfrwt beam="2">  1       -1 0.11625284E+00 0.81806457E+03</pdfrwt>
<totfact> 0.88189191E+01</totfact>
</mgrwt>
</event>
<event>
 6    1  0.2003386E-005  0.1957010E+04  0.7818608E-02  0.8626988E-01
         -2   -1    0    0    0  501 -0.00000000000E+00  0.00000000000E+00  0.69841309124E+03  0.69841309124E+03  0.00000000000E+00 0.  1.
          2   -1    0    0  501    0  0.00000000000E+00 -0.00000000000E+00 -0.13709255884E+04  0.13709255884E+04  0.00000000000E+00 0. -1.
         23    2    1    2    0    0 -0.94823445269E+03  0.56743584538E+02 -0.57617220893E+03  0.11145351068E+04  0.88575833454E+02 0.  0.
         13    1    3    3    0    0 -0.25345570053E+03 -0.27256006392E+01 -0.11376355512E+03  0.27782974554E+03  0.00000000000E+00 0.  1.
        -13    1    3    3    0    0 -0.69477875216E+03  0.59469185178E+02 -0.46240865381E+03  0.83670536126E+03  0.00000000000E+00 0. -1.
         22    1    1    2    0    0  0.94823445269E+03 -0.56743584538E+02 -0.96340288281E+02  0.95480357289E+03  0.00000000000E+00 0. -1.
<mgrwt>
<rscale>  0 0.19570104E+04</rscale>
<asrwt>0</asrwt>
<pdfrwt beam="1">  1        2 0.21091163E+00 0.19570104E+04</pdfrwt>
<pdfrwt beam="2">  1       -2 0.10744817E+00 0.19570104E+04</pdfrwt>
<totfact> 0.97508694E+00</totfact>
</mgrwt>
</event>
<event>
 6    1  0.2003386E-005  0.1155144E+04  0.7818608E-02  0.9153051E-01
          1   -1    0    0  501    0  0.00000000000E+00  0.00000000000E+00  0.96127770661E+03  0.96127770661E+03  0.00000000000E+00 0. -1.
         -1   -1    0    0    0  501 -0.00000000000E+00 -0.00000000000E+00 -0.34702729829E+03  0.34702729829E+03  0.00000000000E+00 0.  1.
         23    2    1    2    0    0  0.25282627803E+03  0.12082764986E+02  0.89276136162E+03  0.93196012161E+03  0.86369551287E+02 0.  0.
         11    1    3    3    0    0  0.30982293217E+02 -0.14873028964E+02  0.54580449447E+02  0.64499108098E+02  0.00000000000E+00 0. -1.
        -11    1    3    3    0    0  0.22184398481E+03  0.26955793950E+02  0.83818091217E+03  0.86746101351E+03  0.00000000000E+00 0.  1.
         22    1    1    2    0    0 -0.25282627803E+03 -0.12082764986E+02 -0.27851095331E+03  0.37634488330E+03  0.00000000000E+00 0.  1.
<mgrwt>
<rscale>  0 0.11551443E+04</rscale>
<asrwt>0</asrwt>
<pdfrwt beam="1">  1        1 0.14788888E+00 0.11551443E+04</pdfrwt>
<pdfrwt beam="2">  1       -1 0.53388816E-01 0.11551443E+04</pdfrwt>
<totfact> 0.57034107E+01</totfact>
</mgrwt>
</event>
<event>
 6    1  0.2003386E-005  0.2085557E+04  0.7818608E-02  0.8567632E-01
          1   -1    0    0  501    0  0.00000000000E+00  0.00000000000E+00  0.14992317949E+04  0.14992317949E+04  0.00000000000E+00 0. -1.
         -1   -1    0    0    0  501 -0.00000000000E+00 -0.00000000000E+00 -0.72529624553E+03  0.72529624553E+03  0.00000000000E+00 0.  1.
         23    2    1    2    0    0  0.33115518126E+03  0.44588413100E+03 -0.55111694595E+03  0.78778153262E+03  0.91615733746E+02 0.  0.
         13    1    3    3    0    0  0.11232701585E+03  0.10896261869E+03 -0.20206999305E+03  0.25558265366E+03  0.00000000000E+00 0.  1.
        -13    1    3    3    0    0  0.21882816540E+03  0.33692151231E+03 -0.34904695290E+03  0.53219887896E+03  0.00000000000E+00 0. -1.
         22    1    1    2    0    0 -0.33115518126E+03 -0.44588413100E+03  0.13250524953E+04  0.14367465078E+04  0.00000000000E+00 0. -1.
<mgrwt>
<rscale>  0 0.20855572E+04</rscale>
<asrwt>0</asrwt>
<pdfrwt beam="1">  1        1 0.23065105E+00 0.20855572E+04</pdfrwt>
<pdfrwt beam="2">  1       -1 0.11158404E+00 0.20855572E+04</pdfrwt>
<totfact> 0.44491843E+00</totfact>
</mgrwt>
</event>
<event>
 6    1  0.2003386E-005  0.1912605E+04  0.7818608E-02  0.8648607E-01
          2   -1    0    0  501    0  0.00000000000E+00  0.00000000000E+00  0.18859007525E+04  0.18859007525E+04  0.00000000000E+00 0. -1.
         -2   -1    0    0    0  501 -0.00000000000E+00 -0.00000000000E+00 -0.48492193551E+03  0.48492193551E+03  0.00000000000E+00 0.  1.
         23    2    1    2    0    0  0.31712920281E+03  0.30053912704E+03 -0.34932148333E+03  0.56681441767E+03  0.91424215634E+02 0.  0.
         11    1    3    3    0    0  0.11087298839E+03  0.88070048157E+02 -0.16751210521E+03  0.21933868407E+03  0.00000000000E+00 0. -1.
        -11    1    3    3    0    0  0.20625621442E+03  0.21246907888E+03 -0.18180937812E+03  0.34747573359E+03  0.00000000000E+00 0.  1.
         22    1    1    2    0    0 -0.31712920281E+03 -0.30053912704E+03  0.17503003003E+04  0.18040082703E+04  0.00000000000E+00 0. -1.
<mgrwt>
<rscale>  0 0.19126052E+04</rscale>
<asrwt>0</asrwt>
<pdfrwt beam="1">  1        2 0.29013857E+00 0.19126052E+04</pdfrwt>
<pdfrwt beam="2">  1       -2 0.74603375E-01 0.19126052E+04</pdfrwt>
<totfact> 0.11686538E+01</totfact>
</mgrwt>
</event>
<event>
 6    1  0.2003386E-005  0.1691993E+04  0.7818608E-02  0.8765944E-01
         -2   -1    0    0    0  501 -0.00000000000E+00  0.00000000000E+00  0.47274281764E+03  0.47274281764E+03  0.00000000000E+00 0. -1.
          2   -1    0    0  501    0  0.00000000000E+00 -0.00000000000E+00 -0.15139528685E+04  0.15139528685E+04  0.00000000000E+00 0.  1.
         23    2    1    2    0    0  0.14331583162E+02  0.72261404678E+03 -0.10328794301E+04  0.12638915259E+04  0.90583757482E+02 0.  0.
         13    1    3    3    0    0 -0.35888354818E+02  0.41109927088E+03 -0.57021245649E+03  0.70386989570E+03  0.00000000000E+00 0.  1.
        -13    1    3    3    0    0  0.50219937980E+02  0.31151477590E+03 -0.46266697364E+03  0.56002163018E+03  0.00000000000E+00 0. -1.
         22    1    1    2    0    0 -0.14331583162E+02 -0.72261404678E+03 -0.83306207471E+01  0.72280416028E+03  0.00000000000E+00 0. -1.
<mgrwt>
<rscale>  0 0.16919933E+04</rscale>
<asrwt>0</asrwt>
<pdfrwt beam="1">  1        2 0.23291583E+00 0.16919933E+04</pdfrwt>
<pdfrwt beam="2">  1       -2 0.72729663E-01 0.16919933E+04</pdfrwt>
<totfact> 0.20284949E+01</totfact>
</mgrwt>
</event>
<event>
 6    1  0.2003386E-005  0.1533963E+04  0.7818608E-02  0.8862177E-01
          2   -1    0    0  501    0  0.00000000000E+00  0.00000000000E+00  0.71307953444E+03  0.71307953444E+03  0.00000000000E+00 0. -1.
         -2   -1    0    0    0  501 -0.00000000000E+00 -0.00000000000E+00 -0.82495768737E+03  0.82495768737E+03  0.00000000000E+00 0.  1.
         23    2    1    2    0    0  0.23057729305E+03  0.25788484296E+03 -0.73944878383E+03  0.82143734944E+03  0.91128123232E+02 0.  0.
         13    1    3    3    0    0  0.10102950222E+03  0.54034231700E+02 -0.27574465502E+03  0.29859968735E+03  0.00000000000E+00 0. -1.
        -13    1    3    3    0    0  0.12954779083E+03  0.20385061126E+03 -0.46370412882E+03  0.52283766209E+03  0.00000000000E+00 0.  1.
         22    1    1    2    0    0 -0.23057729305E+03 -0.25788484296E+03  0.62757063091E+03  0.71659987236E+03  0.00000000000E+00 0. -1.
<mgrwt>
<rscale>  0 0.15339628E+04</rscale>
<asrwt>0</asrwt>
<pdfrwt beam="1">  1        2 0.10970454E+00 0.15339628E+04</pdfrwt>
<pdfrwt beam="2">  1       -2 0.12691657E+00 0.15339628E+04</pdfrwt>
<totfact> 0.17793745E+01</totfact>
</mgrwt>
</event>
<event>
 6    1  0.2003386E-005  0.1398952E+04  0.7818608E-02  0.8954578E-01
          2   -1    0    0  501    0  0.00000000000E+00  0.00000000000E+00  0.89584061787E+03  0.89584061787E+03  0.00000000000E+00 0. -1.
         -2   -1    0    0    0  501 -0.00000000000E+00 -0.00000000000E+00 -0.54615358573E+03  0.54615358573E+03  0.00000000000E+00 0.  1.
         23    2    1    2    0    0 -0.34112791793E+03  0.60142532496E+03  0.26247960529E+03  0.74508257851E+03  0.90398162072E+02 0.  0.
         13    1    3    3    0    0 -0.10972423409E+03  0.23497797414E+03  0.14001514104E+03  0.29471731472E+03  0.00000000000E+00 0. -1.
        -13    1    3    3    0    0 -0.23140368384E+03  0.36644735082E+03  0.12246446425E+03  0.45036526379E+03  0.00000000000E+00 0.  1.
         22    1    1    2    0    0  0.34112791793E+03 -0.60142532496E+03  0.87207426856E+02  0.69691162510E+03  0.00000000000E+00 0.  1.
<mgrwt>
<rscale>  0 0.13989518E+04</rscale>
<asrwt>0</asrwt>
<pdfrwt beam="1">  1        2 0.13782163E+00 0.13989518E+04</pdfrwt>
<pdfrwt beam="2">  1       -2 0.84023628E-01 0.13989518E+04</pdfrwt>
<totfact> 0.35547404E+01</totfact>
</mgrwt>
</event>
<event>
 6    1  0.2003386E-005  0.2877389E+04  0.7818608E-02  0.8279637E-01
          4   -1    0    0  501    0  0.00000000000E+00  0.00000000000E+00  0.17143364556E+04  0.17143364556E+04  0.00000000000E+00 0. -1.
         -4   -1    0    0    0  501 -0.00000000000E+00 -0.00000000000E+00 -0.12073721757E+04  0.12073721757E+04  0.00000000000E+00 0.  1.
         23    2    1    2    0    0  0.65258018478E+03 -0.68895984735E+02  0.15522312577E+04  0.16875325462E+04  0.87958300505E+02 0.  0.
         13    1    3    3    0    0  0.17939529011E+03  0.15350964915E+02  0.47335342976E+03  0.50644031406E+03  0.00000000000E+00 0. -1.
        -13    1    3    3    0    0  0.47318489467E+03 -0.84246949650E+02  0.10788778279E+04  0.11810922321E+04  0.00000000000E+00 0.  1.
         22    1    1    2    0    0 -0.65258018478E+03  0.68895984735E+02 -0.10452669778E+04  0.12341760851E+04  0.00000000000E+00 0.  1.
<mgrwt>
<rscale>  0 0.28773892E+04</rscale>
<asrwt>0</asrwt>
<pdfrwt beam="1">  1        4 0.26374407E+00 0.28773892E+04</pdfrwt>
<pdfrwt beam="2">  1       -4 0.18574956E+00 0.28773892E+04</pdfrwt>
<totfact> 0.14627237E-02</totfact>
</mgrwt>
</event>
<event>
 6    1  0.2003386E-005  0.4978837E+04  0.7818608E-02  0.7831780E-01
         -2   -1    0    0    0  501 -0.00000000000E+00  0.00000000000E+00  0.20244958129E+04  0.20244958129E+04  0.00000000000E+00 0.  1.
          2   -1    0    0  501    0  0.00000000000E+00 -0.00000000000E+00 -0.30611095256E+04  0.30611095256E+04  0.00000000000E+00 0. -1.
         23    2    1    2    0    0 -0.49437495060E+03 -0.31828575617E+03 -0.29883614829E+04  0.30472158337E+04  0.97506770675E+02 0.  0.
         13    1    3    3    0    0 -0.28491746633E+03 -0.22592895475E+03 -0.19897333724E+04  0.20226865176E+04  0.00000000000E+00 0. -1.
        -13    1    3    3    0    0 -0.20945748427E+03 -0.92356801419E+02 -0.99862811049E+03  0.10245293161E+04  0.00000000000E+00 0.  1.
         22    1    1    2    0    0  0.49437495060E+03  0.31828575617E+03  0.19517477703E+04  0.20383895048E+04  0.00000000000E+00 0.  1.
<mgrwt>
<rscale>  0 0.49788366E+04</rscale>
<asrwt>0</asrwt>
<pdfrwt beam="1">  1        2 0.47093992E+00 0.49788366E+04</pdfrwt>
<pdfrwt beam="2">  1       -2 0.31146090E+00 0.49788366E+04</pdfrwt>
<totfact> 0.31385445E-02</totfact>
</mgrwt>
</event>
<event>
 6    1  0.2003386E-005  0.3573456E+04  0.7818608E-02  0.8096599E-01
          2   -1    0    0  501    0  0.00000000000E+00  0.00000000000E+00  0.44133725231E+04  0.44133725231E+04  0.00000000000E+00 0. -1.
         -2   -1    0    0    0  501 -0.00000000000E+00 -0.00000000000E+00 -0.72334638067E+03  0.72334638067E+03  0.00000000000E+00 0.  1.
         23    2    1    2    0    0  0.94508239843E+03  0.49038264527E+02  0.40227532659E+04  0.41335774233E+04  0.91285183815E+02 0.  0.
         13    1    3    3    0    0  0.64069903652E+03  0.58044051444E+01  0.28571264352E+04  0.29280881840E+04  0.00000000000E+00 0.  1.
        -13    1    3    3    0    0  0.30438336191E+03  0.43233859382E+02  0.11656268306E+04  0.12054892392E+04  0.00000000000E+00 0. -1.
         22    1    1    2    0    0 -0.94508239843E+03 -0.49038264527E+02 -0.33272712345E+03  0.10031414805E+04  0.00000000000E+00 0.  1.
<mgrwt>
<rscale>  0 0.35734561E+04</rscale>
<asrwt>0</asrwt>
<pdfrwt beam="1">  1        2 0.67898037E+00 0.35734561E+04</pdfrwt>
<pdfrwt beam="2">  1       -2 0.11128406E+00 0.35734561E+04</pdfrwt>
<totfact> 0.77421994E-02</totfact>
</mgrwt>
</event>
<event>
 6    1  0.2003386E-005  0.2617405E+04  0.7818608E-02  0.8362313E-01
          2   -1    0    0  501    0  0.00000000000E+00  0.00000000000E+00  0.11343284694E+04  0.11343284694E+04  0.00000000000E+00 0. -1.
         -2   -1    0    0    0  501 -0.00000000000E+00 -0.00000000000E+00 -0.15098824405E+04  0.15098824405E+04  0.00000000000E+00 0.  1.
         23    2    1    2    0    0 -0.11944905804E+04 -0.44458637582E+03 -0.48103008539E+03  0.13653090360E+04  0.90631278000E+02 0.  0.
         13    1    3    3    0    0 -0.21022992759E+03 -0.44215528784E+02 -0.68884215570E+02  0.22560290467E+03  0.00000000000E+00 0.  1.
        -13    1    3    3    0    0 -0.98426065284E+03 -0.40037084703E+03 -0.41214586982E+03  0.11397061314E+04  0.00000000000E+00 0. -1.
         22    1    1    2    0    0  0.11944905804E+04  0.44458637582E+03  0.10547611434E+03  0.12789018739E+04  0.00000000000E+00 0. -1.
<mgrwt>
<rscale>  0 0.26174053E+04</rscale>
<asrwt>0</asrwt>
<pdfrwt beam="1">  1        2 0.17451207E+00 0.26174053E+04</pdfrwt>
<pdfrwt beam="2">  1       -2 0.23228961E+00 0.26174053E+04</pdfrwt>
<totfact> 0.15163753E+00</totfact>
</mgrwt>
</event>
<event>
 6    1  0.2144500E-005  0.2513497E+04  0.7818608E-02  0.8398193E-01
          2   -1    0    0  501    0  0.00000000000E+00  0.00000000000E+00  0.27639304211E+04  0.27639304211E+04  0.00000000000E+00 0. -1.
         -2   -1    0    0    0  501 -0.00000000000E+00 -0.00000000000E+00 -0.57143872657E+03  0.57143872657E+03  0.00000000000E+00 0.  1.
         23    2    1    2    0    0 -0.42534069257E+03  0.42786953934E+02  0.26636009385E+04  0.26992171628E+04  0.90873009715E+02 0.  0.
         13    1    3    3    0    0 -0.29480227332E+03  0.66315540580E+02  0.17203153158E+04  0.17466513438E+04  0.00000000000E+00 0. -1.
        -13    1    3    3    0    0 -0.13053841925E+03 -0.23528586646E+02  0.94328562276E+03  0.95256581893E+03  0.00000000000E+00 0.  1.
         22    1    1    2    0    0  0.42534069257E+03 -0.42786953934E+02 -0.47110924397E+03  0.63615198493E+03  0.00000000000E+00 0.  1.
<mgrwt>
<rscale>  0 0.25134971E+04</rscale>
<asrwt>0</asrwt>
<pdfrwt beam="1">  1        2 0.42522006E+00 0.25134971E+04</pdfrwt>
<pdfrwt beam="2">  1       -2 0.87913652E-01 0.25134971E+04</pdfrwt>
<totfact> 0.24159502E+00</totfact>
</mgrwt>
</event>
<event>
 6    1  0.2003386E-005  0.3545001E+04  0.7818608E-02  0.8103207E-01
         -1   -1    0    0    0  501 -0.00000000000E+00  0.00000000000E+00  0.18640895477E+04  0.18640895477E+04  0.00000000000E+00 0.  1.
          1   -1    0    0  501    0  0.00000000000E+00 -0.00000000000E+00 -0.16854116570E+04  0.16854116570E+04  0.00000000000E+00 0. -1.
         23    2    1    2    0    0  0.15439559149E+04 -0.82865931762E+03 -0.17051915733E+03  0.17627682335E+04  0.88311550681E+02 0.  0.
         11    1    3    3    0    0  0.10793027794E+04 -0.57885396795E+03 -0.78387006848E+02  0.12272371119E+04  0.00000000000E+00 0.  1.
        -11    1    3    3    0    0  0.46465313553E+03 -0.24980534967E+03 -0.92132150480E+02  0.53553112163E+03  0.00000000000E+00 0. -1.
         22    1    1    2    0    0 -0.15439559149E+04  0.82865931762E+03  0.34919704809E+03  0.17867329712E+04  0.00000000000E+00 0.  1.
<mgrwt>
<rscale>  0 0.35450011E+04</rscale>
<asrwt>0</asrwt>
<pdfrwt beam="1">  1        1 0.25929410E+00 0.35450011E+04</pdfrwt>
<pdfrwt beam="2">  1       -1 0.28678301E+00 0.35450011E+04</pdfrwt>
<totfact> 0.15942875E-01</totfact>
</mgrwt>
</event>
<event>
 6    1  0.2003386E-005  0.3295209E+04  0.7818608E-02  0.8164115E-01
         -2   -1    0    0    0  501 -0.00000000000E+00  0.00000000000E+00  0.89104918525E+03  0.89104918525E+03  0.00000000000E+00 0.  1.
          2   -1    0    0  501    0  0.00000000000E+00 -0.00000000000E+00 -0.30465224090E+04  0.30465224090E+04  0.00000000000E+00 0. -1.
         23    2    1    2    0    0  0.92033982026E+03  0.14873042396E+02 -0.27096301827E+04  0.28631710511E+04  0.91685051302E+02 0.  0.
         13    1    3    3    0    0  0.30257102963E+03  0.42030971663E+02 -0.82929778704E+03  0.88377069998E+03  0.00000000000E+00 0.  1.
        -13    1    3    3    0    0  0.61776879063E+03 -0.27157929267E+02 -0.18803323956E+04  0.19794003511E+04  0.00000000000E+00 0. -1.
         22    1    1    2    0    0 -0.92033982026E+03 -0.14873042396E+02  0.55415695891E+03  0.10744005432E+04  0.00000000000E+00 0.  1.
<mgrwt>
<rscale>  0 0.32952094E+04</rscale>
<asrwt>0</asrwt>
<pdfrwt beam="1">  1        2 0.46869575E+00 0.32952094E+04</pdfrwt>
<pdfrwt beam="2">  1       -2 0.13708449E+00 0.32952094E+04</pdfrwt>
<totfact> 0.51538648E-01</totfact>
</mgrwt>
</event>
<event>
 6    1  0.2003386E-005  0.1445899E+04  0.7818608E-02  0.8921248E-01
          2   -1    0    0  501    0  0.00000000000E+00  0.00000000000E+00  0.67335829297E+03  0.67335829297E+03  0.00000000000E+00 0. -1.
         -2   -1    0    0    0  501 -0.00000000000E+00 -0.00000000000E+00 -0.77619347980E+03  0.77619347980E+03  0.00000000000E+00 0.  1.
         23    2    1    2    0    0  0.38970300784E+03 -0.24221614087E+02 -0.65838518242E+03  0.77051501493E+03  0.88131826793E+02 0.  0.
         13    1    3    3    0    0  0.23936767629E+03  0.26497299974E+01 -0.47464829800E+03  0.53159656913E+03  0.00000000000E+00 0.  1.
        -13    1    3    3    0    0  0.15033533155E+03 -0.26871344085E+02 -0.18373688442E+03  0.23891844580E+03  0.00000000000E+00 0. -1.
         22    1    1    2    0    0 -0.38970300784E+03  0.24221614087E+02  0.55554999558E+03  0.67903675784E+03  0.00000000000E+00 0. -1.
<mgrwt>
<rscale>  0 0.14458995E+04</rscale>
<asrwt>0</asrwt>
<pdfrwt beam="1">  1        2 0.10359358E+00 0.14458995E+04</pdfrwt>
<pdfrwt beam="2">  1       -2 0.11941438E+00 0.14458995E+04</pdfrwt>
<totfact> 0.22431739E+01</totfact>
</mgrwt>
</event>
<event>
 6    1  0.2776569E-005  0.3885765E+04  0.7818608E-02  0.8027996E-01
         -2   -1    0    0    0  501 -0.00000000000E+00  0.00000000000E+00  0.13710218016E+04  0.13710218016E+04  0.00000000000E+00 0.  1.
          2   -1    0    0  501    0  0.00000000000E+00 -0.00000000000E+00 -0.27532695813E+04  0.27532695813E+04  0.00000000000E+00 0. -1.
         23    2    1    2    0    0  0.66686833055E+01 -0.90939354164E+03 -0.25124734779E+04  0.26736187065E+04  0.93128542922E+02 0.  0.
         11    1    3    3    0    0 -0.19394950255E+02 -0.54874895602E+03 -0.16272534631E+04  0.17173978613E+04  0.00000000000E+00 0.  1.
        -11    1    3    3    0    0  0.26063633561E+02 -0.36064458562E+03 -0.88522001487E+03  0.95622084523E+03  0.00000000000E+00 0. -1.
         22    1    1    2    0    0 -0.66686833055E+01  0.90939354164E+03  0.11302256983E+04  0.14506726764E+04  0.00000000000E+00 0.  1.
<mgrwt>
<rscale>  0 0.38857651E+04</rscale>
<asrwt>0</asrwt>
<pdfrwt beam="1">  1        2 0.42357993E+00 0.38857651E+04</pdfrwt>
<pdfrwt beam="2">  1       -2 0.21092643E+00 0.38857651E+04</pdfrwt>
<totfact> 0.22184546E-01</totfact>
</mgrwt>
</event>
<event>
 6    1  0.2003386E-005  0.1151852E+04  0.7818608E-02  0.9156076E-01
         -4   -1    0    0    0  501 -0.00000000000E+00  0.00000000000E+00  0.55001368845E+03  0.55001368845E+03  0.00000000000E+00 0.  1.
          4   -1    0    0  501    0  0.00000000000E+00 -0.00000000000E+00 -0.60305949430E+03  0.60305949430E+03  0.00000000000E+00 0. -1.
         23    2    1    2    0    0  0.48633925274E+03 -0.29529564428E+03 -0.85834621528E+02  0.58316047652E+03  0.94779601400E+02 0.  0.
         13    1    3    3    0    0  0.95146348008E+02 -0.66379023403E+02  0.19986999301E+02  0.11772205583E+03  0.00000000000E+00 0.  1.
        -13    1    3    3    0    0  0.39119290473E+03 -0.22891662088E+03 -0.10582162083E+03  0.46543842070E+03  0.00000000000E+00 0. -1.
         22    1    1    2    0    0 -0.48633925274E+03  0.29529564428E+03  0.32788815682E+02  0.56991270623E+03  0.00000000000E+00 0. -1.
<mgrwt>
<rscale>  0 0.11518524E+04</rscale>
<asrwt>0</asrwt>
<pdfrwt beam="1">  1        4 0.92778383E-01 0.11518524E+04</pdfrwt>
<pdfrwt beam="2">  1       -4 0.84617491E-01 0.11518524E+04</pdfrwt>
<totfact> 0.23730266E+00</totfact>
</mgrwt>
</event>
<event>
 6    1  0.2003386E-005  0.9191530E+03  0.7818608E-02  0.9401951E-01
          2   -1    0    0  501    0  0.00000000000E+00  0.00000000000E+00  0.29981383134E+04  0.29981383134E+04  0.00000000000E+00 0. -1.
         -2   -1    0    0    0  501 -0.00000000000E+00 -0.00000000000E+00 -0.70447229604E+02  0.70447229604E+02  0.00000000000E+00 0.  1.
         23    2    1    2    0    0 -0.12043713209E+03  0.26353100224E+03  0.26495645787E+04  0.26669538152E+04  0.92176482378E+02 0.  0.
         11    1    3    3    0    0 -0.79109116772E+02  0.96682013137E+02  0.83917619969E+03  0.84842345450E+03  0.00000000000E+00 0. -1.
        -11    1    3    3    0    0 -0.41328015317E+02  0.16684898910E+03  0.18103883790E+04  0.18185303607E+04  0.00000000000E+00 0.  1.
         22    1    1    2    0    0  0.12043713209E+03 -0.26353100224E+03  0.27812650511E+03  0.40163172779E+03  0.00000000000E+00 0.  1.
<mgrwt>
<rscale>  0 0.91915295E+03</rscale>
<asrwt>0</asrwt>
<pdfrwt beam="1">  1        2 0.46125195E+00 0.91915295E+03</pdfrwt>
<pdfrwt beam="2">  1       -2 0.10838038E-01 0.91915295E+03</pdfrwt>
<totfact> 0.10874746E+02</totfact>
</mgrwt>
</event>
<event>
 6    1  0.2003386E-005  0.1999937E+04  0.7818608E-02  0.8606650E-01
         -2   -1    0    0    0  501 -0.00000000000E+00  0.00000000000E+00  0.11418085311E+04  0.11418085311E+04  0.00000000000E+00 0.  1.
          2   -1    0    0  501    0  0.00000000000E+00 -0.00000000000E+00 -0.87574873195E+03  0.87574873195E+03  0.00000000000E+00 0. -1.
         23    2    1    2    0    0  0.87864227769E+03  0.89065813940E+02 -0.33528684951E+03  0.94911785756E+03  0.91991655762E+02 0.  0.
         11    1    3    3    0    0  0.38206246536E+03  0.31008599497E+02 -0.97692688376E+02  0.39557189238E+03  0.00000000000E+00 0.  1.
        -11    1    3    3    0    0  0.49657981234E+03  0.58057214443E+02 -0.23759416113E+03  0.55354596518E+03  0.00000000000E+00 0. -1.
         22    1    1    2    0    0 -0.87864227769E+03 -0.89065813940E+02  0.60134664866E+03  0.10684394055E+04  0.00000000000E+00 0.  1.
<mgrwt>
<rscale>  0 0.19999374E+04</rscale>
<asrwt>0</asrwt>
<pdfrwt beam="1">  1        2 0.13473057E+00 0.19999374E+04</pdfrwt>
<pdfrwt beam="2">  1       -2 0.17566285E+00 0.19999374E+04</pdfrwt>
<totfact> 0.54990004E+00</totfact>
</mgrwt>
</event>
<event>
 6    1  0.2003386E-005  0.2557087E+04  0.7818608E-02  0.8382925E-01
         -1   -1    0    0    0  501 -0.00000000000E+00  0.00000000000E+00  0.79987200916E+03  0.79987200916E+03  0.00000000000E+00 0.  1.
          1   -1    0    0  501    0  0.00000000000E+00 -0.00000000000E+00 -0.20436694209E+04  0.20436694209E+04  0.00000000000E+00 0. -1.
         23    2    1    2    0    0 -0.11540631507E+04  0.46259814229E+03 -0.94614135495E+03  0.15650822304E+04  0.91870165411E+02 0.  0.
         11    1    3    3    0    0 -0.10670887251E+04  0.43460762475E+03 -0.84539086245E+03  0.14290723722E+04  0.00000000000E+00 0. -1.
        -11    1    3    3    0    0 -0.86974425560E+02  0.27990517543E+02 -0.10075049250E+03  0.13600985814E+03  0.00000000000E+00 0.  1.
         22    1    1    2    0    0  0.11540631507E+04 -0.46259814229E+03 -0.29765605674E+03  0.12784591996E+04  0.00000000000E+00 0.  1.
<mgrwt>
<rscale>  0 0.25570874E+04</rscale>
<asrwt>0</asrwt>
<pdfrwt beam="1">  1        1 0.31441067E+00 0.25570874E+04</pdfrwt>
<pdfrwt beam="2">  1       -1 0.12305723E+00 0.25570874E+04</pdfrwt>
<totfact> 0.14313586E+00</totfact>
</mgrwt>
</event>
<event>
 6    1  0.2003386E-005  0.1688816E+04  0.7818608E-02  0.8767769E-01
          2   -1    0    0  501    0  0.00000000000E+00  0.00000000000E+00  0.24524199433E+04  0.24524199433E+04  0.00000000000E+00 0. -1.
         -2   -1    0    0    0  501 -0.00000000000E+00 -0.00000000000E+00 -0.29074343994E+03  0.29074343994E+03  0.00000000000E+00 0.  1.
         23    2    1    2    0    0 -0.39109386724E+03  0.20339244112E+03  0.22491741332E+04  0.22937429416E+04  0.90274595272E+02 0.  0.
         13    1    3    3    0    0 -0.28443924732E+02  0.19413197746E+02  0.34012121642E+03  0.34186016287E+03  0.00000000000E+00 0.  1.
        -13    1    3    3    0    0 -0.36264994251E+03  0.18397924338E+03  0.19090529168E+04  0.19518827788E+04  0.00000000000E+00 0. -1.
         22    1    1    2    0    0  0.39109386724E+03 -0.20339244112E+03 -0.87497629883E+02  0.44942044161E+03  0.00000000000E+00 0.  1.
<mgrwt>
<rscale>  0 0.16888162E+04</rscale>
<asrwt>0</asrwt>
<pdfrwt beam="1">  1        2 0.37729536E+00 0.16888162E+04</pdfrwt>
<pdfrwt beam="2">  1       -2 0.44729762E-01 0.16888162E+04</pdfrwt>
<totfact> 0.16767457E+01</totfact>
</mgrwt>
</event>
<event>
 6    1  0.2003386E-005  0.1644326E+04  0.7818608E-02  0.8793770E-01
         -2   -1    0    0    0  501 -0.00000000000E+00  0.00000000000E+00  0.58394895269E+03  0.58394895269E+03  0.00000000000E+00 0.  1.
          2   -1    0    0  501    0  0.00000000000E+00 -0.00000000000E+00 -0.11575534129E+04  0.11575534129E+04  0.00000000000E+00 0. -1.
         23    2    1    2    0    0  0.19524759384E+03 -0.61784813761E+03  0.24402716468E+03  0.69824812139E+03  0.90239890719E+02 0.  0.
         11    1    3    3    0    0  0.92561912083E+02 -0.19704749427E+03  0.11542974193E+03  0.24641316500E+03  0.00000000000E+00 0.  1.
        -11    1    3    3    0    0  0.10268568175E+03 -0.42080064334E+03  0.12859742275E+03  0.45183495639E+03  0.00000000000E+00 0. -1.
         22    1    1    2    0    0 -0.19524759384E+03  0.61784813761E+03 -0.81763162492E+03  0.10432542442E+04  0.00000000000E+00 0. -1.
<mgrwt>
<rscale>  0 0.16443261E+04</rscale>
<asrwt>0</asrwt>
<pdfrwt beam="1">  1        2 0.17808514E+00 0.16443261E+04</pdfrwt>
<pdfrwt beam="2">  1       -2 0.89838301E-01 0.16443261E+04</pdfrwt>
<totfact> 0.20377433E+01</totfact>
</mgrwt>
</event>
<event>
 6    1  0.2003386E-005  0.4683250E+04  0.7818608E-02  0.7879318E-01
          2   -1    0    0  501    0  0.00000000000E+00  0.00000000000E+00  0.13130812792E+04  0.13130812792E+04  0.00000000000E+00 0.  1.
         -2   -1    0    0    0  501 -0.00000000000E+00 -0.00000000000E+00 -0.41758328146E+04  0.41758328146E+04  0.00000000000E+00 0. -1.
         23    2    1    2    0    0 -0.13836723755E+04 -0.90793519550E+03  0.50763770820E+03  0.17341279194E+04  0.10299532063E+03 0.  0.
         11    1    3    3    0    0 -0.28786611876E+03 -0.15219971376E+03  0.71706715085E+02  0.33342691581E+03  0.00000000000E+00 0.  1.
        -11    1    3    3    0    0 -0.10958062568E+04 -0.75573548174E+03  0.43593099312E+03  0.14007010036E+04  0.00000000000E+00 0. -1.
         22    1    1    2    0    0  0.13836723755E+04  0.90793519550E+03 -0.33703892436E+04  0.37547861744E+04  0.00000000000E+00 0. -1.
<mgrwt>
<rscale>  0 0.46832501E+04</rscale>
<asrwt>0</asrwt>
<pdfrwt beam="1">  1        2 0.20201250E+00 0.46832501E+04</pdfrwt>
<pdfrwt beam="2">  1       -2 0.64243583E+00 0.46832501E+04</pdfrwt>
<totfact> 0.43495774E-03</totfact>
</mgrwt>
</event>
<event>
 6    1  0.2003386E-005  0.2327100E+04  0.7818608E-02  0.8467312E-01
         -2   -1    0    0    0  501 -0.00000000000E+00  0.00000000000E+00  0.43322743765E+03  0.43322743765E+03  0.00000000000E+00 0.  1.
          2   -1    0    0  501    0  0.00000000000E+00 -0.00000000000E+00 -0.31250286523E+04  0.31250286523E+04  0.00000000000E+00 0. -1.
         23    2    1    2    0    0  0.64830475725E+03 -0.86134883604E+03 -0.68868101377E+03  0.12834568868E+04  0.10372639903E+03 0.  0.
         13    1    3    3    0    0  0.26206378196E+03 -0.37462962745E+03 -0.35011681451E+03  0.57585290429E+03  0.00000000000E+00 0. -1.
        -13    1    3    3    0    0  0.38624097529E+03 -0.48671920859E+03 -0.33856419927E+03  0.70760398249E+03  0.00000000000E+00 0.  1.
         22    1    1    2    0    0 -0.64830475725E+03  0.86134883604E+03 -0.20031202009E+04  0.22747992032E+04  0.00000000000E+00 0. -1.
<mgrwt>
<rscale>  0 0.23270996E+04</rscale>
<asrwt>0</asrwt>
<pdfrwt beam="1">  1        2 0.48077365E+00 0.23270996E+04</pdfrwt>
<pdfrwt beam="2">  1       -2 0.66650373E-01 0.23270996E+04</pdfrwt>
<totfact> 0.27160843E+00</totfact>
</mgrwt>
</event>
<event>
 6    1  0.2003386E-005  0.2093083E+04  0.7818608E-02  0.8564297E-01
         -2   -1    0    0    0  501 -0.00000000000E+00  0.00000000000E+00  0.78709653147E+03  0.78709653147E+03  0.00000000000E+00 0.  1.
          2   -1    0    0  501    0  0.00000000000E+00 -0.00000000000E+00 -0.13915049902E+04  0.13915049902E+04  0.00000000000E+00 0. -1.
         23    2    1    2    0    0 -0.84033220132E+02 -0.25966161877E+03 -0.13521560387E+04  0.13826039201E+04  0.93711837496E+02 0.  0.
         11    1    3    3    0    0 -0.66120218802E+02 -0.88637102287E+02 -0.39802786821E+03  0.41310362272E+03  0.00000000000E+00 0. -1.
        -11    1    3    3    0    0 -0.17913001330E+02 -0.17102451649E+03 -0.95412817051E+03  0.96950029738E+03  0.00000000000E+00 0.  1.
         22    1    1    2    0    0  0.84033220132E+02  0.25966161877E+03  0.74774757998E+03  0.79599760158E+03  0.00000000000E+00 0.  1.
<mgrwt>
<rscale>  0 0.20930827E+04</rscale>
<asrwt>0</asrwt>
<pdfrwt beam="1">  1        2 0.21407769E+00 0.20930827E+04</pdfrwt>
<pdfrwt beam="2">  1       -2 0.12109177E+00 0.20930827E+04</pdfrwt>
<totfact> 0.70064771E+00</totfact>
</mgrwt>
</event>
<event>
 6    1  0.2003386E-005  0.6596615E+03  0.7818608E-02  0.9788817E-01
         -2   -1    0    0    0  501 -0.00000000000E+00  0.00000000000E+00  0.12055357446E+03  0.12055357446E+03  0.00000000000E+00 0. -1.
          2   -1    0    0  501    0  0.00000000000E+00 -0.00000000000E+00 -0.90240653897E+03  0.90240653897E+03  0.00000000000E+00 0.  1.
         23    2    1    2    0    0  0.23013830224E+03 -0.92792122223E+02 -0.74724143033E+02  0.27355689334E+03  0.87610845442E+02 0.  0.
         11    1    3    3    0    0  0.14904579615E+03 -0.59185828283E+02 -0.33184149979E+01  0.16040144481E+03  0.00000000000E+00 0. -1.
        -11    1    3    3    0    0  0.81092506093E+02 -0.33606293940E+02 -0.71405728035E+02  0.11315544853E+03  0.00000000000E+00 0.  1.
         22    1    1    2    0    0 -0.23013830224E+03  0.92792122223E+02 -0.70712882148E+03  0.74940322008E+03  0.00000000000E+00 0.  1.
<mgrwt>
<rscale>  0 0.65966153E+03</rscale>
<asrwt>0</asrwt>
<pdfrwt beam="1">  1        2 0.13883178E+00 0.65966153E+03</pdfrwt>
<pdfrwt beam="2">  1       -2 0.18546703E-01 0.65966153E+03</pdfrwt>
<totfact> 0.71587677E+02</totfact>
</mgrwt>
</event>
<event>
 6    1  0.2003386E-005  0.2811685E+04  0.7818608E-02  0.8299650E-01
         -2   -1    0    0    0  501 -0.00000000000E+00  0.00000000000E+00  0.50938829965E+03  0.50938829965E+03  0.00000000000E+00 0.  1.
          2   -1    0    0  501    0  0.00000000000E+00 -0.00000000000E+00 -0.38799355245E+04  0.38799355245E+04  0.00000000000E+00 0. -1.
         23    2    1    2    0    0 -0.58161718780E+03  0.84365025061E+03 -0.31861301514E+04  0.33481543108E+04  0.93207557163E+02 0.  0.
         11    1    3    3    0    0 -0.51426709043E+03  0.69984842011E+03 -0.26211535702E+04  0.27612867453E+04  0.00000000000E+00 0.  1.
        -11    1    3    3    0    0 -0.67350097373E+02  0.14380183050E+03 -0.56497658129E+03  0.58686756554E+03  0.00000000000E+00 0. -1.
         22    1    1    2    0    0  0.58161718780E+03 -0.84365025061E+03 -0.18441707340E+03  0.10411695133E+04  0.00000000000E+00 0.  1.
<mgrwt>
<rscale>  0 0.28116854E+04</rscale>
<asrwt>0</asrwt>
<pdfrwt beam="1">  1        2 0.59691316E+00 0.28116854E+04</pdfrwt>
<pdfrwt beam="2">  1       -2 0.78367431E-01 0.28116854E+04</pdfrwt>
<totfact> 0.53662714E-01</totfact>
</mgrwt>
</event>
<event>
 6    1  0.2003386E-005  0.5135319E+04  0.7818608E-02  0.7807965E-01
         -2   -1    0    0    0  501 -0.00000000000E+00  0.00000000000E+00  0.14116090823E+04  0.14116090823E+04  0.00000000000E+00 0.  1.
          2   -1    0    0  501    0  0.00000000000E+00 -0.00000000000E+00 -0.46704684071E+04  0.46704684071E+04  0.00000000000E+00 0. -1.
         23    2    1    2    0    0  0.13717229304E+04  0.14737044008E+04  0.25560796542E+03  0.20317801185E+04  0.96780985280E+02 0.  0.
         11    1    3    3    0    0  0.80717428903E+03  0.93586194842E+03  0.16242340083E+03  0.12464947976E+04  0.00000000000E+00 0. -1.
        -11    1    3    3    0    0  0.56454864142E+03  0.53784245236E+03  0.93184564598E+02  0.78528532087E+03  0.00000000000E+00 0.  1.
         22    1    1    2    0    0 -0.13717229304E+04 -0.14737044008E+04 -0.35144672902E+04  0.40502973709E+04  0.00000000000E+00 0. -1.
<mgrwt>
<rscale>  0 0.51353191E+04</rscale>
<asrwt>0</asrwt>
<pdfrwt beam="1">  1        2 0.71853361E+00 0.51353191E+04</pdfrwt>
<pdfrwt beam="2">  1       -2 0.21717063E+00 0.51353191E+04</pdfrwt>
<totfact> 0.60469898E-03</totfact>
</mgrwt>
</event>
<event>
 6    1  0.2003386E-005  0.3288888E+04  0.7818608E-02  0.8165729E-01
          2   -1    0    0  501    0  0.00000000000E+00  0.00000000000E+00  0.14300331572E+04  0.14300331572E+04  0.00000000000E+00 0. -1.
         -2   -1    0    0    0  501 -0.00000000000E+00 -0.00000000000E+00 -0.18910018775E+04  0.18910018775E+04  0.00000000000E+00 0.  1.
         23    2    1    2    0    0  0.13953176949E+04  0.72513429697E+03  0.25058301874E+03  0.15950463048E+04  0.93003477263E+02 0.  0.
         11    1    3    3    0    0  0.50817554252E+03  0.31397721431E+03  0.86166735297E+02  0.60353026386E+03  0.00000000000E+00 0. -1.
        -11    1    3    3    0    0  0.88714215241E+03  0.41115708266E+03  0.16441628344E+03  0.99151604095E+03  0.00000000000E+00 0.  1.
         22    1    1    2    0    0 -0.13953176949E+04 -0.72513429697E+03 -0.71155173904E+03  0.17259887299E+04  0.00000000000E+00 0.  1.
<mgrwt>
<rscale>  0 0.32888876E+04</rscale>
<asrwt>0</asrwt>
<pdfrwt beam="1">  1        2 0.22000510E+00 0.32888876E+04</pdfrwt>
<pdfrwt beam="2">  1       -2 0.29092336E+00 0.32888876E+04</pdfrwt>
<totfact> 0.41994025E-01</totfact>
</mgrwt>
</event>
<event>
 6    1  0.2003386E-005  0.1782566E+04  0.7818608E-02  0.8715626E-01
         -2   -1    0    0    0  501 -0.00000000000E+00  0.00000000000E+00  0.30849542713E+03  0.30849542713E+03  0.00000000000E+00 0.  1.
          2   -1    0    0  501    0  0.00000000000E+00 -0.00000000000E+00 -0.25750325853E+04  0.25750325853E+04  0.00000000000E+00 0. -1.
         23    2    1    2    0    0 -0.44124591798E+03 -0.87971207022E+02  0.10476807452E+03  0.46991549175E+03  0.86065826881E+02 0.  0.
         11    1    3    3    0    0 -0.34669685777E+03 -0.39006439480E+02  0.58215578391E+02  0.35370788382E+03  0.00000000000E+00 0.  1.
        -11    1    3    3    0    0 -0.94549060209E+02 -0.48964767543E+02  0.46552496127E+02  0.11620760794E+03  0.00000000000E+00 0. -1.
         22    1    1    2    0    0  0.44124591798E+03  0.87971207022E+02 -0.23713052327E+04  0.24136125207E+04  0.00000000000E+00 0. -1.
<mgrwt>
<rscale>  0 0.17825664E+04</rscale>
<asrwt>0</asrwt>
<pdfrwt beam="1">  1        2 0.39615884E+00 0.17825664E+04</pdfrwt>
<pdfrwt beam="2">  1       -2 0.47460837E-01 0.17825664E+04</pdfrwt>
<totfact> 0.12539166E+01</totfact>
</mgrwt>
</event>
<event>
 6    1  0.2003386E-005  0.1802539E+04  0.7818608E-02  0.8704951E-01
         -2   -1    0    0    0  501 -0.00000000000E+00  0.00000000000E+00  0.30857901681E+03  0.30857901681E+03  0.00000000000E+00 0.  1.
          2   -1    0    0  501    0  0.00000000000E+00 -0.00000000000E+00 -0.26323445589E+04  0.26323445589E+04  0.00000000000E+00 0. -1.
         23    2    1    2    0    0 -0.50865983332E+03  0.68444530449E+03 -0.16288899688E+04  0.18408998199E+04  0.91811849636E+02 0.  0.
         13    1    3    3    0    0 -0.48184006628E+03  0.67472186800E+03 -0.15709442568E+04  0.17763122774E+04  0.00000000000E+00 0. -1.
        -13    1    3    3    0    0 -0.26819767043E+02  0.97234364925E+01 -0.57945711920E+02  0.64587542540E+02  0.00000000000E+00 0.  1.
         22    1    1    2    0    0  0.50865983332E+03 -0.68444530449E+03 -0.69487557329E+03  0.11000237558E+04  0.00000000000E+00 0.  1.
<mgrwt>
<rscale>  0 0.18025385E+04</rscale>
<asrwt>0</asrwt>
<pdfrwt beam="1">  1        2 0.40497609E+00 0.18025385E+04</pdfrwt>
<pdfrwt beam="2">  1       -2 0.47473695E-01 0.18025385E+04</pdfrwt>
<totfact> 0.11579990E+01</totfact>
</mgrwt>
</event>
<event>
 6    1  0.2003386E-005  0.1685239E+04  0.7818608E-02  0.8769828E-01
          2   -1    0    0  501    0  0.00000000000E+00  0.00000000000E+00  0.20679852178E+04  0.20679852178E+04  0.00000000000E+00 0. -1.
         -2   -1    0    0    0  501 -0.00000000000E+00 -0.00000000000E+00 -0.34333319382E+03  0.34333319382E+03  0.00000000000E+00 0.  1.
         23    2    1    2    0    0 -0.57699570307E+03  0.38359397014E+03  0.15448485009E+04  0.16954988239E+04  0.89949961224E+02 0.  0.
         13    1    3    3    0    0 -0.47873580965E+03  0.28505893011E+03  0.11773254335E+04  0.13025136258E+04  0.00000000000E+00 0.  1.
        -13    1    3    3    0    0 -0.98259893418E+02  0.98535040029E+02  0.36752306748E+03  0.39298519807E+03  0.00000000000E+00 0. -1.
         22    1    1    2    0    0  0.57699570307E+03 -0.38359397014E+03  0.17980352300E+03  0.71581958773E+03  0.00000000000E+00 0.  1.
<mgrwt>
<rscale>  0 0.16852394E+04</rscale>
<asrwt>0</asrwt>
<pdfrwt beam="1">  1        2 0.31815156E+00 0.16852394E+04</pdfrwt>
<pdfrwt beam="2">  1       -2 0.52820493E-01 0.16852394E+04</pdfrwt>
<totfact> 0.19725225E+01</totfact>
</mgrwt>
</event>
<event>
 6    1  0.2003386E-005  0.3550863E+04  0.7818608E-02  0.8101841E-01
          2   -1    0    0  501    0  0.00000000000E+00  0.00000000000E+00  0.31548783400E+04  0.31548783400E+04  0.00000000000E+00 0. -1.
         -2   -1    0    0    0  501 -0.00000000000E+00 -0.00000000000E+00 -0.99913759321E+03  0.99913759321E+03  0.00000000000E+00 0.  1.
         23    2    1    2    0    0 -0.57947870405E+03 -0.11308915650E+04  0.25271787891E+04  0.28301286573E+04  0.91018044697E+02 0.  0.
         11    1    3    3    0    0 -0.16893367315E+03 -0.32326669271E+03  0.63683751865E+03  0.73389506450E+03  0.00000000000E+00 0. -1.
        -11    1    3    3    0    0 -0.41054503090E+03 -0.80762487229E+03  0.18903412704E+04  0.20962335927E+04  0.00000000000E+00 0.  1.
         22    1    1    2    0    0  0.57947870405E+03  0.11308915650E+04 -0.37143804226E+03  0.13238872760E+04  0.00000000000E+00 0.  1.
<mgrwt>
<rscale>  0 0.35508633E+04</rscale>
<asrwt>0</asrwt>
<pdfrwt beam="1">  1        2 0.48536589E+00 0.35508633E+04</pdfrwt>
<pdfrwt beam="2">  1       -2 0.15371348E+00 0.35508633E+04</pdfrwt>
<totfact> 0.31839337E-01</totfact>
</mgrwt>
</event>
<event>
 6    1  0.2003386E-005  0.9217238E+03  0.7818608E-02  0.9398826E-01
          2   -1    0    0  501    0  0.00000000000E+00  0.00000000000E+00  0.31111780339E+04  0.31111780339E+04  0.00000000000E+00 0. -1.
         -2   -1    0    0    0  501 -0.00000000000E+00 -0.00000000000E+00 -0.68267929371E+02  0.68267929371E+02  0.00000000000E+00 0.  1.
         23    2    1    2    0    0 -0.23290886300E+03  0.58127491027E+02  0.28752240274E+04  0.28866252602E+04  0.89815597125E+02 0.  0.
         11    1    3    3    0    0 -0.10066756993E+03  0.13667412990E+02  0.75327481861E+03  0.76009454028E+03  0.00000000000E+00 0.  1.
        -11    1    3    3    0    0 -0.13224129307E+03  0.44460078037E+02  0.21219492088E+04  0.21265307199E+04  0.00000000000E+00 0. -1.
         22    1    1    2    0    0  0.23290886300E+03 -0.58127491027E+02  0.16768607713E+03  0.29282070306E+03  0.00000000000E+00 0.  1.
<mgrwt>
<rscale>  0 0.92172378E+03</rscale>
<asrwt>0</asrwt>
<pdfrwt beam="1">  1        2 0.47864266E+00 0.92172378E+03</pdfrwt>
<pdfrwt beam="2">  1       -2 0.10502761E-01 0.92172378E+03</pdfrwt>
<totfact> 0.97374231E+01</totfact>
</mgrwt>
</event>
<event>
 6    1  0.2003386E-005  0.1431923E+04  0.7818608E-02  0.8931030E-01
          2   -1    0    0  501    0  0.00000000000E+00  0.00000000000E+00  0.69081924980E+03  0.69081924980E+03  0.00000000000E+00 0. -1.
         -2   -1    0    0    0  501 -0.00000000000E+00 -0.00000000000E+00 -0.74201919011E+03  0.74201919011E+03  0.00000000000E+00 0.  1.
         23    2    1    2    0    0  0.22402804889E+03  0.65060414453E+03  0.16117303805E+03  0.71271581042E+03  0.92264612199E+02 0.  0.
         11    1    3    3    0    0  0.10802481727E+03  0.24481373283E+03  0.22764386343E+02  0.26855416998E+03  0.00000000000E+00 0.  1.
        -11    1    3    3    0    0  0.11600323162E+03  0.40579041170E+03  0.13840865170E+03  0.44416164044E+03  0.00000000000E+00 0. -1.
         22    1    1    2    0    0 -0.22402804889E+03 -0.65060414453E+03 -0.21237297836E+03  0.72012262949E+03  0.00000000000E+00 0.  1.
<mgrwt>
<rscale>  0 0.14319234E+04</rscale>
<asrwt>0</asrwt>
<pdfrwt beam="1">  1        2 0.10627988E+00 0.14319234E+04</pdfrwt>
<pdfrwt beam="2">  1       -2 0.11415680E+00 0.14319234E+04</pdfrwt>
<totfact> 0.24287957E+01</totfact>
</mgrwt>
</event>
<event>
 6    1  0.2003386E-005  0.1653659E+04  0.7818608E-02  0.8788245E-01
         -2   -1    0    0    0  501 -0.00000000000E+00  0.00000000000E+00  0.23663351010E+03  0.23663351010E+03  0.00000000000E+00 0.  1.
          2   -1    0    0  501    0  0.00000000000E+00 -0.00000000000E+00 -0.28890557682E+04  0.28890557682E+04  0.00000000000E+00 0. -1.
         23    2    1    2    0    0  0.35190869359E+03  0.12776695943E+03 -0.27183235981E+04  0.27455483687E+04  0.92674354721E+02 0.  0.
         13    1    3    3    0    0  0.30790325657E+03  0.76787778772E+02 -0.23132757283E+04  0.23349401221E+04  0.00000000000E+00 0. -1.
        -13    1    3    3    0    0  0.44005437026E+02  0.50979180658E+02 -0.40504786980E+03  0.41060824660E+03  0.00000000000E+00 0.  1.
         22    1    1    2    0    0 -0.35190869359E+03 -0.12776695943E+03  0.65901340036E+02  0.38014090962E+03  0.00000000000E+00 0.  1.
<mgrwt>
<rscale>  0 0.16536595E+04</rscale>
<asrwt>0</asrwt>
<pdfrwt beam="1">  1        2 0.44447013E+00 0.16536595E+04</pdfrwt>
<pdfrwt beam="2">  1       -2 0.36405154E-01 0.16536595E+04</pdfrwt>
<totfact> 0.13901451E+01</totfact>
</mgrwt>
</event>
<event>
 6    1  0.2003386E-005  0.5991526E+04  0.7818608E-02  0.7691453E-01
         -2   -1    0    0    0  501 -0.00000000000E+00  0.00000000000E+00  0.26211989247E+04  0.26211989247E+04  0.00000000000E+00 0.  1.
          2   -1    0    0  501    0  0.00000000000E+00 -0.00000000000E+00 -0.34238519970E+04  0.34238519970E+04  0.00000000000E+00 0. -1.
         23    2    1    2    0    0 -0.18540681494E+04  0.23328190916E+04 -0.97393109317E+02  0.29828613077E+04  0.91446959715E+02 0.  0.
         13    1    3    3    0    0 -0.99658697265E+03  0.12963045566E+04 -0.16322932652E+02  0.16351934245E+04  0.00000000000E+00 0. -1.
        -13    1    3    3    0    0 -0.85748117675E+03  0.10365145350E+04 -0.81070176665E+02  0.13476678831E+04  0.00000000000E+00 0.  1.
         22    1    1    2    0    0  0.18540681494E+04 -0.23328190916E+04 -0.70525996302E+03  0.30621896140E+04  0.00000000000E+00 0.  1.
<mgrwt>
<rscale>  0 0.59915264E+04</rscale>
<asrwt>0</asrwt>
<pdfrwt beam="1">  1        2 0.52674646E+00 0.59915264E+04</pdfrwt>
<pdfrwt beam="2">  1       -2 0.40326137E+00 0.59915264E+04</pdfrwt>
<totfact> 0.43684290E-03</totfact>
</mgrwt>
</event>
<event>
 6    1  0.2003386E-005  0.1692198E+04  0.7818608E-02  0.8765827E-01
         -2   -1    0    0    0  501 -0.00000000000E+00  0.00000000000E+00  0.11526325018E+04  0.11526325018E+04  0.00000000000E+00 0.  1.
          2   -1    0    0  501    0  0.00000000000E+00 -0.00000000000E+00 -0.62108571757E+03  0.62108571757E+03  0.00000000000E+00 0. -1.
         23    2    1    2    0    0  0.50048522057E+03 -0.14498012348E+03  0.96153770034E+03  0.10981466983E+04  0.99331413190E+02 0.  0.
         13    1    3    3    0    0  0.20898582768E+03 -0.93257448992E+02  0.34196633945E+03  0.41147661571E+03  0.00000000000E+00 0.  1.
        -13    1    3    3    0    0  0.29149939289E+03 -0.51722674488E+02  0.61957136089E+03  0.68667008260E+03  0.00000000000E+00 0. -1.
         22    1    1    2    0    0 -0.50048522057E+03  0.14498012348E+03 -0.42999091606E+03  0.67557152109E+03  0.00000000000E+00 0. -1.
<mgrwt>
<rscale>  0 0.16921981E+04</rscale>
<asrwt>0</asrwt>
<pdfrwt beam="1">  1        2 0.95551649E-01 0.16921981E+04</pdfrwt>
<pdfrwt beam="2">  1       -2 0.17732808E+00 0.16921981E+04</pdfrwt>
<totfact> 0.85608838E+00</totfact>
</mgrwt>
</event>
<event>
 6    1  0.2003386E-005  0.7488866E+03  0.7818608E-02  0.9637099E-01
          1   -1    0    0  501    0  0.00000000000E+00  0.00000000000E+00  0.76929344874E+03  0.76929344874E+03  0.00000000000E+00 0. -1.
         -1   -1    0    0    0  501 -0.00000000000E+00 -0.00000000000E+00 -0.18225524765E+03  0.18225524765E+03  0.00000000000E+00 0.  1.
         23    2    1    2    0    0 -0.61728999245E+02  0.35766092208E+03  0.37993812753E+03  0.53367043062E+03  0.93377423615E+02 0.  0.
         13    1    3    3    0    0 -0.32323664248E+02  0.96501192581E+02  0.16635443207E+03  0.19501563145E+03  0.00000000000E+00 0. -1.
        -13    1    3    3    0    0 -0.29405334997E+02  0.26115972950E+03  0.21358369546E+03  0.33865479918E+03  0.00000000000E+00 0.  1.
         22    1    1    2    0    0  0.61728999245E+02 -0.35766092208E+03  0.20710007356E+03  0.41787826577E+03  0.00000000000E+00 0.  1.
<mgrwt>
<rscale>  0 0.74888655E+03</rscale>
<asrwt>0</asrwt>
<pdfrwt beam="1">  1        1 0.11835284E+00 0.74888655E+03</pdfrwt>
<pdfrwt beam="2">  1       -1 0.28039269E-01 0.74888655E+03</pdfrwt>
<totfact> 0.27318132E+02</totfact>
</mgrwt>
</event>
<event>
 6    1  0.2003386E-005  0.3181217E+04  0.7818608E-02  0.8193795E-01
         -2   -1    0    0    0  501 -0.00000000000E+00  0.00000000000E+00  0.16802849503E+04  0.16802849503E+04  0.00000000000E+00 0.  1.
          2   -1    0    0  501    0  0.00000000000E+00 -0.00000000000E+00 -0.15057180176E+04  0.15057180176E+04  0.00000000000E+00 0. -1.
         23    2    1    2    0    0 -0.66978344006E+03 -0.11774592328E+04 -0.74463257694E+03  0.15489483445E+04  0.98707637397E+02 0.  0.
         13    1    3    3    0    0 -0.10322307462E+03 -0.26224595905E+03 -0.15274412452E+03  0.32056000023E+03  0.00000000000E+00 0. -1.
        -13    1    3    3    0    0 -0.56656036543E+03 -0.91521327380E+03 -0.59188845242E+03  0.12283883443E+04  0.00000000000E+00 0.  1.
         22    1    1    2    0    0  0.66978344006E+03  0.11774592328E+04  0.91919950960E+03  0.16370546234E+04  0.00000000000E+00 0.  1.
<mgrwt>
<rscale>  0 0.31812170E+04</rscale>
<asrwt>0</asrwt>
<pdfrwt beam="1">  1        2 0.23164893E+00 0.31812170E+04</pdfrwt>
<pdfrwt beam="2">  1       -2 0.25850538E+00 0.31812170E+04</pdfrwt>
<totfact> 0.60549605E-01</totfact>
</mgrwt>
</event>
<event>
 6    1  0.2003386E-005  0.5245970E+04  0.7818608E-02  0.7791645E-01
         -2   -1    0    0    0  501 -0.00000000000E+00  0.00000000000E+00  0.38349727824E+04  0.38349727824E+04  0.00000000000E+00 0.  1.
          2   -1    0    0  501    0  0.00000000000E+00 -0.00000000000E+00 -0.17940284728E+04  0.17940284728E+04  0.00000000000E+00 0. -1.
         23    2    1    2    0    0 -0.17760358321E+04 -0.74662122487E+03  0.29294687850E+04  0.35073928385E+04  0.90943009492E+02 0.  0.
         11    1    3    3    0    0 -0.13404412553E+04 -0.56179988631E+03  0.21371629138E+04  0.25845439039E+04  0.00000000000E+00 0.  1.
        -11    1    3    3    0    0 -0.43559457682E+03 -0.18482133856E+03  0.79230587124E+03  0.92284893463E+03  0.00000000000E+00 0. -1.
         22    1    1    2    0    0  0.17760358321E+04  0.74662122487E+03 -0.88852447532E+03  0.21216084167E+04  0.00000000000E+00 0. -1.
<mgrwt>
<rscale>  0 0.52459700E+04</rscale>
<asrwt>0</asrwt>
<pdfrwt beam="1">  1        2 0.27600438E+00 0.52459700E+04</pdfrwt>
<pdfrwt beam="2">  1       -2 0.58999581E+00 0.52459700E+04</pdfrwt>
<totfact> 0.35049032E-03</totfact>
</mgrwt>
</event>
<event>
 6    1  0.2003386E-005  0.1114717E+04  0.7818608E-02  0.9190965E-01
          2   -1    0    0  501    0  0.00000000000E+00  0.00000000000E+00  0.27575193786E+04  0.27575193786E+04  0.00000000000E+00 0. -1.
         -2   -1    0    0    0  501 -0.00000000000E+00 -0.00000000000E+00 -0.11265514361E+03  0.11265514361E+03  0.00000000000E+00 0.  1.
         23    2    1    2    0    0 -0.40356379091E+03  0.37510592413E+03  0.14713727747E+04  0.15737755115E+04  0.90902864605E+02 0.  0.
         13    1    3    3    0    0 -0.19081282937E+03  0.19542916981E+03  0.60620353721E+03  0.66489459675E+03  0.00000000000E+00 0. -1.
        -13    1    3    3    0    0 -0.21275096153E+03  0.17967675432E+03  0.86516923746E+03  0.90888091471E+03  0.00000000000E+00 0.  1.
         22    1    1    2    0    0  0.40356379091E+03 -0.37510592413E+03  0.11734914603E+04  0.12963990108E+04  0.00000000000E+00 0. -1.
<mgrwt>
<rscale>  0 0.11147174E+04</rscale>
<asrwt>0</asrwt>
<pdfrwt beam="1">  1        2 0.42423370E+00 0.11147174E+04</pdfrwt>
<pdfrwt beam="2">  1       -2 0.17331563E-01 0.11147174E+04</pdfrwt>
<totfact> 0.67621068E+01</totfact>
</mgrwt>
</event>
<event>
 6    1  0.2003386E-005  0.6589990E+03  0.7818608E-02  0.9790038E-01
          1   -1    0    0  501    0  0.00000000000E+00  0.00000000000E+00  0.19754229820E+04  0.19754229820E+04  0.00000000000E+00 0. -1.
         -1   -1    0    0    0  501 -0.00000000000E+00 -0.00000000000E+00 -0.54960338943E+02  0.54960338943E+02  0.00000000000E+00 0.  1.
         23    2    1    2    0    0 -0.12292450804E+03  0.22022126134E+01  0.18993928757E+04  0.19056467204E+04  0.93171038017E+02 0.  0.
         13    1    3    3    0    0 -0.17846476646E+02  0.15562750978E+02  0.96147169891E+03  0.96176323685E+03  0.00000000000E+00 0. -1.
        -13    1    3    3    0    0 -0.10507803139E+03 -0.13360538364E+02  0.93792117674E+03  0.94388348351E+03  0.00000000000E+00 0.  1.
         22    1    1    2    0    0  0.12292450804E+03 -0.22022126134E+01  0.21069767360E+02  0.12473660054E+03  0.00000000000E+00 0.  1.
<mgrwt>
<rscale>  0 0.65899899E+03</rscale>
<asrwt>0</asrwt>
<pdfrwt beam="1">  1        1 0.30391117E+00 0.65899899E+03</pdfrwt>
<pdfrwt beam="2">  1       -1 0.84554383E-02 0.65899899E+03</pdfrwt>
<totfact> 0.26383338E+02</totfact>
</mgrwt>
</event>
<event>
 6    1  0.2138202E-005  0.2923189E+04  0.7818608E-02  0.8266011E-01
          2   -1    0    0  501    0  0.00000000000E+00  0.00000000000E+00  0.14347143719E+04  0.14347143719E+04  0.00000000000E+00 0. -1.
         -2   -1    0    0    0  501 -0.00000000000E+00 -0.00000000000E+00 -0.14889784243E+04  0.14889784243E+04  0.00000000000E+00 0.  1.
         23    2    1    2    0    0  0.37430722198E+03  0.78960836207E+00  0.13844743744E+04  0.14370607702E+04  0.90927686235E+02 0.  0.
         11    1    3    3    0    0  0.22068336199E+03 -0.39649754974E+02  0.73486486656E+03  0.76830958697E+03  0.00000000000E+00 0. -1.
        -11    1    3    3    0    0  0.15362385999E+03  0.40439363336E+02  0.64960950779E+03  0.66875118324E+03  0.00000000000E+00 0.  1.
         22    1    1    2    0    0 -0.37430722198E+03 -0.78960836207E+00 -0.14387384268E+04  0.14866320260E+04  0.00000000000E+00 0.  1.
<mgrwt>
<rscale>  0 0.29231892E+04</rscale>
<asrwt>0</asrwt>
<pdfrwt beam="1">  1        2 0.22072529E+00 0.29231892E+04</pdfrwt>
<pdfrwt beam="2">  1       -2 0.22907360E+00 0.29231892E+04</pdfrwt>
<totfact> 0.10319334E+00</totfact>
</mgrwt>
</event>
<event>
 6    1  0.2003386E-005  0.1060840E+04  0.7818608E-02  0.9244224E-01
         -1   -1    0    0    0  501 -0.00000000000E+00  0.00000000000E+00  0.13734456740E+03  0.13734456740E+03  0.00000000000E+00 0.  1.
          1   -1    0    0  501    0  0.00000000000E+00 -0.00000000000E+00 -0.20484628852E+04  0.20484628852E+04  0.00000000000E+00 0. -1.
         23    2    1    2    0    0  0.42379906496E+03  0.11894837779E+03 -0.15580089377E+04  0.16215020403E+04  0.90125760386E+02 0.  0.
         13    1    3    3    0    0  0.13823661269E+03  0.27654319606E+02 -0.36177737888E+03  0.38827438024E+03  0.00000000000E+00 0. -1.
        -13    1    3    3    0    0  0.28556245226E+03  0.91294058186E+02 -0.11962315588E+04  0.12332276601E+04  0.00000000000E+00 0.  1.
         22    1    1    2    0    0 -0.42379906496E+03 -0.11894837779E+03 -0.35310938008E+03  0.56430541229E+03  0.00000000000E+00 0.  1.
<mgrwt>
<rscale>  0 0.10608398E+04</rscale>
<asrwt>0</asrwt>
<pdfrwt beam="1">  1        1 0.31514814E+00 0.10608398E+04</pdfrwt>
<pdfrwt beam="2">  1       -1 0.21129933E-01 0.10608398E+04</pdfrwt>
<totfact> 0.51673945E+01</totfact>
</mgrwt>
</event>
<event>
 6    1  0.2003386E-005  0.2510564E+04  0.7818608E-02  0.8399232E-01
          2   -1    0    0  501    0  0.00000000000E+00  0.00000000000E+00  0.14650375985E+04  0.14650375985E+04  0.00000000000E+00 0. -1.
         -2   -1    0    0    0  501 -0.00000000000E+00 -0.00000000000E+00 -0.10755583219E+04  0.10755583219E+04  0.00000000000E+00 0.  1.
         23    2    1    2    0    0  0.63888781375E+03 -0.34505876321E+03  0.12291164421E+04  0.14305356705E+04  0.91988520620E+02 0.  0.
         11    1    3    3    0    0  0.31573713220E+03 -0.15903537191E+03  0.51077707324E+03  0.62118870298E+03  0.00000000000E+00 0.  1.
        -11    1    3    3    0    0  0.32315068154E+03 -0.18602339130E+03  0.71833936882E+03  0.80934696755E+03  0.00000000000E+00 0. -1.
         22    1    1    2    0    0 -0.63888781375E+03  0.34505876321E+03 -0.83963716547E+03  0.11100602498E+04  0.00000000000E+00 0.  1.
<mgrwt>
<rscale>  0 0.25105644E+04</rscale>
<asrwt>0</asrwt>
<pdfrwt beam="1">  1        2 0.22539040E+00 0.25105644E+04</pdfrwt>
<pdfrwt beam="2">  1       -2 0.16547051E+00 0.25105644E+04</pdfrwt>
<totfact> 0.27199761E+00</totfact>
</mgrwt>
</event>
<event>
 6    1  0.2143363E-005  0.2526885E+04  0.7818608E-02  0.8393470E-01
         -2   -1    0    0    0  501 -0.00000000000E+00  0.00000000000E+00  0.83188167353E+03  0.83188167353E+03  0.00000000000E+00 0.  1.
          2   -1    0    0  501    0  0.00000000000E+00 -0.00000000000E+00 -0.19188871148E+04  0.19188871148E+04  0.00000000000E+00 0. -1.
         23    2    1    2    0    0 -0.36174875646E+03 -0.55854470522E+03  0.62281972931E+03  0.91601091207E+03  0.91308407467E+02 0.  0.
         11    1    3    3    0    0 -0.14974380598E+03 -0.31405005074E+03  0.31271224641E+03  0.46780294019E+03  0.00000000000E+00 0. -1.
        -11    1    3    3    0    0 -0.21200495049E+03 -0.24449465448E+03  0.31010748290E+03  0.44820797187E+03  0.00000000000E+00 0.  1.
         22    1    1    2    0    0  0.36174875646E+03  0.55854470522E+03 -0.17098251706E+04  0.18347578763E+04  0.00000000000E+00 0. -1.
<mgrwt>
<rscale>  0 0.25268851E+04</rscale>
<asrwt>0</asrwt>
<pdfrwt beam="1">  1        2 0.29521340E+00 0.25268851E+04</pdfrwt>
<pdfrwt beam="2">  1       -2 0.12798180E+00 0.25268851E+04</pdfrwt>
<totfact> 0.29806050E+00</totfact>
</mgrwt>
</event>
<event>
 6    1  0.2003386E-005  0.8993178E+03  0.7818608E-02  0.9426435E-01
         -2   -1    0    0    0  501 -0.00000000000E+00  0.00000000000E+00  0.76723048857E+03  0.76723048857E+03  0.00000000000E+00 0.  1.
          2   -1    0    0  501    0  0.00000000000E+00 -0.00000000000E+00 -0.26353635970E+03  0.26353635970E+03  0.00000000000E+00 0. -1.
         23    2    1    2    0    0 -0.71332685229E+02  0.43784107786E+03  0.29729692015E+03  0.54148884016E+03  0.89618881053E+02 0.  0.
         11    1    3    3    0    0 -0.78100681035E+02  0.36431344264E+03  0.21203785653E+03  0.42870042392E+03  0.00000000000E+00 0.  1.
        -11    1    3    3    0    0  0.67679958059E+01  0.73527635220E+02  0.85259063620E+02  0.11278841624E+03  0.00000000000E+00 0. -1.
         22    1    1    2    0    0  0.71332685229E+02 -0.43784107786E+03  0.20639720872E+03  0.48927800810E+03  0.00000000000E+00 0. -1.
<mgrwt>
<rscale>  0 0.89931781E+03</rscale>
<asrwt>0</asrwt>
<pdfrwt beam="1">  1        2 0.40544056E-01 0.89931781E+03</pdfrwt>
<pdfrwt beam="2">  1       -2 0.11803546E+00 0.89931781E+03</pdfrwt>
<totfact> 0.70387442E+01</totfact>
</mgrwt>
</event>
<event>
 6    1  0.2003386E-005  0.3421724E+04  0.7818608E-02  0.8132595E-01
         -2   -1    0    0    0  501 -0.00000000000E+00  0.00000000000E+00  0.11482120384E+04  0.11482120384E+04  0.00000000000E+00 0.  1.
          2   -1    0    0  501    0  0.00000000000E+00 -0.00000000000E+00 -0.25492230308E+04  0.25492230308E+04  0.00000000000E+00 0. -1.
         23    2    1    2    0    0  0.48344377590E+03 -0.84272817873E+03  0.81912883784E+03  0.12740222827E+04  0.90840828414E+02 0.  0.
         13    1    3    3    0    0  0.32578330654E+03 -0.64714458501E+03  0.61382549030E+03  0.94958549339E+03  0.00000000000E+00 0. -1.
        -13    1    3    3    0    0  0.15766046935E+03 -0.19558359373E+03  0.20530334755E+03  0.32443678929E+03  0.00000000000E+00 0.  1.
         22    1    1    2    0    0 -0.48344377590E+03  0.84272817873E+03 -0.22201398303E+04  0.24234127865E+04  0.00000000000E+00 0. -1.
<mgrwt>
<rscale>  0 0.34217239E+04</rscale>
<asrwt>0</asrwt>
<pdfrwt beam="1">  1        2 0.39218816E+00 0.34217239E+04</pdfrwt>
<pdfrwt beam="2">  1       -2 0.17664801E+00 0.34217239E+04</pdfrwt>
<totfact> 0.51553252E-01</totfact>
</mgrwt>
</event>
<event>
 6    1  0.2003386E-005  0.3937001E+04  0.7818608E-02  0.8017377E-01
         -2   -1    0    0    0  501 -0.00000000000E+00  0.00000000000E+00  0.11400788478E+04  0.11400788478E+04  0.00000000000E+00 0.  1.
          2   -1    0    0  501    0  0.00000000000E+00 -0.00000000000E+00 -0.33988820436E+04  0.33988820436E+04  0.00000000000E+00 0. -1.
         23    2    1    2    0    0  0.10843030777E+04 -0.64550211139E+03 -0.28702872399E+04  0.31367130973E+04  0.89633002529E+02 0.  0.
         13    1    3    3    0    0  0.21050125463E+03 -0.93716536910E+02 -0.47189752892E+03  0.52514840311E+03  0.00000000000E+00 0. -1.
        -13    1    3    3    0    0  0.87380182304E+03 -0.55178557448E+03 -0.23983897110E+04  0.26115646942E+04  0.00000000000E+00 0.  1.
         22    1    1    2    0    0 -0.10843030777E+04  0.64550211139E+03  0.61148404406E+03  0.14022477942E+04  0.00000000000E+00 0.  1.
<mgrwt>
<rscale>  0 0.39370006E+04</rscale>
<asrwt>0</asrwt>
<pdfrwt beam="1">  1        2 0.52290493E+00 0.39370006E+04</pdfrwt>
<pdfrwt beam="2">  1       -2 0.17539675E+00 0.39370006E+04</pdfrwt>
<totfact> 0.14761315E-01</totfact>
</mgrwt>
</event>
<event>
 6    1  0.2003386E-005  0.4835787E+04  0.7818608E-02  0.7854350E-01
          2   -1    0    0  501    0  0.00000000000E+00  0.00000000000E+00  0.26192104594E+04  0.26192104594E+04  0.00000000000E+00 0.  1.
         -2   -1    0    0    0  501 -0.00000000000E+00 -0.00000000000E+00 -0.22320500091E+04  0.22320500091E+04  0.00000000000E+00 0. -1.
         23    2    1    2    0    0  0.81268231753E+03  0.73991484709E+02  0.24759820091E+04  0.26086943505E+04  0.94191378299E+02 0.  0.
         13    1    3    3    0    0  0.41756131858E+03  0.43542578782E+02  0.14217002481E+04  0.14823916508E+04  0.00000000000E+00 0. -1.
        -13    1    3    3    0    0  0.39512099895E+03  0.30448905927E+02  0.10542817610E+04  0.11263026997E+04  0.00000000000E+00 0.  1.
         22    1    1    2    0    0 -0.81268231753E+03 -0.73991484709E+02 -0.20888215588E+04  0.22425661180E+04  0.00000000000E+00 0. -1.
<mgrwt>
<rscale>  0 0.48357869E+04</rscale>
<asrwt>0</asrwt>
<pdfrwt beam="1">  1        2 0.40295545E+00 0.48357869E+04</pdfrwt>
<pdfrwt beam="2">  1       -2 0.34339231E+00 0.48357869E+04</pdfrwt>
<totfact> 0.37443049E-02</totfact>
</mgrwt>
</event>
<event>
 6    1  0.2003386E-005  0.2441776E+04  0.7818608E-02  0.8424027E-01
         -1   -1    0    0    0  501 -0.00000000000E+00  0.00000000000E+00  0.17670743518E+04  0.17670743518E+04  0.00000000000E+00 0.  1.
          1   -1    0    0  501    0  0.00000000000E+00 -0.00000000000E+00 -0.84352307909E+03  0.84352307909E+03  0.00000000000E+00 0. -1.
         23    2    1    2    0    0 -0.79825452940E+03 -0.70609911616E+03 -0.17040346788E+03  0.10833373908E+04  0.93788618093E+02 0.  0.
         11    1    3    3    0    0 -0.27473769773E+03 -0.19028081953E+03 -0.34967159869E+02  0.33602127180E+03  0.00000000000E+00 0. -1.
        -11    1    3    3    0    0 -0.52351683167E+03 -0.51581829663E+03 -0.13543630802E+03  0.74731611900E+03  0.00000000000E+00 0.  1.
         22    1    1    2    0    0  0.79825452940E+03  0.70609911616E+03  0.10939547405E+04  0.15272600400E+04  0.00000000000E+00 0.  1.
<mgrwt>
<rscale>  0 0.24417764E+04</rscale>
<asrwt>0</asrwt>
<pdfrwt beam="1">  1        1 0.12977278E+00 0.24417764E+04</pdfrwt>
<pdfrwt beam="2">  1       -1 0.27185759E+00 0.24417764E+04</pdfrwt>
<totfact> 0.91011967E-01</totfact>
</mgrwt>
</event>
<event>
 6    1  0.2003386E-005  0.5612274E+04  0.7818608E-02  0.7740426E-01
          2   -1    0    0  501    0  0.00000000000E+00  0.00000000000E+00  0.20997688646E+04  0.20997688646E+04  0.00000000000E+00 0. -1.
         -2   -1    0    0    0  501 -0.00000000000E+00 -0.00000000000E+00 -0.37501298850E+04  0.37501298850E+04  0.00000000000E+00 0.  1.
         23    2    1    2    0    0 -0.12983136504E+04 -0.10193586626E+04 -0.31898400537E+04  0.35927531823E+04  0.89919089434E+02 0.  0.
         13    1    3    3    0    0 -0.99557190546E+03 -0.78344203697E+03 -0.25281750608E+04  0.28278284924E+04  0.00000000000E+00 0.  1.
        -13    1    3    3    0    0 -0.30274174491E+03 -0.23591662559E+03 -0.66166499296E+03  0.76492468992E+03  0.00000000000E+00 0. -1.
         22    1    1    2    0    0  0.12983136504E+04  0.10193586626E+04  0.15394790334E+04  0.22571455673E+04  0.00000000000E+00 0. -1.
<mgrwt>
<rscale>  0 0.56122744E+04</rscale>
<asrwt>0</asrwt>
<pdfrwt beam="1">  1        2 0.32304137E+00 0.56122744E+04</pdfrwt>
<pdfrwt beam="2">  1       -2 0.57694306E+00 0.56122744E+04</pdfrwt>
<totfact> 0.26284521E-03</totfact>
</mgrwt>
</event>
<event>
 6    1  0.2003386E-005  0.2871622E+04  0.7818608E-02  0.8281371E-01
          2   -1    0    0  501    0  0.00000000000E+00  0.00000000000E+00  0.11002349966E+04  0.11002349966E+04  0.00000000000E+00 0. -1.
         -2   -1    0    0    0  501 -0.00000000000E+00 -0.00000000000E+00 -0.18737392652E+04  0.18737392652E+04  0.00000000000E+00 0.  1.
         23    2    1    2    0    0  0.41367087107E+03  0.13042655165E+04 -0.83267661153E+03  0.16044000603E+04  0.92288065360E+02 0.  0.
         11    1    3    3    0    0  0.92762607562E+02  0.22642929931E+03 -0.11546094720E+03  0.27056673719E+03  0.00000000000E+00 0. -1.
        -11    1    3    3    0    0  0.32090826351E+03  0.10778362172E+04 -0.71721566433E+03  0.13338333231E+04  0.00000000000E+00 0.  1.
         22    1    1    2    0    0 -0.41367087107E+03 -0.13042655165E+04  0.59172342898E+02  0.13695742015E+04  0.00000000000E+00 0. -1.
<mgrwt>
<rscale>  0 0.28716222E+04</rscale>
<asrwt>0</asrwt>
<pdfrwt beam="1">  1        2 0.16926692E+00 0.28716222E+04</pdfrwt>
<pdfrwt beam="2">  1       -2 0.28826758E+00 0.28716222E+04</pdfrwt>
<totfact> 0.70634541E-01</totfact>
</mgrwt>
</event>
<event>
 6    1  0.2003386E-005  0.1122987E+04  0.7818608E-02  0.9183073E-01
          2   -1    0    0  501    0  0.00000000000E+00  0.00000000000E+00  0.14837289295E+04  0.14837289295E+04  0.00000000000E+00 0.  1.
         -2   -1    0    0    0  501 -0.00000000000E+00 -0.00000000000E+00 -0.21248811072E+03  0.21248811072E+03  0.00000000000E+00 0. -1.
         23    2    1    2    0    0 -0.33684584310E+03 -0.26200687454E+03  0.11824118821E+04  0.12603233556E+04  0.90578018056E+02 0.  0.
         11    1    3    3    0    0 -0.21142994716E+03 -0.10731560020E+03  0.64033869563E+03  0.68282714191E+03  0.00000000000E+00 0. -1.
        -11    1    3    3    0    0 -0.12541589594E+03 -0.15469127434E+03  0.54207318648E+03  0.57749621367E+03  0.00000000000E+00 0.  1.
         22    1    1    2    0    0  0.33684584310E+03  0.26200687454E+03  0.88828936679E+02  0.43589368464E+03  0.00000000000E+00 0. -1.
<mgrwt>
<rscale>  0 0.11229867E+04</rscale>
<asrwt>0</asrwt>
<pdfrwt beam="1">  1        2 0.22826598E+00 0.11229867E+04</pdfrwt>
<pdfrwt beam="2">  1       -2 0.32690480E-01 0.11229867E+04</pdfrwt>
<totfact> 0.11207663E+02</totfact>
</mgrwt>
</event>
<event>
 6    1  0.2003386E-005  0.9505070E+03  0.7818608E-02  0.9364558E-01
          2   -1    0    0  501    0  0.00000000000E+00  0.00000000000E+00  0.14503943441E+04  0.14503943441E+04  0.00000000000E+00 0. -1.
         -2   -1    0    0    0  501 -0.00000000000E+00 -0.00000000000E+00 -0.15572723502E+03  0.15572723502E+03  0.00000000000E+00 0.  1.
         23    2    1    2    0    0  0.33624266013E+03  0.22737794566E+03  0.24962944247E+03  0.48502230551E+03  0.90398681569E+02 0.  0.
         11    1    3    3    0    0  0.10419641904E+03  0.30179369476E+02  0.41375998720E+02  0.11610194380E+03  0.00000000000E+00 0. -1.
        -11    1    3    3    0    0  0.23204624108E+03  0.19719857619E+03  0.20825344375E+03  0.36892036171E+03  0.00000000000E+00 0.  1.
         22    1    1    2    0    0 -0.33624266013E+03 -0.22737794566E+03  0.10450376666E+04  0.11210992737E+04  0.00000000000E+00 0. -1.
<mgrwt>
<rscale>  0 0.95050702E+03</rscale>
<asrwt>0</asrwt>
<pdfrwt beam="1">  1        2 0.22313758E+00 0.95050702E+03</pdfrwt>
<pdfrwt beam="2">  1       -2 0.23958037E-01 0.95050702E+03</pdfrwt>
<totfact> 0.20981432E+02</totfact>
</mgrwt>
</event>
<event>
 6    1  0.2003386E-005  0.6494322E+03  0.7818608E-02  0.9807845E-01
          2   -1    0    0  501    0  0.00000000000E+00  0.00000000000E+00  0.44841385077E+03  0.44841385077E+03  0.00000000000E+00 0. -1.
         -2   -1    0    0    0  501 -0.00000000000E+00 -0.00000000000E+00 -0.23514113185E+03  0.23514113185E+03  0.00000000000E+00 0.  1.
         23    2    1    2    0    0  0.28794581242E+03 -0.89909069875E+02  0.17679783792E+01  0.31513852397E+03  0.91174183877E+02 0.  0.
         13    1    3    3    0    0  0.47921336823E+02 -0.39976458826E+01  0.32962754857E+02  0.58300762458E+02  0.00000000000E+00 0. -1.
        -13    1    3    3    0    0  0.24002447560E+03 -0.85911423992E+02 -0.31194776477E+02  0.25683776151E+03  0.00000000000E+00 0.  1.
         22    1    1    2    0    0 -0.28794581242E+03  0.89909069875E+02  0.21150474054E+03  0.36841645866E+03  0.00000000000E+00 0. -1.
<mgrwt>
<rscale>  0 0.64943218E+03</rscale>
<asrwt>0</asrwt>
<pdfrwt beam="1">  1        2 0.68986746E-01 0.64943218E+03</pdfrwt>
<pdfrwt beam="2">  1       -2 0.36175559E-01 0.64943218E+03</pdfrwt>
<totfact> 0.50577816E+02</totfact>
</mgrwt>
</event>
<event>
 6    1  0.2003386E-005  0.5962441E+04  0.7818608E-02  0.7695076E-01
          2   -1    0    0  501    0  0.00000000000E+00  0.00000000000E+00  0.39275720996E+04  0.39275720996E+04  0.00000000000E+00 0. -1.
         -2   -1    0    0    0  501 -0.00000000000E+00 -0.00000000000E+00 -0.22628927674E+04  0.22628927674E+04  0.00000000000E+00 0.  1.
         23    2    1    2    0    0  0.84140664117E+03  0.13175764874E+04  0.34675152531E+04  0.38042146090E+04  0.66436622078E+02 0.  0.
         13    1    3    3    0    0  0.58711424949E+03  0.93850250743E+03  0.25230614633E+04  0.27552366951E+04  0.00000000000E+00 0. -1.
        -13    1    3    3    0    0  0.25429239168E+03  0.37907397994E+03  0.94445378982E+03  0.10489779139E+04  0.00000000000E+00 0.  1.
         22    1    1    2    0    0 -0.84140664117E+03 -0.13175764874E+04 -0.18028359210E+04  0.23862502580E+04  0.00000000000E+00 0.  1.
<mgrwt>
<rscale>  0 0.59624406E+04</rscale>
<asrwt>0</asrwt>
<pdfrwt beam="1">  1        2 0.60424186E+00 0.59624406E+04</pdfrwt>
<pdfrwt beam="2">  1       -2 0.34813735E+00 0.59624406E+04</pdfrwt>
<totfact> 0.41994344E-03</totfact>
</mgrwt>
</event>
<event>
 6    1  0.2003386E-005  0.3463339E+04  0.7818608E-02  0.8122533E-01
          2   -1    0    0  501    0  0.00000000000E+00  0.00000000000E+00  0.19451227230E+04  0.19451227230E+04  0.00000000000E+00 0. -1.
         -2   -1    0    0    0  501 -0.00000000000E+00 -0.00000000000E+00 -0.15416400792E+04  0.15416400792E+04  0.00000000000E+00 0.  1.
         23    2    1    2    0    0 -0.52519177895E+02 -0.17255233317E+04  0.81817038322E+02  0.17307281232E+04  0.92394678073E+02 0.  0.
         11    1    3    3    0    0 -0.63576816043E+02 -0.14156679929E+04  0.96074483383E+02  0.14203479095E+04  0.00000000000E+00 0.  1.
        -11    1    3    3    0    0  0.11057638149E+02 -0.30985533878E+03 -0.14257445061E+02  0.31038021372E+03  0.00000000000E+00 0. -1.
         22    1    1    2    0    0  0.52519177895E+02  0.17255233317E+04  0.32166560549E+03  0.17560346790E+04  0.00000000000E+00 0.  1.
<mgrwt>
<rscale>  0 0.34633389E+04</rscale>
<asrwt>0</asrwt>
<pdfrwt beam="1">  1        2 0.29924965E+00 0.34633389E+04</pdfrwt>
<pdfrwt beam="2">  1       -2 0.23717540E+00 0.34633389E+04</pdfrwt>
<totfact> 0.45563996E-01</totfact>
</mgrwt>
</event>
<event>
 6    1  0.2003386E-005  0.3670775E+04  0.7818608E-02  0.8074469E-01
         -2   -1    0    0    0  501 -0.00000000000E+00  0.00000000000E+00  0.23872364782E+04  0.23872364782E+04  0.00000000000E+00 0.  1.
          2   -1    0    0  501    0  0.00000000000E+00 -0.00000000000E+00 -0.14111075221E+04  0.14111075221E+04  0.00000000000E+00 0. -1.
         23    2    1    2    0    0  0.99590069493E+02  0.12240104685E+04 -0.92145340157E+03  0.15380478664E+04  0.91624555190E+02 0.  0.
         13    1    3    3    0    0 -0.13536030097E+02  0.33537040995E+03 -0.25434683519E+03  0.42112806669E+03  0.00000000000E+00 0. -1.
        -13    1    3    3    0    0  0.11312609959E+03  0.88864005851E+03 -0.66710656638E+03  0.11169197997E+04  0.00000000000E+00 0.  1.
         22    1    1    2    0    0 -0.99590069493E+02 -0.12240104685E+04  0.18975823577E+04  0.22602961339E+04  0.00000000000E+00 0.  1.
<mgrwt>
<rscale>  0 0.36707750E+04</rscale>
<asrwt>0</asrwt>
<pdfrwt beam="1">  1        2 0.21709346E+00 0.36707750E+04</pdfrwt>
<pdfrwt beam="2">  1       -2 0.36726715E+00 0.36707750E+04</pdfrwt>
<totfact> 0.13959639E-01</totfact>
</mgrwt>
</event>
<event>
 6    1  0.2003386E-005  0.3764540E+04  0.7818608E-02  0.8053808E-01
         -2   -1    0    0    0  501 -0.00000000000E+00  0.00000000000E+00  0.11416994015E+04  0.11416994015E+04  0.00000000000E+00 0.  1.
          2   -1    0    0  501    0  0.00000000000E+00 -0.00000000000E+00 -0.31032158930E+04  0.31032158930E+04  0.00000000000E+00 0. -1.
         23    2    1    2    0    0 -0.14335273240E+04  0.75862328116E+03  0.93319990099E+02  0.16271179690E+04  0.91073559806E+02 0.  0.
         13    1    3    3    0    0 -0.37462089227E+03  0.15403903114E+03  0.18365109730E+02  0.40547023725E+03  0.00000000000E+00 0.  1.
        -13    1    3    3    0    0 -0.10589064317E+04  0.60458425002E+03  0.74954880369E+02  0.12216477318E+04  0.00000000000E+00 0. -1.
         22    1    1    2    0    0  0.14335273240E+04 -0.75862328116E+03 -0.20548364816E+04  0.26177973255E+04  0.00000000000E+00 0. -1.
<mgrwt>
<rscale>  0 0.37645397E+04</rscale>
<asrwt>0</asrwt>
<pdfrwt beam="1">  1        2 0.47741782E+00 0.37645397E+04</pdfrwt>
<pdfrwt beam="2">  1       -2 0.17564606E+00 0.37645397E+04</pdfrwt>
<totfact> 0.23398275E-01</totfact>
</mgrwt>
</event>
<event>
 6    1  0.2003386E-005  0.1188481E+04  0.7818608E-02  0.9123000E-01
         -2   -1    0    0    0  501 -0.00000000000E+00  0.00000000000E+00  0.95203678788E+03  0.95203678788E+03  0.00000000000E+00 0.  1.
          2   -1    0    0  501    0  0.00000000000E+00 -0.00000000000E+00 -0.37091162391E+03  0.37091162391E+03  0.00000000000E+00 0. -1.
         23    2    1    2    0    0 -0.18959537429E+03 -0.17045639246E+03 -0.30070244731E+03  0.40500411953E+03  0.92760914947E+02 0.  0.
         11    1    3    3    0    0 -0.14007146244E+03 -0.99937536426E+02 -0.13677090268E+03  0.21980401633E+03  0.00000000000E+00 0. -1.
        -11    1    3    3    0    0 -0.49523911844E+02 -0.70518856038E+02 -0.16393154463E+03  0.18520010320E+03  0.00000000000E+00 0.  1.
         22    1    1    2    0    0  0.18959537429E+03  0.17045639246E+03  0.88182761128E+03  0.91794429226E+03  0.00000000000E+00 0.  1.
<mgrwt>
<rscale>  0 0.11884806E+04</rscale>
<asrwt>0</asrwt>
<pdfrwt beam="1">  1        2 0.57063327E-01 0.11884806E+04</pdfrwt>
<pdfrwt beam="2">  1       -2 0.14646720E+00 0.11884806E+04</pdfrwt>
<totfact> 0.27254571E+01</totfact>
</mgrwt>
</event>
<event>
 6    1  0.2003386E-005  0.2990159E+04  0.7818608E-02  0.8246546E-01
          2   -1    0    0  501    0  0.00000000000E+00  0.00000000000E+00  0.27470202508E+04  0.27470202508E+04  0.00000000000E+00 0. -1.
         -2   -1    0    0    0  501 -0.00000000000E+00 -0.00000000000E+00 -0.81370475661E+03  0.81370475661E+03  0.00000000000E+00 0.  1.
         23    2    1    2    0    0  0.85316658922E+03 -0.97661540029E+03  0.84935559996E+02  0.13028102061E+04  0.91812388202E+02 0.  0.
         13    1    3    3    0    0  0.34249120891E+03 -0.40179106469E+03 -0.10132141910E+02  0.52805203167E+03  0.00000000000E+00 0.  1.
        -13    1    3    3    0    0  0.51067538030E+03 -0.57482433560E+03  0.95067701907E+02  0.77475817439E+03  0.00000000000E+00 0. -1.
         22    1    1    2    0    0 -0.85316658922E+03  0.97661540029E+03  0.18483799342E+04  0.22579148014E+04  0.00000000000E+00 0.  1.
<mgrwt>
<rscale>  0 0.29901595E+04</rscale>
<asrwt>0</asrwt>
<pdfrwt beam="1">  1        2 0.42261850E+00 0.29901595E+04</pdfrwt>
<pdfrwt beam="2">  1       -2 0.12518535E+00 0.29901595E+04</pdfrwt>
<totfact> 0.10181833E+00</totfact>
</mgrwt>
</event>
<event>
 6    1  0.2003386E-005  0.1941979E+04  0.7818608E-02  0.8634239E-01
         -2   -1    0    0    0  501 -0.00000000000E+00  0.00000000000E+00  0.10413506140E+04  0.10413506140E+04  0.00000000000E+00 0.  1.
          2   -1    0    0  501    0  0.00000000000E+00 -0.00000000000E+00 -0.90538204603E+03  0.90538204603E+03  0.00000000000E+00 0. -1.
         23    2    1    2    0    0 -0.39286136554E+03  0.35207862997E+03  0.88268401570E+03  0.10324660829E+04  0.92497171083E+02 0.  0.
         11    1    3    3    0    0 -0.21325537191E+03  0.23014589375E+03  0.45286698934E+03  0.55093874078E+03  0.00000000000E+00 0. -1.
        -11    1    3    3    0    0 -0.17960599363E+03  0.12193273622E+03  0.42981702636E+03  0.48152734217E+03  0.00000000000E+00 0.  1.
         22    1    1    2    0    0  0.39286136554E+03 -0.35207862997E+03 -0.74671544769E+03  0.91426657712E+03  0.00000000000E+00 0. -1.
<mgrwt>
<rscale>  0 0.19419785E+04</rscale>
<asrwt>0</asrwt>
<pdfrwt beam="1">  1        2 0.13928955E+00 0.19419785E+04</pdfrwt>
<pdfrwt beam="2">  1       -2 0.16020779E+00 0.19419785E+04</pdfrwt>
<totfact> 0.68104353E+00</totfact>
</mgrwt>
</event>
<event>
 6    1  0.2003386E-005  0.1484284E+04  0.7818608E-02  0.8894972E-01
          2   -1    0    0  501    0  0.00000000000E+00  0.00000000000E+00  0.16727586425E+04  0.16727586425E+04  0.00000000000E+00 0. -1.
         -2   -1    0    0    0  501 -0.00000000000E+00 -0.00000000000E+00 -0.32926133591E+03  0.32926133591E+03  0.00000000000E+00 0.  1.
         23    2    1    2    0    0 -0.23175425822E+03 -0.56327096333E+03  0.12395895209E+04  0.13841356508E+04  0.90912624826E+02 0.  0.
         11    1    3    3    0    0 -0.24676738421E+02 -0.16557361395E+03  0.34489584343E+03  0.38337541114E+03  0.00000000000E+00 0.  1.
        -11    1    3    3    0    0 -0.20707751980E+03 -0.39769734938E+03  0.89469367744E+03  0.10007602397E+04  0.00000000000E+00 0. -1.
         22    1    1    2    0    0  0.23175425822E+03  0.56327096333E+03  0.10390778574E+03  0.61788432758E+03  0.00000000000E+00 0.  1.
<mgrwt>
<rscale>  0 0.14842840E+04</rscale>
<asrwt>0</asrwt>
<pdfrwt beam="1">  1        2 0.25734748E+00 0.14842840E+04</pdfrwt>
<pdfrwt beam="2">  1       -2 0.50655591E-01 0.14842840E+04</pdfrwt>
<totfact> 0.36192983E+01</totfact>
</mgrwt>
</event>
<event>
 6    1  0.2003386E-005  0.2466055E+04  0.7818608E-02  0.8415179E-01
          2   -1    0    0  501    0  0.00000000000E+00  0.00000000000E+00  0.16953929235E+04  0.16953929235E+04  0.00000000000E+00 0. -1.
         -2   -1    0    0    0  501 -0.00000000000E+00 -0.00000000000E+00 -0.89675791420E+03  0.89675791420E+03  0.00000000000E+00 0.  1.
         23    2    1    2    0    0  0.11553512968E+02 -0.11613180435E+04 -0.30410435594E+02  0.11652277734E+04  0.89654266397E+02 0.  0.
         13    1    3    3    0    0  0.26805100831E+02 -0.16615636961E+03  0.14564012422E+02  0.16893360545E+03  0.00000000000E+00 0. -1.
        -13    1    3    3    0    0 -0.15251587863E+02 -0.99516167387E+03 -0.44974448016E+02  0.99629416793E+03  0.00000000000E+00 0.  1.
         22    1    1    2    0    0 -0.11553512968E+02  0.11613180435E+04  0.82904544489E+03  0.14269230643E+04  0.00000000000E+00 0. -1.
<mgrwt>
<rscale>  0 0.24660552E+04</rscale>
<asrwt>0</asrwt>
<pdfrwt beam="1">  1        2 0.26082968E+00 0.24660552E+04</pdfrwt>
<pdfrwt beam="2">  1       -2 0.13796276E+00 0.24660552E+04</pdfrwt>
<totfact> 0.32922480E+00</totfact>
</mgrwt>
</event>
<event>
 6    1  0.6078914E-005  0.4035514E+04  0.7818608E-02  0.7997420E-01
          2   -1    0    0  501    0  0.00000000000E+00  0.00000000000E+00  0.17042820521E+04  0.17042820521E+04  0.00000000000E+00 0. -1.
         -2   -1    0    0    0  501 -0.00000000000E+00 -0.00000000000E+00 -0.23888907285E+04  0.23888907285E+04  0.00000000000E+00 0.  1.
         23    2    1    2    0    0  0.10078536151E+04  0.11688928209E+03  0.14253733030E+04  0.17519218400E+04  0.90050356229E+02 0.  0.
         13    1    3    3    0    0  0.61354715127E+03  0.49245996317E+02  0.79721109814E+03  0.10071796314E+04  0.00000000000E+00 0. -1.
        -13    1    3    3    0    0  0.39430646383E+03  0.67643285773E+02  0.62816220486E+03  0.74474220852E+03  0.00000000000E+00 0.  1.
         22    1    1    2    0    0 -0.10078536151E+04 -0.11688928209E+03 -0.21099819794E+04  0.23412509407E+04  0.00000000000E+00 0.  1.
<mgrwt>
<rscale>  0 0.40355141E+04</rscale>
<asrwt>0</asrwt>
<pdfrwt beam="1">  1        2 0.26219724E+00 0.40355141E+04</pdfrwt>
<pdfrwt beam="2">  1       -2 0.36752165E+00 0.40355141E+04</pdfrwt>
<totfact> 0.92354338E-02</totfact>
</mgrwt>
</event>
<event>
 6    1  0.2003386E-005  0.3841201E+04  0.7818608E-02  0.8037371E-01
         -1   -1    0    0    0  501 -0.00000000000E+00  0.00000000000E+00  0.13788842327E+04  0.13788842327E+04  0.00000000000E+00 0.  1.
          1   -1    0    0  501    0  0.00000000000E+00 -0.00000000000E+00 -0.26751381109E+04  0.26751381109E+04  0.00000000000E+00 0. -1.
         23    2    1    2    0    0 -0.12602455793E+04 -0.83008221414E+03 -0.19005256065E+04  0.24284763665E+04  0.90799115610E+02 0.  0.
         11    1    3    3    0    0 -0.63965300218E+03 -0.38698479010E+03 -0.99742232874E+03  0.12465008996E+04  0.00000000000E+00 0. -1.
        -11    1    3    3    0    0 -0.62059257710E+03 -0.44309742404E+03 -0.90310327772E+03  0.11819754668E+04  0.00000000000E+00 0.  1.
         22    1    1    2    0    0  0.12602455793E+04  0.83008221414E+03  0.60427172818E+03  0.16255459771E+04  0.00000000000E+00 0.  1.
<mgrwt>
<rscale>  0 0.38412007E+04</rscale>
<asrwt>0</asrwt>
<pdfrwt beam="1">  1        1 0.41155971E+00 0.38412007E+04</pdfrwt>
<pdfrwt beam="2">  1       -1 0.21213604E+00 0.38412007E+04</pdfrwt>
<totfact> 0.10072882E-01</totfact>
</mgrwt>
</event>
<event>
 6    1  0.2003386E-005  0.5181218E+03  0.7818608E-02  0.1009154E+00
          2   -1    0    0  501    0  0.00000000000E+00  0.00000000000E+00  0.52966273280E+03  0.52966273280E+03  0.00000000000E+00 0. -1.
         -2   -1    0    0    0  501 -0.00000000000E+00 -0.00000000000E+00 -0.12670806670E+03  0.12670806670E+03  0.00000000000E+00 0.  1.
         23    2    1    2    0    0 -0.96340077204E+02 -0.22600372059E+03  0.27204726402E+03  0.37799005283E+03  0.92237053205E+02 0.  0.
         11    1    3    3    0    0 -0.35434665573E+02 -0.14744474828E+03  0.21587461193E+03  0.26381322445E+03  0.00000000000E+00 0. -1.
        -11    1    3    3    0    0 -0.60905411631E+02 -0.78558972311E+02  0.56172652089E+02  0.11417682838E+03  0.00000000000E+00 0.  1.
         22    1    1    2    0    0  0.96340077204E+02  0.22600372059E+03  0.13090740208E+03  0.27838074667E+03  0.00000000000E+00 0.  1.
<mgrwt>
<rscale>  0 0.51812177E+03</rscale>
<asrwt>0</asrwt>
<pdfrwt beam="1">  1        2 0.81486573E-01 0.51812177E+03</pdfrwt>
<pdfrwt beam="2">  1       -2 0.19493549E-01 0.51812177E+03</pdfrwt>
<totfact> 0.12857356E+03</totfact>
</mgrwt>
</event>
<event>
 6    1  0.2003386E-005  0.4914753E+04  0.7818608E-02  0.7841793E-01
          2   -1    0    0  501    0  0.00000000000E+00  0.00000000000E+00  0.49791008168E+04  0.49791008168E+04  0.00000000000E+00 0. -1.
         -2   -1    0    0    0  501 -0.00000000000E+00 -0.00000000000E+00 -0.12128094311E+04  0.12128094311E+04  0.00000000000E+00 0.  1.
         23    2    1    2    0    0 -0.76467691617E+03 -0.64716601405E+03  0.47096326588E+04  0.48158843058E+04  0.92451232071E+02 0.  0.
         11    1    3    3    0    0 -0.45185923339E+03 -0.41990951212E+03  0.30584922288E+04  0.31200761976E+04  0.00000000000E+00 0. -1.
        -11    1    3    3    0    0 -0.31281768278E+03 -0.22725650193E+03  0.16511404300E+04  0.16958081082E+04  0.00000000000E+00 0.  1.
         22    1    1    2    0    0  0.76467691617E+03  0.64716601405E+03 -0.94334127307E+03  0.13760259421E+04  0.00000000000E+00 0.  1.
<mgrwt>
<rscale>  0 0.49147535E+04</rscale>
<asrwt>0</asrwt>
<pdfrwt beam="1">  1        2 0.76601550E+00 0.49147535E+04</pdfrwt>
<pdfrwt beam="2">  1       -2 0.18658607E+00 0.49147535E+04</pdfrwt>
<totfact> 0.42973625E-03</totfact>
</mgrwt>
</event>
<event>
 6    1  0.2003386E-005  0.2121902E+04  0.7818608E-02  0.8551656E-01
         -2   -1    0    0    0  501 -0.00000000000E+00  0.00000000000E+00  0.95147373243E+03  0.95147373243E+03  0.00000000000E+00 0.  1.
          2   -1    0    0  501    0  0.00000000000E+00 -0.00000000000E+00 -0.11830248638E+04  0.11830248638E+04  0.00000000000E+00 0. -1.
         23    2    1    2    0    0 -0.85349691038E+03 -0.20030393418E+03  0.48173876932E+03  0.10042945773E+04  0.89200414822E+02 0.  0.
         11    1    3    3    0    0 -0.41757781320E+03 -0.64122342304E+02  0.26569625305E+03  0.49907655099E+03  0.00000000000E+00 0. -1.
        -11    1    3    3    0    0 -0.43591909718E+03 -0.13618159187E+03  0.21604251627E+03  0.50521802629E+03  0.00000000000E+00 0.  1.
         22    1    1    2    0    0  0.85349691038E+03  0.20030393418E+03 -0.71328990073E+03  0.11302040190E+04  0.00000000000E+00 0. -1.
<mgrwt>
<rscale>  0 0.21219021E+04</rscale>
<asrwt>0</asrwt>
<pdfrwt beam="1">  1        2 0.18200382E+00 0.21219021E+04</pdfrwt>
<pdfrwt beam="2">  1       -2 0.14638057E+00 0.21219021E+04</pdfrwt>
<totfact> 0.57013806E+00</totfact>
</mgrwt>
</event>
<event>
 6    1  0.2003386E-005  0.1909449E+04  0.7818608E-02  0.8650167E-01
          2   -1    0    0  501    0  0.00000000000E+00  0.00000000000E+00  0.29984436351E+04  0.29984436351E+04  0.00000000000E+00 0. -1.
         -2   -1    0    0    0  501 -0.00000000000E+00 -0.00000000000E+00 -0.30399063075E+03  0.30399063075E+03  0.00000000000E+00 0.  1.
         23    2    1    2    0    0 -0.39481142238E+03 -0.63433774835E+01  0.28495867971E+04  0.28781904783E+04  0.88989984909E+02 0.  0.
         13    1    3    3    0    0 -0.18365300469E+03  0.74808338239E+01  0.16359851974E+04  0.16462782132E+04  0.00000000000E+00 0. -1.
        -13    1    3    3    0    0 -0.21115841769E+03 -0.13824211307E+02  0.12136015996E+04  0.12319122651E+04  0.00000000000E+00 0.  1.
         22    1    1    2    0    0  0.39481142238E+03  0.63433774835E+01 -0.15513379270E+03  0.42424378760E+03  0.00000000000E+00 0.  1.
<mgrwt>
<rscale>  0 0.19094489E+04</rscale>
<asrwt>0</asrwt>
<pdfrwt beam="1">  1        2 0.46129900E+00 0.19094489E+04</pdfrwt>
<pdfrwt beam="2">  1       -2 0.46767791E-01 0.19094489E+04</pdfrwt>
<totfact> 0.70994260E+00</totfact>
</mgrwt>
</event>
<event>
 6    1  0.2003386E-005  0.4290393E+04  0.7818608E-02  0.7948397E-01
         -2   -1    0    0    0  501 -0.00000000000E+00  0.00000000000E+00  0.19627253582E+04  0.19627253582E+04  0.00000000000E+00 0. -1.
          2   -1    0    0  501    0  0.00000000000E+00 -0.00000000000E+00 -0.23446315467E+04  0.23446315467E+04  0.00000000000E+00 0.  1.
         23    2    1    2    0    0 -0.17797494858E+03  0.38579313305E+03 -0.23010621156E+04  0.23417346379E+04  0.91229550199E+02 0.  0.
         11    1    3    3    0    0 -0.23291932133E+02  0.86565057908E+01 -0.87802273125E+02  0.91250689646E+02  0.00000000000E+00 0. -1.
        -11    1    3    3    0    0 -0.15468301645E+03  0.37713662726E+03 -0.22132598425E+04  0.22504839483E+04  0.00000000000E+00 0.  1.
         22    1    1    2    0    0  0.17797494858E+03 -0.38579313305E+03  0.19191559271E+04  0.19656222669E+04  0.00000000000E+00 0. -1.
<mgrwt>
<rscale>  0 0.42903929E+04</rscale>
<asrwt>0</asrwt>
<pdfrwt beam="1">  1        2 0.36071255E+00 0.42903929E+04</pdfrwt>
<pdfrwt beam="2">  1       -2 0.30195775E+00 0.42903929E+04</pdfrwt>
<totfact> 0.10188828E-01</totfact>
</mgrwt>
</event>
<event>
 6    1  0.2003386E-005  0.1649637E+04  0.7818608E-02  0.8790621E-01
          1   -1    0    0  501    0  0.00000000000E+00  0.00000000000E+00  0.91735676089E+03  0.91735676089E+03  0.00000000000E+00 0. -1.
         -1   -1    0    0    0  501 -0.00000000000E+00 -0.00000000000E+00 -0.74161500070E+03  0.74161500070E+03  0.00000000000E+00 0.  1.
         23    2    1    2    0    0  0.40318641605E+03 -0.14639050415E+03  0.79330653113E+03  0.90705706424E+03  0.97096857089E+02 0.  0.
         11    1    3    3    0    0  0.10887037401E+03 -0.41855144362E+02  0.31405799218E+03  0.33501796056E+03  0.00000000000E+00 0. -1.
        -11    1    3    3    0    0  0.29431604204E+03 -0.10453535978E+03  0.47924853895E+03  0.57203910367E+03  0.00000000000E+00 0.  1.
         22    1    1    2    0    0 -0.40318641605E+03  0.14639050415E+03 -0.61756477094E+03  0.75191469735E+03  0.00000000000E+00 0.  1.
<mgrwt>
<rscale>  0 0.16496370E+04</rscale>
<asrwt>0</asrwt>
<pdfrwt beam="1">  1        1 0.14113181E+00 0.16496370E+04</pdfrwt>
<pdfrwt beam="2">  1       -1 0.11409462E+00 0.16496370E+04</pdfrwt>
<totfact> 0.11776128E+01</totfact>
</mgrwt>
</event>
<event>
 6    1  0.2003386E-005  0.2890084E+04  0.7818608E-02  0.8275834E-01
         -2   -1    0    0    0  501 -0.00000000000E+00  0.00000000000E+00  0.69173095489E+03  0.69173095489E+03  0.00000000000E+00 0.  1.
          2   -1    0    0  501    0  0.00000000000E+00 -0.00000000000E+00 -0.30187254358E+04  0.30187254358E+04  0.00000000000E+00 0. -1.
         23    2    1    2    0    0 -0.50560539166E+03 -0.82716591342E+03  0.20876247831E+03  0.99569975028E+03  0.89420131772E+02 0.  0.
         13    1    3    3    0    0 -0.40231464352E+03 -0.59248212809E+03  0.13378685245E+03  0.72855409297E+03  0.00000000000E+00 0.  1.
        -13    1    3    3    0    0 -0.10329074814E+03 -0.23468378533E+03  0.74975625857E+02  0.26714565731E+03  0.00000000000E+00 0. -1.
         22    1    1    2    0    0  0.50560539166E+03  0.82716591342E+03 -0.25357569592E+04  0.27147566404E+04  0.00000000000E+00 0. -1.
<mgrwt>
<rscale>  0 0.28900836E+04</rscale>
<asrwt>0</asrwt>
<pdfrwt beam="1">  1        2 0.46441930E+00 0.28900836E+04</pdfrwt>
<pdfrwt beam="2">  1       -2 0.10642015E+00 0.28900836E+04</pdfrwt>
<totfact> 0.10412089E+00</totfact>
</mgrwt>
</event>
<event>
 6    1  0.2003386E-005  0.2532808E+04  0.7818608E-02  0.8391390E-01
          2   -1    0    0  501    0  0.00000000000E+00  0.00000000000E+00  0.13136404540E+04  0.13136404540E+04  0.00000000000E+00 0. -1.
         -2   -1    0    0    0  501 -0.00000000000E+00 -0.00000000000E+00 -0.12208660160E+04  0.12208660160E+04  0.00000000000E+00 0.  1.
         23    2    1    2    0    0 -0.48347013297E+03 -0.77154362807E+03  0.92486682692E+03  0.13010557481E+04  0.91348085137E+02 0.  0.
         13    1    3    3    0    0 -0.11812408374E+03 -0.12277582957E+03  0.18113443591E+03  0.24867023818E+03  0.00000000000E+00 0.  1.
        -13    1    3    3    0    0 -0.36534604922E+03 -0.64876779851E+03  0.74373239101E+03  0.10523855099E+04  0.00000000000E+00 0. -1.
         22    1    1    2    0    0  0.48347013297E+03  0.77154362807E+03 -0.83209238898E+03  0.12334507219E+04  0.00000000000E+00 0.  1.
<mgrwt>
<rscale>  0 0.25328079E+04</rscale>
<asrwt>0</asrwt>
<pdfrwt beam="1">  1        2 0.20209853E+00 0.25328079E+04</pdfrwt>
<pdfrwt beam="2">  1       -2 0.18782554E+00 0.25328079E+04</pdfrwt>
<totfact> 0.23147180E+00</totfact>
</mgrwt>
</event>
<event>
 6    1  0.2003386E-005  0.8567627E+03  0.7818608E-02  0.9481305E-01
         -1   -1    0    0    0  501 -0.00000000000E+00  0.00000000000E+00  0.46983124506E+03  0.46983124506E+03  0.00000000000E+00 0.  1.
          1   -1    0    0  501    0  0.00000000000E+00 -0.00000000000E+00 -0.39058827377E+03  0.39058827377E+03  0.00000000000E+00 0. -1.
         23    2    1    2    0    0 -0.63226574843E+02 -0.65808498912E+02 -0.37571280292E+03  0.39640107655E+03  0.87437663062E+02 0.  0.
         11    1    3    3    0    0 -0.82516692049E+02 -0.45170111977E+02 -0.32511671635E+03  0.33845268906E+03  0.00000000000E+00 0. -1.
        -11    1    3    3    0    0  0.19290117206E+02 -0.20638386935E+02 -0.50596086568E+02  0.57948387493E+02  0.00000000000E+00 0.  1.
         22    1    1    2    0    0  0.63226574843E+02  0.65808498912E+02  0.45495577420E+03  0.46401844228E+03  0.00000000000E+00 0.  1.
<mgrwt>
<rscale>  0 0.85676269E+03</rscale>
<asrwt>0</asrwt>
<pdfrwt beam="1">  1        1 0.60090504E-01 0.85676269E+03</pdfrwt>
<pdfrwt beam="2">  1       -1 0.72281730E-01 0.85676269E+03</pdfrwt>
<totfact> 0.12082368E+02</totfact>
</mgrwt>
</event>
<event>
 6    1  0.2003386E-005  0.4873165E+04  0.7818608E-02  0.7848376E-01
          2   -1    0    0  501    0  0.00000000000E+00  0.00000000000E+00  0.21398538763E+04  0.21398538763E+04  0.00000000000E+00 0. -1.
         -2   -1    0    0    0  501 -0.00000000000E+00 -0.00000000000E+00 -0.27744580819E+04  0.27744580819E+04  0.00000000000E+00 0.  1.
         23    2    1    2    0    0 -0.35002148698E+03  0.51377595930E+03  0.20575074009E+04  0.21513523712E+04  0.92192964220E+02 0.  0.
         11    1    3    3    0    0 -0.31795457303E+03  0.45906243111E+03  0.17344094458E+04  0.18220893370E+04  0.00000000000E+00 0. -1.
        -11    1    3    3    0    0 -0.32066913950E+02  0.54713528193E+02  0.32309795508E+03  0.32926303424E+03  0.00000000000E+00 0.  1.
         22    1    1    2    0    0  0.35002148698E+03 -0.51377595930E+03 -0.26921116064E+04  0.27629595870E+04  0.00000000000E+00 0.  1.
<mgrwt>
<rscale>  0 0.48731652E+04</rscale>
<asrwt>0</asrwt>
<pdfrwt beam="1">  1        2 0.32920829E+00 0.48731652E+04</pdfrwt>
<pdfrwt beam="2">  1       -2 0.42683970E+00 0.48731652E+04</pdfrwt>
<totfact> 0.20306928E-02</totfact>
</mgrwt>
</event>
<event>
 6    1  0.2003386E-005  0.2247886E+04  0.7818608E-02  0.8498757E-01
          2   -1    0    0  501    0  0.00000000000E+00  0.00000000000E+00  0.24846882075E+04  0.24846882075E+04  0.00000000000E+00 0.  1.
         -2   -1    0    0    0  501 -0.00000000000E+00 -0.00000000000E+00 -0.50841295910E+03  0.50841295910E+03  0.00000000000E+00 0. -1.
         23    2    1    2    0    0  0.88190973811E+03 -0.60136205276E+03  0.14528492150E+04  0.18042462902E+04  0.71643070214E+02 0.  0.
         11    1    3    3    0    0  0.46991362009E+03 -0.33474852666E+03  0.84166238034E+03  0.10204268464E+04  0.00000000000E+00 0. -1.
        -11    1    3    3    0    0  0.41199611802E+03 -0.26661352609E+03  0.61118683461E+03  0.78381944373E+03  0.00000000000E+00 0.  1.
         22    1    1    2    0    0 -0.88190973811E+03  0.60136205276E+03  0.52342603340E+03  0.11888548764E+04  0.00000000000E+00 0. -1.
<mgrwt>
<rscale>  0 0.22478858E+04</rscale>
<asrwt>0</asrwt>
<pdfrwt beam="1">  1        2 0.38225972E+00 0.22478858E+04</pdfrwt>
<pdfrwt beam="2">  1       -2 0.78217380E-01 0.22478858E+04</pdfrwt>
<totfact> 0.47037476E+00</totfact>
</mgrwt>
</event>
<event>
 6    1  0.2003386E-005  0.1915598E+04  0.7818608E-02  0.8647131E-01
          2   -1    0    0  501    0  0.00000000000E+00  0.00000000000E+00  0.28978625265E+04  0.28978625265E+04  0.00000000000E+00 0.  1.
         -2   -1    0    0    0  501 -0.00000000000E+00 -0.00000000000E+00 -0.31657098384E+03  0.31657098384E+03  0.00000000000E+00 0. -1.
         23    2    1    2    0    0  0.39400418939E+03 -0.28191773376E+03 -0.88165423950E+02  0.50136930055E+03  0.94239713992E+02 0.  0.
         11    1    3    3    0    0  0.29294029830E+03 -0.24140272927E+03 -0.38006314270E+02  0.38148889367E+03  0.00000000000E+00 0. -1.
        -11    1    3    3    0    0  0.10106389109E+03 -0.40515004482E+02 -0.50159109679E+02  0.11988040689E+03  0.00000000000E+00 0.  1.
         22    1    1    2    0    0 -0.39400418939E+03  0.28191773376E+03  0.26694569666E+04  0.27130642098E+04  0.00000000000E+00 0.  1.
<mgrwt>
<rscale>  0 0.19155983E+04</rscale>
<asrwt>0</asrwt>
<pdfrwt beam="1">  1        2 0.44582499E+00 0.19155983E+04</pdfrwt>
<pdfrwt beam="2">  1       -2 0.48703230E-01 0.19155983E+04</pdfrwt>
<totfact> 0.75437155E+00</totfact>
</mgrwt>
</event>
<event>
 6    1  0.2003386E-005  0.1880743E+04  0.7818608E-02  0.8664501E-01
          1   -1    0    0  501    0  0.00000000000E+00  0.00000000000E+00  0.29764096570E+04  0.29764096570E+04  0.00000000000E+00 0. -1.
         -1   -1    0    0    0  501 -0.00000000000E+00 -0.00000000000E+00 -0.29710255675E+03  0.29710255675E+03  0.00000000000E+00 0.  1.
         23    2    1    2    0    0 -0.75666086135E+03  0.21495200556E+03  0.22327853685E+04  0.23690114228E+04  0.90247415751E+02 0.  0.
         11    1    3    3    0    0 -0.80279096268E+02  0.33463748163E+02  0.33603954456E+03  0.34711256279E+03  0.00000000000E+00 0. -1.
        -11    1    3    3    0    0 -0.67638176508E+03  0.18148825740E+03  0.18967458239E+04  0.20218988601E+04  0.00000000000E+00 0.  1.
         22    1    1    2    0    0  0.75666086135E+03 -0.21495200556E+03  0.44652173173E+03  0.90450079088E+03  0.00000000000E+00 0.  1.
<mgrwt>
<rscale>  0 0.18807434E+04</rscale>
<asrwt>0</asrwt>
<pdfrwt beam="1">  1        1 0.45790916E+00 0.18807434E+04</pdfrwt>
<pdfrwt beam="2">  1       -1 0.45708088E-01 0.18807434E+04</pdfrwt>
<totfact> 0.27788745E+00</totfact>
</mgrwt>
</event>
<event>
 6    1  0.2003386E-005  0.5546369E+04  0.7818608E-02  0.7749341E-01
          2   -1    0    0  501    0  0.00000000000E+00  0.00000000000E+00  0.22966480396E+04  0.22966480396E+04  0.00000000000E+00 0. -1.
         -2   -1    0    0    0  501 -0.00000000000E+00 -0.00000000000E+00 -0.33485980354E+04  0.33485980354E+04  0.00000000000E+00 0.  1.
         23    2    1    2    0    0 -0.24160945263E+04 -0.13589151010E+04 -0.48016045937E+03  0.28148562988E+04  0.93267916266E+02 0.  0.
         13    1    3    3    0    0 -0.90052373360E+03 -0.51327086194E+03 -0.22501463003E+03  0.10606703334E+04  0.00000000000E+00 0.  1.
        -13    1    3    3    0    0 -0.15155707927E+04 -0.84564423910E+03 -0.25514582934E+03  0.17541859653E+04  0.00000000000E+00 0. -1.
         22    1    1    2    0    0  0.24160945263E+04  0.13589151010E+04 -0.57178953642E+03  0.28303897763E+04  0.00000000000E+00 0.  1.
<mgrwt>
<rscale>  0 0.55463686E+04</rscale>
<asrwt>0</asrwt>
<pdfrwt beam="1">  1        2 0.35333047E+00 0.55463686E+04</pdfrwt>
<pdfrwt beam="2">  1       -2 0.51516893E+00 0.55463686E+04</pdfrwt>
<totfact> 0.42837637E-03</totfact>
</mgrwt>
</event>
<event>
 6    1  0.2003386E-005  0.9212349E+03  0.7818608E-02  0.9399419E-01
         -2   -1    0    0    0  501 -0.00000000000E+00  0.00000000000E+00  0.46350459446E+03  0.46350459446E+03  0.00000000000E+00 0. -1.
          2   -1    0    0  501    0  0.00000000000E+00 -0.00000000000E+00 -0.45774827780E+03  0.45774827780E+03  0.00000000000E+00 0.  1.
         23    2    1    2    0    0 -0.51007831596E+02 -0.45311134616E+03 -0.14506960988E+02  0.46482950375E+03  0.89130941477E+02 0.  0.
         11    1    3    3    0    0  0.19011546169E+02 -0.82558143277E+02 -0.22422283010E+02  0.87635864145E+02  0.00000000000E+00 0.  1.
        -11    1    3    3    0    0 -0.70019377765E+02 -0.37055320289E+03  0.79153220216E+01  0.37719363960E+03  0.00000000000E+00 0. -1.
         22    1    1    2    0    0  0.51007831596E+02  0.45311134616E+03  0.20263277640E+02  0.45642336852E+03  0.00000000000E+00 0.  1.
<mgrwt>
<rscale>  0 0.92123489E+03</rscale>
<asrwt>0</asrwt>
<pdfrwt beam="1">  1        2 0.70422812E-01 0.92123489E+03</pdfrwt>
<pdfrwt beam="2">  1       -2 0.71308399E-01 0.92123489E+03</pdfrwt>
<totfact> 0.12211273E+02</totfact>
</mgrwt>
</event>
<event>
 6    1  0.2003386E-005  0.2706327E+04  0.7818608E-02  0.8332955E-01
         -2   -1    0    0    0  501 -0.00000000000E+00  0.00000000000E+00  0.21704356681E+04  0.21704356681E+04  0.00000000000E+00 0. -1.
          2   -1    0    0  501    0  0.00000000000E+00 -0.00000000000E+00 -0.84363311866E+03  0.84363311866E+03  0.00000000000E+00 0.  1.
         23    2    1    2    0    0 -0.12275072311E+04 -0.38674152223E+02  0.35467054707E+02  0.12319865630E+04  0.90902623968E+02 0.  0.
         13    1    3    3    0    0 -0.10133192834E+04 -0.18247591728E+02 -0.25906658637E+01  0.10134868802E+04  0.00000000000E+00 0. -1.
        -13    1    3    3    0    0 -0.21418794762E+03 -0.20426560495E+02  0.38057720571E+02  0.21849968278E+03  0.00000000000E+00 0.  1.
         22    1    1    2    0    0  0.12275072311E+04  0.38674152223E+02  0.12913354947E+04  0.17820822238E+04  0.00000000000E+00 0.  1.
<mgrwt>
<rscale>  0 0.27063270E+04</rscale>
<asrwt>0</asrwt>
<pdfrwt beam="1">  1        2 0.12978971E+00 0.27063270E+04</pdfrwt>
<pdfrwt beam="2">  1       -2 0.33391318E+00 0.27063270E+04</pdfrwt>
<totfact> 0.55187902E-01</totfact>
</mgrwt>
</event>
<event>
 6    1  0.2003386E-005  0.4099431E+04  0.7818608E-02  0.7984783E-01
         -2   -1    0    0    0  501 -0.00000000000E+00  0.00000000000E+00  0.18649282735E+04  0.18649282735E+04  0.00000000000E+00 0.  1.
          2   -1    0    0  501    0  0.00000000000E+00 -0.00000000000E+00 -0.22528121562E+04  0.22528121562E+04  0.00000000000E+00 0. -1.
         23    2    1    2    0    0 -0.47655027863E+03  0.19862979445E+04 -0.36375787733E+02  0.20450519260E+04  0.91839478458E+02 0.  0.
         13    1    3    3    0    0 -0.27156730171E+03  0.13131913400E+04 -0.34570992986E+02  0.13414229192E+04  0.00000000000E+00 0.  1.
        -13    1    3    3    0    0 -0.20498297691E+03  0.67310660455E+03 -0.18047947467E+01  0.70362900679E+03  0.00000000000E+00 0. -1.
         22    1    1    2    0    0  0.47655027863E+03 -0.19862979445E+04 -0.35150809496E+03  0.20726885037E+04  0.00000000000E+00 0. -1.
<mgrwt>
<rscale>  0 0.40994307E+04</rscale>
<asrwt>0</asrwt>
<pdfrwt beam="1">  1        2 0.34658648E+00 0.40994307E+04</pdfrwt>
<pdfrwt beam="2">  1       -2 0.28691204E+00 0.40994307E+04</pdfrwt>
<totfact> 0.14419728E-01</totfact>
</mgrwt>
</event>
<event>
 6    1  0.2003386E-005  0.4715403E+04  0.7818608E-02  0.7873974E-01
          2   -1    0    0  501    0  0.00000000000E+00  0.00000000000E+00  0.31606186275E+04  0.31606186275E+04  0.00000000000E+00 0. -1.
         -2   -1    0    0    0  501 -0.00000000000E+00 -0.00000000000E+00 -0.17587555982E+04  0.17587555982E+04  0.00000000000E+00 0.  1.
         23    2    1    2    0    0 -0.40671415702E+03 -0.96629413046E+03  0.29033409159E+04  0.30880969131E+04  0.88392978219E+02 0.  0.
         11    1    3    3    0    0 -0.36425943426E+03 -0.84046664297E+03  0.26106854789E+04  0.27667214864E+04  0.00000000000E+00 0. -1.
        -11    1    3    3    0    0 -0.42454722756E+02 -0.12582748749E+03  0.29265543696E+03  0.32137542668E+03  0.00000000000E+00 0.  1.
         22    1    1    2    0    0  0.40671415702E+03  0.96629413046E+03 -0.15014778865E+04  0.18312773126E+04  0.00000000000E+00 0.  1.
<mgrwt>
<rscale>  0 0.47154027E+04</rscale>
<asrwt>0</asrwt>
<pdfrwt beam="1">  1        2 0.48624902E+00 0.47154027E+04</pdfrwt>
<pdfrwt beam="2">  1       -2 0.27057779E+00 0.47154027E+04</pdfrwt>
<totfact> 0.49199862E-02</totfact>
</mgrwt>
</event>
<event>
 6    1  0.2003386E-005  0.2935172E+04  0.7818608E-02  0.8262489E-01
          1   -1    0    0  501    0  0.00000000000E+00  0.00000000000E+00  0.11186857855E+04  0.11186857855E+04  0.00000000000E+00 0. -1.
         -1   -1    0    0    0  501 -0.00000000000E+00 -0.00000000000E+00 -0.19253023190E+04  0.19253023190E+04  0.00000000000E+00 0.  1.
         23    2    1    2    0    0 -0.30491804210E+03  0.11710485040E+04  0.45490246584E+03  0.12959149376E+04  0.90164631596E+02 0.  0.
         11    1    3    3    0    0 -0.90503707280E+02  0.38433827846E+03  0.19289375804E+03  0.43944833053E+03  0.00000000000E+00 0. -1.
        -11    1    3    3    0    0 -0.21441433482E+03  0.78671022558E+03  0.26200870780E+03  0.85646660704E+03  0.00000000000E+00 0.  1.
         22    1    1    2    0    0  0.30491804210E+03 -0.11710485040E+04 -0.12615189993E+04  0.17480731669E+04  0.00000000000E+00 0.  1.
<mgrwt>
<rscale>  0 0.29351718E+04</rscale>
<asrwt>0</asrwt>
<pdfrwt beam="1">  1        1 0.17210551E+00 0.29351718E+04</pdfrwt>
<pdfrwt beam="2">  1       -1 0.29620035E+00 0.29351718E+04</pdfrwt>
<totfact> 0.36713371E-01</totfact>
</mgrwt>
</event>
<event>
 6    1  0.2171592E-005  0.4121299E+04  0.7818608E-02  0.7980514E-01
          1   -1    0    0  501    0  0.00000000000E+00  0.00000000000E+00  0.25805613254E+04  0.25805613254E+04  0.00000000000E+00 0. -1.
         -1   -1    0    0    0  501 -0.00000000000E+00 -0.00000000000E+00 -0.16454854301E+04  0.16454854301E+04  0.00000000000E+00 0.  1.
         23    2    1    2    0    0  0.69313291804E+02 -0.10454330165E+04 -0.13503886211E+04  0.17118704331E+04  0.96002225495E+02 0.  0.
         11    1    3    3    0    0  0.62848994910E+02 -0.38034110071E+03 -0.53997655558E+03  0.66346366112E+03  0.00000000000E+00 0. -1.
        -11    1    3    3    0    0  0.64642968940E+01 -0.66509191580E+03 -0.81041206554E+03  0.10484067720E+04  0.00000000000E+00 0.  1.
         22    1    1    2    0    0 -0.69313291804E+02  0.10454330165E+04  0.22854645164E+04  0.25141763224E+04  0.00000000000E+00 0. -1.
<mgrwt>
<rscale>  0 0.41212989E+04</rscale>
<asrwt>0</asrwt>
<pdfrwt beam="1">  1        1 0.39700943E+00 0.41212989E+04</pdfrwt>
<pdfrwt beam="2">  1       -1 0.25315161E+00 0.41212989E+04</pdfrwt>
<totfact> 0.61344563E-02</totfact>
</mgrwt>
</event>
<event>
 6    1  0.2003386E-005  0.1130313E+04  0.7818608E-02  0.9176141E-01
          2   -1    0    0  501    0  0.00000000000E+00  0.00000000000E+00  0.48644611922E+03  0.48644611922E+03  0.00000000000E+00 0. -1.
         -2   -1    0    0    0  501 -0.00000000000E+00 -0.00000000000E+00 -0.65660231178E+03  0.65660231178E+03  0.00000000000E+00 0.  1.
         23    2    1    2    0    0  0.48203740702E+03  0.92841673420E+02  0.19146887905E+03  0.53333347258E+03  0.82490140229E+02 0.  0.
         11    1    3    3    0    0  0.22435060634E+03  0.41242664061E+02  0.13318930372E+03  0.26414682002E+03  0.00000000000E+00 0. -1.
        -11    1    3    3    0    0  0.25768680069E+03  0.51599009359E+02  0.58279575338E+02  0.26918665256E+03  0.00000000000E+00 0.  1.
         22    1    1    2    0    0 -0.48203740702E+03 -0.92841673420E+02 -0.36162507161E+03  0.60971495841E+03  0.00000000000E+00 0.  1.
<mgrwt>
<rscale>  0 0.11303126E+04</rscale>
<asrwt>0</asrwt>
<pdfrwt beam="1">  1        2 0.74837865E-01 0.11303126E+04</pdfrwt>
<pdfrwt beam="2">  1       -2 0.10101574E+00 0.11303126E+04</pdfrwt>
<totfact> 0.50821448E+01</totfact>
</mgrwt>
</event>
<event>
 6    1  0.2003386E-005  0.7259936E+03  0.7818608E-02  0.9673784E-01
         -2   -1    0    0    0  501 -0.00000000000E+00  0.00000000000E+00  0.95057035464E+02  0.95057035464E+02  0.00000000000E+00 0.  1.
          2   -1    0    0  501    0  0.00000000000E+00 -0.00000000000E+00 -0.13861852891E+04  0.13861852891E+04  0.00000000000E+00 0. -1.
         23    2    1    2    0    0 -0.28901504346E+03 -0.14055666337E+03 -0.33999733098E+03  0.47728221431E+03  0.94415338017E+02 0.  0.
         13    1    3    3    0    0 -0.17933593980E+03 -0.40729402712E+02 -0.15755573119E+03  0.24216538146E+03  0.00000000000E+00 0. -1.
        -13    1    3    3    0    0 -0.10967910366E+03 -0.99827260658E+02 -0.18244159979E+03  0.23511683284E+03  0.00000000000E+00 0.  1.
         22    1    1    2    0    0  0.28901504346E+03  0.14055666337E+03 -0.95113092270E+03  0.10039601103E+04  0.00000000000E+00 0. -1.
<mgrwt>
<rscale>  0 0.72599357E+03</rscale>
<asrwt>0</asrwt>
<pdfrwt beam="1">  1        2 0.21325928E+00 0.72599357E+03</pdfrwt>
<pdfrwt beam="2">  1       -2 0.14624159E-01 0.72599357E+03</pdfrwt>
<totfact> 0.54517231E+02</totfact>
</mgrwt>
</event>
<event>
 6    1  0.3046828E-005  0.2880154E+04  0.7818608E-02  0.8278807E-01
          1   -1    0    0  501    0  0.00000000000E+00  0.00000000000E+00  0.22115903694E+04  0.22115903694E+04  0.00000000000E+00 0. -1.
         -1   -1    0    0    0  501 -0.00000000000E+00 -0.00000000000E+00 -0.93770621148E+03  0.93770621148E+03  0.00000000000E+00 0.  1.
         23    2    1    2    0    0 -0.61404442479E+03  0.20429950579E+03  0.20426054215E+04  0.21444477243E+04  0.87351533622E+02 0.  0.
         13    1    3    3    0    0 -0.29649451863E+03  0.12422813768E+03  0.89271108921E+03  0.94882807640E+03  0.00000000000E+00 0. -1.
        -13    1    3    3    0    0 -0.31754990616E+03  0.80071368111E+02  0.11498943323E+04  0.11956196479E+04  0.00000000000E+00 0.  1.
         22    1    1    2    0    0  0.61404442479E+03 -0.20429950579E+03 -0.76872126355E+03  0.10048488567E+04  0.00000000000E+00 0.  1.
<mgrwt>
<rscale>  0 0.28801542E+04</rscale>
<asrwt>0</asrwt>
<pdfrwt beam="1">  1        1 0.34024467E+00 0.28801542E+04</pdfrwt>
<pdfrwt beam="2">  1       -1 0.14426249E+00 0.28801542E+04</pdfrwt>
<totfact> 0.71221039E-01</totfact>
</mgrwt>
</event>
<event>
 6    1  0.2003386E-005  0.5271887E+04  0.7818608E-02  0.7787882E-01
         -2   -1    0    0    0  501 -0.00000000000E+00  0.00000000000E+00  0.22913390601E+04  0.22913390601E+04  0.00000000000E+00 0.  1.
          2   -1    0    0  501    0  0.00000000000E+00 -0.00000000000E+00 -0.30323745296E+04  0.30323745296E+04  0.00000000000E+00 0. -1.
         23    2    1    2    0    0 -0.42201867904E+03  0.18300417393E+04  0.14959684612E+04  0.24028679726E+04  0.93275526343E+02 0.  0.
         13    1    3    3    0    0 -0.26903003859E+02  0.23921117369E+03  0.17327665547E+03  0.29659830843E+03  0.00000000000E+00 0. -1.
        -13    1    3    3    0    0 -0.39511567518E+03  0.15908305656E+04  0.13226918057E+04  0.21062696641E+04  0.00000000000E+00 0.  1.
         22    1    1    2    0    0  0.42201867904E+03 -0.18300417393E+04 -0.22370039308E+04  0.29208456171E+04  0.00000000000E+00 0. -1.
<mgrwt>
<rscale>  0 0.52718870E+04</rscale>
<asrwt>0</asrwt>
<pdfrwt beam="1">  1        2 0.46651916E+00 0.52718870E+04</pdfrwt>
<pdfrwt beam="2">  1       -2 0.35251370E+00 0.52718870E+04</pdfrwt>
<totfact> 0.17749042E-02</totfact>
</mgrwt>
</event>
<event>
 6    1  0.2003386E-005  0.3120738E+04  0.7818608E-02  0.8210069E-01
         -2   -1    0    0    0  501 -0.00000000000E+00  0.00000000000E+00  0.10601958733E+04  0.10601958733E+04  0.00000000000E+00 0.  1.
          2   -1    0    0  501    0  0.00000000000E+00 -0.00000000000E+00 -0.22965111330E+04  0.22965111330E+04  0.00000000000E+00 0. -1.
         23    2    1    2    0    0  0.11678009800E+04 -0.10324728147E+04 -0.58563158094E+03  0.16675804593E+04  0.90005542412E+02 0.  0.
         13    1    3    3    0    0  0.84226134307E+03 -0.68947165719E+03 -0.40847245563E+03  0.11625941180E+04  0.00000000000E+00 0.  1.
        -13    1    3    3    0    0  0.32553963693E+03 -0.34300115748E+03 -0.17715912531E+03  0.50498634132E+03  0.00000000000E+00 0. -1.
         22    1    1    2    0    0 -0.11678009800E+04  0.10324728147E+04 -0.65068367877E+03  0.16891265470E+04  0.00000000000E+00 0. -1.
<mgrwt>
<rscale>  0 0.31207381E+04</rscale>
<asrwt>0</asrwt>
<pdfrwt beam="1">  1        2 0.35330940E+00 0.31207381E+04</pdfrwt>
<pdfrwt beam="2">  1       -2 0.16310706E+00 0.31207381E+04</pdfrwt>
<totfact> 0.92244696E-01</totfact>
</mgrwt>
</event>
<event>
 6    1  0.2003386E-005  0.8291385E+04  0.7818608E-02  0.7457179E-01
          2   -1    0    0  501    0  0.00000000000E+00  0.00000000000E+00  0.42212870034E+04  0.42212870034E+04  0.00000000000E+00 0. -1.
         -2   -1    0    0    0  501 -0.00000000000E+00 -0.00000000000E+00 -0.40714515887E+04  0.40714515887E+04  0.00000000000E+00 0.  1.
         23    2    1    2    0    0 -0.94424652875E+03  0.40133482201E+04 -0.35438267766E+03  0.41390894342E+04  0.88931542113E+02 0.  0.
         13    1    3    3    0    0 -0.37606433060E+03  0.17414640110E+04 -0.12356723492E+03  0.17858863749E+04  0.00000000000E+00 0.  1.
        -13    1    3    3    0    0 -0.56818219815E+03  0.22718842090E+04 -0.23081544274E+03  0.23532030593E+04  0.00000000000E+00 0. -1.
         22    1    1    2    0    0  0.94424652875E+03 -0.40133482201E+04  0.50421809246E+03  0.41536491579E+04  0.00000000000E+00 0.  1.
<mgrwt>
<rscale>  0 0.82913848E+04</rscale>
<asrwt>0</asrwt>
<pdfrwt beam="1">  1        2 0.64942877E+00 0.82913848E+04</pdfrwt>
<pdfrwt beam="2">  1       -2 0.62637717E+00 0.82913848E+04</pdfrwt>
<totfact> 0.52663883E-05</totfact>
</mgrwt>
</event>
<event>
 6    1  0.2003386E-005  0.2660372E+04  0.7818608E-02  0.8347979E-01
          2   -1    0    0  501    0  0.00000000000E+00  0.00000000000E+00  0.18518685675E+04  0.18518685675E+04  0.00000000000E+00 0.  1.
         -2   -1    0    0    0  501 -0.00000000000E+00 -0.00000000000E+00 -0.95546444245E+03  0.95546444245E+03  0.00000000000E+00 0. -1.
         23    2    1    2    0    0 -0.45706161628E+03  0.10568777412E+04 -0.25136599941E+03  0.11815187095E+04  0.83100628336E+02 0.  0.
         13    1    3    3    0    0 -0.28444316296E+03  0.57185567711E+03 -0.11527175576E+03  0.64901032817E+03  0.00000000000E+00 0. -1.
        -13    1    3    3    0    0 -0.17261845332E+03  0.48502206408E+03 -0.13609424365E+03  0.53250838136E+03  0.00000000000E+00 0.  1.
         22    1    1    2    0    0  0.45706161628E+03 -0.10568777412E+04  0.11477701245E+04  0.16258143005E+04  0.00000000000E+00 0.  1.
<mgrwt>
<rscale>  0 0.26603718E+04</rscale>
<asrwt>0</asrwt>
<pdfrwt beam="1">  1        2 0.28490286E+00 0.26603718E+04</pdfrwt>
<pdfrwt beam="2">  1       -2 0.14699453E+00 0.26603718E+04</pdfrwt>
<totfact> 0.22469733E+00</totfact>
</mgrwt>
</event>
<event>
 6    1  0.2003386E-005  0.2736290E+04  0.7818608E-02  0.8323325E-01
         -2   -1    0    0    0  501 -0.00000000000E+00  0.00000000000E+00  0.90884503513E+03  0.90884503513E+03  0.00000000000E+00 0.  1.
          2   -1    0    0  501    0  0.00000000000E+00 -0.00000000000E+00 -0.20595591326E+04  0.20595591326E+04  0.00000000000E+00 0. -1.
         23    2    1    2    0    0 -0.65136483410E+03 -0.24069366326E+03 -0.18529002492E+04  0.19808440541E+04  0.91072754082E+02 0.  0.
         13    1    3    3    0    0 -0.56840510532E+03 -0.18194766672E+03 -0.16311218843E+04  0.17368787864E+04  0.00000000000E+00 0. -1.
        -13    1    3    3    0    0 -0.82959728782E+02 -0.58745996543E+02 -0.22177836489E+03  0.24396526770E+03  0.00000000000E+00 0.  1.
         22    1    1    2    0    0  0.65136483410E+03  0.24069366326E+03  0.70218615165E+03  0.98756011372E+03  0.00000000000E+00 0.  1.
<mgrwt>
<rscale>  0 0.27362895E+04</rscale>
<asrwt>0</asrwt>
<pdfrwt beam="1">  1        2 0.31685525E+00 0.27362895E+04</pdfrwt>
<pdfrwt beam="2">  1       -2 0.13982232E+00 0.27362895E+04</pdfrwt>
<totfact> 0.19510025E+00</totfact>
</mgrwt>
</event>
<event>
 6    1  0.2003386E-005  0.4389523E+04  0.7818608E-02  0.7930269E-01
         -2   -1    0    0    0  501 -0.00000000000E+00  0.00000000000E+00  0.22499529350E+04  0.22499529350E+04  0.00000000000E+00 0.  1.
          2   -1    0    0  501    0  0.00000000000E+00 -0.00000000000E+00 -0.21409239138E+04  0.21409239138E+04  0.00000000000E+00 0. -1.
         23    2    1    2    0    0 -0.15079143475E+04  0.12760776453E+04  0.10090538166E+04  0.22201109773E+04  0.92321775175E+02 0.  0.
         11    1    3    3    0    0 -0.10915733342E+04  0.91104936556E+03  0.68050426526E+03  0.15762707082E+04  0.00000000000E+00 0. -1.
        -11    1    3    3    0    0 -0.41634101334E+03  0.36502827978E+03  0.32854955131E+03  0.64384026908E+03  0.00000000000E+00 0.  1.
         22    1    1    2    0    0  0.15079143475E+04 -0.12760776453E+04 -0.90002479536E+03  0.21707658715E+04  0.00000000000E+00 0. -1.
<mgrwt>
<rscale>  0 0.43895230E+04</rscale>
<asrwt>0</asrwt>
<pdfrwt beam="1">  1        2 0.32937291E+00 0.43895230E+04</pdfrwt>
<pdfrwt beam="2">  1       -2 0.34614661E+00 0.43895230E+04</pdfrwt>
<totfact> 0.70103209E-02</totfact>
</mgrwt>
</event>
<event>
 6    1  0.2003386E-005  0.3152633E+04  0.7818608E-02  0.8201440E-01
         -2   -1    0    0    0  501 -0.00000000000E+00  0.00000000000E+00  0.12718876938E+04  0.12718876938E+04  0.00000000000E+00 0.  1.
          2   -1    0    0  501    0  0.00000000000E+00 -0.00000000000E+00 -0.19536109439E+04  0.19536109439E+04  0.00000000000E+00 0. -1.
         23    2    1    2    0    0 -0.81017945423E+02 -0.10968188040E+04 -0.14946122411E+04  0.18578861531E+04  0.91103294596E+02 0.  0.
         13    1    3    3    0    0 -0.98221837423E+02 -0.77794313156E+03 -0.10498380088E+04  0.13103445692E+04  0.00000000000E+00 0. -1.
        -13    1    3    3    0    0  0.17203892000E+02 -0.31887567244E+03 -0.44477423225E+03  0.54754158385E+03  0.00000000000E+00 0.  1.
         22    1    1    2    0    0  0.81017945423E+02  0.10968188040E+04  0.81288899097E+03  0.13676124846E+04  0.00000000000E+00 0.  1.
<mgrwt>
<rscale>  0 0.31526330E+04</rscale>
<asrwt>0</asrwt>
<pdfrwt beam="1">  1        2 0.30055553E+00 0.31526330E+04</pdfrwt>
<pdfrwt beam="2">  1       -2 0.19567503E+00 0.31526330E+04</pdfrwt>
<totfact> 0.85143922E-01</totfact>
</mgrwt>
</event>
<event>
 6    1  0.2003386E-005  0.2260083E+04  0.7818608E-02  0.8493828E-01
          1   -1    0    0  501    0  0.00000000000E+00  0.00000000000E+00  0.22196048733E+04  0.22196048733E+04  0.00000000000E+00 0. -1.
         -1   -1    0    0    0  501 -0.00000000000E+00 -0.00000000000E+00 -0.57532504051E+03  0.57532504051E+03  0.00000000000E+00 0.  1.
         23    2    1    2    0    0 -0.44528770916E+03 -0.24642858349E+03 -0.42148646625E+03  0.66739646098E+03  0.93589551758E+02 0.  0.
         11    1    3    3    0    0 -0.35131735326E+03 -0.14805482921E+03 -0.30284901837E+03  0.48688976482E+03  0.00000000000E+00 0. -1.
        -11    1    3    3    0    0 -0.93970355903E+02 -0.98373754274E+02 -0.11863744788E+03  0.18050669616E+03  0.00000000000E+00 0.  1.
         22    1    1    2    0    0  0.44528770916E+03  0.24642858349E+03  0.20657662990E+04  0.21275334528E+04  0.00000000000E+00 0. -1.
<mgrwt>
<rscale>  0 0.22600834E+04</rscale>
<asrwt>0</asrwt>
<pdfrwt beam="1">  1        1 0.34147767E+00 0.22600834E+04</pdfrwt>
<pdfrwt beam="2">  1       -1 0.88511546E-01 0.22600834E+04</pdfrwt>
<totfact> 0.24006056E+00</totfact>
</mgrwt>
</event>
<event>
 6    1  0.2003386E-005  0.8771750E+03  0.7818608E-02  0.9454572E-01
         -2   -1    0    0    0  501 -0.00000000000E+00  0.00000000000E+00  0.25288782414E+03  0.25288782414E+03  0.00000000000E+00 0. -1.
          2   -1    0    0  501    0  0.00000000000E+00 -0.00000000000E+00 -0.76064944665E+03  0.76064944665E+03  0.00000000000E+00 0.  1.
         23    2    1    2    0    0 -0.28366164087E+03  0.32267870885E+03 -0.32735008351E+03  0.54756109216E+03  0.89886577595E+02 0.  0.
         13    1    3    3    0    0 -0.22622320528E+03  0.21273195900E+03 -0.19769745442E+03  0.36812512611E+03  0.00000000000E+00 0.  1.
        -13    1    3    3    0    0 -0.57438435596E+02  0.10994674984E+03 -0.12965262909E+03  0.17943596605E+03  0.00000000000E+00 0. -1.
         22    1    1    2    0    0  0.28366164087E+03 -0.32267870885E+03 -0.18041153900E+03  0.46597617863E+03  0.00000000000E+00 0. -1.
<mgrwt>
<rscale>  0 0.87717497E+03</rscale>
<asrwt>0</asrwt>
<pdfrwt beam="1">  1        2 0.11702299E+00 0.87717497E+03</pdfrwt>
<pdfrwt beam="2">  1       -2 0.38905820E-01 0.87717497E+03</pdfrwt>
<totfact> 0.23059115E+02</totfact>
</mgrwt>
</event>
<event>
 6    1  0.2003386E-005  0.3253696E+04  0.7818608E-02  0.8174778E-01
          2   -1    0    0  501    0  0.00000000000E+00  0.00000000000E+00  0.10588940757E+04  0.10588940757E+04  0.00000000000E+00 0. -1.
         -2   -1    0    0    0  501 -0.00000000000E+00 -0.00000000000E+00 -0.24994328561E+04  0.24994328561E+04  0.00000000000E+00 0.  1.
         23    2    1    2    0    0  0.12629559355E+04 -0.69490563059E+03  0.10149481153E+03  0.14474458056E+04  0.82744382933E+02 0.  0.
         11    1    3    3    0    0  0.72057174891E+02 -0.23398943782E+02 -0.63468149839E+01  0.76026502509E+02  0.00000000000E+00 0.  1.
        -11    1    3    3    0    0  0.11908987606E+04 -0.67150668681E+03  0.10784162651E+03  0.13714193031E+04  0.00000000000E+00 0. -1.
         22    1    1    2    0    0 -0.12629559355E+04  0.69490563059E+03 -0.15420335919E+04  0.21108811262E+04  0.00000000000E+00 0.  1.
<mgrwt>
<rscale>  0 0.32536961E+04</rscale>
<asrwt>0</asrwt>
<pdfrwt beam="1">  1        2 0.16290678E+00 0.32536961E+04</pdfrwt>
<pdfrwt beam="2">  1       -2 0.38452813E+00 0.32536961E+04</pdfrwt>
<totfact> 0.18119261E-01</totfact>
</mgrwt>
</event>
<event>
 6    1  0.2003386E-005  0.3804862E+04  0.7818608E-02  0.8045112E-01
         -2   -1    0    0    0  501 -0.00000000000E+00  0.00000000000E+00  0.48876156656E+04  0.48876156656E+04  0.00000000000E+00 0.  1.
          2   -1    0    0  501    0  0.00000000000E+00 -0.00000000000E+00 -0.74049261773E+03  0.74049261773E+03  0.00000000000E+00 0. -1.
         23    2    1    2    0    0  0.84883392232E+02 -0.17441985404E+04  0.96209641435E+03  0.19957772969E+04  0.89798496131E+02 0.  0.
         13    1    3    3    0    0  0.21155472444E+02 -0.11705156525E+04  0.66988740649E+03  0.13488156228E+04  0.00000000000E+00 0. -1.
        -13    1    3    3    0    0  0.63727919788E+02 -0.57368288785E+03  0.29220900787E+03  0.64696167417E+03  0.00000000000E+00 0.  1.
         22    1    1    2    0    0 -0.84883392232E+02  0.17441985404E+04  0.31850266335E+04  0.36323309864E+04  0.00000000000E+00 0.  1.
<mgrwt>
<rscale>  0 0.38048618E+04</rscale>
<asrwt>0</asrwt>
<pdfrwt beam="1">  1        2 0.11392194E+00 0.38048618E+04</pdfrwt>
<pdfrwt beam="2">  1       -2 0.75194085E+00 0.38048618E+04</pdfrwt>
<totfact> 0.42903139E-03</totfact>
</mgrwt>
</event>
<event>
 6    1  0.2003386E-005  0.2921351E+04  0.7818608E-02  0.8266553E-01
         -2   -1    0    0    0  501 -0.00000000000E+00  0.00000000000E+00  0.85971906985E+03  0.85971906985E+03  0.00000000000E+00 0.  1.
          2   -1    0    0  501    0  0.00000000000E+00 -0.00000000000E+00 -0.24817100445E+04  0.24817100445E+04  0.00000000000E+00 0. -1.
         23    2    1    2    0    0 -0.14043814940E+04 -0.55720205512E+02 -0.36274272084E+03  0.14543418650E+04  0.90198984630E+02 0.  0.
         11    1    3    3    0    0 -0.11072467433E+04 -0.76774977913E+02 -0.30313550375E+03  0.11505567702E+04  0.00000000000E+00 0. -1.
        -11    1    3    3    0    0 -0.29713475067E+03  0.21054772401E+02 -0.59607217097E+02  0.30378509481E+03  0.00000000000E+00 0.  1.
         22    1    1    2    0    0  0.14043814940E+04  0.55720205512E+02 -0.12592482538E+04  0.18870872494E+04  0.00000000000E+00 0. -1.
<mgrwt>
<rscale>  0 0.29213514E+04</rscale>
<asrwt>0</asrwt>
<pdfrwt beam="1">  1        2 0.38180154E+00 0.29213514E+04</pdfrwt>
<pdfrwt beam="2">  1       -2 0.13226447E+00 0.29213514E+04</pdfrwt>
<totfact> 0.12771859E+00</totfact>
</mgrwt>
</event>
<event>
 6    1  0.2003386E-005  0.4335285E+04  0.7818608E-02  0.7940126E-01
          2   -1    0    0  501    0  0.00000000000E+00  0.00000000000E+00  0.22619858838E+04  0.22619858838E+04  0.00000000000E+00 0. -1.
         -2   -1    0    0    0  501 -0.00000000000E+00 -0.00000000000E+00 -0.20772344141E+04  0.20772344141E+04  0.00000000000E+00 0.  1.
         23    2    1    2    0    0 -0.18300749215E+04  0.11373412996E+04 -0.13548771835E+03  0.21608556388E+04  0.90668185919E+02 0.  0.
         13    1    3    3    0    0 -0.51345962610E+03  0.28777533072E+03 -0.65702619822E+01  0.58864131434E+03  0.00000000000E+00 0. -1.
        -13    1    3    3    0    0 -0.13166152954E+04  0.84956596884E+03 -0.12891745637E+03  0.15722143245E+04  0.00000000000E+00 0.  1.
         22    1    1    2    0    0  0.18300749215E+04 -0.11373412996E+04  0.32023918807E+03  0.21783646590E+04  0.00000000000E+00 0.  1.
<mgrwt>
<rscale>  0 0.43352854E+04</rscale>
<asrwt>0</asrwt>
<pdfrwt beam="1">  1        2 0.34799783E+00 0.43352854E+04</pdfrwt>
<pdfrwt beam="2">  1       -2 0.31957452E+00 0.43352854E+04</pdfrwt>
<totfact> 0.88123695E-02</totfact>
</mgrwt>
</event>
<event>
 6    1  0.2003386E-005  0.2467519E+04  0.7818608E-02  0.8414649E-01
          2   -1    0    0  501    0  0.00000000000E+00  0.00000000000E+00  0.26082785098E+04  0.26082785098E+04  0.00000000000E+00 0.  1.
         -2   -1    0    0    0  501 -0.00000000000E+00 -0.00000000000E+00 -0.58358892465E+03  0.58358892465E+03  0.00000000000E+00 0. -1.
         23    2    1    2    0    0 -0.29731490270E+03  0.38821521920E+03 -0.44912560071E+03  0.67018768049E+03  0.91271649926E+02 0.  0.
         13    1    3    3    0    0 -0.98959552302E+01  0.40705181059E+02 -0.15796421880E+02  0.44770175778E+02  0.00000000000E+00 0. -1.
        -13    1    3    3    0    0 -0.28741894747E+03  0.34751003814E+03 -0.43332917883E+03  0.62541750471E+03  0.00000000000E+00 0.  1.
         22    1    1    2    0    0  0.29731490270E+03 -0.38821521920E+03  0.24738151858E+04  0.25216797539E+04  0.00000000000E+00 0.  1.
<mgrwt>
<rscale>  0 0.24675190E+04</rscale>
<asrwt>0</asrwt>
<pdfrwt beam="1">  1        2 0.40127361E+00 0.24675190E+04</pdfrwt>
<pdfrwt beam="2">  1       -2 0.89782913E-01 0.24675190E+04</pdfrwt>
<totfact> 0.28595527E+00</totfact>
</mgrwt>
</event>
<event>
 6    1  0.2003386E-005  0.1526796E+04  0.7818608E-02  0.8866827E-01
          2   -1    0    0  501    0  0.00000000000E+00  0.00000000000E+00  0.70543461397E+03  0.70543461397E+03  0.00000000000E+00 0. -1.
         -2   -1    0    0    0  501 -0.00000000000E+00 -0.00000000000E+00 -0.82612398084E+03  0.82612398084E+03  0.00000000000E+00 0.  1.
         23    2    1    2    0    0  0.26573091579E+03  0.33390048768E+03  0.57089611890E+03  0.71891295285E+03  0.93866926666E+02 0.  0.
         11    1    3    3    0    0  0.11318075868E+03  0.20453706257E+03  0.26433208109E+03  0.35286930044E+03  0.00000000000E+00 0. -1.
        -11    1    3    3    0    0  0.15255015712E+03  0.12936342511E+03  0.30656403781E+03  0.36604365241E+03  0.00000000000E+00 0.  1.
         22    1    1    2    0    0 -0.26573091579E+03 -0.33390048768E+03 -0.69158548577E+03  0.81264564196E+03  0.00000000000E+00 0.  1.
<mgrwt>
<rscale>  0 0.15267959E+04</rscale>
<asrwt>0</asrwt>
<pdfrwt beam="1">  1        2 0.10852840E+00 0.15267959E+04</pdfrwt>
<pdfrwt beam="2">  1       -2 0.12709600E+00 0.15267959E+04</pdfrwt>
<totfact> 0.17985153E+01</totfact>
</mgrwt>
</event>
<event>
 6    1  0.2003386E-005  0.2983053E+04  0.7818608E-02  0.8248587E-01
          2   -1    0    0  501    0  0.00000000000E+00  0.00000000000E+00  0.19209181621E+04  0.19209181621E+04  0.00000000000E+00 0. -1.
         -2   -1    0    0    0  501 -0.00000000000E+00 -0.00000000000E+00 -0.11581188640E+04  0.11581188640E+04  0.00000000000E+00 0.  1.
         23    2    1    2    0    0 -0.99543706407E+03  0.92657693366E+03  0.10106652501E+04  0.16966921731E+04  0.88771165427E+02 0.  0.
         11    1    3    3    0    0 -0.72206032640E+03  0.62094348397E+03  0.72619402294E+03  0.11976225132E+04  0.00000000000E+00 0.  1.
        -11    1    3    3    0    0 -0.27337673767E+03  0.30563344969E+03  0.28447122718E+03  0.49906965983E+03  0.00000000000E+00 0. -1.
         22    1    1    2    0    0  0.99543706407E+03 -0.92657693366E+03 -0.24786595200E+03  0.13823448530E+04  0.00000000000E+00 0.  1.
<mgrwt>
<rscale>  0 0.29830532E+04</rscale>
<asrwt>0</asrwt>
<pdfrwt beam="1">  1        2 0.29552587E+00 0.29830532E+04</pdfrwt>
<pdfrwt beam="2">  1       -2 0.17817213E+00 0.29830532E+04</pdfrwt>
<totfact> 0.11833036E+00</totfact>
</mgrwt>
</event>
<event>
 6    1  0.2003386E-005  0.1728648E+04  0.7818608E-02  0.8745192E-01
         -2   -1    0    0    0  501 -0.00000000000E+00  0.00000000000E+00  0.30027750369E+03  0.30027750369E+03  0.00000000000E+00 0.  1.
          2   -1    0    0  501    0  0.00000000000E+00 -0.00000000000E+00 -0.24878866355E+04  0.24878866355E+04  0.00000000000E+00 0. -1.
         23    2    1    2    0    0 -0.26245522469E+03  0.38007187373E+03  0.77131807112E+02  0.47680330743E+03  0.89748003557E+02 0.  0.
         11    1    3    3    0    0 -0.13226066636E+03  0.26654527030E+03  0.41632076393E+02  0.30045381470E+03  0.00000000000E+00 0.  1.
        -11    1    3    3    0    0 -0.13019455833E+03  0.11352660344E+03  0.35499730720E+02  0.17634949273E+03  0.00000000000E+00 0. -1.
         22    1    1    2    0    0  0.26245522469E+03 -0.38007187373E+03 -0.22647409389E+04  0.23113608318E+04  0.00000000000E+00 0. -1.
<mgrwt>
<rscale>  0 0.17286485E+04</rscale>
<asrwt>0</asrwt>
<pdfrwt beam="1">  1        2 0.38275178E+00 0.17286485E+04</pdfrwt>
<pdfrwt beam="2">  1       -2 0.46196540E-01 0.17286485E+04</pdfrwt>
<totfact> 0.14944550E+01</totfact>
</mgrwt>
</event>
<event>
 6    1  0.2003386E-005  0.1500388E+04  0.7818608E-02  0.8884195E-01
          2   -1    0    0  501    0  0.00000000000E+00  0.00000000000E+00  0.22103856940E+04  0.22103856940E+04  0.00000000000E+00 0. -1.
         -2   -1    0    0    0  501 -0.00000000000E+00 -0.00000000000E+00 -0.25461207067E+03  0.25461207067E+03  0.00000000000E+00 0.  1.
         23    2    1    2    0    0  0.39402516285E+02 -0.54217129744E+03  0.18241417736E+04  0.19056863864E+04  0.92979132281E+02 0.  0.
         11    1    3    3    0    0  0.39990508705E+02 -0.33896039754E+03  0.12837996076E+04  0.13283955828E+04  0.00000000000E+00 0. -1.
        -11    1    3    3    0    0 -0.58799242026E+00 -0.20321089990E+03  0.54034216592E+03  0.57729080353E+03  0.00000000000E+00 0.  1.
         22    1    1    2    0    0 -0.39402516285E+02  0.54217129744E+03  0.13163184980E+03  0.55931137834E+03  0.00000000000E+00 0.  1.
<mgrwt>
<rscale>  0 0.15003878E+04</rscale>
<asrwt>0</asrwt>
<pdfrwt beam="1">  1        2 0.34005932E+00 0.15003878E+04</pdfrwt>
<pdfrwt beam="2">  1       -2 0.39171089E-01 0.15003878E+04</pdfrwt>
<totfact> 0.30364205E+01</totfact>
</mgrwt>
</event>
<event>
 6    1  0.2003386E-005  0.4163095E+04  0.7818608E-02  0.7972430E-01
         -2   -1    0    0    0  501 -0.00000000000E+00  0.00000000000E+00  0.11441527597E+04  0.11441527597E+04  0.00000000000E+00 0.  1.
          2   -1    0    0  501    0  0.00000000000E+00 -0.00000000000E+00 -0.37869417950E+04  0.37869417950E+04  0.00000000000E+00 0. -1.
         23    2    1    2    0    0  0.15026233102E+04  0.19192856066E+03  0.36707497800E+03  0.15615256263E+04  0.94365552650E+02 0.  0.
         11    1    3    3    0    0  0.70007170827E+03  0.13685925959E+03  0.17451235327E+03  0.73436054844E+03  0.00000000000E+00 0. -1.
        -11    1    3    3    0    0  0.80255160188E+03  0.55069301069E+02  0.19256262473E+03  0.82716507787E+03  0.00000000000E+00 0.  1.
         22    1    1    2    0    0 -0.15026233102E+04 -0.19192856066E+03 -0.30098640133E+04  0.33695689284E+04  0.00000000000E+00 0. -1.
<mgrwt>
<rscale>  0 0.41630950E+04</rscale>
<asrwt>0</asrwt>
<pdfrwt beam="1">  1        2 0.58260644E+00 0.41630950E+04</pdfrwt>
<pdfrwt beam="2">  1       -2 0.17602350E+00 0.41630950E+04</pdfrwt>
<totfact> 0.75385803E-02</totfact>
</mgrwt>
</event>
<event>
 6    1  0.2003386E-005  0.1126921E+04  0.7818608E-02  0.9179343E-01
         -2   -1    0    0    0  501 -0.00000000000E+00  0.00000000000E+00  0.24142678991E+03  0.24142678991E+03  0.00000000000E+00 0.  1.
          2   -1    0    0  501    0  0.00000000000E+00 -0.00000000000E+00 -0.13150470372E+04  0.13150470372E+04  0.00000000000E+00 0. -1.
         23    2    1    2    0    0  0.35320839927E+03  0.31611334636E+03 -0.12946513721E+03  0.50001147900E+03  0.92555044799E+02 0.  0.
         11    1    3    3    0    0  0.25088653246E+03  0.18863869005E+03 -0.12075353813E+03  0.33631833808E+03  0.00000000000E+00 0. -1.
        -11    1    3    3    0    0  0.10232186681E+03  0.12747465630E+03 -0.87115990828E+01  0.16369314092E+03  0.00000000000E+00 0.  1.
         22    1    1    2    0    0 -0.35320839927E+03 -0.31611334636E+03 -0.94415511008E+03  0.10564623481E+04  0.00000000000E+00 0. -1.
<mgrwt>
<rscale>  0 0.11269207E+04</rscale>
<asrwt>0</asrwt>
<pdfrwt beam="1">  1        2 0.20231493E+00 0.11269207E+04</pdfrwt>
<pdfrwt beam="2">  1       -2 0.37142582E-01 0.11269207E+04</pdfrwt>
<totfact> 0.10963700E+02</totfact>
</mgrwt>
</event>
<event>
 6    1  0.2003386E-005  0.8007422E+03  0.7818608E-02  0.9558943E-01
         -2   -1    0    0    0  501 -0.00000000000E+00  0.00000000000E+00  0.85425740534E+02  0.85425740534E+02  0.00000000000E+00 0.  1.
          2   -1    0    0  501    0  0.00000000000E+00 -0.00000000000E+00 -0.18764486881E+04  0.18764486881E+04  0.00000000000E+00 0. -1.
         23    2    1    2    0    0 -0.62417422381E+02 -0.27327677880E+03 -0.15895455202E+04  0.16166653816E+04  0.91519739104E+02 0.  0.
         13    1    3    3    0    0  0.15618613329E+02 -0.69155394279E+02 -0.53811875731E+03  0.54276901773E+03  0.00000000000E+00 0.  1.
        -13    1    3    3    0    0 -0.78036035710E+02 -0.20412138452E+03 -0.10514267629E+04  0.10738963638E+04  0.00000000000E+00 0. -1.
         22    1    1    2    0    0  0.62417422381E+02  0.27327677880E+03 -0.20147742734E+03  0.34520904706E+03  0.00000000000E+00 0.  1.
<mgrwt>
<rscale>  0 0.80074220E+03</rscale>
<asrwt>0</asrwt>
<pdfrwt beam="1">  1        2 0.28868441E+00 0.80074220E+03</pdfrwt>
<pdfrwt beam="2">  1       -2 0.13142422E-01 0.80074220E+03</pdfrwt>
<totfact> 0.34819340E+02</totfact>
</mgrwt>
</event>
<event>
 6    1  0.2003386E-005  0.9211792E+03  0.7818608E-02  0.9399487E-01
         -2   -1    0    0    0  501 -0.00000000000E+00  0.00000000000E+00  0.18851316621E+03  0.18851316621E+03  0.00000000000E+00 0.  1.
          2   -1    0    0  501    0  0.00000000000E+00 -0.00000000000E+00 -0.11253473273E+04  0.11253473273E+04  0.00000000000E+00 0. -1.
         23    2    1    2    0    0  0.70584396029E+02  0.39174885195E+03 -0.15472342918E+03  0.43628057298E+03  0.89174429348E+02 0.  0.
         13    1    3    3    0    0  0.88973130589E+02  0.26328814206E+03 -0.11238086483E+03  0.29977712136E+03  0.00000000000E+00 0.  1.
        -13    1    3    3    0    0 -0.18388734559E+02  0.12846070990E+03 -0.42342564357E+02  0.13650345161E+03  0.00000000000E+00 0. -1.
         22    1    1    2    0    0 -0.70584396029E+02 -0.39174885195E+03 -0.78211073190E+03  0.87757992054E+03  0.00000000000E+00 0. -1.
<mgrwt>
<rscale>  0 0.92117922E+03</rscale>
<asrwt>0</asrwt>
<pdfrwt beam="1">  1        2 0.17313035E+00 0.92117922E+03</pdfrwt>
<pdfrwt beam="2">  1       -2 0.29002026E-01 0.92117922E+03</pdfrwt>
<totfact> 0.22961066E+02</totfact>
</mgrwt>
</event>
<event>
 6    1  0.2003386E-005  0.2727400E+04  0.7818608E-02  0.8326169E-01
          2   -1    0    0  501    0  0.00000000000E+00  0.00000000000E+00  0.81409524632E+03  0.81409524632E+03  0.00000000000E+00 0. -1.
         -2   -1    0    0    0  501 -0.00000000000E+00 -0.00000000000E+00 -0.22843484975E+04  0.22843484975E+04  0.00000000000E+00 0.  1.
         23    2    1    2    0    0  0.18233465651E+03  0.77654545770E+03 -0.19905221267E+04  0.21461053179E+04  0.85562396862E+02 0.  0.
         13    1    3    3    0    0  0.11619554039E+03  0.39148419842E+03 -0.11124560605E+04  0.11850399858E+04  0.00000000000E+00 0. -1.
        -13    1    3    3    0    0  0.66139116119E+02  0.38506125928E+03 -0.87806606613E+03  0.96106533210E+03  0.00000000000E+00 0.  1.
         22    1    1    2    0    0 -0.18233465651E+03 -0.77654545770E+03  0.52026887546E+03  0.95233842599E+03  0.00000000000E+00 0. -1.
<mgrwt>
<rscale>  0 0.27273997E+04</rscale>
<asrwt>0</asrwt>
<pdfrwt beam="1">  1        2 0.12524542E+00 0.27273997E+04</pdfrwt>
<pdfrwt beam="2">  1       -2 0.35143823E+00 0.27273997E+04</pdfrwt>
<totfact> 0.44881669E-01</totfact>
</mgrwt>
</event>
<event>
 6    1  0.2003386E-005  0.1078856E+04  0.7818608E-02  0.9226049E-01
          2   -1    0    0  501    0  0.00000000000E+00  0.00000000000E+00  0.36587437688E+03  0.36587437688E+03  0.00000000000E+00 0. -1.
         -2   -1    0    0    0  501 -0.00000000000E+00 -0.00000000000E+00 -0.79530741298E+03  0.79530741298E+03  0.00000000000E+00 0.  1.
         23    2    1    2    0    0  0.32420131002E+03 -0.32900902163E+02 -0.67367661162E+03  0.75394244628E+03  0.91651931108E+02 0.  0.
         13    1    3    3    0    0  0.22086828358E+03  0.86624042942E+01 -0.37662879950E+03  0.43670022733E+03  0.00000000000E+00 0. -1.
        -13    1    3    3    0    0  0.10333302644E+03 -0.41563306457E+02 -0.29704781212E+03  0.31724221895E+03  0.00000000000E+00 0.  1.
         22    1    1    2    0    0 -0.32420131002E+03  0.32900902163E+02  0.24424357552E+03  0.40723934359E+03  0.00000000000E+00 0. -1.
<mgrwt>
<rscale>  0 0.10788561E+04</rscale>
<asrwt>0</asrwt>
<pdfrwt beam="1">  1        2 0.56288366E-01 0.10788561E+04</pdfrwt>
<pdfrwt beam="2">  1       -2 0.12235499E+00 0.10788561E+04</pdfrwt>
<totfact> 0.44193569E+01</totfact>
</mgrwt>
</event>
<event>
 6    1  0.2003386E-005  0.3035203E+04  0.7818608E-02  0.8233749E-01
         -2   -1    0    0    0  501 -0.00000000000E+00  0.00000000000E+00  0.14766046176E+04  0.14766046176E+04  0.00000000000E+00 0.  1.
          2   -1    0    0  501    0  0.00000000000E+00 -0.00000000000E+00 -0.15597369007E+04  0.15597369007E+04  0.00000000000E+00 0. -1.
         23    2    1    2    0    0  0.63182986710E+03 -0.16586480416E+03  0.13271465685E+04  0.14821193484E+04  0.92949632578E+02 0.  0.
         11    1    3    3    0    0  0.50892969465E+03 -0.14703861074E+03  0.99079753755E+03  0.11235254993E+04  0.00000000000E+00 0. -1.
        -11    1    3    3    0    0  0.12290017245E+03 -0.18826193426E+02  0.33634903097E+03  0.35859384906E+03  0.00000000000E+00 0.  1.
         22    1    1    2    0    0 -0.63182986710E+03  0.16586480416E+03 -0.14102788516E+04  0.15542221699E+04  0.00000000000E+00 0. -1.
<mgrwt>
<rscale>  0 0.30352033E+04</rscale>
<asrwt>0</asrwt>
<pdfrwt beam="1">  1        2 0.23995952E+00 0.30352033E+04</pdfrwt>
<pdfrwt beam="2">  1       -2 0.22716994E+00 0.30352033E+04</pdfrwt>
<totfact> 0.89307727E-01</totfact>
</mgrwt>
</event>
<event>
 6    1  0.2003386E-005  0.1996966E+04  0.7818608E-02  0.8608040E-01
          2   -1    0    0  501    0  0.00000000000E+00  0.00000000000E+00  0.16058246914E+04  0.16058246914E+04  0.00000000000E+00 0. -1.
         -2   -1    0    0    0  501 -0.00000000000E+00 -0.00000000000E+00 -0.62084524380E+03  0.62084524380E+03  0.00000000000E+00 0.  1.
         23    2    1    2    0    0 -0.81322890927E+03  0.40028640164E+03  0.31039826605E+02  0.91077812252E+03  0.83563481324E+02 0.  0.
         11    1    3    3    0    0 -0.55536124671E+03  0.31502032794E+03  0.13854706313E+02  0.63863594813E+03  0.00000000000E+00 0.  1.
        -11    1    3    3    0    0 -0.25786766256E+03  0.85266073697E+02  0.17185120293E+02  0.27214217438E+03  0.00000000000E+00 0. -1.
         22    1    1    2    0    0  0.81322890927E+03 -0.40028640164E+03  0.95393962104E+03  0.13158918127E+04  0.00000000000E+00 0. -1.
<mgrwt>
<rscale>  0 0.19969663E+04</rscale>
<asrwt>0</asrwt>
<pdfrwt beam="1">  1        2 0.24704995E+00 0.19969663E+04</pdfrwt>
<pdfrwt beam="2">  1       -2 0.95514653E-01 0.19969663E+04</pdfrwt>
<totfact> 0.94664854E+00</totfact>
</mgrwt>
</event>
<event>
 6    1  0.2003386E-005  0.1499359E+04  0.7818608E-02  0.8884879E-01
         -2   -1    0    0    0  501 -0.00000000000E+00  0.00000000000E+00  0.75472773446E+03  0.75472773446E+03  0.00000000000E+00 0.  1.
          2   -1    0    0  501    0  0.00000000000E+00 -0.00000000000E+00 -0.74466538709E+03  0.74466538709E+03  0.00000000000E+00 0. -1.
         23    2    1    2    0    0  0.60786158607E+03 -0.43413182332E+03  0.21120643824E+01  0.75237949729E+03  0.90023881783E+02 0.  0.
         13    1    3    3    0    0  0.38996747912E+03 -0.31193989616E+03 -0.31181871950E+02  0.50035331789E+03  0.00000000000E+00 0. -1.
        -13    1    3    3    0    0  0.21789410695E+03 -0.12219192716E+03  0.33293936333E+02  0.25202617940E+03  0.00000000000E+00 0.  1.
         22    1    1    2    0    0 -0.60786158607E+03  0.43413182332E+03  0.79502829859E+01  0.74701362426E+03  0.00000000000E+00 0. -1.
<mgrwt>
<rscale>  0 0.14993594E+04</rscale>
<asrwt>0</asrwt>
<pdfrwt beam="1">  1        2 0.11456391E+00 0.14993594E+04</pdfrwt>
<pdfrwt beam="2">  1       -2 0.11611196E+00 0.14993594E+04</pdfrwt>
<totfact> 0.21061857E+01</totfact>
</mgrwt>
</event>
<event>
 6    1  0.2003386E-005  0.1718315E+04  0.7818608E-02  0.8750987E-01
          1   -1    0    0  501    0  0.00000000000E+00  0.00000000000E+00  0.64825214043E+03  0.64825214043E+03  0.00000000000E+00 0. -1.
         -1   -1    0    0    0  501 -0.00000000000E+00 -0.00000000000E+00 -0.11386799120E+04  0.11386799120E+04  0.00000000000E+00 0.  1.
         23    2    1    2    0    0  0.20700553240E+03 -0.80653375197E+03 -0.45536852253E+03  0.95351910885E+03  0.92142368767E+02 0.  0.
         11    1    3    3    0    0  0.37441627734E+02 -0.13137716402E+03 -0.11534173041E+03  0.17878912016E+03  0.00000000000E+00 0. -1.
        -11    1    3    3    0    0  0.16956390466E+03 -0.67515658795E+03 -0.34002679212E+03  0.77472998869E+03  0.00000000000E+00 0.  1.
         22    1    1    2    0    0 -0.20700553240E+03  0.80653375197E+03 -0.35059249011E+02  0.83341294354E+03  0.00000000000E+00 0. -1.
<mgrwt>
<rscale>  0 0.17183151E+04</rscale>
<asrwt>0</asrwt>
<pdfrwt beam="1">  1        1 0.99731099E-01 0.17183151E+04</pdfrwt>
<pdfrwt beam="2">  1       -1 0.17518152E+00 0.17183151E+04</pdfrwt>
<totfact> 0.65511433E+00</totfact>
</mgrwt>
</event>
<event>
 6    1  0.2003386E-005  0.2723209E+04  0.7818608E-02  0.8327514E-01
         -4   -1    0    0    0  501 -0.00000000000E+00  0.00000000000E+00  0.20082509408E+04  0.20082509408E+04  0.00000000000E+00 0.  1.
          4   -1    0    0  501    0  0.00000000000E+00 -0.00000000000E+00 -0.92317465007E+03  0.92317465007E+03  0.00000000000E+00 0. -1.
         23    2    1    2    0    0  0.31264015288E+02 -0.78822893417E+03 -0.64952225422E+03  0.10258772699E+04  0.90899521078E+02 0.  0.
         13    1    3    3    0    0 -0.18191093892E+01 -0.12500617276E+03 -0.14790555056E+03  0.19366441148E+03  0.00000000000E+00 0.  1.
        -13    1    3    3    0    0  0.33083124677E+02 -0.66322276141E+03 -0.50161670365E+03  0.83221285845E+03  0.00000000000E+00 0. -1.
         22    1    1    2    0    0 -0.31264015288E+02  0.78822893417E+03  0.17345985450E+04  0.19055483210E+04  0.00000000000E+00 0.  1.
<mgrwt>
<rscale>  0 0.27232087E+04</rscale>
<asrwt>0</asrwt>
<pdfrwt beam="1">  1        4 0.14202687E+00 0.27232087E+04</pdfrwt>
<pdfrwt beam="2">  1       -4 0.30896168E+00 0.27232087E+04</pdfrwt>
<totfact> 0.16286316E-02</totfact>
</mgrwt>
</event>
<event>
 6    1  0.2003386E-005  0.4915501E+04  0.7818608E-02  0.7841676E-01
         -1   -1    0    0    0  501 -0.00000000000E+00  0.00000000000E+00  0.22830748405E+04  0.22830748405E+04  0.00000000000E+00 0.  1.
          1   -1    0    0  501    0  0.00000000000E+00 -0.00000000000E+00 -0.26457908969E+04  0.26457908969E+04  0.00000000000E+00 0. -1.
         23    2    1    2    0    0 -0.97308613121E+03  0.34397252080E+03 -0.24171448307E+04  0.26297591061E+04  0.88487906367E+02 0.  0.
         13    1    3    3    0    0 -0.51394014488E+03  0.17365752656E+03 -0.13804445149E+04  0.14832122127E+04  0.00000000000E+00 0. -1.
        -13    1    3    3    0    0 -0.45914598633E+03  0.17031499423E+03 -0.10367003158E+04  0.11465468934E+04  0.00000000000E+00 0.  1.
         22    1    1    2    0    0  0.97308613121E+03 -0.34397252080E+03  0.20544287743E+04  0.22991066314E+04  0.00000000000E+00 0.  1.
<mgrwt>
<rscale>  0 0.49155015E+04</rscale>
<asrwt>0</asrwt>
<pdfrwt beam="1">  1        1 0.40704476E+00 0.49155015E+04</pdfrwt>
<pdfrwt beam="2">  1       -1 0.35124228E+00 0.49155015E+04</pdfrwt>
<totfact> 0.11875158E-02</totfact>
</mgrwt>
</event>
<event>
 6    1  0.2003386E-005  0.4418378E+04  0.7818608E-02  0.7925084E-01
         -2   -1    0    0    0  501 -0.00000000000E+00  0.00000000000E+00  0.29493706371E+04  0.29493706371E+04  0.00000000000E+00 0.  1.
          2   -1    0    0  501    0  0.00000000000E+00 -0.00000000000E+00 -0.16547652428E+04  0.16547652428E+04  0.00000000000E+00 0. -1.
         23    2    1    2    0    0 -0.20844794469E+04 -0.93132867425E+02 -0.10572519815E+03  0.20912383365E+04  0.91496812655E+02 0.  0.
         13    1    3    3    0    0 -0.10748429030E+04 -0.62517179710E+01 -0.73143678063E+02  0.10773469022E+04  0.00000000000E+00 0.  1.
        -13    1    3    3    0    0 -0.10096365439E+04 -0.86881149454E+02 -0.32581520084E+02  0.10138914342E+04  0.00000000000E+00 0. -1.
         22    1    1    2    0    0  0.20844794469E+04  0.93132867425E+02  0.14003305925E+04  0.25128975435E+04  0.00000000000E+00 0. -1.
<mgrwt>
<rscale>  0 0.44183780E+04</rscale>
<asrwt>0</asrwt>
<pdfrwt beam="1">  1        2 0.25457927E+00 0.44183780E+04</pdfrwt>
<pdfrwt beam="2">  1       -2 0.45374933E+00 0.44183780E+04</pdfrwt>
<totfact> 0.26019538E-02</totfact>
</mgrwt>
</event>
<event>
 6    1  0.2003386E-005  0.9009852E+03  0.7818608E-02  0.9424351E-01
          2   -1    0    0  501    0  0.00000000000E+00  0.00000000000E+00  0.22791818412E+03  0.22791818412E+03  0.00000000000E+00 0. -1.
         -2   -1    0    0    0  501 -0.00000000000E+00 -0.00000000000E+00 -0.89042292696E+03  0.89042292696E+03  0.00000000000E+00 0.  1.
         23    2    1    2    0    0 -0.32767574213E+03  0.28272482934E+03 -0.20071068271E+03  0.48544421973E+03  0.89814203831E+02 0.  0.
         13    1    3    3    0    0 -0.23040101187E+03  0.23841441527E+03 -0.17744948581E+03  0.37605103336E+03  0.00000000000E+00 0. -1.
        -13    1    3    3    0    0 -0.97274730263E+02  0.44310414071E+02 -0.23261196901E+02  0.10939318637E+03  0.00000000000E+00 0.  1.
         22    1    1    2    0    0  0.32767574213E+03 -0.28272482934E+03 -0.46179406014E+03  0.63289689135E+03  0.00000000000E+00 0.  1.
<mgrwt>
<rscale>  0 0.90098519E+03</rscale>
<asrwt>0</asrwt>
<pdfrwt beam="1">  1        2 0.35064336E-01 0.90098519E+03</pdfrwt>
<pdfrwt beam="2">  1       -2 0.13698814E+00 0.90098519E+03</pdfrwt>
<totfact> 0.56878544E+01</totfact>
</mgrwt>
</event>
<event>
 6    1  0.2003386E-005  0.4891807E+04  0.7818608E-02  0.7845417E-01
          2   -1    0    0  501    0  0.00000000000E+00  0.00000000000E+00  0.39173948399E+04  0.39173948399E+04  0.00000000000E+00 0. -1.
         -2   -1    0    0    0  501 -0.00000000000E+00 -0.00000000000E+00 -0.15271487710E+04  0.15271487710E+04  0.00000000000E+00 0.  1.
         23    2    1    2    0    0 -0.62149634242E+02  0.22916338260E+04  0.24920617823E+03  0.23077458835E+04  0.90217373327E+02 0.  0.
         11    1    3    3    0    0 -0.21556913518E+02  0.54946449403E+03  0.98049600865E+02  0.55856034137E+03  0.00000000000E+00 0.  1.
        -11    1    3    3    0    0 -0.40592720725E+02  0.17421693319E+04  0.15115657737E+03  0.17491855422E+04  0.00000000000E+00 0. -1.
         22    1    1    2    0    0  0.62149634242E+02 -0.22916338260E+04  0.21410398906E+04  0.31367977274E+04  0.00000000000E+00 0. -1.
<mgrwt>
<rscale>  0 0.48918073E+04</rscale>
<asrwt>0</asrwt>
<pdfrwt beam="1">  1        2 0.60267613E+00 0.48918073E+04</pdfrwt>
<pdfrwt beam="2">  1       -2 0.23494597E+00 0.48918073E+04</pdfrwt>
<totfact> 0.23196173E-02</totfact>
</mgrwt>
</event>
<event>
 6    1  0.2003386E-005  0.2004616E+04  0.7818608E-02  0.8604466E-01
         -2   -1    0    0    0  501 -0.00000000000E+00  0.00000000000E+00  0.23279285258E+03  0.23279285258E+03  0.00000000000E+00 0.  1.
          2   -1    0    0  501    0  0.00000000000E+00 -0.00000000000E+00 -0.43155167556E+04  0.43155167556E+04  0.00000000000E+00 0. -1.
         23    2    1    2    0    0 -0.49423146901E+03 -0.83800939708E+03 -0.15205800960E+04  0.18076700145E+04  0.94776360065E+02 0.  0.
         11    1    3    3    0    0 -0.15897832962E+03 -0.19727896054E+03 -0.35947350286E+03  0.43978892303E+03  0.00000000000E+00 0.  1.
        -11    1    3    3    0    0 -0.33525313939E+03 -0.64073043654E+03 -0.11611065932E+04  0.13678810915E+04  0.00000000000E+00 0. -1.
         22    1    1    2    0    0  0.49423146901E+03  0.83800939708E+03 -0.25621438070E+04  0.27406395937E+04  0.00000000000E+00 0. -1.
<mgrwt>
<rscale>  0 0.20046161E+04</rscale>
<asrwt>0</asrwt>
<pdfrwt beam="1">  1        2 0.66392569E+00 0.20046161E+04</pdfrwt>
<pdfrwt beam="2">  1       -2 0.35814283E-01 0.20046161E+04</pdfrwt>
<totfact> 0.12679538E+00</totfact>
</mgrwt>
</event>
<event>
 6    1  0.2003386E-005  0.8654225E+03  0.7818608E-02  0.9469868E-01
          2   -1    0    0  501    0  0.00000000000E+00  0.00000000000E+00  0.71286903314E+03  0.71286903314E+03  0.00000000000E+00 0.  1.
         -2   -1    0    0    0  501 -0.00000000000E+00 -0.00000000000E+00 -0.26265559657E+03  0.26265559657E+03  0.00000000000E+00 0. -1.
         23    2    1    2    0    0 -0.39300260628E+03 -0.20553021564E+02  0.37692324583E+02  0.40539557145E+03  0.89729497833E+02 0.  0.
         11    1    3    3    0    0 -0.35452110841E+03  0.97406826546E+01  0.32196532824E+02  0.35611334422E+03  0.00000000000E+00 0. -1.
        -11    1    3    3    0    0 -0.38481497870E+02 -0.30293704219E+02  0.54957917589E+01  0.49282227229E+02  0.00000000000E+00 0.  1.
         22    1    1    2    0    0  0.39300260628E+03  0.20553021564E+02  0.41252111199E+03  0.57012905826E+03  0.00000000000E+00 0. -1.
<mgrwt>
<rscale>  0 0.86542254E+03</rscale>
<asrwt>0</asrwt>
<pdfrwt beam="1">  1        2 0.10967216E+00 0.86542254E+03</pdfrwt>
<pdfrwt beam="2">  1       -2 0.40408554E-01 0.86542254E+03</pdfrwt>
<totfact> 0.23296624E+02</totfact>
</mgrwt>
</event>
<event>
 6    1  0.2003386E-005  0.2818303E+04  0.7818608E-02  0.8297608E-01
          2   -1    0    0  501    0  0.00000000000E+00  0.00000000000E+00  0.24384750421E+04  0.24384750421E+04  0.00000000000E+00 0. -1.
         -2   -1    0    0    0  501 -0.00000000000E+00 -0.00000000000E+00 -0.81432385660E+03  0.81432385660E+03  0.00000000000E+00 0.  1.
         23    2    1    2    0    0  0.39168424180E+03 -0.69492996625E+03 -0.52570060490E+03  0.95972085295E+03  0.91426398412E+02 0.  0.
         11    1    3    3    0    0  0.34934082020E+03 -0.66126445953E+03 -0.47783203153E+03  0.88748698269E+03  0.00000000000E+00 0. -1.
        -11    1    3    3    0    0  0.42343421604E+02 -0.33665506720E+02 -0.47868573367E+02  0.72233870255E+02  0.00000000000E+00 0.  1.
         22    1    1    2    0    0 -0.39168424180E+03  0.69492996625E+03  0.21498517904E+04  0.22930780458E+04  0.00000000000E+00 0. -1.
<mgrwt>
<rscale>  0 0.28183033E+04</rscale>
<asrwt>0</asrwt>
<pdfrwt beam="1">  1        2 0.37515000E+00 0.28183033E+04</pdfrwt>
<pdfrwt beam="2">  1       -2 0.12528059E+00 0.28183033E+04</pdfrwt>
<totfact> 0.15648310E+00</totfact>
</mgrwt>
</event>
<event>
 6    1  0.2003386E-005  0.4316846E+04  0.7818608E-02  0.7943510E-01
         -2   -1    0    0    0  501 -0.00000000000E+00  0.00000000000E+00  0.26799101864E+04  0.26799101864E+04  0.00000000000E+00 0.  1.
          2   -1    0    0  501    0  0.00000000000E+00 -0.00000000000E+00 -0.17384126751E+04  0.17384126751E+04  0.00000000000E+00 0. -1.
         23    2    1    2    0    0 -0.66656633724E+03 -0.13153878879E+04 -0.11408898492E+04  0.18666776869E+04  0.91104122447E+02 0.  0.
         11    1    3    3    0    0 -0.44597637075E+03 -0.80257031916E+03 -0.74330485728E+03  0.11813196652E+04  0.00000000000E+00 0.  1.
        -11    1    3    3    0    0 -0.22058996648E+03 -0.51281756876E+03 -0.39758499193E+03  0.68535802173E+03  0.00000000000E+00 0. -1.
         22    1    1    2    0    0  0.66656633724E+03  0.13153878879E+04  0.20823873605E+04  0.25516451745E+04  0.00000000000E+00 0.  1.
<mgrwt>
<rscale>  0 0.43168460E+04</rscale>
<asrwt>0</asrwt>
<pdfrwt beam="1">  1        2 0.26744810E+00 0.43168460E+04</pdfrwt>
<pdfrwt beam="2">  1       -2 0.41229387E+00 0.43168460E+04</pdfrwt>
<totfact> 0.44252114E-02</totfact>
</mgrwt>
</event>
<event>
 6    1  0.2003386E-005  0.2806925E+04  0.7818608E-02  0.8301122E-01
         -2   -1    0    0    0  501 -0.00000000000E+00  0.00000000000E+00  0.87185788480E+03  0.87185788480E+03  0.00000000000E+00 0.  1.
          2   -1    0    0  501    0  0.00000000000E+00 -0.00000000000E+00 -0.22592057202E+04  0.22592057202E+04  0.00000000000E+00 0. -1.
         23    2    1    2    0    0 -0.74810374275E+03 -0.10021517132E+04 -0.14012819918E+04  0.18803992108E+04  0.91338409534E+02 0.  0.
         13    1    3    3    0    0 -0.15865151642E+03 -0.15947135435E+03 -0.22976775504E+03  0.32155036585E+03  0.00000000000E+00 0. -1.
        -13    1    3    3    0    0 -0.58945222633E+03 -0.84268035889E+03 -0.11715142368E+04  0.15588488449E+04  0.00000000000E+00 0.  1.
         22    1    1    2    0    0  0.74810374275E+03  0.10021517132E+04  0.13934156404E+02  0.12506643942E+04  0.00000000000E+00 0.  1.
<mgrwt>
<rscale>  0 0.28069245E+04</rscale>
<asrwt>0</asrwt>
<pdfrwt beam="1">  1        2 0.34757011E+00 0.28069245E+04</pdfrwt>
<pdfrwt beam="2">  1       -2 0.13413198E+00 0.28069245E+04</pdfrwt>
<totfact> 0.16676257E+00</totfact>
</mgrwt>
</event>
<event>
 6    1  0.2003386E-005  0.2361886E+04  0.7818608E-02  0.8453912E-01
         -2   -1    0    0    0  501 -0.00000000000E+00  0.00000000000E+00  0.72259330670E+03  0.72259330670E+03  0.00000000000E+00 0.  1.
          2   -1    0    0  501    0  0.00000000000E+00 -0.00000000000E+00 -0.19300292135E+04  0.19300292135E+04  0.00000000000E+00 0. -1.
         23    2    1    2    0    0 -0.29409734034E+03  0.31018055278E+03 -0.18388352129E+04  0.18901460914E+04  0.92909019132E+02 0.  0.
         11    1    3    3    0    0 -0.68431366428E+02  0.12759654947E+03 -0.70758291978E+03  0.72224463980E+03  0.00000000000E+00 0. -1.
        -11    1    3    3    0    0 -0.22566597391E+03  0.18258400332E+03 -0.11312522931E+04  0.11679014516E+04  0.00000000000E+00 0.  1.
         22    1    1    2    0    0  0.29409734034E+03 -0.31018055278E+03  0.63139930601E+03  0.76247642885E+03  0.00000000000E+00 0.  1.
<mgrwt>
<rscale>  0 0.23618858E+04</rscale>
<asrwt>0</asrwt>
<pdfrwt beam="1">  1        2 0.29692757E+00 0.23618858E+04</pdfrwt>
<pdfrwt beam="2">  1       -2 0.11116820E+00 0.23618858E+04</pdfrwt>
<totfact> 0.42211728E+00</totfact>
</mgrwt>
</event>
<event>
 6    1  0.2003386E-005  0.2676887E+04  0.7818608E-02  0.8342544E-01
          2   -1    0    0  501    0  0.00000000000E+00  0.00000000000E+00  0.28762307259E+04  0.28762307259E+04  0.00000000000E+00 0. -1.
         -2   -1    0    0    0  501 -0.00000000000E+00 -0.00000000000E+00 -0.62283966051E+03  0.62283966051E+03  0.00000000000E+00 0.  1.
         23    2    1    2    0    0 -0.42347060040E+03  0.67831018657E+03  0.25284463612E+04  0.26534419370E+04  0.91000293392E+02 0.  0.
         13    1    3    3    0    0 -0.15734497754E+03  0.32763710222E+03  0.10740119241E+04  0.11338452830E+04  0.00000000000E+00 0. -1.
        -13    1    3    3    0    0 -0.26612562286E+03  0.35067308434E+03  0.14544344370E+04  0.15195966540E+04  0.00000000000E+00 0.  1.
         22    1    1    2    0    0  0.42347060040E+03 -0.67831018657E+03 -0.27505529579E+03  0.84562844934E+03  0.00000000000E+00 0.  1.
<mgrwt>
<rscale>  0 0.26768867E+04</rscale>
<asrwt>0</asrwt>
<pdfrwt beam="1">  1        2 0.44249703E+00 0.26768867E+04</pdfrwt>
<pdfrwt beam="2">  1       -2 0.95821488E-01 0.26768867E+04</pdfrwt>
<totfact> 0.16676816E+00</totfact>
</mgrwt>
</event>
<event>
 6    1  0.2003386E-005  0.2480437E+04  0.7818608E-02  0.8409988E-01
         -2   -1    0    0    0  501 -0.00000000000E+00  0.00000000000E+00  0.12779685697E+04  0.12779685697E+04  0.00000000000E+00 0.  1.
          2   -1    0    0  501    0  0.00000000000E+00 -0.00000000000E+00 -0.12035832759E+04  0.12035832759E+04  0.00000000000E+00 0. -1.
         23    2    1    2    0    0 -0.80806714686E+03 -0.56493672235E+03  0.78723208019E+03  0.12648856815E+04  0.89863369309E+02 0.  0.
         13    1    3    3    0    0 -0.31922567203E+03 -0.20746169612E+03  0.25111882867E+03  0.45607680400E+03  0.00000000000E+00 0. -1.
        -13    1    3    3    0    0 -0.48884147484E+03 -0.35747502623E+03  0.53611325152E+03  0.80880887752E+03  0.00000000000E+00 0.  1.
         22    1    1    2    0    0  0.80806714686E+03  0.56493672235E+03 -0.71284678637E+03  0.12166661641E+04  0.00000000000E+00 0. -1.
<mgrwt>
<rscale>  0 0.24804367E+04</rscale>
<asrwt>0</asrwt>
<pdfrwt beam="1">  1        2 0.18516666E+00 0.24804367E+04</pdfrwt>
<pdfrwt beam="2">  1       -2 0.19661055E+00 0.24804367E+04</pdfrwt>
<totfact> 0.23575778E+00</totfact>
</mgrwt>
</event>
<event>
 6    1  0.2003386E-005  0.1906682E+04  0.7818608E-02  0.8651538E-01
          2   -1    0    0  501    0  0.00000000000E+00  0.00000000000E+00  0.83409038431E+03  0.83409038431E+03  0.00000000000E+00 0. -1.
         -2   -1    0    0    0  501 -0.00000000000E+00 -0.00000000000E+00 -0.10896405546E+04  0.10896405546E+04  0.00000000000E+00 0.  1.
         23    2    1    2    0    0 -0.39388650551E+02 -0.37745749762E+03 -0.10082871507E+04  0.10807371132E+04  0.85580963389E+02 0.  0.
         11    1    3    3    0    0  0.12140005082E+02 -0.26456060940E+03 -0.69775687765E+03  0.74632724463E+03  0.00000000000E+00 0. -1.
        -11    1    3    3    0    0 -0.51528655633E+02 -0.11289688822E+03 -0.31053027307E+03  0.33440986859E+03  0.00000000000E+00 0.  1.
         22    1    1    2    0    0  0.39388650551E+02  0.37745749762E+03  0.75273698047E+03  0.84299382564E+03  0.00000000000E+00 0. -1.
<mgrwt>
<rscale>  0 0.19066816E+04</rscale>
<asrwt>0</asrwt>
<pdfrwt beam="1">  1        2 0.12832160E+00 0.19066816E+04</pdfrwt>
<pdfrwt beam="2">  1       -2 0.16763701E+00 0.19066816E+04</pdfrwt>
<totfact> 0.67520745E+00</totfact>
</mgrwt>
</event>
<event>
 6    1  0.2003386E-005  0.2198902E+04  0.7818608E-02  0.8518885E-01
          2   -1    0    0  501    0  0.00000000000E+00  0.00000000000E+00  0.26782721083E+04  0.26782721083E+04  0.00000000000E+00 0. -1.
         -2   -1    0    0    0  501 -0.00000000000E+00 -0.00000000000E+00 -0.45133296427E+03  0.45133296427E+03  0.00000000000E+00 0.  1.
         23    2    1    2    0    0  0.14278308866E+03  0.77830071376E+03  0.33102513225E+02  0.79742622563E+03  0.93025789418E+02 0.  0.
         13    1    3    3    0    0  0.71246036001E+02  0.40012275963E+03 -0.29491983803E+02  0.40748496602E+03  0.00000000000E+00 0.  1.
        -13    1    3    3    0    0  0.71537052661E+02  0.37817795413E+03  0.62594497028E+02  0.38994125961E+03  0.00000000000E+00 0. -1.
         22    1    1    2    0    0 -0.14278308866E+03 -0.77830071376E+03  0.21938366309E+04  0.23321788470E+04  0.00000000000E+00 0. -1.
<mgrwt>
<rscale>  0 0.21989020E+04</rscale>
<asrwt>0</asrwt>
<pdfrwt beam="1">  1        2 0.41204185E+00 0.21989020E+04</pdfrwt>
<pdfrwt beam="2">  1       -2 0.69435842E-01 0.21989020E+04</pdfrwt>
<totfact> 0.47336169E+00</totfact>
</mgrwt>
</event>
<event>
 6    1  0.2003386E-005  0.9564653E+03  0.7818608E-02  0.9357625E-01
          2   -1    0    0  501    0  0.00000000000E+00  0.00000000000E+00  0.21822805874E+04  0.21822805874E+04  0.00000000000E+00 0. -1.
         -2   -1    0    0    0  501 -0.00000000000E+00 -0.00000000000E+00 -0.10480158629E+03  0.10480158629E+03  0.00000000000E+00 0.  1.
         23    2    1    2    0    0  0.52719915966E+02  0.36814097847E+03  0.34524136734E+03  0.51537271969E+03  0.90057031437E+02 0.  0.
         13    1    3    3    0    0  0.60587959828E+02  0.33844221594E+03  0.28056074185E+03  0.44376611439E+03  0.00000000000E+00 0. -1.
        -13    1    3    3    0    0 -0.78680438622E+01  0.29698762523E+02  0.64680625484E+02  0.71606605300E+02  0.00000000000E+00 0.  1.
         22    1    1    2    0    0 -0.52719915966E+02 -0.36814097847E+03  0.17322376337E+04  0.17717094540E+04  0.00000000000E+00 0. -1.
<mgrwt>
<rscale>  0 0.95646530E+03</rscale>
<asrwt>0</asrwt>
<pdfrwt beam="1">  1        2 0.33573544E+00 0.95646530E+03</pdfrwt>
<pdfrwt beam="2">  1       -2 0.16123323E-01 0.95646530E+03</pdfrwt>
<totfact> 0.16545327E+02</totfact>
</mgrwt>
</event>
<event>
 6    1  0.2003386E-005  0.2026009E+04  0.7818608E-02  0.8594556E-01
          2   -1    0    0  501    0  0.00000000000E+00  0.00000000000E+00  0.11199616087E+04  0.11199616087E+04  0.00000000000E+00 0. -1.
         -2   -1    0    0    0  501 -0.00000000000E+00 -0.00000000000E+00 -0.91626183266E+03  0.91626183266E+03  0.00000000000E+00 0.  1.
         23    2    1    2    0    0 -0.16797557966E+03 -0.34271601499E+03 -0.83843567977E+03  0.92639626087E+03  0.97803786999E+02 0.  0.
         11    1    3    3    0    0 -0.10071315724E+03 -0.10233067382E+03 -0.33508605233E+03  0.36455091457E+03  0.00000000000E+00 0. -1.
        -11    1    3    3    0    0 -0.67262422420E+02 -0.24038534117E+03 -0.50334962744E+03  0.56184534630E+03  0.00000000000E+00 0.  1.
         22    1    1    2    0    0  0.16797557966E+03  0.34271601499E+03  0.10421354558E+04  0.11098271805E+04  0.00000000000E+00 0. -1.
<mgrwt>
<rscale>  0 0.20260090E+04</rscale>
<asrwt>0</asrwt>
<pdfrwt beam="1">  1        2 0.17230179E+00 0.20260090E+04</pdfrwt>
<pdfrwt beam="2">  1       -2 0.14096336E+00 0.20260090E+04</pdfrwt>
<totfact> 0.69274799E+00</totfact>
</mgrwt>
</event>
<event>
 6    1  0.2003386E-005  0.4286744E+04  0.7818608E-02  0.7949074E-01
         -2   -1    0    0    0  501 -0.00000000000E+00  0.00000000000E+00  0.15794004108E+04  0.15794004108E+04  0.00000000000E+00 0.  1.
          2   -1    0    0  501    0  0.00000000000E+00 -0.00000000000E+00 -0.29087269538E+04  0.29087269538E+04  0.00000000000E+00 0. -1.
         23    2    1    2    0    0 -0.37062718524E+03  0.20785863750E+04 -0.28429457412E+03  0.21322883114E+04  0.89130293963E+02 0.  0.
         11    1    3    3    0    0 -0.33694745168E+03  0.19064067834E+04 -0.28515968076E+03  0.19568434921E+04  0.00000000000E+00 0. -1.
        -11    1    3    3    0    0 -0.33679733561E+02  0.17217959155E+03  0.86510664080E+00  0.17544481927E+03  0.00000000000E+00 0.  1.
         22    1    1    2    0    0  0.37062718524E+03 -0.20785863750E+04 -0.10450319688E+04  0.23558390532E+04  0.00000000000E+00 0.  1.
<mgrwt>
<rscale>  0 0.42867445E+04</rscale>
<asrwt>0</asrwt>
<pdfrwt beam="1">  1        2 0.44749646E+00 0.42867445E+04</pdfrwt>
<pdfrwt beam="2">  1       -2 0.24298468E+00 0.42867445E+04</pdfrwt>
<totfact> 0.10854785E-01</totfact>
</mgrwt>
</event>
<event>
 6    1  0.2003386E-005  0.3446680E+04  0.7818608E-02  0.8126544E-01
         -2   -1    0    0    0  501 -0.00000000000E+00  0.00000000000E+00  0.14050458475E+04  0.14050458475E+04  0.00000000000E+00 0.  1.
          2   -1    0    0  501    0  0.00000000000E+00 -0.00000000000E+00 -0.21137398530E+04  0.21137398530E+04  0.00000000000E+00 0. -1.
         23    2    1    2    0    0  0.30185864552E+03 -0.76477830028E+03 -0.18995222557E+04  0.20716933012E+04  0.87885401315E+02 0.  0.
         11    1    3    3    0    0  0.11193725368E+03 -0.30909014945E+03 -0.65602068785E+03  0.73377776754E+03  0.00000000000E+00 0. -1.
        -11    1    3    3    0    0  0.18992139184E+03 -0.45568815083E+03 -0.12435015679E+04  0.13379155337E+04  0.00000000000E+00 0.  1.
         22    1    1    2    0    0 -0.30185864552E+03  0.76477830028E+03  0.11908282502E+04  0.14470923993E+04  0.00000000000E+00 0.  1.
<mgrwt>
<rscale>  0 0.34466804E+04</rscale>
<asrwt>0</asrwt>
<pdfrwt beam="1">  1        2 0.32519075E+00 0.34466804E+04</pdfrwt>
<pdfrwt beam="2">  1       -2 0.21616090E+00 0.34466804E+04</pdfrwt>
<totfact> 0.49812918E-01</totfact>
</mgrwt>
</event>
<event>
 6    1  0.2003386E-005  0.1951323E+04  0.7818608E-02  0.8629723E-01
          2   -1    0    0  501    0  0.00000000000E+00  0.00000000000E+00  0.13604706115E+04  0.13604706115E+04  0.00000000000E+00 0. -1.
         -2   -1    0    0    0  501 -0.00000000000E+00 -0.00000000000E+00 -0.69969538267E+03  0.69969538267E+03  0.00000000000E+00 0.  1.
         23    2    1    2    0    0 -0.88280832148E+03  0.25100961143E+03 -0.11639834274E+02  0.92240574938E+03  0.91326465210E+02 0.  0.
         13    1    3    3    0    0 -0.80935601307E+03  0.22542117822E+03 -0.35899705291E+02  0.84092844661E+03  0.00000000000E+00 0.  1.
        -13    1    3    3    0    0 -0.73452308411E+02  0.25588433209E+02  0.24259871017E+02  0.81477302771E+02  0.00000000000E+00 0. -1.
         22    1    1    2    0    0  0.88280832148E+03 -0.25100961143E+03  0.67241506308E+03  0.11377602448E+04  0.00000000000E+00 0. -1.
<mgrwt>
<rscale>  0 0.19513226E+04</rscale>
<asrwt>0</asrwt>
<pdfrwt beam="1">  1        2 0.20930317E+00 0.19513226E+04</pdfrwt>
<pdfrwt beam="2">  1       -2 0.10764544E+00 0.19513226E+04</pdfrwt>
<totfact> 0.98479699E+00</totfact>
</mgrwt>
</event>
<event>
 6    1  0.2003386E-005  0.1076196E+04  0.7818608E-02  0.9228708E-01
          2   -1    0    0  501    0  0.00000000000E+00  0.00000000000E+00  0.25037905058E+03  0.25037905058E+03  0.00000000000E+00 0. -1.
         -2   -1    0    0    0  501 -0.00000000000E+00 -0.00000000000E+00 -0.11564449206E+04  0.11564449206E+04  0.00000000000E+00 0.  1.
         23    2    1    2    0    0  0.52565078383E+03  0.79746502932E+02 -0.38499818118E+03  0.66239144395E+03  0.88716256880E+02 0.  0.
         13    1    3    3    0    0  0.19212419518E+03  0.16585745675E+02 -0.90609934766E+02  0.21306560871E+03  0.00000000000E+00 0.  1.
        -13    1    3    3    0    0  0.33352658864E+03  0.63160757257E+02 -0.29438824641E+03  0.44932583524E+03  0.00000000000E+00 0. -1.
         22    1    1    2    0    0 -0.52565078383E+03 -0.79746502932E+02 -0.52106768886E+03  0.74443252726E+03  0.00000000000E+00 0. -1.
<mgrwt>
<rscale>  0 0.10761962E+04</rscale>
<asrwt>0</asrwt>
<pdfrwt beam="1">  1        2 0.38519854E-01 0.10761962E+04</pdfrwt>
<pdfrwt beam="2">  1       -2 0.17791460E+00 0.10761962E+04</pdfrwt>
<totfact> 0.25023891E+01</totfact>
</mgrwt>
</event>
<event>
 6    1  0.2003386E-005  0.9562623E+03  0.7818608E-02  0.9357861E-01
         -1   -1    0    0    0  501 -0.00000000000E+00  0.00000000000E+00  0.12643288442E+04  0.12643288442E+04  0.00000000000E+00 0.  1.
          1   -1    0    0  501    0  0.00000000000E+00 -0.00000000000E+00 -0.18081481680E+03  0.18081481680E+03  0.00000000000E+00 0. -1.
         23    2    1    2    0    0  0.81510815427E+02  0.42416978736E+03  0.84060427393E+03  0.94959429931E+03  0.92464946846E+02 0.  0.
         11    1    3    3    0    0  0.52449599871E+02  0.27927038886E+03  0.64168595689E+03  0.70178613401E+03  0.00000000000E+00 0.  1.
        -11    1    3    3    0    0  0.29061215556E+02  0.14489939850E+03  0.19891831704E+03  0.24780816530E+03  0.00000000000E+00 0. -1.
         22    1    1    2    0    0 -0.81510815427E+02 -0.42416978736E+03  0.24290975348E+03  0.49554936170E+03  0.00000000000E+00 0. -1.
<mgrwt>
<rscale>  0 0.95626228E+03</rscale>
<asrwt>0</asrwt>
<pdfrwt beam="1">  1        1 0.27817665E-01 0.95626228E+03</pdfrwt>
<pdfrwt beam="2">  1       -1 0.19451212E+00 0.95626228E+03</pdfrwt>
<totfact> 0.28096528E+01</totfact>
</mgrwt>
</event>
<event>
 6    1  0.2003386E-005  0.1412278E+04  0.7818608E-02  0.8944979E-01
         -2   -1    0    0    0  501 -0.00000000000E+00  0.00000000000E+00  0.13532480832E+04  0.13532480832E+04  0.00000000000E+00 0.  1.
          2   -1    0    0  501    0  0.00000000000E+00 -0.00000000000E+00 -0.36847069368E+03  0.36847069368E+03  0.00000000000E+00 0. -1.
         23    2    1    2    0    0 -0.69844785452E+02 -0.47320138338E+03  0.11227199855E+04  0.12238975208E+04  0.92882356865E+02 0.  0.
         11    1    3    3    0    0 -0.33702361865E+01 -0.25313342281E+03  0.66818948427E+03  0.71453836504E+03  0.00000000000E+00 0. -1.
        -11    1    3    3    0    0 -0.66474549266E+02 -0.22006796057E+03  0.45453050122E+03  0.50935915571E+03  0.00000000000E+00 0.  1.
         22    1    1    2    0    0  0.69844785452E+02  0.47320138338E+03 -0.13794259595E+03  0.49782125614E+03  0.00000000000E+00 0. -1.
<mgrwt>
<rscale>  0 0.14122780E+04</rscale>
<asrwt>0</asrwt>
<pdfrwt beam="1">  1        2 0.56687800E-01 0.14122780E+04</pdfrwt>
<pdfrwt beam="2">  1       -2 0.20819201E+00 0.14122780E+04</pdfrwt>
<totfact> 0.99691535E+00</totfact>
</mgrwt>
</event>
<event>
 6    1  0.2003386E-005  0.2530112E+04  0.7818608E-02  0.8392336E-01
         -2   -1    0    0    0  501 -0.00000000000E+00  0.00000000000E+00  0.47981118786E+03  0.47981118786E+03  0.00000000000E+00 0.  1.
          2   -1    0    0  501    0  0.00000000000E+00 -0.00000000000E+00 -0.33354105370E+04  0.33354105370E+04  0.00000000000E+00 0. -1.
         23    2    1    2    0    0  0.10097382367E+04 -0.34675804948E+03 -0.24482833250E+04  0.26725411942E+04  0.92589111928E+02 0.  0.
         11    1    3    3    0    0  0.33534839572E+03 -0.11739085652E+03 -0.92655621270E+03  0.99234347632E+03  0.00000000000E+00 0. -1.
        -11    1    3    3    0    0  0.67438984102E+03 -0.22936719295E+03 -0.15217271123E+04  0.16801977179E+04  0.00000000000E+00 0.  1.
         22    1    1    2    0    0 -0.10097382367E+04  0.34675804948E+03 -0.40731602413E+03  0.11426805306E+04  0.00000000000E+00 0.  1.
<mgrwt>
<rscale>  0 0.25301125E+04</rscale>
<asrwt>0</asrwt>
<pdfrwt beam="1">  1        2 0.51314006E+00 0.25301125E+04</pdfrwt>
<pdfrwt beam="2">  1       -2 0.73817109E-01 0.25301125E+04</pdfrwt>
<totfact> 0.15529734E+00</totfact>
</mgrwt>
</event>
<event>
 6    1  0.2003386E-005  0.2745276E+04  0.7818608E-02  0.8320462E-01
         -4   -1    0    0    0  501 -0.00000000000E+00  0.00000000000E+00  0.11612111933E+04  0.11612111933E+04  0.00000000000E+00 0.  1.
          4   -1    0    0  501    0  0.00000000000E+00 -0.00000000000E+00 -0.16225601131E+04  0.16225601131E+04  0.00000000000E+00 0. -1.
         23    2    1    2    0    0  0.52935178885E+03 -0.29178130375E+03  0.10169278143E+04  0.11866953069E+04  0.93562419244E+02 0.  0.
         13    1    3    3    0    0  0.82937702432E+02 -0.68783975312E+02  0.24328295878E+03  0.26607610899E+03  0.00000000000E+00 0.  1.
        -13    1    3    3    0    0  0.44641408642E+03 -0.22299732844E+03  0.77364485553E+03  0.92061919790E+03  0.00000000000E+00 0. -1.
         22    1    1    2    0    0 -0.52935178885E+03  0.29178130375E+03 -0.14782767341E+04  0.15970759995E+04  0.00000000000E+00 0. -1.
<mgrwt>
<rscale>  0 0.27452759E+04</rscale>
<asrwt>0</asrwt>
<pdfrwt beam="1">  1        4 0.24962463E+00 0.27452759E+04</pdfrwt>
<pdfrwt beam="2">  1       -4 0.17864788E+00 0.27452759E+04</pdfrwt>
<totfact> 0.20289292E-02</totfact>
</mgrwt>
</event>
<event>
 6    1  0.2003386E-005  0.7884780E+03  0.7818608E-02  0.9576846E-01
          1   -1    0    0  501    0  0.00000000000E+00  0.00000000000E+00  0.23485767712E+03  0.23485767712E+03  0.00000000000E+00 0. -1.
         -1   -1    0    0    0  501 -0.00000000000E+00 -0.00000000000E+00 -0.66178117099E+03  0.66178117099E+03  0.00000000000E+00 0.  1.
         23    2    1    2    0    0  0.97661828846E+01 -0.36056312926E+03 -0.51413027058E+02  0.37595731474E+03  0.92733244541E+02 0.  0.
         11    1    3    3    0    0  0.43771892213E+02 -0.23400236309E+03 -0.56995381969E+02  0.24478880295E+03  0.00000000000E+00 0. -1.
        -11    1    3    3    0    0 -0.34005709328E+02 -0.12656076617E+03  0.55823549106E+01  0.13116851179E+03  0.00000000000E+00 0.  1.
         22    1    1    2    0    0 -0.97661828846E+01  0.36056312926E+03 -0.37551046681E+03  0.52068153338E+03  0.00000000000E+00 0.  1.
<mgrwt>
<rscale>  0 0.78847800E+03</rscale>
<asrwt>0</asrwt>
<pdfrwt beam="1">  1        1 0.36131950E-01 0.78847800E+03</pdfrwt>
<pdfrwt beam="2">  1       -1 0.10181249E+00 0.78847800E+03</pdfrwt>
<totfact> 0.11178058E+02</totfact>
</mgrwt>
</event>
<event>
 6    1  0.2003386E-005  0.3162916E+04  0.7818608E-02  0.8198680E-01
         -2   -1    0    0    0  501 -0.00000000000E+00  0.00000000000E+00  0.10560189295E+04  0.10560189295E+04  0.00000000000E+00 0.  1.
          2   -1    0    0  501    0  0.00000000000E+00 -0.00000000000E+00 -0.23683381450E+04  0.23683381450E+04  0.00000000000E+00 0. -1.
         23    2    1    2    0    0  0.95274469364E+03 -0.65539167857E+03 -0.18224957961E+04  0.21604184498E+04  0.93038958663E+02 0.  0.
         11    1    3    3    0    0  0.13195808434E+03 -0.61728728447E+02 -0.19471304386E+03  0.24318005960E+03  0.00000000000E+00 0. -1.
        -11    1    3    3    0    0  0.82078660930E+03 -0.59366295012E+03 -0.16277827523E+04  0.19172383902E+04  0.00000000000E+00 0.  1.
         22    1    1    2    0    0 -0.95274469364E+03  0.65539167857E+03  0.51017658055E+03  0.12639386247E+04  0.00000000000E+00 0.  1.
<mgrwt>
<rscale>  0 0.31629163E+04</rscale>
<asrwt>0</asrwt>
<pdfrwt beam="1">  1        2 0.36435971E+00 0.31629163E+04</pdfrwt>
<pdfrwt beam="2">  1       -2 0.16246445E+00 0.31629163E+04</pdfrwt>
<totfact> 0.84569402E-01</totfact>
</mgrwt>
</event>
<event>
 6    1  0.2003386E-005  0.1251417E+04  0.7818608E-02  0.9069004E-01
         -2   -1    0    0    0  501 -0.00000000000E+00  0.00000000000E+00  0.11982275731E+03  0.11982275731E+03  0.00000000000E+00 0.  1.
          2   -1    0    0  501    0  0.00000000000E+00 -0.00000000000E+00 -0.32674212981E+04  0.32674212981E+04  0.00000000000E+00 0. -1.
         23    2    1    2    0    0 -0.67932500080E+01 -0.36237522100E+03 -0.29516672491E+04  0.29752355360E+04  0.91241414519E+02 0.  0.
         13    1    3    3    0    0 -0.12478243754E+02 -0.25191880870E+03 -0.16884368924E+04  0.17071724963E+04  0.00000000000E+00 0.  1.
        -13    1    3    3    0    0  0.56849937461E+01 -0.11045641230E+03 -0.12632303568E+04  0.12680630396E+04  0.00000000000E+00 0. -1.
         22    1    1    2    0    0  0.67932500080E+01  0.36237522100E+03 -0.19593129162E+03  0.41200851943E+03  0.00000000000E+00 0.  1.
<mgrwt>
<rscale>  0 0.12514175E+04</rscale>
<asrwt>0</asrwt>
<pdfrwt beam="1">  1        2 0.50268015E+00 0.12514175E+04</pdfrwt>
<pdfrwt beam="2">  1       -2 0.18434272E-01 0.12514175E+04</pdfrwt>
<totfact> 0.28896597E+01</totfact>
</mgrwt>
</event>
<event>
 6    1  0.2003386E-005  0.2156325E+04  0.7818608E-02  0.8536830E-01
         -2   -1    0    0    0  501 -0.00000000000E+00  0.00000000000E+00  0.46412955524E+03  0.46412955524E+03  0.00000000000E+00 0.  1.
          2   -1    0    0  501    0  0.00000000000E+00 -0.00000000000E+00 -0.25045472093E+04  0.25045472093E+04  0.00000000000E+00 0. -1.
         23    2    1    2    0    0  0.96260656071E+03 -0.37930868982E+03 -0.61389980579E+03  0.12064510002E+04  0.90358018676E+02 0.  0.
         13    1    3    3    0    0  0.57301144811E+03 -0.23921367386E+03 -0.41723184368E+03  0.74809605854E+03  0.00000000000E+00 0.  1.
        -13    1    3    3    0    0  0.38959511261E+03 -0.14009501596E+03 -0.19666796211E+03  0.45835494170E+03  0.00000000000E+00 0. -1.
         22    1    1    2    0    0 -0.96260656071E+03  0.37930868982E+03 -0.14265178482E+04  0.17622257643E+04  0.00000000000E+00 0. -1.
<mgrwt>
<rscale>  0 0.21563250E+04</rscale>
<asrwt>0</asrwt>
<pdfrwt beam="1">  1        2 0.38531496E+00 0.21563250E+04</pdfrwt>
<pdfrwt beam="2">  1       -2 0.71404546E-01 0.21563250E+04</pdfrwt>
<totfact> 0.56498737E+00</totfact>
</mgrwt>
</event>
<event>
 6    1  0.2003386E-005  0.2547459E+04  0.7818608E-02  0.8386271E-01
         -2   -1    0    0    0  501 -0.00000000000E+00  0.00000000000E+00  0.10205651865E+04  0.10205651865E+04  0.00000000000E+00 0.  1.
          2   -1    0    0  501    0  0.00000000000E+00 -0.00000000000E+00 -0.15896940740E+04  0.15896940740E+04  0.00000000000E+00 0. -1.
         23    2    1    2    0    0 -0.10564837202E+04 -0.65845973866E+03 -0.17203151669E+02  0.12485143885E+04  0.93622387327E+02 0.  0.
         13    1    3    3    0    0 -0.65159969381E+03 -0.38264492703E+03 -0.51605229827E+02  0.75740504415E+03  0.00000000000E+00 0. -1.
        -13    1    3    3    0    0 -0.40488402642E+03 -0.27581481163E+03  0.34402078159E+02  0.49110934439E+03  0.00000000000E+00 0.  1.
         22    1    1    2    0    0  0.10564837202E+04  0.65845973866E+03 -0.55192573579E+03  0.13617448720E+04  0.00000000000E+00 0. -1.
<mgrwt>
<rscale>  0 0.25474587E+04</rscale>
<asrwt>0</asrwt>
<pdfrwt beam="1">  1        2 0.24456832E+00 0.25474587E+04</pdfrwt>
<pdfrwt beam="2">  1       -2 0.15701003E+00 0.25474587E+04</pdfrwt>
<totfact> 0.26624098E+00</totfact>
</mgrwt>
</event>
<event>
 6    1  0.2003386E-005  0.5103058E+04  0.7818608E-02  0.7812803E-01
          2   -1    0    0  501    0  0.00000000000E+00  0.00000000000E+00  0.36756694722E+04  0.36756694722E+04  0.00000000000E+00 0. -1.
         -2   -1    0    0    0  501 -0.00000000000E+00 -0.00000000000E+00 -0.17711877241E+04  0.17711877241E+04  0.00000000000E+00 0.  1.
         23    2    1    2    0    0  0.22887265856E+04  0.87073049957E+03  0.19061721875E+03  0.24579154754E+04  0.92588192373E+02 0.  0.
         11    1    3    3    0    0  0.51610882890E+03  0.22049275687E+03  0.11923685987E+02  0.56136223011E+03  0.00000000000E+00 0. -1.
        -11    1    3    3    0    0  0.17726177567E+04  0.65023774270E+03  0.17869353276E+03  0.18965532452E+04  0.00000000000E+00 0.  1.
         22    1    1    2    0    0 -0.22887265856E+04 -0.87073049957E+03  0.17138645293E+04  0.29889417210E+04  0.00000000000E+00 0. -1.
<mgrwt>
<rscale>  0 0.51030582E+04</rscale>
<asrwt>0</asrwt>
<pdfrwt beam="1">  1        2 0.56548761E+00 0.51030582E+04</pdfrwt>
<pdfrwt beam="2">  1       -2 0.27249042E+00 0.51030582E+04</pdfrwt>
<totfact> 0.20499034E-02</totfact>
</mgrwt>
</event>
<event>
 6    1  0.2003386E-005  0.1290885E+04  0.7818608E-02  0.9036825E-01
          2   -1    0    0  501    0  0.00000000000E+00  0.00000000000E+00  0.39412835756E+04  0.39412835756E+04  0.00000000000E+00 0. -1.
         -2   -1    0    0    0  501 -0.00000000000E+00 -0.00000000000E+00 -0.10570055561E+03  0.10570055561E+03  0.00000000000E+00 0.  1.
         23    2    1    2    0    0  0.29988364530E+03  0.36109890202E+03  0.33014679956E+04  0.33359275392E+04  0.91646074784E+02 0.  0.
         13    1    3    3    0    0  0.24674850013E+03  0.23855743334E+03  0.24896194463E+04  0.25131652271E+04  0.00000000000E+00 0.  1.
        -13    1    3    3    0    0  0.53135145164E+02  0.12254146868E+03  0.81184854933E+03  0.82276231212E+03  0.00000000000E+00 0. -1.
         22    1    1    2    0    0 -0.29988364530E+03 -0.36109890202E+03  0.53411502434E+03  0.71105659197E+03  0.00000000000E+00 0.  1.
<mgrwt>
<rscale>  0 0.12908848E+04</rscale>
<asrwt>0</asrwt>
<pdfrwt beam="1">  1        2 0.60635121E+00 0.12908848E+04</pdfrwt>
<pdfrwt beam="2">  1       -2 0.16261627E-01 0.12908848E+04</pdfrwt>
<totfact> 0.11823071E+01</totfact>
</mgrwt>
</event>
<event>
 6    1  0.2243411E-005  0.2484944E+04  0.7818608E-02  0.8408369E-01
         -2   -1    0    0    0  501 -0.00000000000E+00  0.00000000000E+00  0.56749374668E+03  0.56749374668E+03  0.00000000000E+00 0.  1.
          2   -1    0    0  501    0  0.00000000000E+00 -0.00000000000E+00 -0.27202717997E+04  0.27202717997E+04  0.00000000000E+00 0. -1.
         23    2    1    2    0    0 -0.90155142487E+03  0.85013050245E+03 -0.99671065383E+03  0.15930653740E+04  0.94383872757E+02 0.  0.
         13    1    3    3    0    0 -0.37592479190E+03  0.32641499435E+03 -0.34745616714E+03  0.60711776928E+03  0.00000000000E+00 0.  1.
        -13    1    3    3    0    0 -0.52562663297E+03  0.52371550811E+03 -0.64925448669E+03  0.98594760469E+03  0.00000000000E+00 0. -1.
         22    1    1    2    0    0  0.90155142487E+03 -0.85013050245E+03 -0.11560673992E+04  0.16947001724E+04  0.00000000000E+00 0. -1.
<mgrwt>
<rscale>  0 0.24849445E+04</rscale>
<asrwt>0</asrwt>
<pdfrwt beam="1">  1        2 0.41850334E+00 0.24849445E+04</pdfrwt>
<pdfrwt beam="2">  1       -2 0.87306732E-01 0.24849445E+04</pdfrwt>
<totfact> 0.26134644E+00</totfact>
</mgrwt>
</event>
<event>
 6    1  0.2003386E-005  0.2425567E+04  0.7818608E-02  0.8429993E-01
          1   -1    0    0  501    0  0.00000000000E+00  0.00000000000E+00  0.89848394433E+03  0.89848394433E+03  0.00000000000E+00 0. -1.
         -1   -1    0    0    0  501 -0.00000000000E+00 -0.00000000000E+00 -0.16370282567E+04  0.16370282567E+04  0.00000000000E+00 0.  1.
         23    2    1    2    0    0  0.33633030558E+03  0.40724158282E+02  0.84563169256E+03  0.91551524235E+03  0.91097025249E+02 0.  0.
         11    1    3    3    0    0  0.19462072946E+03  0.17435589125E+02  0.36664904200E+03  0.41546690375E+03  0.00000000000E+00 0.  1.
        -11    1    3    3    0    0  0.14170957612E+03  0.23288569158E+02  0.47898265055E+03  0.50004833861E+03  0.00000000000E+00 0. -1.
         22    1    1    2    0    0 -0.33633030558E+03 -0.40724158282E+02 -0.15841760050E+04  0.16199969587E+04  0.00000000000E+00 0.  1.
<mgrwt>
<rscale>  0 0.24255668E+04</rscale>
<asrwt>0</asrwt>
<pdfrwt beam="1">  1        1 0.13822830E+00 0.24255668E+04</pdfrwt>
<pdfrwt beam="2">  1       -1 0.25185050E+00 0.24255668E+04</pdfrwt>
<totfact> 0.11063280E+00</totfact>
</mgrwt>
</event>
<event>
 6    1  0.2003386E-005  0.8737416E+03  0.7818608E-02  0.9459014E-01
          3   -1    0    0  501    0  0.00000000000E+00  0.00000000000E+00  0.11295665657E+03  0.11295665657E+03  0.00000000000E+00 0. -1.
         -3   -1    0    0    0  501 -0.00000000000E+00 -0.00000000000E+00 -0.16896401495E+04  0.16896401495E+04  0.00000000000E+00 0.  1.
         23    2    1    2    0    0  0.24912825019E+02 -0.23304537179E+03 -0.15458994783E+04  0.15662105761E+04  0.90992183150E+02 0.  0.
         13    1    3    3    0    0  0.19613100008E+02 -0.34070459664E+02 -0.11501171131E+03  0.12154490385E+03  0.00000000000E+00 0.  1.
        -13    1    3    3    0    0  0.52997250109E+01 -0.19897491213E+03 -0.14308877670E+04  0.14446656723E+04  0.00000000000E+00 0. -1.
         22    1    1    2    0    0 -0.24912825019E+02  0.23304537179E+03 -0.30784014594E+02  0.23638622997E+03  0.00000000000E+00 0. -1.
<mgrwt>
<rscale>  0 0.87374161E+03</rscale>
<asrwt>0</asrwt>
<pdfrwt beam="1">  1        3 0.17377947E-01 0.87374161E+03</pdfrwt>
<pdfrwt beam="2">  1       -3 0.25994464E+00 0.87374161E+03</pdfrwt>
<totfact> 0.50442262E+00</totfact>
</mgrwt>
</event>
<event>
 6    1  0.2003386E-005  0.4451705E+04  0.7818608E-02  0.7919147E-01
         -2   -1    0    0    0  501 -0.00000000000E+00  0.00000000000E+00  0.23122039070E+04  0.23122039070E+04  0.00000000000E+00 0.  1.
          2   -1    0    0  501    0  0.00000000000E+00 -0.00000000000E+00 -0.21427262272E+04  0.21427262272E+04  0.00000000000E+00 0. -1.
         23    2    1    2    0    0  0.17053469779E+04 -0.84237955503E+03 -0.10704193994E+04  0.21844331849E+04  0.90216511275E+02 0.  0.
         13    1    3    3    0    0  0.68216543684E+03 -0.37468206551E+03 -0.40488107899E+03  0.87730554630E+03  0.00000000000E+00 0.  1.
        -13    1    3    3    0    0  0.10231815411E+04 -0.46769748952E+03 -0.66553832040E+03  0.13071276386E+04  0.00000000000E+00 0. -1.
         22    1    1    2    0    0 -0.17053469779E+04  0.84237955503E+03  0.12398970792E+04  0.22704969493E+04  0.00000000000E+00 0.  1.
<mgrwt>
<rscale>  0 0.44517053E+04</rscale>
<asrwt>0</asrwt>
<pdfrwt beam="1">  1        2 0.32965019E+00 0.44517053E+04</pdfrwt>
<pdfrwt beam="2">  1       -2 0.35572368E+00 0.44517053E+04</pdfrwt>
<totfact> 0.60548589E-02</totfact>
</mgrwt>
</event>
<event>
 6    1  0.2003386E-005  0.1889470E+04  0.7818608E-02  0.8660116E-01
         -1   -1    0    0    0  501 -0.00000000000E+00  0.00000000000E+00  0.10474768672E+04  0.10474768672E+04  0.00000000000E+00 0. -1.
          1   -1    0    0  501    0  0.00000000000E+00 -0.00000000000E+00 -0.85207081796E+03  0.85207081796E+03  0.00000000000E+00 0.  1.
         23    2    1    2    0    0 -0.50226274141E+03  0.25696381777E+03 -0.66082285477E+03  0.87415692984E+03  0.95735194872E+02 0.  0.
         11    1    3    3    0    0 -0.37182716133E+03  0.14087129786E+03 -0.46151007873E+03  0.60917297481E+03  0.00000000000E+00 0. -1.
        -11    1    3    3    0    0 -0.13043558008E+03  0.11609251991E+03 -0.19931277604E+03  0.26498395503E+03  0.00000000000E+00 0.  1.
         22    1    1    2    0    0  0.50226274141E+03 -0.25696381777E+03  0.85622890401E+03  0.10253907553E+04  0.00000000000E+00 0. -1.
<mgrwt>
<rscale>  0 0.18894703E+04</rscale>
<asrwt>0</asrwt>
<pdfrwt beam="1">  1        1 0.13108782E+00 0.18894703E+04</pdfrwt>
<pdfrwt beam="2">  1       -1 0.16115029E+00 0.18894703E+04</pdfrwt>
<totfact> 0.53507620E+00</totfact>
</mgrwt>
</event>
<event>
 6    1  0.2003386E-005  0.2471461E+04  0.7818608E-02  0.8413224E-01
         -2   -1    0    0    0  501 -0.00000000000E+00  0.00000000000E+00  0.19419998295E+04  0.19419998295E+04  0.00000000000E+00 0.  1.
          2   -1    0    0  501    0  0.00000000000E+00 -0.00000000000E+00 -0.78631794826E+03  0.78631794826E+03  0.00000000000E+00 0. -1.
         23    2    1    2    0    0 -0.68772473744E+03  0.49303597549E+03 -0.41360008279E+03  0.94542808117E+03  0.81972193936E+02 0.  0.
         13    1    3    3    0    0 -0.57745525209E+03  0.38050472717E+03 -0.35488145456E+03  0.77728969011E+03  0.00000000000E+00 0. -1.
        -13    1    3    3    0    0 -0.11026948535E+03  0.11253124833E+03 -0.58718628227E+02  0.16813839107E+03  0.00000000000E+00 0.  1.
         22    1    1    2    0    0  0.68772473744E+03 -0.49303597549E+03  0.15692819640E+04  0.17828896966E+04  0.00000000000E+00 0.  1.
<mgrwt>
<rscale>  0 0.24714606E+04</rscale>
<asrwt>0</asrwt>
<pdfrwt beam="1">  1        2 0.12097199E+00 0.24714606E+04</pdfrwt>
<pdfrwt beam="2">  1       -2 0.29876920E+00 0.24714606E+04</pdfrwt>
<totfact> 0.10191581E+00</totfact>
</mgrwt>
</event>
<event>
 6    1  0.2003386E-005  0.2870762E+04  0.7818608E-02  0.8281630E-01
          2   -1    0    0  501    0  0.00000000000E+00  0.00000000000E+00  0.39115142439E+04  0.39115142439E+04  0.00000000000E+00 0. -1.
         -2   -1    0    0    0  501 -0.00000000000E+00 -0.00000000000E+00 -0.52673183641E+03  0.52673183641E+03  0.00000000000E+00 0.  1.
         23    2    1    2    0    0  0.74022435061E+03 -0.13501056951E+03 -0.19304294691E+03  0.78215606368E+03  0.91337755014E+02 0.  0.
         11    1    3    3    0    0  0.29874252541E+03 -0.44470251926E+02 -0.32646655249E+02  0.30379352181E+03  0.00000000000E+00 0.  1.
        -11    1    3    3    0    0  0.44148182520E+03 -0.90540317582E+02 -0.16039629166E+03  0.47836254187E+03  0.00000000000E+00 0. -1.
         22    1    1    2    0    0 -0.74022435061E+03  0.13501056951E+03  0.35778253544E+04  0.36560900166E+04  0.00000000000E+00 0. -1.
<mgrwt>
<rscale>  0 0.28707623E+04</rscale>
<asrwt>0</asrwt>
<pdfrwt beam="1">  1        2 0.60177140E+00 0.28707623E+04</pdfrwt>
<pdfrwt beam="2">  1       -2 0.81035670E-01 0.28707623E+04</pdfrwt>
<totfact> 0.46772507E-01</totfact>
</mgrwt>
</event>
<event>
 6    1  0.2003386E-005  0.1965028E+04  0.7818608E-02  0.8623148E-01
          2   -1    0    0  501    0  0.00000000000E+00  0.00000000000E+00  0.13070931942E+04  0.13070931942E+04  0.00000000000E+00 0. -1.
         -2   -1    0    0    0  501 -0.00000000000E+00 -0.00000000000E+00 -0.73853489471E+03  0.73853489471E+03  0.00000000000E+00 0.  1.
         23    2    1    2    0    0  0.76924624821E+03  0.39885212899E+03 -0.19266355880E+03  0.89224977771E+03  0.90374818128E+02 0.  0.
         11    1    3    3    0    0  0.60246221819E+03  0.28856652383E+03 -0.11544532309E+03  0.67790780025E+03  0.00000000000E+00 0. -1.
        -11    1    3    3    0    0  0.16678403002E+03  0.11028560515E+03 -0.77218235703E+02  0.21434197746E+03  0.00000000000E+00 0.  1.
         22    1    1    2    0    0 -0.76924624821E+03 -0.39885212899E+03  0.76122185825E+03  0.11533783112E+04  0.00000000000E+00 0. -1.
<mgrwt>
<rscale>  0 0.19650282E+04</rscale>
<asrwt>0</asrwt>
<pdfrwt beam="1">  1        2 0.20109126E+00 0.19650282E+04</pdfrwt>
<pdfrwt beam="2">  1       -2 0.11362075E+00 0.19650282E+04</pdfrwt>
<totfact> 0.92662450E+00</totfact>
</mgrwt>
</event>
<event>
 6    1  0.2003386E-005  0.1590784E+04  0.7818608E-02  0.8826230E-01
         -2   -1    0    0    0  501 -0.00000000000E+00  0.00000000000E+00  0.21551726458E+03  0.21551726458E+03  0.00000000000E+00 0.  1.
          2   -1    0    0  501    0  0.00000000000E+00 -0.00000000000E+00 -0.29354871950E+04  0.29354871950E+04  0.00000000000E+00 0. -1.
         23    2    1    2    0    0  0.56741663887E+03  0.45887800772E+03 -0.19791180896E+04  0.21111044076E+04  0.85573005208E+02 0.  0.
         11    1    3    3    0    0  0.30627373288E+03  0.26976627984E+03 -0.99265212626E+03  0.10732826696E+04  0.00000000000E+00 0.  1.
        -11    1    3    3    0    0  0.26114290599E+03  0.18911172789E+03 -0.98646596330E+03  0.10378217379E+04  0.00000000000E+00 0. -1.
         22    1    1    2    0    0 -0.56741663887E+03 -0.45887800772E+03 -0.74085184082E+03  0.10399000520E+04  0.00000000000E+00 0.  1.
<mgrwt>
<rscale>  0 0.15907837E+04</rscale>
<asrwt>0</asrwt>
<pdfrwt beam="1">  1        2 0.45161340E+00 0.15907837E+04</pdfrwt>
<pdfrwt beam="2">  1       -2 0.33156504E-01 0.15907837E+04</pdfrwt>
<totfact> 0.15654001E+01</totfact>
</mgrwt>
</event>
<event>
 6    1  0.2003386E-005  0.4352676E+04  0.7818608E-02  0.7936949E-01
         -2   -1    0    0    0  501 -0.00000000000E+00  0.00000000000E+00  0.14851841010E+04  0.14851841010E+04  0.00000000000E+00 0.  1.
          2   -1    0    0  501    0  0.00000000000E+00 -0.00000000000E+00 -0.31891319037E+04  0.31891319037E+04  0.00000000000E+00 0. -1.
         23    2    1    2    0    0 -0.98930888871E+03 -0.62199441304E+03  0.11180903527E+04  0.16198915945E+04  0.91179020996E+02 0.  0.
         11    1    3    3    0    0 -0.48168221071E+03 -0.29695958544E+03  0.47889994088E+03  0.74131498088E+03  0.00000000000E+00 0. -1.
        -11    1    3    3    0    0 -0.50762667800E+03 -0.32503482760E+03  0.63919041185E+03  0.87857661360E+03  0.00000000000E+00 0.  1.
         22    1    1    2    0    0  0.98930888871E+03  0.62199441304E+03 -0.28220381555E+04  0.30544244103E+04  0.00000000000E+00 0. -1.
<mgrwt>
<rscale>  0 0.43526764E+04</rscale>
<asrwt>0</asrwt>
<pdfrwt beam="1">  1        2 0.49063568E+00 0.43526764E+04</pdfrwt>
<pdfrwt beam="2">  1       -2 0.22848986E+00 0.43526764E+04</pdfrwt>
<totfact> 0.88231851E-02</totfact>
</mgrwt>
</event>
<event>
 6    1  0.2003386E-005  0.1793552E+04  0.7818608E-02  0.8709736E-01
         -2   -1    0    0    0  501 -0.00000000000E+00  0.00000000000E+00  0.31527658382E+03  0.31527658382E+03  0.00000000000E+00 0.  1.
          2   -1    0    0  501    0  0.00000000000E+00 -0.00000000000E+00 -0.25507982524E+04  0.25507982524E+04  0.00000000000E+00 0. -1.
         23    2    1    2    0    0  0.53481545120E+03  0.70182355380E+03 -0.88667252625E+03  0.12542504425E+04  0.91499377630E+02 0.  0.
         13    1    3    3    0    0  0.22194881773E+03  0.22099361379E+03 -0.32714123298E+03  0.45290268418E+03  0.00000000000E+00 0.  1.
        -13    1    3    3    0    0  0.31286663347E+03  0.48082994002E+03 -0.55953129327E+03  0.80134775828E+03  0.00000000000E+00 0. -1.
         22    1    1    2    0    0 -0.53481545120E+03 -0.70182355380E+03 -0.13488491423E+04  0.16118243937E+04  0.00000000000E+00 0.  1.
<mgrwt>
<rscale>  0 0.17935517E+04</rscale>
<asrwt>0</asrwt>
<pdfrwt beam="1">  1        2 0.39243050E+00 0.17935517E+04</pdfrwt>
<pdfrwt beam="2">  1       -2 0.48504089E-01 0.17935517E+04</pdfrwt>
<totfact> 0.12383696E+01</totfact>
</mgrwt>
</event>
<event>
 6    1  0.2003386E-005  0.1545853E+04  0.7818608E-02  0.8854521E-01
          1   -1    0    0  501    0  0.00000000000E+00  0.00000000000E+00  0.11769960417E+04  0.11769960417E+04  0.00000000000E+00 0. -1.
         -1   -1    0    0    0  501 -0.00000000000E+00 -0.00000000000E+00 -0.50757608852E+03  0.50757608852E+03  0.00000000000E+00 0.  1.
         23    2    1    2    0    0 -0.82517701508E+00 -0.75759812569E+03  0.49071548230E+03  0.90618219649E+03  0.80055528806E+02 0.  0.
         11    1    3    3    0    0 -0.61354601715E+01 -0.57605645083E+03  0.33151877807E+03  0.66466787092E+03  0.00000000000E+00 0. -1.
        -11    1    3    3    0    0  0.53102831564E+01 -0.18154167486E+03  0.15919670423E+03  0.24151432557E+03  0.00000000000E+00 0.  1.
         22    1    1    2    0    0  0.82517701508E+00  0.75759812569E+03  0.17870447085E+03  0.77838993369E+03  0.00000000000E+00 0.  1.
<mgrwt>
<rscale>  0 0.15458526E+04</rscale>
<asrwt>0</asrwt>
<pdfrwt beam="1">  1        1 0.18107631E+00 0.15458526E+04</pdfrwt>
<pdfrwt beam="2">  1       -1 0.78088629E-01 0.15458526E+04</pdfrwt>
<totfact> 0.17584772E+01</totfact>
</mgrwt>
</event>
<event>
 6    1  0.2003386E-005  0.2004347E+04  0.7818608E-02  0.8604591E-01
          2   -1    0    0  501    0  0.00000000000E+00  0.00000000000E+00  0.92592995706E+03  0.92592995706E+03  0.00000000000E+00 0. -1.
         -2   -1    0    0    0  501 -0.00000000000E+00 -0.00000000000E+00 -0.10846955801E+04  0.10846955801E+04  0.00000000000E+00 0.  1.
         23    2    1    2    0    0  0.85433485136E+02 -0.62019115542E+03  0.70279197758E+03  0.94562908230E+03  0.91443140261E+02 0.  0.
         13    1    3    3    0    0  0.74464762675E+02 -0.49479698669E+03  0.50299758810E+03  0.70948969870E+03  0.00000000000E+00 0. -1.
        -13    1    3    3    0    0  0.10968722461E+02 -0.12539416873E+03  0.19979438948E+03  0.23613938361E+03  0.00000000000E+00 0.  1.
         22    1    1    2    0    0 -0.85433485136E+02  0.62019115542E+03 -0.86155760058E+03  0.10649964548E+04  0.00000000000E+00 0.  1.
<mgrwt>
<rscale>  0 0.20043474E+04</rscale>
<asrwt>0</asrwt>
<pdfrwt beam="1">  1        2 0.14245076E+00 0.20043474E+04</pdfrwt>
<pdfrwt beam="2">  1       -2 0.16687624E+00 0.20043474E+04</pdfrwt>
<totfact> 0.58686000E+00</totfact>
</mgrwt>
</event>
<event>
 6    1  0.2003386E-005  0.3700692E+04  0.7818608E-02  0.8067808E-01
          2   -1    0    0  501    0  0.00000000000E+00  0.00000000000E+00  0.21244912758E+04  0.21244912758E+04  0.00000000000E+00 0. -1.
         -2   -1    0    0    0  501 -0.00000000000E+00 -0.00000000000E+00 -0.16115769824E+04  0.16115769824E+04  0.00000000000E+00 0.  1.
         23    2    1    2    0    0  0.82106569168E+03  0.28815338641E+03 -0.13906332912E+04  0.16430621304E+04  0.92795311207E+02 0.  0.
         13    1    3    3    0    0  0.68137670836E+03  0.26448192385E+03 -0.12081053396E+04  0.14119997941E+04  0.00000000000E+00 0. -1.
        -13    1    3    3    0    0  0.13968898333E+03  0.23671462560E+02 -0.18252795153E+03  0.23106233638E+03  0.00000000000E+00 0.  1.
         22    1    1    2    0    0 -0.82106569168E+03 -0.28815338641E+03  0.19035475846E+04  0.20930061278E+04  0.00000000000E+00 0. -1.
<mgrwt>
<rscale>  0 0.37006925E+04</rscale>
<asrwt>0</asrwt>
<pdfrwt beam="1">  1        2 0.32684481E+00 0.37006925E+04</pdfrwt>
<pdfrwt beam="2">  1       -2 0.24793492E+00 0.37006925E+04</pdfrwt>
<totfact> 0.30455814E-01</totfact>
</mgrwt>
</event>
<event>
 6    1  0.2003386E-005  0.1233380E+04  0.7818608E-02  0.9084130E-01
          2   -1    0    0  501    0  0.00000000000E+00  0.00000000000E+00  0.18144983842E+04  0.18144983842E+04  0.00000000000E+00 0. -1.
         -2   -1    0    0    0  501 -0.00000000000E+00 -0.00000000000E+00 -0.20959329419E+03  0.20959329419E+03  0.00000000000E+00 0.  1.
         23    2    1    2    0    0  0.10327541905E+01 -0.27018003955E+03  0.17102379827E+04  0.17341031637E+04  0.95924472926E+02 0.  0.
         11    1    3    3    0    0 -0.90816626322E+01 -0.18619232004E+03  0.14066888294E+04  0.14189867932E+04  0.00000000000E+00 0.  1.
        -11    1    3    3    0    0  0.10114416823E+02 -0.83987719511E+02  0.30354915330E+03  0.31511637045E+03  0.00000000000E+00 0. -1.
         22    1    1    2    0    0 -0.10327541905E+01  0.27018003955E+03 -0.10533289272E+03  0.28998851467E+03  0.00000000000E+00 0.  1.
<mgrwt>
<rscale>  0 0.12333802E+04</rscale>
<asrwt>0</asrwt>
<pdfrwt beam="1">  1        2 0.27915359E+00 0.12333802E+04</pdfrwt>
<pdfrwt beam="2">  1       -2 0.32245123E-01 0.12333802E+04</pdfrwt>
<totfact> 0.74691856E+01</totfact>
</mgrwt>
</event>
<event>
 6    1  0.2003386E-005  0.1289561E+04  0.7818608E-02  0.9037885E-01
         -2   -1    0    0    0  501 -0.00000000000E+00  0.00000000000E+00  0.55629067652E+03  0.55629067652E+03  0.00000000000E+00 0.  1.
          2   -1    0    0  501    0  0.00000000000E+00 -0.00000000000E+00 -0.74734656462E+03  0.74734656462E+03  0.00000000000E+00 0. -1.
         23    2    1    2    0    0  0.26602598387E+03 -0.42247210304E+03  0.31121752176E+03  0.59544865030E+03  0.91925226971E+02 0.  0.
         11    1    3    3    0    0  0.18924842366E+03 -0.34208759346E+03  0.27703269651E+03  0.47915133558E+03  0.00000000000E+00 0. -1.
        -11    1    3    3    0    0  0.76777560216E+02 -0.80384509578E+02  0.34184825246E+02  0.11629731471E+03  0.00000000000E+00 0.  1.
         22    1    1    2    0    0 -0.26602598387E+03  0.42247210304E+03 -0.50227340986E+03  0.70818859084E+03  0.00000000000E+00 0. -1.
<mgrwt>
<rscale>  0 0.12895611E+04</rscale>
<asrwt>0</asrwt>
<pdfrwt beam="1">  1        2 0.11497639E+00 0.12895611E+04</pdfrwt>
<pdfrwt beam="2">  1       -2 0.85583182E-01 0.12895611E+04</pdfrwt>
<totfact> 0.43853614E+01</totfact>
</mgrwt>
</event>
<event>
 6    1  0.2003386E-005  0.7983180E+03  0.7818608E-02  0.9562455E-01
         -2   -1    0    0    0  501 -0.00000000000E+00  0.00000000000E+00  0.35190303167E+03  0.35190303167E+03  0.00000000000E+00 0.  1.
          2   -1    0    0  501    0  0.00000000000E+00 -0.00000000000E+00 -0.45276078329E+03  0.45276078329E+03  0.00000000000E+00 0. -1.
         23    2    1    2    0    0 -0.26825328461E+03  0.88524543167E+02  0.22571643022E+03  0.37286859072E+03  0.91031091539E+02 0.  0.
         11    1    3    3    0    0 -0.21476770775E+03  0.75509341530E+02  0.12921082251E+03  0.26176757936E+03  0.00000000000E+00 0.  1.
        -11    1    3    3    0    0 -0.53485576855E+02  0.13015201637E+02  0.96505607703E+02  0.11110101135E+03  0.00000000000E+00 0. -1.
         22    1    1    2    0    0  0.26825328461E+03 -0.88524543167E+02 -0.32657418184E+03  0.43179522425E+03  0.00000000000E+00 0. -1.
<mgrwt>
<rscale>  0 0.79831796E+03</rscale>
<asrwt>0</asrwt>
<pdfrwt beam="1">  1        2 0.69655505E-01 0.79831796E+03</pdfrwt>
<pdfrwt beam="2">  1       -2 0.54138928E-01 0.79831796E+03</pdfrwt>
<totfact> 0.22351908E+02</totfact>
</mgrwt>
</event>
<event>
 6    1  0.2003386E-005  0.3212099E+04  0.7818608E-02  0.8185629E-01
         -2   -1    0    0    0  501 -0.00000000000E+00  0.00000000000E+00  0.14494572462E+04  0.14494572462E+04  0.00000000000E+00 0.  1.
          2   -1    0    0  501    0  0.00000000000E+00 -0.00000000000E+00 -0.17795588476E+04  0.17795588476E+04  0.00000000000E+00 0. -1.
         23    2    1    2    0    0 -0.84350478544E+03  0.93823757074E+03  0.83179292577E+03  0.15138516835E+04  0.89874278792E+02 0.  0.
         11    1    3    3    0    0 -0.19658789064E+03  0.18056428429E+03  0.14478702413E+03  0.30366682707E+03  0.00000000000E+00 0.  1.
        -11    1    3    3    0    0 -0.64691689480E+03  0.75767328645E+03  0.68700590164E+03  0.12101848564E+04  0.00000000000E+00 0. -1.
         22    1    1    2    0    0  0.84350478544E+03 -0.93823757074E+03 -0.11618945272E+04  0.17151644103E+04  0.00000000000E+00 0. -1.
<mgrwt>
<rscale>  0 0.32120987E+04</rscale>
<asrwt>0</asrwt>
<pdfrwt beam="1">  1        2 0.27377828E+00 0.32120987E+04</pdfrwt>
<pdfrwt beam="2">  1       -2 0.22299342E+00 0.32120987E+04</pdfrwt>
<totfact> 0.70505962E-01</totfact>
</mgrwt>
</event>
<event>
 6    1  0.2003386E-005  0.9835762E+03  0.7818608E-02  0.9326744E-01
          2   -1    0    0  501    0  0.00000000000E+00  0.00000000000E+00  0.89659166248E+03  0.89659166248E+03  0.00000000000E+00 0. -1.
         -2   -1    0    0    0  501 -0.00000000000E+00 -0.00000000000E+00 -0.26974992739E+03  0.26974992739E+03  0.00000000000E+00 0.  1.
         23    2    1    2    0    0 -0.40447836112E+03 -0.72137233702E+02  0.62771185110E+03  0.75547995598E+03  0.89001521148E+02 0.  0.
         11    1    3    3    0    0 -0.14878432775E+03  0.16196882920E+02  0.21238951138E+03  0.25982382444E+03  0.00000000000E+00 0.  1.
        -11    1    3    3    0    0 -0.25569403337E+03 -0.88334116623E+02  0.41532233972E+03  0.49565613154E+03  0.00000000000E+00 0. -1.
         22    1    1    2    0    0  0.40447836112E+03  0.72137233702E+02 -0.87011601617E+00  0.41086163389E+03  0.00000000000E+00 0.  1.
<mgrwt>
<rscale>  0 0.98357620E+03</rscale>
<asrwt>0</asrwt>
<pdfrwt beam="1">  1        2 0.13793718E+00 0.98357620E+03</pdfrwt>
<pdfrwt beam="2">  1       -2 0.41499989E-01 0.98357620E+03</pdfrwt>
<totfact> 0.16192163E+02</totfact>
</mgrwt>
</event>
<event>
 6    1  0.2003386E-005  0.6840592E+03  0.7818608E-02  0.9744888E-01
          2   -1    0    0  501    0  0.00000000000E+00  0.00000000000E+00  0.25448499282E+04  0.25448499282E+04  0.00000000000E+00 0.  1.
         -2   -1    0    0    0  501 -0.00000000000E+00 -0.00000000000E+00 -0.45969016835E+02  0.45969016835E+02  0.00000000000E+00 0. -1.
         23    2    1    2    0    0 -0.11411658325E+03 -0.31280439434E+03  0.14406904723E+04  0.14814785153E+04  0.91216065845E+02 0.  0.
         13    1    3    3    0    0  0.13297336860E+02 -0.60104994500E+02  0.22365474806E+03  0.23197171350E+03  0.00000000000E+00 0.  1.
        -13    1    3    3    0    0 -0.12741392011E+03 -0.25269939984E+03  0.12170357242E+04  0.12495068018E+04  0.00000000000E+00 0. -1.
         22    1    1    2    0    0  0.11411658325E+03  0.31280439434E+03  0.10581904391E+04  0.11093404297E+04  0.00000000000E+00 0.  1.
<mgrwt>
<rscale>  0 0.68405921E+03</rscale>
<asrwt>0</asrwt>
<pdfrwt beam="1">  1        2 0.39151526E+00 0.68405921E+03</pdfrwt>
<pdfrwt beam="2">  1       -2 0.70721584E-02 0.68405921E+03</pdfrwt>
<totfact> 0.41050073E+02</totfact>
</mgrwt>
</event>
<event>
 6    1  0.2003386E-005  0.1492615E+04  0.7818608E-02  0.8889379E-01
          2   -1    0    0  501    0  0.00000000000E+00  0.00000000000E+00  0.12139655539E+04  0.12139655539E+04  0.00000000000E+00 0. -1.
         -2   -1    0    0    0  501 -0.00000000000E+00 -0.00000000000E+00 -0.45880587316E+03  0.45880587316E+03  0.00000000000E+00 0.  1.
         23    2    1    2    0    0 -0.25574907149E+03  0.61532667450E+03  0.98380658268E+01  0.67300204688E+03  0.93810786393E+02 0.  0.
         11    1    3    3    0    0 -0.11280695894E+03  0.23390764402E+03 -0.39592943953E+02  0.26268954515E+03  0.00000000000E+00 0. -1.
        -11    1    3    3    0    0 -0.14294211255E+03  0.38141903047E+03  0.49431009780E+02  0.41031250173E+03  0.00000000000E+00 0.  1.
         22    1    1    2    0    0  0.25574907149E+03 -0.61532667450E+03  0.74532161495E+03  0.99976938022E+03  0.00000000000E+00 0. -1.
<mgrwt>
<rscale>  0 0.14926145E+04</rscale>
<asrwt>0</asrwt>
<pdfrwt beam="1">  1        2 0.18676393E+00 0.14926145E+04</pdfrwt>
<pdfrwt beam="2">  1       -2 0.70585519E-01 0.14926145E+04</pdfrwt>
<totfact> 0.32789729E+01</totfact>
</mgrwt>
</event>
<event>
 6    1  0.2003386E-005  0.1772176E+04  0.7818608E-02  0.8721237E-01
         -2   -1    0    0    0  501 -0.00000000000E+00  0.00000000000E+00  0.34288722785E+03  0.34288722785E+03  0.00000000000E+00 0.  1.
          2   -1    0    0  501    0  0.00000000000E+00 -0.00000000000E+00 -0.22898262338E+04  0.22898262338E+04  0.00000000000E+00 0. -1.
         23    2    1    2    0    0  0.71592498139E+03  0.51656004536E+03 -0.10377865500E+04  0.13654561683E+04  0.89926440478E+02 0.  0.
         11    1    3    3    0    0  0.61713361243E+03  0.46794241223E+03 -0.94211201459E+03  0.12195897035E+04  0.00000000000E+00 0. -1.
        -11    1    3    3    0    0  0.98791368961E+02  0.48617633135E+02 -0.95674535373E+02  0.14586646479E+03  0.00000000000E+00 0.  1.
         22    1    1    2    0    0 -0.71592498139E+03 -0.51656004536E+03 -0.90915245603E+03  0.12672572934E+04  0.00000000000E+00 0. -1.
<mgrwt>
<rscale>  0 0.17721763E+04</rscale>
<asrwt>0</asrwt>
<pdfrwt beam="1">  1        2 0.35228097E+00 0.17721763E+04</pdfrwt>
<pdfrwt beam="2">  1       -2 0.52751879E-01 0.17721763E+04</pdfrwt>
<totfact> 0.14744285E+01</totfact>
</mgrwt>
</event>
<event>
 6    1  0.2003386E-005  0.2717465E+04  0.7818608E-02  0.8329360E-01
         -2   -1    0    0    0  501 -0.00000000000E+00  0.00000000000E+00  0.11604148334E+04  0.11604148334E+04  0.00000000000E+00 0.  1.
          2   -1    0    0  501    0  0.00000000000E+00 -0.00000000000E+00 -0.15909431705E+04  0.15909431705E+04  0.00000000000E+00 0. -1.
         23    2    1    2    0    0 -0.31583432383E+03  0.49137618619E+03 -0.14558715028E+04  0.15713027155E+04  0.90711159845E+02 0.  0.
         11    1    3    3    0    0 -0.24820274464E+03  0.30832120890E+03 -0.95745539780E+03  0.10360441154E+04  0.00000000000E+00 0. -1.
        -11    1    3    3    0    0 -0.67631579189E+02  0.18305497729E+03 -0.49841610500E+03  0.53525860006E+03  0.00000000000E+00 0.  1.
         22    1    1    2    0    0  0.31583432383E+03 -0.49137618619E+03  0.10253431657E+04  0.11800552885E+04  0.00000000000E+00 0.  1.
<mgrwt>
<rscale>  0 0.27174650E+04</rscale>
<asrwt>0</asrwt>
<pdfrwt beam="1">  1        2 0.24476049E+00 0.27174650E+04</pdfrwt>
<pdfrwt beam="2">  1       -2 0.17852536E+00 0.27174650E+04</pdfrwt>
<totfact> 0.18352794E+00</totfact>
</mgrwt>
</event>
<event>
 6    1  0.2003386E-005  0.1611948E+04  0.7818608E-02  0.8813241E-01
          2   -1    0    0  501    0  0.00000000000E+00  0.00000000000E+00  0.32872481346E+04  0.32872481346E+04  0.00000000000E+00 0. -1.
         -2   -1    0    0    0  501 -0.00000000000E+00 -0.00000000000E+00 -0.19761034909E+03  0.19761034909E+03  0.00000000000E+00 0.  1.
         23    2    1    2    0    0  0.37195753775E+03 -0.68745729465E+03  0.11454921896E+04  0.13894702046E+04  0.86747629975E+02 0.  0.
         13    1    3    3    0    0  0.19711586484E+03 -0.38466977110E+03  0.55828505233E+03  0.70605077482E+03  0.00000000000E+00 0. -1.
        -13    1    3    3    0    0  0.17484167292E+03 -0.30278752356E+03  0.58720713725E+03  0.68341942981E+03  0.00000000000E+00 0.  1.
         22    1    1    2    0    0 -0.37195753775E+03  0.68745729465E+03  0.19441455959E+04  0.20953882790E+04  0.00000000000E+00 0. -1.
<mgrwt>
<rscale>  0 0.16119482E+04</rscale>
<asrwt>0</asrwt>
<pdfrwt beam="1">  1        2 0.50573044E+00 0.16119482E+04</pdfrwt>
<pdfrwt beam="2">  1       -2 0.30401595E-01 0.16119482E+04</pdfrwt>
<totfact> 0.10982439E+01</totfact>
</mgrwt>
</event>
<event>
 6    1  0.2003386E-005  0.2994799E+04  0.7818608E-02  0.8245218E-01
          2   -1    0    0  501    0  0.00000000000E+00  0.00000000000E+00  0.86463849596E+03  0.86463849596E+03  0.00000000000E+00 0. -1.
         -2   -1    0    0    0  501 -0.00000000000E+00 -0.00000000000E+00 -0.25932280245E+04  0.25932280245E+04  0.00000000000E+00 0.  1.
         23    2    1    2    0    0 -0.12860319648E+04 -0.13059106356E+03  0.44557931216E+01  0.12958354552E+04  0.90760301990E+02 0.  0.
         13    1    3    3    0    0 -0.66971774327E+03 -0.10697612487E+03 -0.21153199797E+02  0.67853754855E+03  0.00000000000E+00 0. -1.
        -13    1    3    3    0    0 -0.61631422154E+03 -0.23614938689E+02  0.25608992919E+02  0.61729790662E+03  0.00000000000E+00 0.  1.
         22    1    1    2    0    0  0.12860319648E+04  0.13059106356E+03 -0.17330453217E+04  0.21620310653E+04  0.00000000000E+00 0.  1.
<mgrwt>
<rscale>  0 0.29947987E+04</rscale>
<asrwt>0</asrwt>
<pdfrwt beam="1">  1        2 0.13302131E+00 0.29947987E+04</pdfrwt>
<pdfrwt beam="2">  1       -2 0.39895816E+00 0.29947987E+04</pdfrwt>
<totfact> 0.20004671E-01</totfact>
</mgrwt>
</event>
<event>
 6    1  0.2003386E-005  0.4870153E+03  0.7818608E-02  0.1017225E+00
         -2   -1    0    0    0  501 -0.00000000000E+00  0.00000000000E+00  0.37122999322E+02  0.37122999322E+02  0.00000000000E+00 0.  1.
          2   -1    0    0  501    0  0.00000000000E+00 -0.00000000000E+00 -0.15972841607E+04  0.15972841607E+04  0.00000000000E+00 0. -1.
         23    2    1    2    0    0 -0.83444103761E+02  0.21725224564E+03 -0.91171389272E+03  0.94546208463E+03  0.92276078093E+02 0.  0.
         11    1    3    3    0    0 -0.67584070775E+02  0.12530868538E+03 -0.69636634263E+03  0.71077138125E+03  0.00000000000E+00 0. -1.
        -11    1    3    3    0    0 -0.15860032986E+02  0.91943560260E+02 -0.21534755009E+03  0.23469070337E+03  0.00000000000E+00 0.  1.
         22    1    1    2    0    0  0.83444103761E+02 -0.21725224564E+03 -0.64844726865E+03  0.68894507539E+03  0.00000000000E+00 0.  1.
<mgrwt>
<rscale>  0 0.48701531E+03</rscale>
<asrwt>0</asrwt>
<pdfrwt beam="1">  1        2 0.24573605E+00 0.48701531E+03</pdfrwt>
<pdfrwt beam="2">  1       -2 0.57112301E-02 0.48701531E+03</pdfrwt>
<totfact> 0.19193156E+03</totfact>
</mgrwt>
</event>
<event>
 6    1  0.2003386E-005  0.1382418E+04  0.7818608E-02  0.8966645E-01
         -2   -1    0    0    0  501 -0.00000000000E+00  0.00000000000E+00  0.85584812722E+03  0.85584812722E+03  0.00000000000E+00 0.  1.
          2   -1    0    0  501    0  0.00000000000E+00 -0.00000000000E+00 -0.55824116560E+03  0.55824116560E+03  0.00000000000E+00 0. -1.
         23    2    1    2    0    0  0.56194585356E+03 -0.33339650626E+03  0.37031982471E+03  0.75665219835E+03  0.91920639572E+02 0.  0.
         11    1    3    3    0    0  0.34403347128E+03 -0.25068726643E+03  0.21844832410E+03  0.47845878110E+03  0.00000000000E+00 0. -1.
        -11    1    3    3    0    0  0.21791238227E+03 -0.82709239830E+02  0.15187150062E+03  0.27819341725E+03  0.00000000000E+00 0.  1.
         22    1    1    2    0    0 -0.56194585356E+03  0.33339650626E+03 -0.72712863094E+02  0.65743709446E+03  0.00000000000E+00 0.  1.
<mgrwt>
<rscale>  0 0.13824177E+04</rscale>
<asrwt>0</asrwt>
<pdfrwt beam="1">  1        2 0.85883256E-01 0.13824177E+04</pdfrwt>
<pdfrwt beam="2">  1       -2 0.13166894E+00 0.13824177E+04</pdfrwt>
<totfact> 0.22151380E+01</totfact>
</mgrwt>
</event>
<event>
 6    1  0.2003386E-005  0.5020755E+04  0.7818608E-02  0.7825313E-01
         -2   -1    0    0    0  501 -0.00000000000E+00  0.00000000000E+00  0.20715339197E+04  0.20715339197E+04  0.00000000000E+00 0.  1.
          2   -1    0    0  501    0  0.00000000000E+00 -0.00000000000E+00 -0.30421883732E+04  0.30421883732E+04  0.00000000000E+00 0. -1.
         23    2    1    2    0    0  0.86235431641E+03 -0.16619593376E+04  0.12165327650E+04  0.22345641285E+04  0.86954408585E+02 0.  0.
         11    1    3    3    0    0  0.40001883055E+03 -0.80332940927E+03  0.53441474959E+03  0.10444866343E+04  0.00000000000E+00 0. -1.
        -11    1    3    3    0    0  0.46233548585E+03 -0.85862992833E+03  0.68211801542E+03  0.11900774942E+04  0.00000000000E+00 0.  1.
         22    1    1    2    0    0 -0.86235431641E+03  0.16619593376E+04 -0.21871872185E+04  0.28791581644E+04  0.00000000000E+00 0. -1.
<mgrwt>
<rscale>  0 0.50207555E+04</rscale>
<asrwt>0</asrwt>
<pdfrwt beam="1">  1        2 0.46802898E+00 0.50207555E+04</pdfrwt>
<pdfrwt beam="2">  1       -2 0.31869753E+00 0.50207555E+04</pdfrwt>
<totfact> 0.29019700E-02</totfact>
</mgrwt>
</event>
<event>
 6    1  0.2003386E-005  0.1050185E+04  0.7818608E-02  0.9255153E-01
          1   -1    0    0  501    0  0.00000000000E+00  0.00000000000E+00  0.56733237676E+03  0.56733237676E+03  0.00000000000E+00 0. -1.
         -1   -1    0    0    0  501 -0.00000000000E+00 -0.00000000000E+00 -0.48599784218E+03  0.48599784218E+03  0.00000000000E+00 0.  1.
         23    2    1    2    0    0 -0.38966728999E+02  0.48510360539E+03  0.22812494995E+03  0.54500813602E+03  0.90271599125E+02 0.  0.
         11    1    3    3    0    0 -0.38064170090E+02  0.21079136926E+03  0.14392573200E+03  0.25806297435E+03  0.00000000000E+00 0. -1.
        -11    1    3    3    0    0 -0.90255890898E+00  0.27431223613E+03  0.84199217951E+02  0.28694516167E+03  0.00000000000E+00 0.  1.
         22    1    1    2    0    0  0.38966728999E+02 -0.48510360539E+03 -0.14679041537E+03  0.50832208292E+03  0.00000000000E+00 0.  1.
<mgrwt>
<rscale>  0 0.10501853E+04</rscale>
<asrwt>0</asrwt>
<pdfrwt beam="1">  1        1 0.87281904E-01 0.10501853E+04</pdfrwt>
<pdfrwt beam="2">  1       -1 0.74768899E-01 0.10501853E+04</pdfrwt>
<totfact> 0.66803129E+01</totfact>
</mgrwt>
</event>
<event>
 6    1  0.2003386E-005  0.2628564E+04  0.7818608E-02  0.8358563E-01
          1   -1    0    0  501    0  0.00000000000E+00  0.00000000000E+00  0.15656216874E+04  0.15656216874E+04  0.00000000000E+00 0. -1.
         -1   -1    0    0    0  501 -0.00000000000E+00 -0.00000000000E+00 -0.11032914751E+04  0.11032914751E+04  0.00000000000E+00 0.  1.
         23    2    1    2    0    0 -0.25085206229E+03  0.83253063545E+03  0.12298096955E+04  0.15091464734E+04  0.95169190709E+02 0.  0.
         13    1    3    3    0    0 -0.12521884463E+03  0.37235911143E+03  0.47722957705E+03  0.61812550192E+03  0.00000000000E+00 0.  1.
        -13    1    3    3    0    0 -0.12563321767E+03  0.46017152402E+03  0.75258011842E+03  0.89102097144E+03  0.00000000000E+00 0. -1.
         22    1    1    2    0    0  0.25085206229E+03 -0.83253063545E+03 -0.76747948313E+03  0.11597666891E+04  0.00000000000E+00 0.  1.
<mgrwt>
<rscale>  0 0.26285639E+04</rscale>
<asrwt>0</asrwt>
<pdfrwt beam="1">  1        1 0.24086487E+00 0.26285639E+04</pdfrwt>
<pdfrwt beam="2">  1       -1 0.16973715E+00 0.26285639E+04</pdfrwt>
<totfact> 0.12796224E+00</totfact>
</mgrwt>
</event>
<event>
 6    1  0.2003386E-005  0.7418843E+03  0.7818608E-02  0.9648169E-01
         -2   -1    0    0    0  501 -0.00000000000E+00  0.00000000000E+00  0.41197880263E+03  0.41197880263E+03  0.00000000000E+00 0. -1.
          2   -1    0    0  501    0  0.00000000000E+00 -0.00000000000E+00 -0.33399311915E+03  0.33399311915E+03  0.00000000000E+00 0.  1.
         23    2    1    2    0    0 -0.20480880121E+03  0.53056589758E+02 -0.25997572015E+03  0.34724951569E+03  0.90737006285E+02 0.  0.
         11    1    3    3    0    0 -0.46872458561E+02  0.25745982650E+02 -0.13108415958E+03  0.14157309026E+03  0.00000000000E+00 0. -1.
        -11    1    3    3    0    0 -0.15793634265E+03  0.27310607108E+02 -0.12889156058E+03  0.20567642543E+03  0.00000000000E+00 0.  1.
         22    1    1    2    0    0  0.20480880121E+03 -0.53056589758E+02  0.33796140363E+03  0.39872240608E+03  0.00000000000E+00 0. -1.
<mgrwt>
<rscale>  0 0.74188432E+03</rscale>
<asrwt>0</asrwt>
<pdfrwt beam="1">  1        2 0.51383557E-01 0.74188432E+03</pdfrwt>
<pdfrwt beam="2">  1       -2 0.63381355E-01 0.74188432E+03</pdfrwt>
<totfact> 0.22648693E+02</totfact>
</mgrwt>
</event>
<event>
 6    1  0.2003386E-005  0.4851668E+04  0.7818608E-02  0.7851805E-01
          2   -1    0    0  501    0  0.00000000000E+00  0.00000000000E+00  0.16083145769E+04  0.16083145769E+04  0.00000000000E+00 0. -1.
         -2   -1    0    0    0  501 -0.00000000000E+00 -0.00000000000E+00 -0.36589055589E+04  0.36589055589E+04  0.00000000000E+00 0.  1.
         23    2    1    2    0    0 -0.18242497296E+04  0.14390384829E+04 -0.17791761925E+04  0.29279072411E+04  0.91945949734E+02 0.  0.
         11    1    3    3    0    0 -0.13683314020E+04  0.11184007397E+04 -0.13213819911E+04  0.22066267031E+04  0.00000000000E+00 0. -1.
        -11    1    3    3    0    0 -0.45591832759E+03  0.32063774319E+03 -0.45779420139E+03  0.72128053808E+03  0.00000000000E+00 0.  1.
         22    1    1    2    0    0  0.18242497296E+04 -0.14390384829E+04 -0.27141478946E+03  0.23393128947E+04  0.00000000000E+00 0.  1.
<mgrwt>
<rscale>  0 0.48516682E+04</rscale>
<asrwt>0</asrwt>
<pdfrwt beam="1">  1        2 0.24743302E+00 0.48516682E+04</pdfrwt>
<pdfrwt beam="2">  1       -2 0.56290853E+00 0.48516682E+04</pdfrwt>
<totfact> 0.60377642E-03</totfact>
</mgrwt>
</event>
<event>
 6    1  0.2003386E-005  0.4114872E+04  0.7818608E-02  0.7981766E-01
          2   -1    0    0  501    0  0.00000000000E+00  0.00000000000E+00  0.35286908074E+04  0.35286908074E+04  0.00000000000E+00 0. -1.
         -2   -1    0    0    0  501 -0.00000000000E+00 -0.00000000000E+00 -0.11996072212E+04  0.11996072212E+04  0.00000000000E+00 0.  1.
         23    2    1    2    0    0  0.65364775936E+03 -0.36992069865E+03 -0.10349640855E+04  0.12814279332E+04  0.82523772254E+02 0.  0.
         11    1    3    3    0    0  0.56165494160E+03 -0.28875937286E+03 -0.89386033451E+03  0.10944517104E+04  0.00000000000E+00 0.  1.
        -11    1    3    3    0    0  0.91992817760E+02 -0.81161325791E+02 -0.14110375100E+03  0.18697622274E+03  0.00000000000E+00 0. -1.
         22    1    1    2    0    0 -0.65364775936E+03  0.36992069865E+03  0.33640476717E+04  0.34468700953E+04  0.00000000000E+00 0. -1.
<mgrwt>
<rscale>  0 0.41148720E+04</rscale>
<asrwt>0</asrwt>
<pdfrwt beam="1">  1        2 0.54287550E+00 0.41148720E+04</pdfrwt>
<pdfrwt beam="2">  1       -2 0.18455496E+00 0.41148720E+04</pdfrwt>
<totfact> 0.10214954E-01</totfact>
</mgrwt>
</event>
<event>
 6    1  0.2003386E-005  0.1785793E+04  0.7818608E-02  0.8713891E-01
          1   -1    0    0  501    0  0.00000000000E+00  0.00000000000E+00  0.11107153867E+04  0.11107153867E+04  0.00000000000E+00 0. -1.
         -1   -1    0    0    0  501 -0.00000000000E+00 -0.00000000000E+00 -0.71779351160E+03  0.71779351160E+03  0.00000000000E+00 0.  1.
         23    2    1    2    0    0 -0.62378776233E+03 -0.20591412399E+03  0.81256481519E+03  0.10490141927E+04  0.93045143022E+02 0.  0.
         13    1    3    3    0    0 -0.48047257591E+03 -0.12399914335E+03  0.64507931870E+03  0.81385318772E+03  0.00000000000E+00 0.  1.
        -13    1    3    3    0    0 -0.14331518643E+03 -0.81914980635E+02  0.16748549649E+03  0.23516100495E+03  0.00000000000E+00 0. -1.
         22    1    1    2    0    0  0.62378776233E+03  0.20591412399E+03 -0.41964294011E+03  0.77949470561E+03  0.00000000000E+00 0.  1.
<mgrwt>
<rscale>  0 0.17857932E+04</rscale>
<asrwt>0</asrwt>
<pdfrwt beam="1">  1        1 0.17087929E+00 0.17857932E+04</pdfrwt>
<pdfrwt beam="2">  1       -1 0.11042977E+00 0.17857932E+04</pdfrwt>
<totfact> 0.88921189E+00</totfact>
</mgrwt>
</event>
<event>
 6    1  0.2003386E-005  0.8167834E+03  0.7818608E-02  0.9536037E-01
          2   -1    0    0  501    0  0.00000000000E+00  0.00000000000E+00  0.10983833792E+04  0.10983833792E+04  0.00000000000E+00 0. -1.
         -2   -1    0    0    0  501 -0.00000000000E+00 -0.00000000000E+00 -0.15184476742E+03  0.15184476742E+03  0.00000000000E+00 0.  1.
         23    2    1    2    0    0  0.21452083674E+03  0.21110503007E+03  0.68001391246E+02  0.32156665233E+03  0.90533969109E+02 0.  0.
         11    1    3    3    0    0  0.15268846269E+03  0.13633842442E+03  0.28871993057E+01  0.20471997590E+03  0.00000000000E+00 0. -1.
        -11    1    3    3    0    0  0.61832374051E+02  0.74766605652E+02  0.65114191941E+02  0.11684667643E+03  0.00000000000E+00 0.  1.
         22    1    1    2    0    0 -0.21452083674E+03 -0.21110503007E+03  0.87853722054E+03  0.92866149430E+03  0.00000000000E+00 0.  1.
<mgrwt>
<rscale>  0 0.81678337E+03</rscale>
<asrwt>0</asrwt>
<pdfrwt beam="1">  1        2 0.16898205E+00 0.81678337E+03</pdfrwt>
<pdfrwt beam="2">  1       -2 0.23360734E-01 0.81678337E+03</pdfrwt>
<totfact> 0.35534487E+02</totfact>
</mgrwt>
</event>
<event>
 6    1  0.2003386E-005  0.3073038E+04  0.7818608E-02  0.8223177E-01
         -2   -1    0    0    0  501 -0.00000000000E+00  0.00000000000E+00  0.11216048626E+04  0.11216048626E+04  0.00000000000E+00 0.  1.
          2   -1    0    0  501    0  0.00000000000E+00 -0.00000000000E+00 -0.21049217892E+04  0.21049217892E+04  0.00000000000E+00 0. -1.
         23    2    1    2    0    0 -0.11667724212E+04 -0.96160059317E+03 -0.21380617225E+03  0.15300065710E+04  0.95778099307E+02 0.  0.
         13    1    3    3    0    0 -0.19519389673E+03 -0.12851874777E+03 -0.57356777680E+02  0.24063982587E+03  0.00000000000E+00 0. -1.
        -13    1    3    3    0    0 -0.97157852449E+03 -0.83308184540E+03 -0.15644939457E+03  0.12893667451E+04  0.00000000000E+00 0.  1.
         22    1    1    2    0    0  0.11667724212E+04  0.96160059317E+03 -0.76951075430E+03  0.16965200808E+04  0.00000000000E+00 0. -1.
<mgrwt>
<rscale>  0 0.30730379E+04</rscale>
<asrwt>0</asrwt>
<pdfrwt beam="1">  1        2 0.32383411E+00 0.30730379E+04</pdfrwt>
<pdfrwt beam="2">  1       -2 0.17255460E+00 0.30730379E+04</pdfrwt>
<totfact> 0.10156828E+00</totfact>
</mgrwt>
</event>
<event>
 6    1  0.2003386E-005  0.1275339E+04  0.7818608E-02  0.9049353E-01
          2   -1    0    0  501    0  0.00000000000E+00  0.00000000000E+00  0.49649940067E+03  0.49649940067E+03  0.00000000000E+00 0. -1.
         -2   -1    0    0    0  501 -0.00000000000E+00 -0.00000000000E+00 -0.81897872759E+03  0.81897872759E+03  0.00000000000E+00 0.  1.
         23    2    1    2    0    0  0.42770720893E+03  0.23082294833E+02  0.32083805180E+03  0.54261106423E+03  0.89573783149E+02 0.  0.
         11    1    3    3    0    0  0.29832507542E+03  0.49863839206E+02  0.25168069439E+03  0.39348116221E+03  0.00000000000E+00 0. -1.
        -11    1    3    3    0    0  0.12938213351E+03 -0.26781544373E+02  0.69157357414E+02  0.14912990202E+03  0.00000000000E+00 0.  1.
         22    1    1    2    0    0 -0.42770720893E+03 -0.23082294833E+02 -0.64331737873E+03  0.77286706404E+03  0.00000000000E+00 0.  1.
<mgrwt>
<rscale>  0 0.12753391E+04</rscale>
<asrwt>0</asrwt>
<pdfrwt beam="1">  1        2 0.76384523E-01 0.12753391E+04</pdfrwt>
<pdfrwt beam="2">  1       -2 0.12599673E+00 0.12753391E+04</pdfrwt>
<totfact> 0.28637290E+01</totfact>
</mgrwt>
</event>
<event>
 6    1  0.2003386E-005  0.2085461E+04  0.7818608E-02  0.8567675E-01
         -2   -1    0    0    0  501 -0.00000000000E+00  0.00000000000E+00  0.31093232815E+03  0.31093232815E+03  0.00000000000E+00 0.  1.
          2   -1    0    0  501    0  0.00000000000E+00 -0.00000000000E+00 -0.34968599903E+04  0.34968599903E+04  0.00000000000E+00 0. -1.
         23    2    1    2    0    0  0.11525349332E+03  0.96707340185E+03 -0.22660566551E+04  0.24681367650E+04  0.90399083171E+02 0.  0.
         11    1    3    3    0    0  0.67638781161E+02  0.40648502849E+03 -0.10611788944E+04  0.11383785526E+04  0.00000000000E+00 0. -1.
        -11    1    3    3    0    0  0.47614712159E+02  0.56058837336E+03 -0.12048777607E+04  0.13297582124E+04  0.00000000000E+00 0.  1.
         22    1    1    2    0    0 -0.11525349332E+03 -0.96707340185E+03 -0.91987100699E+03  0.13396555534E+04  0.00000000000E+00 0.  1.
<mgrwt>
<rscale>  0 0.20854609E+04</rscale>
<asrwt>0</asrwt>
<pdfrwt beam="1">  1        2 0.53797847E+00 0.20854609E+04</pdfrwt>
<pdfrwt beam="2">  1       -2 0.47835742E-01 0.20854609E+04</pdfrwt>
<totfact> 0.31363065E+00</totfact>
</mgrwt>
</event>
<event>
 6    1  0.2003386E-005  0.1318960E+04  0.7818608E-02  0.9014663E-01
         -2   -1    0    0    0  501 -0.00000000000E+00  0.00000000000E+00  0.54928345768E+03  0.54928345768E+03  0.00000000000E+00 0.  1.
          2   -1    0    0  501    0  0.00000000000E+00 -0.00000000000E+00 -0.79178425688E+03  0.79178425688E+03  0.00000000000E+00 0. -1.
         23    2    1    2    0    0  0.42954874952E+02  0.53970141851E+03 -0.49837910542E+03  0.74223848179E+03  0.97023134906E+02 0.  0.
         13    1    3    3    0    0  0.12317521021E+02  0.47087650714E+03 -0.39758258208E+03  0.61639947751E+03  0.00000000000E+00 0. -1.
        -13    1    3    3    0    0  0.30637353930E+02  0.68824911371E+02 -0.10079652334E+03  0.12583900428E+03  0.00000000000E+00 0.  1.
         22    1    1    2    0    0 -0.42954874952E+02 -0.53970141851E+03  0.25587830622E+03  0.59882923277E+03  0.00000000000E+00 0.  1.
<mgrwt>
<rscale>  0 0.13189602E+04</rscale>
<asrwt>0</asrwt>
<pdfrwt beam="1">  1        2 0.12181296E+00 0.13189602E+04</pdfrwt>
<pdfrwt beam="2">  1       -2 0.84505147E-01 0.13189602E+04</pdfrwt>
<totfact> 0.41758356E+01</totfact>
</mgrwt>
</event>
<event>
 6    1  0.2003386E-005  0.3008052E+04  0.7818608E-02  0.8241435E-01
          2   -1    0    0  501    0  0.00000000000E+00  0.00000000000E+00  0.14637439116E+04  0.14637439116E+04  0.00000000000E+00 0. -1.
         -2   -1    0    0    0  501 -0.00000000000E+00 -0.00000000000E+00 -0.15454167416E+04  0.15454167416E+04  0.00000000000E+00 0.  1.
         23    2    1    2    0    0 -0.83250114390E+03 -0.99746282694E+02  0.12065312289E+04  0.14721254639E+04  0.91805771955E+02 0.  0.
         11    1    3    3    0    0 -0.57447828713E+03 -0.72120773895E+02  0.90434832698E+03  0.10738121833E+04  0.00000000000E+00 0. -1.
        -11    1    3    3    0    0 -0.25802285676E+03 -0.27625508799E+02  0.30218290192E+03  0.39831328068E+03  0.00000000000E+00 0.  1.
         22    1    1    2    0    0  0.83250114390E+03  0.99746282694E+02 -0.12882040589E+04  0.15370351892E+04  0.00000000000E+00 0.  1.
<mgrwt>
<rscale>  0 0.30080521E+04</rscale>
<asrwt>0</asrwt>
<pdfrwt beam="1">  1        2 0.22519137E+00 0.30080521E+04</pdfrwt>
<pdfrwt beam="2">  1       -2 0.23775642E+00 0.30080521E+04</pdfrwt>
<totfact> 0.87083420E-01</totfact>
</mgrwt>
</event>
<event>
 6    1  0.2003386E-005  0.2815420E+04  0.7818608E-02  0.8298497E-01
          2   -1    0    0  501    0  0.00000000000E+00  0.00000000000E+00  0.17965099214E+04  0.17965099214E+04  0.00000000000E+00 0.  1.
         -2   -1    0    0    0  501 -0.00000000000E+00 -0.00000000000E+00 -0.11030538404E+04  0.11030538404E+04  0.00000000000E+00 0. -1.
         23    2    1    2    0    0 -0.10058600366E+04  0.10086903834E+03 -0.65960864096E+03  0.12105660951E+04  0.91965946717E+02 0.  0.
         13    1    3    3    0    0 -0.33276751382E+03 -0.98644629310E+01 -0.21230386993E+03  0.39484738706E+03  0.00000000000E+00 0. -1.
        -13    1    3    3    0    0 -0.67309252277E+03  0.11073350127E+03 -0.44730477103E+03  0.81571870807E+03  0.00000000000E+00 0.  1.
         22    1    1    2    0    0  0.10058600366E+04 -0.10086903834E+03  0.13530647220E+04  0.16889976667E+04  0.00000000000E+00 0.  1.
<mgrwt>
<rscale>  0 0.28154198E+04</rscale>
<asrwt>0</asrwt>
<pdfrwt beam="1">  1        2 0.27638614E+00 0.28154198E+04</pdfrwt>
<pdfrwt beam="2">  1       -2 0.16970059E+00 0.28154198E+04</pdfrwt>
<totfact> 0.16135558E+00</totfact>
</mgrwt>
</event>
<event>
 6    1  0.2003386E-005  0.2939510E+04  0.7818608E-02  0.8261218E-01
          2   -1    0    0  501    0  0.00000000000E+00  0.00000000000E+00  0.22150260664E+04  0.22150260664E+04  0.00000000000E+00 0.  1.
         -2   -1    0    0    0  501 -0.00000000000E+00 -0.00000000000E+00 -0.97523870066E+03  0.97523870066E+03  0.00000000000E+00 0. -1.
         23    2    1    2    0    0 -0.12837119457E+04 -0.40943944146E+03 -0.12753291682E+02  0.13505867751E+04  0.91460235407E+02 0.  0.
         11    1    3    3    0    0 -0.61659236309E+03 -0.20393052146E+03 -0.51322403252E+02  0.65146587699E+03  0.00000000000E+00 0.  1.
        -11    1    3    3    0    0 -0.66711958264E+03 -0.20550892000E+03  0.38569111570E+02  0.69912089806E+03  0.00000000000E+00 0. -1.
         22    1    1    2    0    0  0.12837119457E+04  0.40943944146E+03  0.12525406575E+04  0.18396779921E+04  0.00000000000E+00 0.  1.
<mgrwt>
<rscale>  0 0.29395096E+04</rscale>
<asrwt>0</asrwt>
<pdfrwt beam="1">  1        2 0.34077324E+00 0.29395096E+04</pdfrwt>
<pdfrwt beam="2">  1       -2 0.15003672E+00 0.29395096E+04</pdfrwt>
<totfact> 0.13044093E+00</totfact>
</mgrwt>
</event>
<event>
 6    1  0.2003386E-005  0.2693047E+04  0.7818608E-02  0.8337265E-01
          2   -1    0    0  501    0  0.00000000000E+00  0.00000000000E+00  0.18897455941E+04  0.18897455941E+04  0.00000000000E+00 0. -1.
         -2   -1    0    0    0  501 -0.00000000000E+00 -0.00000000000E+00 -0.95945456271E+03  0.95945456271E+03  0.00000000000E+00 0.  1.
         23    2    1    2    0    0  0.27688615682E+03 -0.12191205422E+04 -0.59101329439E+02  0.12548921301E+04  0.91326068440E+02 0.  0.
         11    1    3    3    0    0  0.10265070297E+03 -0.64220114493E+03 -0.48213023539E+02  0.65213800151E+03  0.00000000000E+00 0. -1.
        -11    1    3    3    0    0  0.17423545385E+03 -0.57691939729E+03 -0.10888305901E+02  0.60275412861E+03  0.00000000000E+00 0.  1.
         22    1    1    2    0    0 -0.27688615682E+03  0.12191205422E+04  0.98939236086E+03  0.15943080267E+04  0.00000000000E+00 0. -1.
<mgrwt>
<rscale>  0 0.26930466E+04</rscale>
<asrwt>0</asrwt>
<pdfrwt beam="1">  1        2 0.29073009E+00 0.26930466E+04</pdfrwt>
<pdfrwt beam="2">  1       -2 0.14760839E+00 0.26930466E+04</pdfrwt>
<totfact> 0.21116499E+00</totfact>
</mgrwt>
</event>
<event>
 6    1  0.2003386E-005  0.2855862E+04  0.7818608E-02  0.8286132E-01
          2   -1    0    0  501    0  0.00000000000E+00  0.00000000000E+00  0.90327644315E+03  0.90327644315E+03  0.00000000000E+00 0. -1.
         -2   -1    0    0    0  501 -0.00000000000E+00 -0.00000000000E+00 -0.22573238099E+04  0.22573238099E+04  0.00000000000E+00 0.  1.
         23    2    1    2    0    0  0.50401736266E+03 -0.10778591766E+04  0.19302436599E+03  0.12088715699E+04  0.91094237716E+02 0.  0.
         11    1    3    3    0    0  0.25862600776E+03 -0.47763477080E+03  0.12063095985E+03  0.55639393836E+03  0.00000000000E+00 0.  1.
        -11    1    3    3    0    0  0.24539135489E+03 -0.60022440582E+03  0.72393406138E+02  0.65247763153E+03  0.00000000000E+00 0. -1.
         22    1    1    2    0    0 -0.50401736266E+03  0.10778591766E+04 -0.15470717328E+04  0.19517286832E+04  0.00000000000E+00 0.  1.
<mgrwt>
<rscale>  0 0.28558623E+04</rscale>
<asrwt>0</asrwt>
<pdfrwt beam="1">  1        2 0.13896561E+00 0.28558623E+04</pdfrwt>
<pdfrwt beam="2">  1       -2 0.34728059E+00 0.28558623E+04</pdfrwt>
<totfact> 0.40891310E-01</totfact>
</mgrwt>
</event>
<event>
 6    1  0.2003386E-005  0.3614122E+04  0.7818608E-02  0.8087264E-01
          2   -1    0    0  501    0  0.00000000000E+00  0.00000000000E+00  0.23115651670E+04  0.23115651670E+04  0.00000000000E+00 0. -1.
         -2   -1    0    0    0  501 -0.00000000000E+00 -0.00000000000E+00 -0.14126660606E+04  0.14126660606E+04  0.00000000000E+00 0.  1.
         23    2    1    2    0    0  0.50908419631E+03  0.12252489263E+04  0.17121712799E+04  0.21680136083E+04  0.91383059094E+02 0.  0.
         13    1    3    3    0    0  0.40134823765E+02  0.56193050901E+02  0.11170384112E+03  0.13132483074E+03  0.00000000000E+00 0.  1.
        -13    1    3    3    0    0  0.46894937255E+03  0.11690558754E+04  0.16004674388E+04  0.20366887775E+04  0.00000000000E+00 0. -1.
         22    1    1    2    0    0 -0.50908419631E+03 -0.12252489263E+04 -0.81327217354E+03  0.15562176193E+04  0.00000000000E+00 0.  1.
<mgrwt>
<rscale>  0 0.36141221E+04</rscale>
<asrwt>0</asrwt>
<pdfrwt beam="1">  1        2 0.35562541E+00 0.36141221E+04</pdfrwt>
<pdfrwt beam="2">  1       -2 0.21733324E+00 0.36141221E+04</pdfrwt>
<totfact> 0.37360162E-01</totfact>
</mgrwt>
</event>
<event>
 6    1  0.2003386E-005  0.4685913E+04  0.7818608E-02  0.7878873E-01
         -2   -1    0    0    0  501 -0.00000000000E+00  0.00000000000E+00  0.19326285383E+04  0.19326285383E+04  0.00000000000E+00 0.  1.
          2   -1    0    0  501    0  0.00000000000E+00 -0.00000000000E+00 -0.28404036764E+04  0.28404036764E+04  0.00000000000E+00 0. -1.
         23    2    1    2    0    0 -0.13422884742E+04  0.92236296010E+03 -0.21684451790E+04  0.27134738324E+04  0.91071216856E+02 0.  0.
         13    1    3    3    0    0 -0.10847117246E+04  0.77513059849E+03 -0.18144856064E+04  0.22516183038E+04  0.00000000000E+00 0. -1.
        -13    1    3    3    0    0 -0.25757674957E+03  0.14723236160E+03 -0.35395957260E+03  0.46185552856E+03  0.00000000000E+00 0.  1.
         22    1    1    2    0    0  0.13422884742E+04 -0.92236296010E+03  0.12606700409E+04  0.20595583823E+04  0.00000000000E+00 0.  1.
<mgrwt>
<rscale>  0 0.46859130E+04</rscale>
<asrwt>0</asrwt>
<pdfrwt beam="1">  1        2 0.43698518E+00 0.46859130E+04</pdfrwt>
<pdfrwt beam="2">  1       -2 0.29732747E+00 0.46859130E+04</pdfrwt>
<totfact> 0.53820733E-02</totfact>
</mgrwt>
</event>
<event>
 6    1  0.2003386E-005  0.2504443E+04  0.7818608E-02  0.8401404E-01
         -2   -1    0    0    0  501 -0.00000000000E+00  0.00000000000E+00  0.88809439861E+03  0.88809439861E+03  0.00000000000E+00 0.  1.
          2   -1    0    0  501    0  0.00000000000E+00 -0.00000000000E+00 -0.17656443322E+04  0.17656443322E+04  0.00000000000E+00 0. -1.
         23    2    1    2    0    0  0.11676335469E+04  0.43603803178E+03 -0.33120085707E+03  0.12928586559E+04  0.91061690596E+02 0.  0.
         13    1    3    3    0    0  0.22186288336E+03  0.51169374142E+02 -0.41099229474E+02  0.23136678786E+03  0.00000000000E+00 0.  1.
        -13    1    3    3    0    0  0.94577066349E+03  0.38486865763E+03 -0.29010162759E+03  0.10614918680E+04  0.00000000000E+00 0. -1.
         22    1    1    2    0    0 -0.11676335469E+04 -0.43603803178E+03 -0.54634907651E+03  0.13608800749E+04  0.00000000000E+00 0.  1.
<mgrwt>
<rscale>  0 0.25044431E+04</rscale>
<asrwt>0</asrwt>
<pdfrwt beam="1">  1        2 0.27163759E+00 0.25044431E+04</pdfrwt>
<pdfrwt beam="2">  1       -2 0.13662991E+00 0.25044431E+04</pdfrwt>
<totfact> 0.30757058E+00</totfact>
</mgrwt>
</event>
<event>
 6    1  0.2003386E-005  0.1798406E+04  0.7818608E-02  0.8707148E-01
          2   -1    0    0  501    0  0.00000000000E+00  0.00000000000E+00  0.16841558435E+04  0.16841558435E+04  0.00000000000E+00 0.  1.
         -2   -1    0    0    0  501 -0.00000000000E+00 -0.00000000000E+00 -0.48010171620E+03  0.48010171620E+03  0.00000000000E+00 0. -1.
         23    2    1    2    0    0  0.29294481621E+03 -0.12401286932E+03 -0.40558647009E+03  0.52348374534E+03  0.91318069450E+02 0.  0.
         11    1    3    3    0    0  0.17913946120E+03 -0.12052801863E+03 -0.24400623683E+03  0.32581742348E+03  0.00000000000E+00 0. -1.
        -11    1    3    3    0    0  0.11380535501E+03 -0.34848506904E+01 -0.16158023327E+03  0.19766632185E+03  0.00000000000E+00 0.  1.
         22    1    1    2    0    0 -0.29294481621E+03  0.12401286932E+03  0.16096405974E+04  0.16407738144E+04  0.00000000000E+00 0.  1.
<mgrwt>
<rscale>  0 0.17984061E+04</rscale>
<asrwt>0</asrwt>
<pdfrwt beam="1">  1        2 0.25910090E+00 0.17984061E+04</pdfrwt>
<pdfrwt beam="2">  1       -2 0.73861804E-01 0.17984061E+04</pdfrwt>
<totfact> 0.15607857E+01</totfact>
</mgrwt>
</event>
<event>
 6    1  0.2003386E-005  0.1693314E+04  0.7818608E-02  0.8765187E-01
          2   -1    0    0  501    0  0.00000000000E+00  0.00000000000E+00  0.81265307009E+03  0.81265307009E+03  0.00000000000E+00 0.  1.
         -2   -1    0    0    0  501 -0.00000000000E+00 -0.00000000000E+00 -0.88208384926E+03  0.88208384926E+03  0.00000000000E+00 0. -1.
         23    2    1    2    0    0  0.66996817656E+03 -0.30619602142E+03  0.37791096918E+03  0.83292023295E+03  0.91247206488E+02 0.  0.
         11    1    3    3    0    0  0.34620346350E+03 -0.19538385696E+03  0.16881439174E+03  0.43189117675E+03  0.00000000000E+00 0. -1.
        -11    1    3    3    0    0  0.32376471306E+03 -0.11081216446E+03  0.20909657744E+03  0.40102905619E+03  0.00000000000E+00 0.  1.
         22    1    1    2    0    0 -0.66996817656E+03  0.30619602142E+03 -0.44734174835E+03  0.86181668640E+03  0.00000000000E+00 0. -1.
<mgrwt>
<rscale>  0 0.16933141E+04</rscale>
<asrwt>0</asrwt>
<pdfrwt beam="1">  1        2 0.12502355E+00 0.16933141E+04</pdfrwt>
<pdfrwt beam="2">  1       -2 0.13570521E+00 0.16933141E+04</pdfrwt>
<totfact> 0.12498261E+01</totfact>
</mgrwt>
</event>
<event>
 6    1  0.2003386E-005  0.1673084E+04  0.7818608E-02  0.8776866E-01
          1   -1    0    0  501    0  0.00000000000E+00  0.00000000000E+00  0.20991343107E+04  0.20991343107E+04  0.00000000000E+00 0. -1.
         -1   -1    0    0    0  501 -0.00000000000E+00 -0.00000000000E+00 -0.33337681449E+03  0.33337681449E+03  0.00000000000E+00 0.  1.
         23    2    1    2    0    0  0.23503842017E+03 -0.80012554888E+03  0.90858900113E+03  0.12366090465E+04  0.90686316047E+02 0.  0.
         11    1    3    3    0    0  0.14596194466E+03 -0.41867903353E+03  0.42389171637E+03  0.61341764697E+03  0.00000000000E+00 0.  1.
        -11    1    3    3    0    0  0.89076475514E+02 -0.38144651535E+03  0.48469728476E+03  0.62319139950E+03  0.00000000000E+00 0. -1.
         22    1    1    2    0    0 -0.23503842017E+03  0.80012554888E+03  0.85716849510E+03  0.11959020787E+04  0.00000000000E+00 0.  1.
<mgrwt>
<rscale>  0 0.16730842E+04</rscale>
<asrwt>0</asrwt>
<pdfrwt beam="1">  1        1 0.32294373E+00 0.16730842E+04</pdfrwt>
<pdfrwt beam="2">  1       -1 0.51288742E-01 0.16730842E+04</pdfrwt>
<totfact> 0.93100654E+00</totfact>
</mgrwt>
</event>
<event>
 6    1  0.2003386E-005  0.4198461E+04  0.7818608E-02  0.7965665E-01
         -2   -1    0    0    0  501 -0.00000000000E+00  0.00000000000E+00  0.23648744238E+04  0.23648744238E+04  0.00000000000E+00 0.  1.
          2   -1    0    0  501    0  0.00000000000E+00 -0.00000000000E+00 -0.18634263380E+04  0.18634263380E+04  0.00000000000E+00 0. -1.
         23    2    1    2    0    0 -0.83788191650E+02 -0.20267709605E+04  0.79107763671E+03  0.21792262721E+04  0.91664224828E+02 0.  0.
         13    1    3    3    0    0  0.18224041653E+01 -0.10535339193E+04  0.40348453613E+03  0.11281563770E+04  0.00000000000E+00 0.  1.
        -13    1    3    3    0    0 -0.85610595815E+02 -0.97323704127E+03  0.38759310058E+03  0.10510698950E+04  0.00000000000E+00 0. -1.
         22    1    1    2    0    0  0.83788191650E+02  0.20267709605E+04 -0.28962955087E+03  0.20490744897E+04  0.00000000000E+00 0. -1.
<mgrwt>
<rscale>  0 0.41984613E+04</rscale>
<asrwt>0</asrwt>
<pdfrwt beam="1">  1        2 0.28668097E+00 0.41984613E+04</pdfrwt>
<pdfrwt beam="2">  1       -2 0.36382684E+00 0.41984613E+04</pdfrwt>
<totfact> 0.78521892E-02</totfact>
</mgrwt>
</event>
<event>
 6    1  0.2003386E-005  0.1881615E+04  0.7818608E-02  0.8664062E-01
         -2   -1    0    0    0  501 -0.00000000000E+00  0.00000000000E+00  0.98628247319E+03  0.98628247319E+03  0.00000000000E+00 0.  1.
          2   -1    0    0  501    0  0.00000000000E+00 -0.00000000000E+00 -0.89742901052E+03  0.89742901052E+03  0.00000000000E+00 0. -1.
         23    2    1    2    0    0  0.49973346321E+03 -0.75232604980E+03  0.29914185131E+03  0.95637701015E+03  0.97175711356E+02 0.  0.
         13    1    3    3    0    0  0.46640036341E+03 -0.69921513482E+03  0.25053702517E+03  0.87704042366E+03  0.00000000000E+00 0. -1.
        -13    1    3    3    0    0  0.33333099800E+02 -0.53110914982E+02  0.48604826133E+02  0.79336586490E+02  0.00000000000E+00 0.  1.
         22    1    1    2    0    0 -0.49973346321E+03  0.75232604980E+03 -0.21028838864E+03  0.92733447356E+03  0.00000000000E+00 0. -1.
<mgrwt>
<rscale>  0 0.18816147E+04</rscale>
<asrwt>0</asrwt>
<pdfrwt beam="1">  1        2 0.13806600E+00 0.18816147E+04</pdfrwt>
<pdfrwt beam="2">  1       -2 0.15173577E+00 0.18816147E+04</pdfrwt>
<totfact> 0.80219867E+00</totfact>
</mgrwt>
</event>
<event>
 6    1  0.2003386E-005  0.1362688E+04  0.7818608E-02  0.8981279E-01
          1   -1    0    0  501    0  0.00000000000E+00  0.00000000000E+00  0.23568291080E+04  0.23568291080E+04  0.00000000000E+00 0. -1.
         -1   -1    0    0    0  501 -0.00000000000E+00 -0.00000000000E+00 -0.19697211408E+03  0.19697211408E+03  0.00000000000E+00 0.  1.
         23    2    1    2    0    0  0.30895772819E+03  0.14674862947E+03  0.21824581310E+04  0.22110172530E+04  0.92107337658E+02 0.  0.
         11    1    3    3    0    0  0.27712198685E+03  0.14235450385E+03  0.17618619751E+04  0.17891950759E+04  0.00000000000E+00 0.  1.
        -11    1    3    3    0    0  0.31835741333E+02  0.43941256249E+01  0.42059615590E+03  0.42182217714E+03  0.00000000000E+00 0. -1.
         22    1    1    2    0    0 -0.30895772819E+03 -0.14674862947E+03 -0.22601137034E+02  0.34278396907E+03  0.00000000000E+00 0.  1.
<mgrwt>
<rscale>  0 0.13626879E+04</rscale>
<asrwt>0</asrwt>
<pdfrwt beam="1">  1        1 0.36258907E+00 0.13626879E+04</pdfrwt>
<pdfrwt beam="2">  1       -1 0.30303404E-01 0.13626879E+04</pdfrwt>
<totfact> 0.16725904E+01</totfact>
</mgrwt>
</event>
<event>
 6    1  0.2003386E-005  0.1076441E+04  0.7818608E-02  0.9228464E-01
          1   -1    0    0  501    0  0.00000000000E+00  0.00000000000E+00  0.24993565186E+03  0.24993565186E+03  0.00000000000E+00 0. -1.
         -1   -1    0    0    0  501 -0.00000000000E+00 -0.00000000000E+00 -0.11590226563E+04  0.11590226563E+04  0.00000000000E+00 0.  1.
         23    2    1    2    0    0 -0.15668336248E+02 -0.33513648975E+03  0.87134720203E+02  0.35775914141E+03  0.88527850283E+02 0.  0.
         13    1    3    3    0    0 -0.48998272625E+02 -0.13447071790E+03  0.27024819657E+02  0.14564870604E+03  0.00000000000E+00 0.  1.
        -13    1    3    3    0    0  0.33329936377E+02 -0.20066577184E+03  0.60109900546E+02  0.21211043537E+03  0.00000000000E+00 0. -1.
         22    1    1    2    0    0  0.15668336248E+02  0.33513648975E+03 -0.99622172466E+03  0.10511991668E+04  0.00000000000E+00 0.  1.
<mgrwt>
<rscale>  0 0.10764406E+04</rscale>
<asrwt>0</asrwt>
<pdfrwt beam="1">  1        1 0.38451638E-01 0.10764406E+04</pdfrwt>
<pdfrwt beam="2">  1       -1 0.17831118E+00 0.10764406E+04</pdfrwt>
<totfact> 0.23770748E+01</totfact>
</mgrwt>
</event>
<event>
 6    1  0.2003386E-005  0.2188249E+04  0.7818608E-02  0.8523335E-01
         -1   -1    0    0    0  501 -0.00000000000E+00  0.00000000000E+00  0.69448565268E+03  0.69448565268E+03  0.00000000000E+00 0.  1.
          1   -1    0    0  501    0  0.00000000000E+00 -0.00000000000E+00 -0.17237331844E+04  0.17237331844E+04  0.00000000000E+00 0. -1.
         23    2    1    2    0    0 -0.26425431493E+03  0.50281367196E+03 -0.15464024441E+04  0.16500384318E+04  0.92813660419E+02 0.  0.
         13    1    3    3    0    0 -0.24836658831E+03  0.41982536172E+03 -0.13745774815E+04  0.14585618085E+04  0.00000000000E+00 0. -1.
        -13    1    3    3    0    0 -0.15887726620E+02  0.82988310241E+02 -0.17182496255E+03  0.19147662325E+03  0.00000000000E+00 0.  1.
         22    1    1    2    0    0  0.26425431493E+03 -0.50281367196E+03  0.51715491239E+03  0.76818040530E+03  0.00000000000E+00 0.  1.
<mgrwt>
<rscale>  0 0.21882486E+04</rscale>
<asrwt>0</asrwt>
<pdfrwt beam="1">  1        1 0.26518972E+00 0.21882486E+04</pdfrwt>
<pdfrwt beam="2">  1       -1 0.10684395E+00 0.21882486E+04</pdfrwt>
<totfact> 0.34248729E+00</totfact>
</mgrwt>
</event>
<event>
 6    1  0.2003386E-005  0.1190587E+04  0.7818608E-02  0.9121136E-01
          1   -1    0    0  501    0  0.00000000000E+00  0.00000000000E+00  0.86835829844E+03  0.86835829844E+03  0.00000000000E+00 0. -1.
         -1   -1    0    0    0  501 -0.00000000000E+00 -0.00000000000E+00 -0.40809699318E+03  0.40809699318E+03  0.00000000000E+00 0.  1.
         23    2    1    2    0    0 -0.44750575655E+03 -0.27831697312E+03 -0.56976295542E+02  0.53804045200E+03  0.92301083754E+02 0.  0.
         13    1    3    3    0    0 -0.17389794532E+03 -0.15971065478E+03 -0.11561821736E+02  0.23639302942E+03  0.00000000000E+00 0. -1.
        -13    1    3    3    0    0 -0.27360781124E+03 -0.11860631834E+03 -0.45414473806E+02  0.30164742258E+03  0.00000000000E+00 0.  1.
         22    1    1    2    0    0  0.44750575655E+03  0.27831697312E+03  0.51723760081E+03  0.73841483961E+03  0.00000000000E+00 0. -1.
<mgrwt>
<rscale>  0 0.11905871E+04</rscale>
<asrwt>0</asrwt>
<pdfrwt beam="1">  1        1 0.13359358E+00 0.11905871E+04</pdfrwt>
<pdfrwt beam="2">  1       -1 0.62784153E-01 0.11905871E+04</pdfrwt>
<totfact> 0.49262412E+01</totfact>
</mgrwt>
</event>
<event>
 6    1  0.2003386E-005  0.6158350E+03  0.7818608E-02  0.9873087E-01
         -1   -1    0    0    0  501 -0.00000000000E+00  0.00000000000E+00  0.14606979279E+03  0.14606979279E+03  0.00000000000E+00 0.  1.
          1   -1    0    0  501    0  0.00000000000E+00 -0.00000000000E+00 -0.64909503999E+03  0.64909503999E+03  0.00000000000E+00 0. -1.
         23    2    1    2    0    0 -0.23011953066E+03 -0.79917975770E+02 -0.29220584413E+02  0.26240528127E+03  0.93063461379E+02 0.  0.
         13    1    3    3    0    0 -0.11433047169E+03 -0.51232380730E+02  0.30584767940E+02  0.12896372212E+03  0.00000000000E+00 0. -1.
        -13    1    3    3    0    0 -0.11578905897E+03 -0.28685595040E+02 -0.59805352353E+02  0.13344155916E+03  0.00000000000E+00 0.  1.
         22    1    1    2    0    0  0.23011953066E+03  0.79917975770E+02 -0.47380466278E+03  0.53275955150E+03  0.00000000000E+00 0. -1.
<mgrwt>
<rscale>  0 0.61583497E+03</rscale>
<asrwt>0</asrwt>
<pdfrwt beam="1">  1        1 0.99860774E-01 0.61583497E+03</pdfrwt>
<pdfrwt beam="2">  1       -1 0.22472276E-01 0.61583497E+03</pdfrwt>
<totfact> 0.51804161E+02</totfact>
</mgrwt>
</event>
<event>
 6    1  0.2003386E-005  0.3731248E+04  0.7818608E-02  0.8061072E-01
          2   -1    0    0  501    0  0.00000000000E+00  0.00000000000E+00  0.19775294749E+04  0.19775294749E+04  0.00000000000E+00 0. -1.
         -2   -1    0    0    0  501 -0.00000000000E+00 -0.00000000000E+00 -0.17600515489E+04  0.17600515489E+04  0.00000000000E+00 0.  1.
         23    2    1    2    0    0  0.11112731429E+04 -0.38209239158E+03 -0.13412039855E+04  0.17855533870E+04  0.91924824195E+02 0.  0.
         13    1    3    3    0    0  0.46426013095E+03 -0.12479200054E+03 -0.59498833589E+03  0.76493243651E+03  0.00000000000E+00 0.  1.
        -13    1    3    3    0    0  0.64701301194E+03 -0.25730039104E+03 -0.74621564958E+03  0.10206209505E+04  0.00000000000E+00 0. -1.
         22    1    1    2    0    0 -0.11112731429E+04  0.38209239158E+03  0.15586819114E+04  0.19520276368E+04  0.00000000000E+00 0. -1.
<mgrwt>
<rscale>  0 0.37312485E+04</rscale>
<asrwt>0</asrwt>
<pdfrwt beam="1">  1        2 0.30423531E+00 0.37312485E+04</pdfrwt>
<pdfrwt beam="2">  1       -2 0.27077716E+00 0.37312485E+04</pdfrwt>
<totfact> 0.26582608E-01</totfact>
</mgrwt>
</event>
<event>
 6    1  0.2003386E-005  0.1372731E+04  0.7818608E-02  0.8973797E-01
          2   -1    0    0  501    0  0.00000000000E+00  0.00000000000E+00  0.15355256264E+04  0.15355256264E+04  0.00000000000E+00 0. -1.
         -2   -1    0    0    0  501 -0.00000000000E+00 -0.00000000000E+00 -0.30679881008E+03  0.30679881008E+03  0.00000000000E+00 0.  1.
         23    2    1    2    0    0  0.13873523016E+03  0.56642067925E+03  0.13872934044E+03  0.60613094541E+03  0.89827852696E+02 0.  0.
         13    1    3    3    0    0  0.49361059917E+02  0.26701751455E+03  0.10775890086E+03  0.29214182861E+03  0.00000000000E+00 0. -1.
        -13    1    3    3    0    0  0.89374170245E+02  0.29940316470E+03  0.30970439575E+02  0.31398911680E+03  0.00000000000E+00 0.  1.
         22    1    1    2    0    0 -0.13873523016E+03 -0.56642067925E+03  0.10899974759E+04  0.12361934911E+04  0.00000000000E+00 0. -1.
<mgrwt>
<rscale>  0 0.13727308E+04</rscale>
<asrwt>0</asrwt>
<pdfrwt beam="1">  1        2 0.23623471E+00 0.13727308E+04</pdfrwt>
<pdfrwt beam="2">  1       -2 0.47199818E-01 0.13727308E+04</pdfrwt>
<totfact> 0.50277597E+01</totfact>
</mgrwt>
</event>
<event>
 6    1  0.2003386E-005  0.6901292E+03  0.7818608E-02  0.9734263E-01
         -2   -1    0    0    0  501 -0.00000000000E+00  0.00000000000E+00  0.44647993218E+03  0.44647993218E+03  0.00000000000E+00 0. -1.
          2   -1    0    0  501    0  0.00000000000E+00 -0.00000000000E+00 -0.26668520620E+03  0.26668520620E+03  0.00000000000E+00 0.  1.
         23    2    1    2    0    0  0.22730047564E+03 -0.25126305322E+03  0.10845985890E+03  0.36691769593E+03  0.89813286604E+02 0.  0.
         11    1    3    3    0    0  0.20760533861E+03 -0.23580981253E+03  0.71386432034E+02  0.32218359205E+03  0.00000000000E+00 0.  1.
        -11    1    3    3    0    0  0.19695137033E+02 -0.15453240689E+02  0.37073426863E+02  0.44734103879E+02  0.00000000000E+00 0. -1.
         22    1    1    2    0    0 -0.22730047564E+03  0.25126305322E+03  0.71334867086E+02  0.34624744245E+03  0.00000000000E+00 0.  1.
<mgrwt>
<rscale>  0 0.69012924E+03</rscale>
<asrwt>0</asrwt>
<pdfrwt beam="1">  1        2 0.41028493E-01 0.69012924E+03</pdfrwt>
<pdfrwt beam="2">  1       -2 0.68689220E-01 0.69012924E+03</pdfrwt>
<totfact> 0.24495995E+02</totfact>
</mgrwt>
</event>
<event>
 6    1  0.2003386E-005  0.1381638E+04  0.7818608E-02  0.8967218E-01
         -2   -1    0    0    0  501 -0.00000000000E+00  0.00000000000E+00  0.60947278103E+03  0.60947278103E+03  0.00000000000E+00 0.  1.
          2   -1    0    0  501    0  0.00000000000E+00 -0.00000000000E+00 -0.78302300782E+03  0.78302300782E+03  0.00000000000E+00 0. -1.
         23    2    1    2    0    0  0.54635645772E+03 -0.14400704320E+03  0.30789729760E+03  0.65017838631E+03  0.93208265594E+02 0.  0.
         11    1    3    3    0    0  0.48282693492E+03 -0.10433166234E+03  0.29128360083E+03  0.57345713089E+03  0.00000000000E+00 0. -1.
        -11    1    3    3    0    0  0.63529522798E+02 -0.39675380866E+02  0.16613696768E+02  0.76721255426E+02  0.00000000000E+00 0.  1.
         22    1    1    2    0    0 -0.54635645772E+03  0.14400704320E+03 -0.48144752439E+03  0.74231740254E+03  0.00000000000E+00 0.  1.
<mgrwt>
<rscale>  0 0.13816385E+04</rscale>
<asrwt>0</asrwt>
<pdfrwt beam="1">  1        2 0.12046508E+00 0.13816385E+04</pdfrwt>
<pdfrwt beam="2">  1       -2 0.93765044E-01 0.13816385E+04</pdfrwt>
<totfact> 0.33201041E+01</totfact>
</mgrwt>
</event>
<event>
 6    1  0.2003386E-005  0.4059484E+04  0.7818608E-02  0.7992653E-01
          2   -1    0    0  501    0  0.00000000000E+00  0.00000000000E+00  0.21654728338E+04  0.21654728338E+04  0.00000000000E+00 0. -1.
         -2   -1    0    0    0  501 -0.00000000000E+00 -0.00000000000E+00 -0.19025189072E+04  0.19025189072E+04  0.00000000000E+00 0.  1.
         23    2    1    2    0    0  0.19337150605E+04 -0.53982535642E+03 -0.16075595065E+03  0.20161156700E+04  0.90634255740E+02 0.  0.
         13    1    3    3    0    0  0.14248560061E+04 -0.35949644901E+03 -0.10154867773E+03  0.14730120396E+04  0.00000000000E+00 0. -1.
        -13    1    3    3    0    0  0.50885905443E+03 -0.18032890741E+03 -0.59207272924E+02  0.54310363034E+03  0.00000000000E+00 0.  1.
         22    1    1    2    0    0 -0.19337150605E+04  0.53982535642E+03  0.42370987725E+03  0.20518760710E+04  0.00000000000E+00 0. -1.
<mgrwt>
<rscale>  0 0.40594842E+04</rscale>
<asrwt>0</asrwt>
<pdfrwt beam="1">  1        2 0.33314967E+00 0.40594842E+04</pdfrwt>
<pdfrwt beam="2">  1       -2 0.29269521E+00 0.40594842E+04</pdfrwt>
<totfact> 0.14935604E-01</totfact>
</mgrwt>
</event>
<event>
 6    1  0.2003386E-005  0.1348714E+04  0.7818608E-02  0.8991802E-01
          2   -1    0    0  501    0  0.00000000000E+00  0.00000000000E+00  0.98789004553E+03  0.98789004553E+03  0.00000000000E+00 0. -1.
         -2   -1    0    0    0  501 -0.00000000000E+00 -0.00000000000E+00 -0.46033194338E+03  0.46033194338E+03  0.00000000000E+00 0.  1.
         23    2    1    2    0    0 -0.29839550716E+03 -0.12551557879E+03  0.89649881803E+03  0.95739483905E+03  0.90003932645E+02 0.  0.
         13    1    3    3    0    0 -0.27012290872E+03 -0.12733633352E+03  0.73365943541E+03  0.79210926949E+03  0.00000000000E+00 0.  1.
        -13    1    3    3    0    0 -0.28272598433E+02  0.18207547310E+01  0.16283938262E+03  0.16528556956E+03  0.00000000000E+00 0. -1.
         22    1    1    2    0    0  0.29839550716E+03  0.12551557879E+03 -0.36894071588E+03  0.49082714986E+03  0.00000000000E+00 0.  1.
<mgrwt>
<rscale>  0 0.13487140E+04</rscale>
<asrwt>0</asrwt>
<pdfrwt beam="1">  1        2 0.15198308E+00 0.13487140E+04</pdfrwt>
<pdfrwt beam="2">  1       -2 0.70820299E-01 0.13487140E+04</pdfrwt>
<totfact> 0.45409277E+01</totfact>
</mgrwt>
</event>
<event>
 6    1  0.2003386E-005  0.2966800E+04  0.7818608E-02  0.8253276E-01
          2   -1    0    0  501    0  0.00000000000E+00  0.00000000000E+00  0.17280684351E+04  0.17280684351E+04  0.00000000000E+00 0. -1.
         -2   -1    0    0    0  501 -0.00000000000E+00 -0.00000000000E+00 -0.12733724994E+04  0.12733724994E+04  0.00000000000E+00 0.  1.
         23    2    1    2    0    0 -0.50483500828E+03  0.10869660467E+04  0.11091789754E+04  0.16359001546E+04  0.97661373923E+02 0.  0.
         11    1    3    3    0    0 -0.26970122733E+03  0.49590807886E+03  0.56674205631E+03  0.79991257841E+03  0.00000000000E+00 0.  1.
        -11    1    3    3    0    0 -0.23513378095E+03  0.59105796788E+03  0.54243691913E+03  0.83598757620E+03  0.00000000000E+00 0. -1.
         22    1    1    2    0    0  0.50483500828E+03 -0.10869660467E+04 -0.65448303966E+03  0.13655407799E+04  0.00000000000E+00 0.  1.
<mgrwt>
<rscale>  0 0.29667995E+04</rscale>
<asrwt>0</asrwt>
<pdfrwt beam="1">  1        2 0.26585668E+00 0.29667995E+04</pdfrwt>
<pdfrwt beam="2">  1       -2 0.19590346E+00 0.29667995E+04</pdfrwt>
<totfact> 0.11495735E+00</totfact>
</mgrwt>
</event>
<event>
 6    1  0.2003386E-005  0.1134000E+04  0.7818608E-02  0.9172673E-01
          2   -1    0    0  501    0  0.00000000000E+00  0.00000000000E+00  0.80502506841E+03  0.80502506841E+03  0.00000000000E+00 0. -1.
         -2   -1    0    0    0  501 -0.00000000000E+00 -0.00000000000E+00 -0.39935254220E+03  0.39935254220E+03  0.00000000000E+00 0.  1.
         23    2    1    2    0    0 -0.23356849282E+03  0.36625214402E+03  0.58536543494E+03  0.73428781569E+03  0.88493107093E+02 0.  0.
         13    1    3    3    0    0 -0.10824188161E+03  0.24935565507E+03  0.35156364682E+03  0.44440020861E+03  0.00000000000E+00 0. -1.
        -13    1    3    3    0    0 -0.12532661121E+03  0.11689648896E+03  0.23380178811E+03  0.28988760707E+03  0.00000000000E+00 0.  1.
         22    1    1    2    0    0  0.23356849282E+03 -0.36625214402E+03 -0.17969290873E+03  0.47008979492E+03  0.00000000000E+00 0.  1.
<mgrwt>
<rscale>  0 0.11339997E+04</rscale>
<asrwt>0</asrwt>
<pdfrwt beam="1">  1        2 0.12385001E+00 0.11339997E+04</pdfrwt>
<pdfrwt beam="2">  1       -2 0.61438853E-01 0.11339997E+04</pdfrwt>
<totfact> 0.83390876E+01</totfact>
</mgrwt>
</event>
<event>
 6    1  0.2003386E-005  0.5763662E+03  0.7818608E-02  0.9955689E-01
          1   -1    0    0  501    0  0.00000000000E+00  0.00000000000E+00  0.37461745334E+03  0.37461745334E+03  0.00000000000E+00 0. -1.
         -1   -1    0    0    0  501 -0.00000000000E+00 -0.00000000000E+00 -0.22169150710E+03  0.22169150710E+03  0.00000000000E+00 0.  1.
         23    2    1    2    0    0 -0.47675735579E+02  0.26237310166E+03  0.16820044236E+03  0.32920237035E+03  0.94711095432E+02 0.  0.
         13    1    3    3    0    0 -0.18688790686E+01  0.18491467302E+03  0.14828776826E+03  0.23703626563E+03  0.00000000000E+00 0.  1.
        -13    1    3    3    0    0 -0.45806856510E+02  0.77458428635E+02  0.19912674105E+02  0.92166104724E+02  0.00000000000E+00 0. -1.
         22    1    1    2    0    0  0.47675735579E+02 -0.26237310166E+03 -0.15274496127E+02  0.26710659009E+03  0.00000000000E+00 0.  1.
<mgrwt>
<rscale>  0 0.57636623E+03</rscale>
<asrwt>0</asrwt>
<pdfrwt beam="1">  1        1 0.57633454E-01 0.57636623E+03</pdfrwt>
<pdfrwt beam="2">  1       -1 0.34106386E-01 0.57636623E+03</pdfrwt>
<totfact> 0.53755109E+02</totfact>
</mgrwt>
</event>
<event>
 6    1  0.2003386E-005  0.3221927E+04  0.7818608E-02  0.8183050E-01
          1   -1    0    0  501    0  0.00000000000E+00  0.00000000000E+00  0.20637391009E+04  0.20637391009E+04  0.00000000000E+00 0.  1.
         -1   -1    0    0    0  501 -0.00000000000E+00 -0.00000000000E+00 -0.12575251642E+04  0.12575251642E+04  0.00000000000E+00 0. -1.
         23    2    1    2    0    0  0.91701670877E+03 -0.11159802452E+04  0.11358156816E+04  0.18397215347E+04  0.90368751221E+02 0.  0.
         13    1    3    3    0    0  0.59630304802E+03 -0.68247618060E+03  0.75501984913E+03  0.11795787531E+04  0.00000000000E+00 0.  1.
        -13    1    3    3    0    0  0.32071366075E+03 -0.43350406455E+03  0.38079583243E+03  0.66014278165E+03  0.00000000000E+00 0. -1.
         22    1    1    2    0    0 -0.91701670877E+03  0.11159802452E+04 -0.32960174482E+03  0.14815427304E+04  0.00000000000E+00 0. -1.
<mgrwt>
<rscale>  0 0.32219273E+04</rscale>
<asrwt>0</asrwt>
<pdfrwt beam="1">  1        1 0.31749832E+00 0.32219273E+04</pdfrwt>
<pdfrwt beam="2">  1       -1 0.19346541E+00 0.32219273E+04</pdfrwt>
<totfact> 0.37637091E-01</totfact>
</mgrwt>
</event>
<event>
 6    1  0.2003386E-005  0.3502737E+04  0.7818608E-02  0.8113142E-01
         -2   -1    0    0    0  501 -0.00000000000E+00  0.00000000000E+00  0.18320080840E+04  0.18320080840E+04  0.00000000000E+00 0.  1.
          2   -1    0    0  501    0  0.00000000000E+00 -0.00000000000E+00 -0.16742788545E+04  0.16742788545E+04  0.00000000000E+00 0. -1.
         23    2    1    2    0    0 -0.90449720749E+03  0.58659661447E+03 -0.13013018672E+04  0.16921804015E+04  0.88753451007E+02 0.  0.
         11    1    3    3    0    0 -0.72555531032E+03  0.47381988877E+03 -0.10984228744E+04  0.13990956388E+04  0.00000000000E+00 0. -1.
        -11    1    3    3    0    0 -0.17894189717E+03  0.11277672571E+03 -0.20287899276E+03  0.29308476270E+03  0.00000000000E+00 0.  1.
         22    1    1    2    0    0  0.90449720749E+03 -0.58659661447E+03  0.14590310967E+04  0.18141065370E+04  0.00000000000E+00 0. -1.
<mgrwt>
<rscale>  0 0.35027374E+04</rscale>
<asrwt>0</asrwt>
<pdfrwt beam="1">  1        2 0.25758136E+00 0.35027374E+04</pdfrwt>
<pdfrwt beam="2">  1       -2 0.28184740E+00 0.35027374E+04</pdfrwt>
<totfact> 0.34167683E-01</totfact>
</mgrwt>
</event>
<event>
 6    1  0.2003386E-005  0.4043178E+03  0.7818608E-02  0.1042295E+00
         -2   -1    0    0    0  501 -0.00000000000E+00  0.00000000000E+00  0.29952712340E+02  0.29952712340E+02  0.00000000000E+00 0.  1.
          2   -1    0    0  501    0  0.00000000000E+00 -0.00000000000E+00 -0.13644250470E+04  0.13644250470E+04  0.00000000000E+00 0. -1.
         23    2    1    2    0    0  0.11937790475E+03 -0.17526141573E+02 -0.12164569554E+04  0.12256001556E+04  0.88147417693E+02 0.  0.
         13    1    3    3    0    0  0.89701039949E+02 -0.32757212721E+02 -0.11085355980E+04  0.11126412196E+04  0.00000000000E+00 0.  1.
        -13    1    3    3    0    0  0.29676864805E+02  0.15231071149E+02 -0.10792135748E+03  0.11295893605E+03  0.00000000000E+00 0. -1.
         22    1    1    2    0    0 -0.11937790475E+03  0.17526141573E+02 -0.11801537920E+03  0.16877760370E+03  0.00000000000E+00 0.  1.
<mgrwt>
<rscale>  0 0.40431785E+03</rscale>
<asrwt>0</asrwt>
<pdfrwt beam="1">  1        2 0.20991156E+00 0.40431785E+03</pdfrwt>
<pdfrwt beam="2">  1       -2 0.46081093E-02 0.40431785E+03</pdfrwt>
<totfact> 0.35915787E+03</totfact>
</mgrwt>
</event>
<event>
 6    1  0.2003386E-005  0.1059933E+04  0.7818608E-02  0.9245149E-01
         -2   -1    0    0    0  501 -0.00000000000E+00  0.00000000000E+00  0.54067373681E+03  0.54067373681E+03  0.00000000000E+00 0.  1.
          2   -1    0    0  501    0  0.00000000000E+00 -0.00000000000E+00 -0.51947096625E+03  0.51947096625E+03  0.00000000000E+00 0. -1.
         23    2    1    2    0    0  0.40205855720E+03 -0.96244889710E+02  0.33604301847E+03  0.54049237320E+03  0.91065542391E+02 0.  0.
         11    1    3    3    0    0  0.10585358515E+01  0.41766383625E+01  0.19129718553E+02  0.19608950458E+02  0.00000000000E+00 0.  1.
        -11    1    3    3    0    0  0.40100002135E+03 -0.10042152807E+03  0.31691329992E+03  0.52088342274E+03  0.00000000000E+00 0. -1.
         22    1    1    2    0    0 -0.40205855720E+03  0.96244889710E+02 -0.31484024791E+03  0.51965232985E+03  0.00000000000E+00 0. -1.
<mgrwt>
<rscale>  0 0.10599327E+04</rscale>
<asrwt>0</asrwt>
<pdfrwt beam="1">  1        2 0.79918610E-01 0.10599327E+04</pdfrwt>
<pdfrwt beam="2">  1       -2 0.83180575E-01 0.10599327E+04</pdfrwt>
<totfact> 0.74221814E+01</totfact>
</mgrwt>
</event>
<event>
 6    1  0.2003386E-005  0.1478591E+04  0.7818608E-02  0.8898816E-01
         -2   -1    0    0    0  501 -0.00000000000E+00  0.00000000000E+00  0.40482703190E+03  0.40482703190E+03  0.00000000000E+00 0.  1.
          2   -1    0    0  501    0  0.00000000000E+00 -0.00000000000E+00 -0.13501025728E+04  0.13501025728E+04  0.00000000000E+00 0. -1.
         23    2    1    2    0    0  0.16423401465E+03  0.61909716333E+03 -0.90594267627E+03  0.11132122343E+04  0.90858333615E+02 0.  0.
         13    1    3    3    0    0  0.61797003692E+02  0.33273298435E+03 -0.41235495152E+03  0.53344794928E+03  0.00000000000E+00 0. -1.
        -13    1    3    3    0    0  0.10243701096E+03  0.28636417897E+03 -0.49358772474E+03  0.57976428506E+03  0.00000000000E+00 0.  1.
         22    1    1    2    0    0 -0.16423401465E+03 -0.61909716333E+03 -0.39332864639E+02  0.64171737038E+03  0.00000000000E+00 0.  1.
<mgrwt>
<rscale>  0 0.14785912E+04</rscale>
<asrwt>0</asrwt>
<pdfrwt beam="1">  1        2 0.20770809E+00 0.14785912E+04</pdfrwt>
<pdfrwt beam="2">  1       -2 0.62281082E-01 0.14785912E+04</pdfrwt>
<totfact> 0.35791692E+01</totfact>
</mgrwt>
</event>
<event>
 6    1  0.2003386E-005  0.9555772E+03  0.7818608E-02  0.9358655E-01
         -2   -1    0    0    0  501 -0.00000000000E+00  0.00000000000E+00  0.40850983061E+03  0.40850983061E+03  0.00000000000E+00 0.  1.
          2   -1    0    0  501    0  0.00000000000E+00 -0.00000000000E+00 -0.55881633491E+03  0.55881633491E+03  0.00000000000E+00 0. -1.
         23    2    1    2    0    0 -0.44212778520E+03  0.11554295733E+03  0.48441091166E+02  0.46900121115E+03  0.93746697612E+02 0.  0.
         13    1    3    3    0    0 -0.20949606900E+03  0.10295616073E+03  0.19561621831E+02  0.23424609070E+03  0.00000000000E+00 0. -1.
        -13    1    3    3    0    0 -0.23263171620E+03  0.12586796607E+02  0.28879469336E+02  0.23475512045E+03  0.00000000000E+00 0.  1.
         22    1    1    2    0    0  0.44212778520E+03 -0.11554295733E+03 -0.19874759547E+03  0.49832495436E+03  0.00000000000E+00 0. -1.
<mgrwt>
<rscale>  0 0.95557724E+03</rscale>
<asrwt>0</asrwt>
<pdfrwt beam="1">  1        2 0.85971744E-01 0.95557724E+03</pdfrwt>
<pdfrwt beam="2">  1       -2 0.62847666E-01 0.95557724E+03</pdfrwt>
<totfact> 0.12693825E+02</totfact>
</mgrwt>
</event>
<event>
 6    1  0.2003386E-005  0.1151989E+04  0.7818608E-02  0.9155951E-01
         -2   -1    0    0    0  501 -0.00000000000E+00  0.00000000000E+00  0.53149824875E+03  0.53149824875E+03  0.00000000000E+00 0.  1.
          2   -1    0    0  501    0  0.00000000000E+00 -0.00000000000E+00 -0.62421588621E+03  0.62421588621E+03  0.00000000000E+00 0. -1.
         23    2    1    2    0    0 -0.55311987905E+03  0.13623816432E+03 -0.10965939265E+03  0.58581110717E+03  0.81529337525E+02 0.  0.
         13    1    3    3    0    0 -0.27258056233E+03  0.33185849158E+02 -0.76869322887E+02  0.28514970865E+03  0.00000000000E+00 0. -1.
        -13    1    3    3    0    0 -0.28053931672E+03  0.10305231517E+03 -0.32790069763E+02  0.30066139852E+03  0.00000000000E+00 0.  1.
         22    1    1    2    0    0  0.55311987905E+03 -0.13623816432E+03  0.16941755187E+02  0.56990302779E+03  0.00000000000E+00 0.  1.
<mgrwt>
<rscale>  0 0.11519890E+04</rscale>
<asrwt>0</asrwt>
<pdfrwt beam="1">  1        2 0.96033213E-01 0.11519890E+04</pdfrwt>
<pdfrwt beam="2">  1       -2 0.81768961E-01 0.11519890E+04</pdfrwt>
<totfact> 0.61580579E+01</totfact>
</mgrwt>
</event>
<event>
 6    1  0.2003386E-005  0.8089545E+03  0.7818608E-02  0.9547146E-01
         -2   -1    0    0    0  501 -0.00000000000E+00  0.00000000000E+00  0.17903085144E+03  0.17903085144E+03  0.00000000000E+00 0.  1.
          2   -1    0    0  501    0  0.00000000000E+00 -0.00000000000E+00 -0.91381929249E+03  0.91381929249E+03  0.00000000000E+00 0. -1.
         23    2    1    2    0    0  0.16268454164E+03 -0.29287691650E+03 -0.78286003417E+02  0.35580292771E+03  0.90685592754E+02 0.  0.
         13    1    3    3    0    0  0.81517525760E+02 -0.66541557028E+02 -0.92185793771E+01  0.10563081001E+03  0.00000000000E+00 0.  1.
        -13    1    3    3    0    0  0.81167015883E+02 -0.22633535947E+03 -0.69067424040E+02  0.25017211770E+03  0.00000000000E+00 0. -1.
         22    1    1    2    0    0 -0.16268454164E+03  0.29287691650E+03 -0.65650243763E+03  0.73704721621E+03  0.00000000000E+00 0.  1.
<mgrwt>
<rscale>  0 0.80895450E+03</rscale>
<asrwt>0</asrwt>
<pdfrwt beam="1">  1        2 0.14058758E+00 0.80895450E+03</pdfrwt>
<pdfrwt beam="2">  1       -2 0.27543208E-01 0.80895450E+03</pdfrwt>
<totfact> 0.34614203E+02</totfact>
</mgrwt>
</event>
<event>
 6    1  0.2003386E-005  0.1918439E+04  0.7818608E-02  0.8645732E-01
          2   -1    0    0  501    0  0.00000000000E+00  0.00000000000E+00  0.76524983989E+03  0.76524983989E+03  0.00000000000E+00 0.  1.
         -2   -1    0    0    0  501 -0.00000000000E+00 -0.00000000000E+00 -0.12023547550E+04  0.12023547550E+04  0.00000000000E+00 0. -1.
         23    2    1    2    0    0 -0.39594062666E+03  0.69070449540E+03  0.32576138005E+03  0.86496836109E+03  0.90598615580E+02 0.  0.
         11    1    3    3    0    0 -0.11065014107E+03  0.21874302883E+03  0.14398773199E+03  0.28429638293E+03  0.00000000000E+00 0. -1.
        -11    1    3    3    0    0 -0.28529048559E+03  0.47196146657E+03  0.18177364806E+03  0.58067197816E+03  0.00000000000E+00 0.  1.
         22    1    1    2    0    0  0.39594062666E+03 -0.69070449540E+03 -0.76286629516E+03  0.11026362338E+04  0.00000000000E+00 0. -1.
<mgrwt>
<rscale>  0 0.19184387E+04</rscale>
<asrwt>0</asrwt>
<pdfrwt beam="1">  1        2 0.11773075E+00 0.19184387E+04</pdfrwt>
<pdfrwt beam="2">  1       -2 0.18497765E+00 0.19184387E+04</pdfrwt>
<totfact> 0.57222656E+00</totfact>
</mgrwt>
</event>
<event>
 6    1  0.2003386E-005  0.2283168E+04  0.7818608E-02  0.8484587E-01
          2   -1    0    0  501    0  0.00000000000E+00  0.00000000000E+00  0.14805084183E+04  0.14805084183E+04  0.00000000000E+00 0. -1.
         -2   -1    0    0    0  501 -0.00000000000E+00 -0.00000000000E+00 -0.88024783421E+03  0.88024783421E+03  0.00000000000E+00 0.  1.
         23    2    1    2    0    0 -0.66348143225E+03  0.87054085530E+03 -0.28109294741E+02  0.10986557429E+04  0.90583206439E+02 0.  0.
         11    1    3    3    0    0 -0.34705926370E+03  0.38494967990E+03 -0.28201908080E+02  0.51906814215E+03  0.00000000000E+00 0.  1.
        -11    1    3    3    0    0 -0.31642216855E+03  0.48559117540E+03  0.92613339095E-01  0.57958760076E+03  0.00000000000E+00 0. -1.
         22    1    1    2    0    0  0.66348143225E+03 -0.87054085530E+03  0.62836987878E+03  0.12621005096E+04  0.00000000000E+00 0. -1.
<mgrwt>
<rscale>  0 0.22831683E+04</rscale>
<asrwt>0</asrwt>
<pdfrwt beam="1">  1        2 0.22777053E+00 0.22831683E+04</pdfrwt>
<pdfrwt beam="2">  1       -2 0.13542274E+00 0.22831683E+04</pdfrwt>
<totfact> 0.46270769E+00</totfact>
</mgrwt>
</event>
<event>
 6    1  0.2003386E-005  0.2213680E+04  0.7818608E-02  0.8512756E-01
          2   -1    0    0  501    0  0.00000000000E+00  0.00000000000E+00  0.10870159440E+04  0.10870159440E+04  0.00000000000E+00 0. -1.
         -2   -1    0    0    0  501 -0.00000000000E+00 -0.00000000000E+00 -0.11270251517E+04  0.11270251517E+04  0.00000000000E+00 0.  1.
         23    2    1    2    0    0 -0.39759393040E+03  0.28766130165E+03  0.97001291619E+03  0.10911098206E+04  0.93624916770E+02 0.  0.
         13    1    3    3    0    0 -0.33047629122E+03  0.26008409077E+03  0.88132199405E+03  0.97651767548E+03  0.00000000000E+00 0.  1.
        -13    1    3    3    0    0 -0.67117639185E+02  0.27577210879E+02  0.88690922145E+02  0.11459214511E+03  0.00000000000E+00 0. -1.
         22    1    1    2    0    0  0.39759393040E+03 -0.28766130165E+03 -0.10100221238E+04  0.11229312751E+04  0.00000000000E+00 0.  1.
<mgrwt>
<rscale>  0 0.22136796E+04</rscale>
<asrwt>0</asrwt>
<pdfrwt beam="1">  1        2 0.16723322E+00 0.22136796E+04</pdfrwt>
<pdfrwt beam="2">  1       -2 0.17338848E+00 0.22136796E+04</pdfrwt>
<totfact> 0.40862995E+00</totfact>
</mgrwt>
</event>
<event>
 6    1  0.2003386E-005  0.3805091E+04  0.7818608E-02  0.8045063E-01
         -2   -1    0    0    0  501 -0.00000000000E+00  0.00000000000E+00  0.12665918986E+04  0.12665918986E+04  0.00000000000E+00 0.  1.
          2   -1    0    0  501    0  0.00000000000E+00 -0.00000000000E+00 -0.28578098589E+04  0.28578098589E+04  0.00000000000E+00 0. -1.
         23    2    1    2    0    0  0.16078350996E+04  0.89864739018E+03 -0.28431588687E+03  0.18659301794E+04  0.90327577746E+02 0.  0.
         13    1    3    3    0    0  0.11498916556E+03  0.40882119179E+02 -0.95357047797E+01  0.12241235856E+03  0.00000000000E+00 0.  1.
        -13    1    3    3    0    0  0.14928459341E+04  0.85776527101E+03 -0.27478018209E+03  0.17435178208E+04  0.00000000000E+00 0. -1.
         22    1    1    2    0    0 -0.16078350996E+04 -0.89864739018E+03 -0.13069020735E+04  0.22584715781E+04  0.00000000000E+00 0.  1.
<mgrwt>
<rscale>  0 0.38050907E+04</rscale>
<asrwt>0</asrwt>
<pdfrwt beam="1">  1        2 0.43966306E+00 0.38050907E+04</pdfrwt>
<pdfrwt beam="2">  1       -2 0.19486029E+00 0.38050907E+04</pdfrwt>
<totfact> 0.24571754E-01</totfact>
</mgrwt>
</event>
<event>
 6    1  0.2003386E-005  0.1972401E+04  0.7818608E-02  0.8619634E-01
         -2   -1    0    0    0  501 -0.00000000000E+00  0.00000000000E+00  0.23402258420E+03  0.23402258420E+03  0.00000000000E+00 0.  1.
          2   -1    0    0  501    0  0.00000000000E+00 -0.00000000000E+00 -0.41559725804E+04  0.41559725804E+04  0.00000000000E+00 0. -1.
         23    2    1    2    0    0 -0.59467119183E+03  0.83531443354E+02 -0.37003807023E+04  0.37499137007E+04  0.91782854893E+02 0.  0.
         11    1    3    3    0    0 -0.30640057703E+03  0.37869430865E+02 -0.16195763501E+04  0.16487398100E+04  0.00000000000E+00 0.  1.
        -11    1    3    3    0    0 -0.28827061480E+03  0.45662012489E+02 -0.20808043522E+04  0.21011738907E+04  0.00000000000E+00 0. -1.
         22    1    1    2    0    0  0.59467119183E+03 -0.83531443354E+02 -0.22156929392E+03  0.64008146390E+03  0.00000000000E+00 0.  1.
<mgrwt>
<rscale>  0 0.19724010E+04</rscale>
<asrwt>0</asrwt>
<pdfrwt beam="1">  1        2 0.63938040E+00 0.19724010E+04</pdfrwt>
<pdfrwt beam="2">  1       -2 0.36003474E-01 0.19724010E+04</pdfrwt>
<totfact> 0.17367250E+00</totfact>
</mgrwt>
</event>
<event>
 6    1  0.2003386E-005  0.2806846E+04  0.7818608E-02  0.8301146E-01
          2   -1    0    0  501    0  0.00000000000E+00  0.00000000000E+00  0.37223168931E+04  0.37223168931E+04  0.00000000000E+00 0. -1.
         -2   -1    0    0    0  501 -0.00000000000E+00 -0.00000000000E+00 -0.52913161110E+03  0.52913161110E+03  0.00000000000E+00 0.  1.
         23    2    1    2    0    0 -0.88752287841E+03 -0.66703088121E+03  0.28948513782E+04  0.31018267515E+04  0.92399340349E+02 0.  0.
         13    1    3    3    0    0 -0.60935953830E+03 -0.42120612862E+03  0.18370737560E+04  0.19808012608E+04  0.00000000000E+00 0. -1.
        -13    1    3    3    0    0 -0.27816334012E+03 -0.24582475259E+03  0.10577776222E+04  0.11210254907E+04  0.00000000000E+00 0.  1.
         22    1    1    2    0    0  0.88752287841E+03  0.66703088121E+03  0.29833390381E+03  0.11496217527E+04  0.00000000000E+00 0.  1.
<mgrwt>
<rscale>  0 0.28068456E+04</rscale>
<asrwt>0</asrwt>
<pdfrwt beam="1">  1        2 0.57266412E+00 0.28068456E+04</pdfrwt>
<pdfrwt beam="2">  1       -2 0.81404865E-01 0.28068456E+04</pdfrwt>
<totfact> 0.64951910E-01</totfact>
</mgrwt>
</event>
<event>
 6    1  0.2003386E-005  0.1425559E+04  0.7818608E-02  0.8935522E-01
          2   -1    0    0  501    0  0.00000000000E+00  0.00000000000E+00  0.18973685968E+04  0.18973685968E+04  0.00000000000E+00 0. -1.
         -2   -1    0    0    0  501 -0.00000000000E+00 -0.00000000000E+00 -0.26776819257E+03  0.26776819257E+03  0.00000000000E+00 0.  1.
         23    2    1    2    0    0 -0.63663706267E+03 -0.23287384031E+03  0.50931834339E+03  0.85572132021E+03  0.11539856104E+03 0.  0.
         13    1    3    3    0    0 -0.34683894350E+03 -0.18713233362E+03  0.28291583065E+03  0.48513619763E+03  0.00000000000E+00 0. -1.
        -13    1    3    3    0    0 -0.28979811917E+03 -0.45741506690E+02  0.22640251274E+03  0.37058512259E+03  0.00000000000E+00 0.  1.
         22    1    1    2    0    0  0.63663706267E+03  0.23287384031E+03  0.11202820609E+04  0.13094154692E+04  0.00000000000E+00 0.  1.
<mgrwt>
<rscale>  0 0.14255595E+04</rscale>
<asrwt>0</asrwt>
<pdfrwt beam="1">  1        2 0.29190285E+00 0.14255595E+04</pdfrwt>
<pdfrwt beam="2">  1       -2 0.41195108E-01 0.14255595E+04</pdfrwt>
<totfact> 0.41325443E+01</totfact>
</mgrwt>
</event>
<event>
 6    1  0.2003386E-005  0.1594883E+04  0.7818608E-02  0.8823698E-01
         -2   -1    0    0    0  501 -0.00000000000E+00  0.00000000000E+00  0.51415421014E+03  0.51415421014E+03  0.00000000000E+00 0.  1.
          2   -1    0    0  501    0  0.00000000000E+00 -0.00000000000E+00 -0.12368139803E+04  0.12368139803E+04  0.00000000000E+00 0. -1.
         23    2    1    2    0    0 -0.32502446354E+03  0.40774573184E+03  0.29518421534E+03  0.60733194471E+03  0.99100385165E+02 0.  0.
         13    1    3    3    0    0 -0.13157047669E+03  0.18467450477E+03  0.74399418563E+02  0.23864353444E+03  0.00000000000E+00 0. -1.
        -13    1    3    3    0    0 -0.19345398685E+03  0.22307122708E+03  0.22078479678E+03  0.36868841027E+03  0.00000000000E+00 0.  1.
         22    1    1    2    0    0  0.32502446354E+03 -0.40774573184E+03 -0.10178439855E+04  0.11436362457E+04  0.00000000000E+00 0. -1.
<mgrwt>
<rscale>  0 0.15948832E+04</rscale>
<asrwt>0</asrwt>
<pdfrwt beam="1">  1        2 0.19027907E+00 0.15948832E+04</pdfrwt>
<pdfrwt beam="2">  1       -2 0.79100648E-01 0.15948832E+04</pdfrwt>
<totfact> 0.24497316E+01</totfact>
</mgrwt>
</event>
<event>
 6    1  0.2003386E-005  0.2289991E+04  0.7818608E-02  0.8481878E-01
          2   -1    0    0  501    0  0.00000000000E+00  0.00000000000E+00  0.21438127337E+04  0.21438127337E+04  0.00000000000E+00 0. -1.
         -2   -1    0    0    0  501 -0.00000000000E+00 -0.00000000000E+00 -0.61153418805E+03  0.61153418805E+03  0.00000000000E+00 0.  1.
         23    2    1    2    0    0  0.47501102996E+03 -0.80716101298E+03  0.15561085232E+04  0.18184839396E+04  0.90916022914E+02 0.  0.
         11    1    3    3    0    0  0.42969441979E+03 -0.76887071824E+03  0.14754296034E+04  0.17183398937E+04  0.00000000000E+00 0. -1.
        -11    1    3    3    0    0  0.45316610174E+02 -0.38290294742E+02  0.80678919782E+02  0.10014404589E+03  0.00000000000E+00 0.  1.
         22    1    1    2    0    0 -0.47501102996E+03  0.80716101298E+03 -0.23829977546E+02  0.93686298213E+03  0.00000000000E+00 0.  1.
<mgrwt>
<rscale>  0 0.22899911E+04</rscale>
<asrwt>0</asrwt>
<pdfrwt beam="1">  1        2 0.32981734E+00 0.22899911E+04</pdfrwt>
<pdfrwt beam="2">  1       -2 0.94082184E-01 0.22899911E+04</pdfrwt>
<totfact> 0.48032347E+00</totfact>
</mgrwt>
</event>
<event>
 6    1  0.2003386E-005  0.2195842E+04  0.7818608E-02  0.8520161E-01
          1   -1    0    0  501    0  0.00000000000E+00  0.00000000000E+00  0.20991945855E+04  0.20991945855E+04  0.00000000000E+00 0. -1.
         -1   -1    0    0    0  501 -0.00000000000E+00 -0.00000000000E+00 -0.57423473455E+03  0.57423473455E+03  0.00000000000E+00 0.  1.
         23    2    1    2    0    0  0.28295254423E+03  0.27568835517E+03  0.20085127638E+04  0.20490178923E+04  0.91019716981E+02 0.  0.
         13    1    3    3    0    0  0.66065846700E+02  0.86522547912E+02  0.38061464469E+03  0.39587669185E+03  0.00000000000E+00 0. -1.
        -13    1    3    3    0    0  0.21688669753E+03  0.18916580726E+03  0.16278981192E+04  0.16531412004E+04  0.00000000000E+00 0.  1.
         22    1    1    2    0    0 -0.28295254423E+03 -0.27568835517E+03 -0.48355291294E+03  0.62441142773E+03  0.00000000000E+00 0.  1.
<mgrwt>
<rscale>  0 0.21958419E+04</rscale>
<asrwt>0</asrwt>
<pdfrwt beam="1">  1        1 0.32295301E+00 0.21958419E+04</pdfrwt>
<pdfrwt beam="2">  1       -1 0.88343806E-01 0.21958419E+04</pdfrwt>
<totfact> 0.29281623E+00</totfact>
</mgrwt>
</event>
<event>
 6    1  0.2003386E-005  0.2682769E+04  0.7818608E-02  0.8340618E-01
          2   -1    0    0  501    0  0.00000000000E+00  0.00000000000E+00  0.17532385137E+04  0.17532385137E+04  0.00000000000E+00 0. -1.
         -2   -1    0    0    0  501 -0.00000000000E+00 -0.00000000000E+00 -0.10262791237E+04  0.10262791237E+04  0.00000000000E+00 0.  1.
         23    2    1    2    0    0 -0.10917347125E+04 -0.44927837463E+03 -0.29222632499E+03  0.12198781719E+04  0.94714248274E+02 0.  0.
         11    1    3    3    0    0 -0.92499887939E+03 -0.34317431866E+03 -0.23696855463E+03  0.10146652826E+04  0.00000000000E+00 0. -1.
        -11    1    3    3    0    0 -0.16673583313E+03 -0.10610405597E+03 -0.55257770362E+02  0.20521288929E+03  0.00000000000E+00 0.  1.
         22    1    1    2    0    0  0.10917347125E+04  0.44927837463E+03  0.10191857150E+04  0.15596394654E+04  0.00000000000E+00 0. -1.
<mgrwt>
<rscale>  0 0.26827688E+04</rscale>
<asrwt>0</asrwt>
<pdfrwt beam="1">  1        2 0.26972900E+00 0.26827688E+04</pdfrwt>
<pdfrwt beam="2">  1       -2 0.15788910E+00 0.26827688E+04</pdfrwt>
<totfact> 0.21020701E+00</totfact>
</mgrwt>
</event>
<event>
 6    1  0.2003386E-005  0.2386385E+04  0.7818608E-02  0.8444619E-01
          1   -1    0    0  501    0  0.00000000000E+00  0.00000000000E+00  0.14565210914E+04  0.14565210914E+04  0.00000000000E+00 0. -1.
         -1   -1    0    0    0  501 -0.00000000000E+00 -0.00000000000E+00 -0.97747155721E+03  0.97747155721E+03  0.00000000000E+00 0.  1.
         23    2    1    2    0    0  0.84987708292E+03  0.15775206826E+03  0.10760341805E+04  0.13834844673E+04  0.94883836500E+02 0.  0.
         13    1    3    3    0    0  0.52778746842E+03  0.52722873588E+02  0.67674005043E+03  0.85983510574E+03  0.00000000000E+00 0. -1.
        -13    1    3    3    0    0  0.32208961451E+03  0.10502919467E+03  0.39929413006E+03  0.52364936151E+03  0.00000000000E+00 0.  1.
         22    1    1    2    0    0 -0.84987708292E+03 -0.15775206826E+03 -0.59698464631E+03  0.10505081813E+04  0.00000000000E+00 0.  1.
<mgrwt>
<rscale>  0 0.23863847E+04</rscale>
<asrwt>0</asrwt>
<pdfrwt beam="1">  1        1 0.22408017E+00 0.23863847E+04</pdfrwt>
<pdfrwt beam="2">  1       -1 0.15038024E+00 0.23863847E+04</pdfrwt>
<totfact> 0.21805615E+00</totfact>
</mgrwt>
</event>
<event>
 6    1  0.2003386E-005  0.9071556E+03  0.7818608E-02  0.9416681E-01
          2   -1    0    0  501    0  0.00000000000E+00  0.00000000000E+00  0.10518831366E+04  0.10518831366E+04  0.00000000000E+00 0. -1.
         -2   -1    0    0    0  501 -0.00000000000E+00 -0.00000000000E+00 -0.19558523634E+03  0.19558523634E+03  0.00000000000E+00 0.  1.
         23    2    1    2    0    0 -0.16381801707E+03 -0.32932795224E+03  0.78682577811E+03  0.87314282131E+03  0.89388693111E+02 0.  0.
         11    1    3    3    0    0 -0.13104827232E+03 -0.21375935856E+03  0.44433008985E+03  0.51019206364E+03  0.00000000000E+00 0.  1.
        -11    1    3    3    0    0 -0.32769744744E+02 -0.11556859368E+03  0.34249568827E+03  0.36295075767E+03  0.00000000000E+00 0. -1.
         22    1    1    2    0    0  0.16381801707E+03  0.32932795224E+03  0.69472122137E+02  0.37432555162E+03  0.00000000000E+00 0.  1.
<mgrwt>
<rscale>  0 0.90715558E+03</rscale>
<asrwt>0</asrwt>
<pdfrwt beam="1">  1        2 0.16182817E+00 0.90715558E+03</pdfrwt>
<pdfrwt beam="2">  1       -2 0.30090037E-01 0.90715558E+03</pdfrwt>
<totfact> 0.23825130E+02</totfact>
</mgrwt>
</event>
<event>
 6    1  0.2003386E-005  0.3770307E+04  0.7818608E-02  0.8052557E-01
         -2   -1    0    0    0  501 -0.00000000000E+00  0.00000000000E+00  0.11212912942E+04  0.11212912942E+04  0.00000000000E+00 0.  1.
          2   -1    0    0  501    0  0.00000000000E+00 -0.00000000000E+00 -0.31693844244E+04  0.31693844244E+04  0.00000000000E+00 0. -1.
         23    2    1    2    0    0  0.86161732179E+03 -0.37283284464E+03 -0.28836629414E+04  0.30338679972E+04  0.86338436403E+02 0.  0.
         13    1    3    3    0    0  0.16760610111E+03 -0.36391725216E+02 -0.53050564120E+03  0.55754138693E+03  0.00000000000E+00 0.  1.
        -13    1    3    3    0    0  0.69401122068E+03 -0.33644111942E+03 -0.23531573002E+04  0.24763266102E+04  0.00000000000E+00 0. -1.
         22    1    1    2    0    0 -0.86161732179E+03  0.37283284464E+03  0.83556981114E+03  0.12568077214E+04  0.00000000000E+00 0.  1.
<mgrwt>
<rscale>  0 0.37703067E+04</rscale>
<asrwt>0</asrwt>
<pdfrwt beam="1">  1        2 0.48759760E+00 0.37703067E+04</pdfrwt>
<pdfrwt beam="2">  1       -2 0.17250635E+00 0.37703067E+04</pdfrwt>
<totfact> 0.22303840E-01</totfact>
</mgrwt>
</event>
<event>
 6    1  0.2003386E-005  0.8402111E+03  0.7818608E-02  0.9503570E-01
          2   -1    0    0  501    0  0.00000000000E+00  0.00000000000E+00  0.36034209319E+04  0.36034209319E+04  0.00000000000E+00 0. -1.
         -2   -1    0    0    0  501 -0.00000000000E+00 -0.00000000000E+00 -0.48978091652E+02  0.48978091652E+02  0.00000000000E+00 0.  1.
         23    2    1    2    0    0 -0.37343942741E+03  0.16910748403E+03  0.15184089982E+04  0.15755051522E+04  0.92715972465E+02 0.  0.
         11    1    3    3    0    0 -0.17799542774E+02 -0.11637313085E+02  0.84626701267E+02  0.87257832577E+02  0.00000000000E+00 0.  1.
        -11    1    3    3    0    0 -0.35563988463E+03  0.18074479711E+03  0.14337822969E+04  0.14882473196E+04  0.00000000000E+00 0. -1.
         22    1    1    2    0    0  0.37343942741E+03 -0.16910748403E+03  0.20360338421E+04  0.20768938714E+04  0.00000000000E+00 0. -1.
<mgrwt>
<rscale>  0 0.84021112E+03</rscale>
<asrwt>0</asrwt>
<pdfrwt beam="1">  1        2 0.55437224E+00 0.84021112E+03</pdfrwt>
<pdfrwt beam="2">  1       -2 0.75350938E-02 0.84021112E+03</pdfrwt>
<totfact> 0.79347260E+01</totfact>
</mgrwt>
</event>
<event>
 6    1  0.2003386E-005  0.1658545E+04  0.7818608E-02  0.8785367E-01
         -2   -1    0    0    0  501 -0.00000000000E+00  0.00000000000E+00  0.24004026687E+03  0.24004026687E+03  0.00000000000E+00 0.  1.
          2   -1    0    0  501    0  0.00000000000E+00 -0.00000000000E+00 -0.28649074013E+04  0.28649074013E+04  0.00000000000E+00 0. -1.
         23    2    1    2    0    0 -0.50036463041E+03  0.18948317343E+03 -0.13639071033E+03  0.55960220052E+03  0.91014068100E+02 0.  0.
         11    1    3    3    0    0 -0.10995690415E+03  0.81528089028E+02 -0.21480253374E+02  0.13855955888E+03  0.00000000000E+00 0.  1.
        -11    1    3    3    0    0 -0.39040772625E+03  0.10795508441E+03 -0.11491045695E+03  0.42104264165E+03  0.00000000000E+00 0. -1.
         22    1    1    2    0    0  0.50036463041E+03 -0.18948317343E+03 -0.24884764241E+04  0.25453454677E+04  0.00000000000E+00 0. -1.
<mgrwt>
<rscale>  0 0.16585453E+04</rscale>
<asrwt>0</asrwt>
<pdfrwt beam="1">  1        2 0.44075496E+00 0.16585453E+04</pdfrwt>
<pdfrwt beam="2">  1       -2 0.36929274E-01 0.16585453E+04</pdfrwt>
<totfact> 0.13983707E+01</totfact>
</mgrwt>
</event>
<event>
 6    1  0.2003386E-005  0.2355008E+04  0.7818608E-02  0.8456543E-01
         -1   -1    0    0    0  501 -0.00000000000E+00  0.00000000000E+00  0.11452899517E+04  0.11452899517E+04  0.00000000000E+00 0.  1.
          1   -1    0    0  501    0  0.00000000000E+00 -0.00000000000E+00 -0.12106241769E+04  0.12106241769E+04  0.00000000000E+00 0. -1.
         23    2    1    2    0    0  0.63448324353E+03 -0.35500962117E+02  0.95685560931E+03  0.11522940215E+04  0.91539883664E+02 0.  0.
         11    1    3    3    0    0  0.47714589433E+03 -0.64149627000E+02  0.74056832421E+03  0.88330335782E+03  0.00000000000E+00 0. -1.
        -11    1    3    3    0    0  0.15733734919E+03  0.28648664882E+02  0.21628728511E+03  0.26899066368E+03  0.00000000000E+00 0.  1.
         22    1    1    2    0    0 -0.63448324353E+03  0.35500962117E+02 -0.10221898345E+04  0.12036201072E+04  0.00000000000E+00 0. -1.
<mgrwt>
<rscale>  0 0.23550080E+04</rscale>
<asrwt>0</asrwt>
<pdfrwt beam="1">  1        1 0.18624987E+00 0.23550080E+04</pdfrwt>
<pdfrwt beam="2">  1       -1 0.17619845E+00 0.23550080E+04</pdfrwt>
<totfact> 0.20934732E+00</totfact>
</mgrwt>
</event>
<event>
 6    1  0.2003386E-005  0.1735747E+04  0.7818608E-02  0.8741235E-01
         -1   -1    0    0    0  501 -0.00000000000E+00  0.00000000000E+00  0.10028686271E+04  0.10028686271E+04  0.00000000000E+00 0.  1.
          1   -1    0    0  501    0  0.00000000000E+00 -0.00000000000E+00 -0.75105012802E+03  0.75105012802E+03  0.00000000000E+00 0. -1.
         23    2    1    2    0    0  0.73205819248E+03  0.46095480060E+03  0.15629976590E+03  0.88356689878E+03  0.88726109032E+02 0.  0.
         11    1    3    3    0    0  0.43129222866E+03  0.32239690163E+03  0.94452780954E+02  0.54669376850E+03  0.00000000000E+00 0.  1.
        -11    1    3    3    0    0  0.30076596382E+03  0.13855789897E+03  0.61846984947E+02  0.33687313028E+03  0.00000000000E+00 0. -1.
         22    1    1    2    0    0 -0.73205819248E+03 -0.46095480060E+03  0.95518733129E+02  0.87035185629E+03  0.00000000000E+00 0.  1.
<mgrwt>
<rscale>  0 0.17357472E+04</rscale>
<asrwt>0</asrwt>
<pdfrwt beam="1">  1        1 0.11554617E+00 0.17357472E+04</pdfrwt>
<pdfrwt beam="2">  1       -1 0.15428748E+00 0.17357472E+04</pdfrwt>
<totfact> 0.74938196E+00</totfact>
</mgrwt>
</event>
<event>
 6    1  0.2003386E-005  0.1268236E+04  0.7818608E-02  0.9055141E-01
         -2   -1    0    0    0  501 -0.00000000000E+00  0.00000000000E+00  0.47241414891E+03  0.47241414891E+03  0.00000000000E+00 0.  1.
          2   -1    0    0  501    0  0.00000000000E+00 -0.00000000000E+00 -0.85117188632E+03  0.85117188632E+03  0.00000000000E+00 0. -1.
         23    2    1    2    0    0 -0.11530931927E+02  0.42872429395E+03  0.29068040302E+03  0.52854835909E+03  0.10455041169E+03 0.  0.
         11    1    3    3    0    0 -0.52462977762E+02  0.13709844433E+03  0.90008412691E+02  0.17219135236E+03  0.00000000000E+00 0. -1.
        -11    1    3    3    0    0  0.40932045834E+02  0.29162584962E+03  0.20067199033E+03  0.35635700673E+03  0.00000000000E+00 0.  1.
         22    1    1    2    0    0  0.11530931927E+02 -0.42872429395E+03 -0.66943814043E+03  0.79503767614E+03  0.00000000000E+00 0. -1.
<mgrwt>
<rscale>  0 0.12682360E+04</rscale>
<asrwt>0</asrwt>
<pdfrwt beam="1">  1        2 0.13094952E+00 0.12682360E+04</pdfrwt>
<pdfrwt beam="2">  1       -2 0.72679100E-01 0.12682360E+04</pdfrwt>
<totfact> 0.53288369E+01</totfact>
</mgrwt>
</event>
<event>
 6    1  0.2003386E-005  0.3026592E+04  0.7818608E-02  0.8236178E-01
          2   -1    0    0  501    0  0.00000000000E+00  0.00000000000E+00  0.10520277727E+04  0.10520277727E+04  0.00000000000E+00 0.  1.
         -2   -1    0    0    0  501 -0.00000000000E+00 -0.00000000000E+00 -0.21768106712E+04  0.21768106712E+04  0.00000000000E+00 0. -1.
         23    2    1    2    0    0  0.88404391641E+02  0.52051961548E+03 -0.20743347130E+04  0.21423741532E+04  0.90257986187E+02 0.  0.
         11    1    3    3    0    0  0.53267837992E+02  0.28338114338E+03 -0.13085886003E+04  0.13399800221E+04  0.00000000000E+00 0. -1.
        -11    1    3    3    0    0  0.35136553649E+02  0.23713847210E+03 -0.76574611276E+03  0.80239413106E+03  0.00000000000E+00 0.  1.
         22    1    1    2    0    0 -0.88404391641E+02 -0.52051961548E+03  0.94955181448E+03  0.10864642907E+04  0.00000000000E+00 0.  1.
<mgrwt>
<rscale>  0 0.30265923E+04</rscale>
<asrwt>0</asrwt>
<pdfrwt beam="1">  1        2 0.16185043E+00 0.30265923E+04</pdfrwt>
<pdfrwt beam="2">  1       -2 0.33489395E+00 0.30265923E+04</pdfrwt>
<totfact> 0.38571041E-01</totfact>
</mgrwt>
</event>
<event>
 6    1  0.2003386E-005  0.1932718E+04  0.7818608E-02  0.8638740E-01
          2   -1    0    0  501    0  0.00000000000E+00  0.00000000000E+00  0.12452694184E+04  0.12452694184E+04  0.00000000000E+00 0. -1.
         -2   -1    0    0    0  501 -0.00000000000E+00 -0.00000000000E+00 -0.74991791682E+03  0.74991791682E+03  0.00000000000E+00 0.  1.
         23    2    1    2    0    0  0.48067301122E+03 -0.46925894491E+02 -0.61386244478E+03  0.78539224428E+03  0.82251401013E+02 0.  0.
         11    1    3    3    0    0  0.11994083738E+03 -0.29958674088E+02 -0.11000339117E+03  0.16548133639E+03  0.00000000000E+00 0.  1.
        -11    1    3    3    0    0  0.36073217384E+03 -0.16967220402E+02 -0.50385905361E+03  0.61991090788E+03  0.00000000000E+00 0. -1.
         22    1    1    2    0    0 -0.48067301122E+03  0.46925894491E+02  0.11092139464E+04  0.12097950909E+04  0.00000000000E+00 0. -1.
<mgrwt>
<rscale>  0 0.19327181E+04</rscale>
<asrwt>0</asrwt>
<pdfrwt beam="1">  1        2 0.19157991E+00 0.19327181E+04</pdfrwt>
<pdfrwt beam="2">  1       -2 0.11537199E+00 0.19327181E+04</pdfrwt>
<totfact> 0.97298600E+00</totfact>
</mgrwt>
</event>
<event>
 6    1  0.2003386E-005  0.2082269E+04  0.7818608E-02  0.8569094E-01
          2   -1    0    0  501    0  0.00000000000E+00  0.00000000000E+00  0.16618706178E+04  0.16618706178E+04  0.00000000000E+00 0. -1.
         -2   -1    0    0    0  501 -0.00000000000E+00 -0.00000000000E+00 -0.65225367254E+03  0.65225367254E+03  0.00000000000E+00 0.  1.
         23    2    1    2    0    0  0.44391427064E+03 -0.72442052965E+03 -0.15851746511E+03  0.86969257368E+03  0.96914408150E+02 0.  0.
         13    1    3    3    0    0  0.84050375752E+02 -0.13033329657E+03  0.84889408593E+01  0.15531676013E+03  0.00000000000E+00 0. -1.
        -13    1    3    3    0    0  0.35986389489E+03 -0.59408723307E+03 -0.16700640597E+03  0.71437581355E+03  0.00000000000E+00 0.  1.
         22    1    1    2    0    0 -0.44391427064E+03  0.72442052965E+03  0.11681344104E+04  0.14444317167E+04  0.00000000000E+00 0. -1.
<mgrwt>
<rscale>  0 0.20822692E+04</rscale>
<asrwt>0</asrwt>
<pdfrwt beam="1">  1        2 0.25567240E+00 0.20822692E+04</pdfrwt>
<pdfrwt beam="2">  1       -2 0.10034672E+00 0.20822692E+04</pdfrwt>
<totfact> 0.77868736E+00</totfact>
</mgrwt>
</event>
<event>
 6    1  0.2003386E-005  0.2156442E+04  0.7818608E-02  0.8536780E-01
          3   -1    0    0  501    0  0.00000000000E+00  0.00000000000E+00  0.16393573617E+04  0.16393573617E+04  0.00000000000E+00 0. -1.
         -3   -1    0    0    0  501 -0.00000000000E+00 -0.00000000000E+00 -0.70915636509E+03  0.70915636509E+03  0.00000000000E+00 0.  1.
         23    2    1    2    0    0  0.74695526608E+03  0.44890888341E+03  0.11536627916E+04  0.14488490510E+04  0.93618270698E+02 0.  0.
         13    1    3    3    0    0  0.50835415423E+03  0.35294105379E+03  0.79373372178E+03  0.10064812739E+04  0.00000000000E+00 0.  1.
        -13    1    3    3    0    0  0.23860111185E+03  0.95967829622E+02  0.35992906983E+03  0.44236777709E+03  0.00000000000E+00 0. -1.
         22    1    1    2    0    0 -0.74695526608E+03 -0.44890888341E+03 -0.22346179499E+03  0.89966467583E+03  0.00000000000E+00 0.  1.
<mgrwt>
<rscale>  0 0.21564422E+04</rscale>
<asrwt>0</asrwt>
<pdfrwt beam="1">  1        3 0.25220882E+00 0.21564422E+04</pdfrwt>
<pdfrwt beam="2">  1       -3 0.10910098E+00 0.21564422E+04</pdfrwt>
<totfact> 0.12220256E-01</totfact>
</mgrwt>
</event>
<event>
 6    1  0.2003386E-005  0.3289599E+04  0.7818608E-02  0.8165547E-01
          2   -1    0    0  501    0  0.00000000000E+00  0.00000000000E+00  0.10785125866E+04  0.10785125866E+04  0.00000000000E+00 0. -1.
         -2   -1    0    0    0  501 -0.00000000000E+00 -0.00000000000E+00 -0.25084219238E+04  0.25084219238E+04  0.00000000000E+00 0.  1.
         23    2    1    2    0    0 -0.92066911087E+03 -0.92983356592E+03  0.36885083315E+03  0.13625783737E+04  0.91360907399E+02 0.  0.
         11    1    3    3    0    0 -0.35931329907E+03 -0.39718204309E+03  0.11162588038E+03  0.54710141602E+03  0.00000000000E+00 0. -1.
        -11    1    3    3    0    0 -0.56135581180E+03 -0.53265152283E+03  0.25722495277E+03  0.81547695770E+03  0.00000000000E+00 0.  1.
         22    1    1    2    0    0  0.92066911087E+03  0.92983356592E+03 -0.17987601704E+04  0.22243561367E+04  0.00000000000E+00 0. -1.
<mgrwt>
<rscale>  0 0.32895985E+04</rscale>
<asrwt>0</asrwt>
<pdfrwt beam="1">  1        2 0.16592501E+00 0.32895985E+04</pdfrwt>
<pdfrwt beam="2">  1       -2 0.38591106E+00 0.32895985E+04</pdfrwt>
<totfact> 0.17204356E-01</totfact>
</mgrwt>
</event>
<event>
 6    1  0.2003386E-005  0.6295850E+03  0.7818608E-02  0.9845859E-01
          2   -1    0    0  501    0  0.00000000000E+00  0.00000000000E+00  0.15223058156E+04  0.15223058156E+04  0.00000000000E+00 0. -1.
         -2   -1    0    0    0  501 -0.00000000000E+00 -0.00000000000E+00 -0.65094889236E+02  0.65094889236E+02  0.00000000000E+00 0.  1.
         23    2    1    2    0    0  0.15029173755E+03  0.18334608139E+03  0.24592039392E+03  0.35312839051E+03  0.89551259615E+02 0.  0.
         13    1    3    3    0    0  0.11497695745E+03  0.98751066257E+02  0.19900891913E+03  0.25015200124E+03  0.00000000000E+00 0. -1.
        -13    1    3    3    0    0  0.35314780095E+02  0.84595015134E+02  0.46911474789E+02  0.10297638926E+03  0.00000000000E+00 0.  1.
         22    1    1    2    0    0 -0.15029173755E+03 -0.18334608139E+03  0.12112905324E+04  0.12342723143E+04  0.00000000000E+00 0. -1.
<mgrwt>
<rscale>  0 0.62958503E+03</rscale>
<asrwt>0</asrwt>
<pdfrwt beam="1">  1        2 0.23420087E+00 0.62958503E+03</pdfrwt>
<pdfrwt beam="2">  1       -2 0.10014599E-01 0.62958503E+03</pdfrwt>
<totfact> 0.85989952E+02</totfact>
</mgrwt>
</event>
<event>
 6    1  0.2003386E-005  0.2594775E+04  0.7818608E-02  0.8369978E-01
          1   -1    0    0  501    0  0.00000000000E+00  0.00000000000E+00  0.15993665866E+04  0.15993665866E+04  0.00000000000E+00 0. -1.
         -1   -1    0    0    0  501 -0.00000000000E+00 -0.00000000000E+00 -0.10524257253E+04  0.10524257253E+04  0.00000000000E+00 0.  1.
         23    2    1    2    0    0  0.10436797480E+04 -0.75699928825E+02  0.10549461664E+04  0.14885781075E+04  0.89193455025E+02 0.  0.
         11    1    3    3    0    0  0.84779144688E+03 -0.66934618296E+02  0.90379822367E+03  0.12410003262E+04  0.00000000000E+00 0.  1.
        -11    1    3    3    0    0  0.19588830110E+03 -0.87653105290E+01  0.15114794272E+03  0.24757778124E+03  0.00000000000E+00 0. -1.
         22    1    1    2    0    0 -0.10436797480E+04  0.75699928825E+02 -0.50800530510E+03  0.11632142045E+04  0.00000000000E+00 0.  1.
<mgrwt>
<rscale>  0 0.25947752E+04</rscale>
<asrwt>0</asrwt>
<pdfrwt beam="1">  1        1 0.24605640E+00 0.25947752E+04</pdfrwt>
<pdfrwt beam="2">  1       -1 0.16191165E+00 0.25947752E+04</pdfrwt>
<totfact> 0.13913081E+00</totfact>
</mgrwt>
</event>
<event>
 6    1  0.2003386E-005  0.1777399E+04  0.7818608E-02  0.8718412E-01
          2   -1    0    0  501    0  0.00000000000E+00  0.00000000000E+00  0.10431487324E+04  0.10431487324E+04  0.00000000000E+00 0. -1.
         -2   -1    0    0    0  501 -0.00000000000E+00 -0.00000000000E+00 -0.75711814323E+03  0.75711814323E+03  0.00000000000E+00 0.  1.
         23    2    1    2    0    0 -0.36233331152E+03 -0.26703349700E+03  0.91664172771E+03  0.10255006365E+04  0.93953080322E+02 0.  0.
         11    1    3    3    0    0 -0.17630517561E+03 -0.16858947021E+03  0.56939996220E+03  0.61945317932E+03  0.00000000000E+00 0.  1.
        -11    1    3    3    0    0 -0.18602813591E+03 -0.98444026783E+02  0.34724176551E+03  0.40604745717E+03  0.00000000000E+00 0. -1.
         22    1    1    2    0    0  0.36233331152E+03  0.26703349700E+03 -0.63061113859E+03  0.77476623911E+03  0.00000000000E+00 0.  1.
<mgrwt>
<rscale>  0 0.17773990E+04</rscale>
<asrwt>0</asrwt>
<pdfrwt beam="1">  1        2 0.16048442E+00 0.17773990E+04</pdfrwt>
<pdfrwt beam="2">  1       -2 0.11647972E+00 0.17773990E+04</pdfrwt>
<totfact> 0.12780011E+01</totfact>
</mgrwt>
</event>
<event>
 6    1  0.2003386E-005  0.3007759E+04  0.7818608E-02  0.8241519E-01
         -1   -1    0    0    0  501 -0.00000000000E+00  0.00000000000E+00  0.16784778432E+04  0.16784778432E+04  0.00000000000E+00 0.  1.
          1   -1    0    0  501    0  0.00000000000E+00 -0.00000000000E+00 -0.13474432995E+04  0.13474432995E+04  0.00000000000E+00 0. -1.
         23    2    1    2    0    0  0.73236463815E+03  0.12872085090E+04 -0.89210445979E+02  0.14864830764E+04  0.91704546026E+02 0.  0.
         13    1    3    3    0    0  0.49062695007E+03  0.92515315396E+03 -0.90943342231E+02  0.10511393123E+04  0.00000000000E+00 0. -1.
        -13    1    3    3    0    0  0.24173768807E+03  0.36205535505E+03  0.17328962519E+01  0.43534376403E+03  0.00000000000E+00 0.  1.
         22    1    1    2    0    0 -0.73236463815E+03 -0.12872085090E+04  0.42024498968E+03  0.15394380664E+04  0.00000000000E+00 0. -1.
<mgrwt>
<rscale>  0 0.30077591E+04</rscale>
<asrwt>0</asrwt>
<pdfrwt beam="1">  1        1 0.20729897E+00 0.30077591E+04</pdfrwt>
<pdfrwt beam="2">  1       -1 0.25822736E+00 0.30077591E+04</pdfrwt>
<totfact> 0.43851840E-01</totfact>
</mgrwt>
</event>
<event>
 6    1  0.2003386E-005  0.1387941E+04  0.7818608E-02  0.8962594E-01
          2   -1    0    0  501    0  0.00000000000E+00  0.00000000000E+00  0.17493105373E+04  0.17493105373E+04  0.00000000000E+00 0.  1.
         -2   -1    0    0    0  501 -0.00000000000E+00 -0.00000000000E+00 -0.27530559732E+03  0.27530559732E+03  0.00000000000E+00 0. -1.
         23    2    1    2    0    0  0.15770002729E+03 -0.67005882788E+03  0.65889091404E+03  0.95772391573E+03  0.96175520421E+02 0.  0.
         11    1    3    3    0    0  0.13554041279E+03 -0.56331795890E+03  0.50165085048E+03  0.76638887134E+03  0.00000000000E+00 0.  1.
        -11    1    3    3    0    0  0.22159614508E+02 -0.10674086898E+03  0.15724006355E+03  0.19133504439E+03  0.00000000000E+00 0. -1.
         22    1    1    2    0    0 -0.15770002729E+03  0.67005882788E+03  0.81511402591E+03  0.10668922189E+04  0.00000000000E+00 0.  1.
<mgrwt>
<rscale>  0 0.13879409E+04</rscale>
<asrwt>0</asrwt>
<pdfrwt beam="1">  1        2 0.26912469E+00 0.13879409E+04</pdfrwt>
<pdfrwt beam="2">  1       -2 0.42354708E-01 0.13879409E+04</pdfrwt>
<totfact> 0.47386459E+01</totfact>
</mgrwt>
</event>
<event>
 6    1  0.2003386E-005  0.3062061E+04  0.7818608E-02  0.8226228E-01
          2   -1    0    0  501    0  0.00000000000E+00  0.00000000000E+00  0.31251194903E+04  0.31251194903E+04  0.00000000000E+00 0. -1.
         -2   -1    0    0    0  501 -0.00000000000E+00 -0.00000000000E+00 -0.75006880501E+03  0.75006880501E+03  0.00000000000E+00 0.  1.
         23    2    1    2    0    0  0.12220969183E+04  0.79503777056E+03  0.17743614929E+04  0.22983454243E+04  0.91798951578E+02 0.  0.
         11    1    3    3    0    0  0.20997240487E+03  0.13629635964E+03  0.25241209957E+03  0.35549539584E+03  0.00000000000E+00 0. -1.
        -11    1    3    3    0    0  0.10121245134E+04  0.65874141091E+03  0.15219493933E+04  0.19428500284E+04  0.00000000000E+00 0.  1.
         22    1    1    2    0    0 -0.12220969183E+04 -0.79503777056E+03  0.60068919245E+03  0.15768428711E+04  0.00000000000E+00 0. -1.
<mgrwt>
<rscale>  0 0.30620612E+04</rscale>
<asrwt>0</asrwt>
<pdfrwt beam="1">  1        2 0.48078760E+00 0.30620612E+04</pdfrwt>
<pdfrwt beam="2">  1       -2 0.11539520E+00 0.30620612E+04</pdfrwt>
<totfact> 0.72157654E-01</totfact>
</mgrwt>
</event>
<event>
 6    1  0.2003386E-005  0.1043831E+04  0.7818608E-02  0.9261737E-01
          2   -1    0    0  501    0  0.00000000000E+00  0.00000000000E+00  0.14858152124E+04  0.14858152124E+04  0.00000000000E+00 0. -1.
         -2   -1    0    0    0  501 -0.00000000000E+00 -0.00000000000E+00 -0.18333071218E+03  0.18333071218E+03  0.00000000000E+00 0.  1.
         23    2    1    2    0    0  0.46875429943E+03  0.82267662452E+02  0.32989522179E+03  0.58635856501E+03  0.92124632319E+02 0.  0.
         13    1    3    3    0    0  0.31895292646E+03  0.12095057098E+02  0.21037601886E+03  0.38227650859E+03  0.00000000000E+00 0. -1.
        -13    1    3    3    0    0  0.14980137298E+03  0.70172605354E+02  0.11951920293E+03  0.20408205643E+03  0.00000000000E+00 0.  1.
         22    1    1    2    0    0 -0.46875429943E+03 -0.82267662452E+02  0.97258927844E+03  0.10827873596E+04  0.00000000000E+00 0. -1.
<mgrwt>
<rscale>  0 0.10438306E+04</rscale>
<asrwt>0</asrwt>
<pdfrwt beam="1">  1        2 0.22858695E+00 0.10438306E+04</pdfrwt>
<pdfrwt beam="2">  1       -2 0.28204726E-01 0.10438306E+04</pdfrwt>
<totfact> 0.14799521E+02</totfact>
</mgrwt>
</event>
<event>
 6    1  0.2003386E-005  0.1802031E+04  0.7818608E-02  0.8705220E-01
         -2   -1    0    0    0  501 -0.00000000000E+00  0.00000000000E+00  0.28868328507E+03  0.28868328507E+03  0.00000000000E+00 0.  1.
          2   -1    0    0  501    0  0.00000000000E+00 -0.00000000000E+00 -0.28121789744E+04  0.28121789744E+04  0.00000000000E+00 0. -1.
         23    2    1    2    0    0  0.14346151487E+03 -0.15591843368E+03 -0.27678677307E+04  0.27774284041E+04  0.90138786014E+02 0.  0.
         11    1    3    3    0    0  0.66595117547E+02 -0.14349583331E+02 -0.70709122595E+03  0.71036527367E+03  0.00000000000E+00 0.  1.
        -11    1    3    3    0    0  0.76866397328E+02 -0.14156885035E+03 -0.20607765048E+04  0.20670631304E+04  0.00000000000E+00 0. -1.
         22    1    1    2    0    0 -0.14346151487E+03  0.15591843368E+03  0.24437204138E+03  0.32343385540E+03  0.00000000000E+00 0.  1.
<mgrwt>
<rscale>  0 0.18020311E+04</rscale>
<asrwt>0</asrwt>
<pdfrwt beam="1">  1        2 0.43264291E+00 0.18020311E+04</pdfrwt>
<pdfrwt beam="2">  1       -2 0.44412814E-01 0.18020311E+04</pdfrwt>
<totfact> 0.10344770E+01</totfact>
</mgrwt>
</event>
<event>
 6    1  0.2003386E-005  0.1216085E+04  0.7818608E-02  0.9098892E-01
         -2   -1    0    0    0  501 -0.00000000000E+00  0.00000000000E+00  0.13759641753E+03  0.13759641753E+03  0.00000000000E+00 0.  1.
          2   -1    0    0  501    0  0.00000000000E+00 -0.00000000000E+00 -0.26869590439E+04  0.26869590439E+04  0.00000000000E+00 0. -1.
         23    2    1    2    0    0  0.47482149452E+03  0.31700968587E+03 -0.81983308501E+03  0.10032309360E+04  0.91626584653E+02 0.  0.
         11    1    3    3    0    0  0.17123589294E+03  0.63651009388E+02 -0.26887642348E+03  0.32506570587E+03  0.00000000000E+00 0.  1.
        -11    1    3    3    0    0  0.30358560157E+03  0.25335867648E+03 -0.55095666152E+03  0.67816523010E+03  0.00000000000E+00 0. -1.
         22    1    1    2    0    0 -0.47482149452E+03 -0.31700968587E+03 -0.17295295414E+04  0.18213245255E+04  0.00000000000E+00 0. -1.
<mgrwt>
<rscale>  0 0.12160854E+04</rscale>
<asrwt>0</asrwt>
<pdfrwt beam="1">  1        2 0.41337830E+00 0.12160854E+04</pdfrwt>
<pdfrwt beam="2">  1       -2 0.21168680E-01 0.12160854E+04</pdfrwt>
<totfact> 0.51974481E+01</totfact>
</mgrwt>
</event>
<event>
 6    1  0.2003386E-005  0.6588160E+04  0.7818608E-02  0.7621467E-01
          2   -1    0    0  501    0  0.00000000000E+00  0.00000000000E+00  0.26983322398E+04  0.26983322398E+04  0.00000000000E+00 0. -1.
         -2   -1    0    0    0  501 -0.00000000000E+00 -0.00000000000E+00 -0.40213595799E+04  0.40213595799E+04  0.00000000000E+00 0.  1.
         23    2    1    2    0    0  0.24931670644E+04  0.85357715466E+03 -0.26763765130E+04  0.37572553303E+04  0.97470034784E+02 0.  0.
         13    1    3    3    0    0  0.14029139488E+04  0.52574096019E+03 -0.15520314277E+04  0.21571677398E+04  0.00000000000E+00 0. -1.
        -13    1    3    3    0    0  0.10902531156E+04  0.32783619447E+03 -0.11243450853E+04  0.16000875905E+04  0.00000000000E+00 0.  1.
         22    1    1    2    0    0 -0.24931670644E+04 -0.85357715466E+03  0.13533491729E+04  0.29624364894E+04  0.00000000000E+00 0. -1.
<mgrwt>
<rscale>  0 0.65881604E+04</rscale>
<asrwt>0</asrwt>
<pdfrwt beam="1">  1        2 0.41512804E+00 0.65881604E+04</pdfrwt>
<pdfrwt beam="2">  1       -2 0.61867070E+00 0.65881604E+04</pdfrwt>
<totfact> 0.75885905E-04</totfact>
</mgrwt>
</event>
<event>
 6    1  0.2003386E-005  0.7123896E+03  0.7818608E-02  0.9696276E-01
         -1   -1    0    0    0  501 -0.00000000000E+00  0.00000000000E+00  0.19783132643E+03  0.19783132643E+03  0.00000000000E+00 0.  1.
          1   -1    0    0  501    0  0.00000000000E+00 -0.00000000000E+00 -0.64132775250E+03  0.64132775250E+03  0.00000000000E+00 0. -1.
         23    2    1    2    0    0 -0.19256668126E+03 -0.62044555514E+02 -0.56224025737E+03  0.60457103347E+03  0.91981377982E+02 0.  0.
         13    1    3    3    0    0 -0.13099492125E+03 -0.54027863724E+02 -0.26086186537E+03  0.29686291830E+03  0.00000000000E+00 0.  1.
        -13    1    3    3    0    0 -0.61571760002E+02 -0.80166917908E+01 -0.30137839200E+03  0.30770811517E+03  0.00000000000E+00 0. -1.
         22    1    1    2    0    0  0.19256668126E+03  0.62044555514E+02  0.11874383130E+03  0.23458804546E+03  0.00000000000E+00 0.  1.
<mgrwt>
<rscale>  0 0.71238956E+03</rscale>
<asrwt>0</asrwt>
<pdfrwt beam="1">  1        1 0.98665809E-01 0.71238956E+03</pdfrwt>
<pdfrwt beam="2">  1       -1 0.30435588E-01 0.71238956E+03</pdfrwt>
<totfact> 0.31258648E+02</totfact>
</mgrwt>
</event>
<event>
 6    1  0.2003386E-005  0.4646745E+04  0.7818608E-02  0.7885438E-01
         -2   -1    0    0    0  501 -0.00000000000E+00  0.00000000000E+00  0.27289935572E+04  0.27289935572E+04  0.00000000000E+00 0.  1.
          2   -1    0    0  501    0  0.00000000000E+00 -0.00000000000E+00 -0.19780403287E+04  0.19780403287E+04  0.00000000000E+00 0. -1.
         23    2    1    2    0    0 -0.16612122756E+04  0.89757709868E+02 -0.12659690029E+04  0.20925247621E+04  0.91102648053E+02 0.  0.
         13    1    3    3    0    0 -0.13775027347E+04  0.98602189566E+02 -0.10800396485E+04  0.17532033020E+04  0.00000000000E+00 0.  1.
        -13    1    3    3    0    0 -0.28370954092E+03 -0.88444796981E+01 -0.18592935440E+03  0.33932146006E+03  0.00000000000E+00 0. -1.
         22    1    1    2    0    0  0.16612122756E+04 -0.89757709868E+02  0.20169222314E+04  0.26145091238E+04  0.00000000000E+00 0.  1.
<mgrwt>
<rscale>  0 0.46467448E+04</rscale>
<asrwt>0</asrwt>
<pdfrwt beam="1">  1        2 0.30431390E+00 0.46467448E+04</pdfrwt>
<pdfrwt beam="2">  1       -2 0.41984516E+00 0.46467448E+04</pdfrwt>
<totfact> 0.28298925E-02</totfact>
</mgrwt>
</event>
<event>
 6    1  0.2003386E-005  0.2178579E+04  0.7818608E-02  0.8527397E-01
          2   -1    0    0  501    0  0.00000000000E+00  0.00000000000E+00  0.18456257457E+04  0.18456257457E+04  0.00000000000E+00 0. -1.
         -2   -1    0    0    0  501 -0.00000000000E+00 -0.00000000000E+00 -0.64289910267E+03  0.64289910267E+03  0.00000000000E+00 0.  1.
         23    2    1    2    0    0 -0.72733327609E+03 -0.80618740855E+03  0.53444196940E+03  0.12135518144E+04  0.90155174317E+02 0.  0.
         11    1    3    3    0    0 -0.17559177915E+03 -0.14479788641E+03  0.95124393944E+02  0.24667296393E+03  0.00000000000E+00 0. -1.
        -11    1    3    3    0    0 -0.55174149695E+03 -0.66138952214E+03  0.43931757546E+03  0.96687885051E+03  0.00000000000E+00 0.  1.
         22    1    1    2    0    0  0.72733327609E+03  0.80618740855E+03  0.66828467362E+03  0.12749730339E+04  0.00000000000E+00 0.  1.
<mgrwt>
<rscale>  0 0.21785786E+04</rscale>
<asrwt>0</asrwt>
<pdfrwt beam="1">  1        2 0.28394242E+00 0.21785786E+04</pdfrwt>
<pdfrwt beam="2">  1       -2 0.98907555E-01 0.21785786E+04</pdfrwt>
<totfact> 0.63185473E+00</totfact>
</mgrwt>
</event>
<event>
 6    1  0.2003386E-005  0.2112480E+04  0.7818608E-02  0.8555766E-01
          2   -1    0    0  501    0  0.00000000000E+00  0.00000000000E+00  0.14295604502E+04  0.14295604502E+04  0.00000000000E+00 0. -1.
         -2   -1    0    0    0  501 -0.00000000000E+00 -0.00000000000E+00 -0.78040969624E+03  0.78040969624E+03  0.00000000000E+00 0.  1.
         23    2    1    2    0    0  0.15449196345E+03  0.19186111316E+03  0.13976024300E+04  0.14220244852E+04  0.90457893308E+02 0.  0.
         11    1    3    3    0    0  0.16478927821E+02 -0.53926518026E+01  0.46202161535E+02  0.49348510475E+02  0.00000000000E+00 0. -1.
        -11    1    3    3    0    0  0.13801303563E+03  0.19725376496E+03  0.13514002685E+04  0.13726759747E+04  0.00000000000E+00 0.  1.
         22    1    1    2    0    0 -0.15449196345E+03 -0.19186111316E+03 -0.74845167613E+03  0.78794566121E+03  0.00000000000E+00 0.  1.
<mgrwt>
<rscale>  0 0.21124799E+04</rscale>
<asrwt>0</asrwt>
<pdfrwt beam="1">  1        2 0.21993238E+00 0.21124799E+04</pdfrwt>
<pdfrwt beam="2">  1       -2 0.12006303E+00 0.21124799E+04</pdfrwt>
<totfact> 0.67962298E+00</totfact>
</mgrwt>
</event>
<event>
 6    1  0.2003386E-005  0.2500101E+04  0.7818608E-02  0.8402950E-01
          2   -1    0    0  501    0  0.00000000000E+00  0.00000000000E+00  0.78697725443E+03  0.78697725443E+03  0.00000000000E+00 0. -1.
         -2   -1    0    0    0  501 -0.00000000000E+00 -0.00000000000E+00 -0.19856051160E+04  0.19856051160E+04  0.00000000000E+00 0.  1.
         23    2    1    2    0    0  0.11455359028E+04  0.14073022581E+03 -0.11277916031E+04  0.16162626583E+04  0.91288441462E+02 0.  0.
         11    1    3    3    0    0  0.68570384210E+03  0.41984526301E+02 -0.69150928989E+03  0.97474999745E+03  0.00000000000E+00 0. -1.
        -11    1    3    3    0    0  0.45983206073E+03  0.98745699506E+02 -0.43628231320E+03  0.64151266087E+03  0.00000000000E+00 0.  1.
         22    1    1    2    0    0 -0.11455359028E+04 -0.14073022581E+03 -0.70836258496E+02  0.11563197121E+04  0.00000000000E+00 0.  1.
<mgrwt>
<rscale>  0 0.25001008E+04</rscale>
<asrwt>0</asrwt>
<pdfrwt beam="1">  1        2 0.12107342E+00 0.25001008E+04</pdfrwt>
<pdfrwt beam="2">  1       -2 0.30547771E+00 0.25001008E+04</pdfrwt>
<totfact> 0.92391022E-01</totfact>
</mgrwt>
</event>
<event>
 6    1  0.2003386E-005  0.9005093E+03  0.7818608E-02  0.9424945E-01
          2   -1    0    0  501    0  0.00000000000E+00  0.00000000000E+00  0.11149783370E+04  0.11149783370E+04  0.00000000000E+00 0.  1.
         -2   -1    0    0    0  501 -0.00000000000E+00 -0.00000000000E+00 -0.18182348649E+03  0.18182348649E+03  0.00000000000E+00 0. -1.
         23    2    1    2    0    0  0.30837934802E+03  0.80875824745E+02  0.22787237358E+02  0.33222527785E+03  0.90640254550E+02 0.  0.
         11    1    3    3    0    0  0.13721961585E+03  0.36437431480E+02 -0.34932077365E+02  0.14620930003E+03  0.00000000000E+00 0. -1.
        -11    1    3    3    0    0  0.17115973217E+03  0.44438393265E+02  0.57719314724E+02  0.18601597782E+03  0.00000000000E+00 0.  1.
         22    1    1    2    0    0 -0.30837934802E+03 -0.80875824745E+02  0.91036761311E+03  0.96457654560E+03  0.00000000000E+00 0.  1.
<mgrwt>
<rscale>  0 0.90050930E+03</rscale>
<asrwt>0</asrwt>
<pdfrwt beam="1">  1        2 0.17153513E+00 0.90050930E+03</pdfrwt>
<pdfrwt beam="2">  1       -2 0.27972845E-01 0.90050930E+03</pdfrwt>
<totfact> 0.24931783E+02</totfact>
</mgrwt>
</event>
<event>
 6    1  0.2003386E-005  0.1165626E+04  0.7818608E-02  0.9143488E-01
          2   -1    0    0  501    0  0.00000000000E+00  0.00000000000E+00  0.15788606546E+04  0.15788606546E+04  0.00000000000E+00 0. -1.
         -2   -1    0    0    0  501 -0.00000000000E+00 -0.00000000000E+00 -0.21513669007E+03  0.21513669007E+03  0.00000000000E+00 0.  1.
         23    2    1    2    0    0 -0.13104468404E+03  0.18037676149E+03  0.15081103845E+04  0.15283736944E+04  0.10872319281E+03 0.  0.
         11    1    3    3    0    0 -0.38815996506E+02  0.87020973153E+02  0.96242741110E+03  0.96713280008E+03  0.00000000000E+00 0.  1.
        -11    1    3    3    0    0 -0.92228687532E+02  0.93355788340E+02  0.54568297342E+03  0.56124089435E+03  0.00000000000E+00 0. -1.
         22    1    1    2    0    0  0.13104468404E+03 -0.18037676149E+03 -0.14438641997E+03  0.26562365025E+03  0.00000000000E+00 0.  1.
<mgrwt>
<rscale>  0 0.11656258E+04</rscale>
<asrwt>0</asrwt>
<pdfrwt beam="1">  1        2 0.24290163E+00 0.11656258E+04</pdfrwt>
<pdfrwt beam="2">  1       -2 0.33097953E-01 0.11656258E+04</pdfrwt>
<totfact> 0.96534809E+01</totfact>
</mgrwt>
</event>
<event>
 6    1  0.2003386E-005  0.2528381E+04  0.7818608E-02  0.8392944E-01
         -2   -1    0    0    0  501 -0.00000000000E+00  0.00000000000E+00  0.62139550319E+03  0.62139550319E+03  0.00000000000E+00 0. -1.
          2   -1    0    0  501    0  0.00000000000E+00 -0.00000000000E+00 -0.25719163202E+04  0.25719163202E+04  0.00000000000E+00 0.  1.
         23    2    1    2    0    0  0.86094609386E+03 -0.54647579328E+03 -0.36442723645E+02  0.10245428369E+04  0.92173658913E+02 0.  0.
         13    1    3    3    0    0  0.80960978518E+03 -0.48788366578E+03 -0.44019854416E+02  0.94627491945E+03  0.00000000000E+00 0.  1.
        -13    1    3    3    0    0  0.51336308677E+02 -0.58592127506E+02  0.75771307710E+01  0.78267917469E+02  0.00000000000E+00 0. -1.
         22    1    1    2    0    0 -0.86094609386E+03  0.54647579328E+03 -0.19140780933E+04  0.21687689864E+04  0.00000000000E+00 0.  1.
<mgrwt>
<rscale>  0 0.25283807E+04</rscale>
<asrwt>0</asrwt>
<pdfrwt beam="1">  1        2 0.39567942E+00 0.25283807E+04</pdfrwt>
<pdfrwt beam="2">  1       -2 0.95599310E-01 0.25283807E+04</pdfrwt>
<totfact> 0.25825414E+00</totfact>
</mgrwt>
</event>
<event>
 6    1  0.2003386E-005  0.2974052E+04  0.7818608E-02  0.8251180E-01
         -2   -1    0    0    0  501 -0.00000000000E+00  0.00000000000E+00  0.80108980117E+03  0.80108980117E+03  0.00000000000E+00 0.  1.
          2   -1    0    0  501    0  0.00000000000E+00 -0.00000000000E+00 -0.27602969384E+04  0.27602969384E+04  0.00000000000E+00 0. -1.
         23    2    1    2    0    0  0.37063579270E+03  0.56831409320E+03 -0.25631398881E+04  0.26530439810E+04  0.92760334686E+02 0.  0.
         11    1    3    3    0    0  0.19927776263E+03  0.28423690220E+03 -0.14839747287E+04  0.15240351829E+04  0.00000000000E+00 0. -1.
        -11    1    3    3    0    0  0.17135803007E+03  0.28407719100E+03 -0.10791651594E+04  0.11290087981E+04  0.00000000000E+00 0.  1.
         22    1    1    2    0    0 -0.37063579270E+03 -0.56831409320E+03  0.60393275092E+03  0.90834275854E+03  0.00000000000E+00 0.  1.
<mgrwt>
<rscale>  0 0.29740516E+04</rscale>
<asrwt>0</asrwt>
<pdfrwt beam="1">  1        2 0.42466107E+00 0.29740516E+04</pdfrwt>
<pdfrwt beam="2">  1       -2 0.12324458E+00 0.29740516E+04</pdfrwt>
<totfact> 0.10409683E+00</totfact>
</mgrwt>
</event>
<event>
 6    1  0.2003386E-005  0.2120126E+04  0.7818608E-02  0.8552429E-01
         -2   -1    0    0    0  501 -0.00000000000E+00  0.00000000000E+00  0.14489662720E+04  0.14489662720E+04  0.00000000000E+00 0.  1.
          2   -1    0    0  501    0  0.00000000000E+00 -0.00000000000E+00 -0.77554133651E+03  0.77554133651E+03  0.00000000000E+00 0. -1.
         23    2    1    2    0    0  0.27280255215E+02 -0.97358436284E+03  0.77154610940E+03  0.12456110416E+04  0.87479964556E+02 0.  0.
         13    1    3    3    0    0 -0.18741808610E+02 -0.53466179677E+03  0.45775967593E+03  0.70410113849E+03  0.00000000000E+00 0.  1.
        -13    1    3    3    0    0  0.46022063825E+02 -0.43892256607E+03  0.31378643346E+03  0.54150990313E+03  0.00000000000E+00 0. -1.
         22    1    1    2    0    0 -0.27280255215E+02  0.97358436284E+03 -0.98121173911E+02  0.97889656688E+03  0.00000000000E+00 0. -1.
<mgrwt>
<rscale>  0 0.21201257E+04</rscale>
<asrwt>0</asrwt>
<pdfrwt beam="1">  1        2 0.11931405E+00 0.21201257E+04</pdfrwt>
<pdfrwt beam="2">  1       -2 0.22291789E+00 0.21201257E+04</pdfrwt>
<totfact> 0.31266904E+00</totfact>
</mgrwt>
</event>
<event>
 6    1  0.2003386E-005  0.2550364E+04  0.7818608E-02  0.8385260E-01
          2   -1    0    0  501    0  0.00000000000E+00  0.00000000000E+00  0.13650793473E+04  0.13650793473E+04  0.00000000000E+00 0. -1.
         -2   -1    0    0    0  501 -0.00000000000E+00 -0.00000000000E+00 -0.11912044444E+04  0.11912044444E+04  0.00000000000E+00 0.  1.
         23    2    1    2    0    0 -0.78471057796E+03 -0.83194384822E+03 -0.47462457716E+03  0.12415774240E+04  0.91349618711E+02 0.  0.
         11    1    3    3    0    0 -0.13393624421E+03 -0.96464995874E+02 -0.61026218648E+02  0.17597901098E+03  0.00000000000E+00 0. -1.
        -11    1    3    3    0    0 -0.65077433375E+03 -0.73547885235E+03 -0.41359835851E+03  0.10655984130E+04  0.00000000000E+00 0.  1.
         22    1    1    2    0    0  0.78471057796E+03  0.83194384822E+03  0.64849948008E+03  0.13147063678E+04  0.00000000000E+00 0. -1.
<mgrwt>
<rscale>  0 0.25503636E+04</rscale>
<asrwt>0</asrwt>
<pdfrwt beam="1">  1        2 0.21001221E+00 0.25503636E+04</pdfrwt>
<pdfrwt beam="2">  1       -2 0.18326222E+00 0.25503636E+04</pdfrwt>
<totfact> 0.23180382E+00</totfact>
</mgrwt>
</event>
<event>
 6    1  0.2003386E-005  0.4068141E+04  0.7818608E-02  0.7990940E-01
         -2   -1    0    0    0  501 -0.00000000000E+00  0.00000000000E+00  0.18920910744E+04  0.18920910744E+04  0.00000000000E+00 0.  1.
          2   -1    0    0  501    0  0.00000000000E+00 -0.00000000000E+00 -0.21867032995E+04  0.21867032995E+04  0.00000000000E+00 0. -1.
         23    2    1    2    0    0  0.82365817393E+03 -0.10836144966E+04  0.13667317948E+04  0.19310753239E+04  0.91994255387E+02 0.  0.
         13    1    3    3    0    0  0.61492752055E+03 -0.82768396239E+03  0.98019058455E+03  0.14226630589E+04  0.00000000000E+00 0.  1.
        -13    1    3    3    0    0  0.20873065337E+03 -0.25593053423E+03  0.38654121026E+03  0.50841226504E+03  0.00000000000E+00 0. -1.
         22    1    1    2    0    0 -0.82365817393E+03  0.10836144966E+04 -0.16613440200E+04  0.21477190500E+04  0.00000000000E+00 0. -1.
<mgrwt>
<rscale>  0 0.40681405E+04</rscale>
<asrwt>0</asrwt>
<pdfrwt beam="1">  1        2 0.33641589E+00 0.40681405E+04</pdfrwt>
<pdfrwt beam="2">  1       -2 0.29109094E+00 0.40681405E+04</pdfrwt>
<totfact> 0.14852334E-01</totfact>
</mgrwt>
</event>
<event>
 6    1  0.2003386E-005  0.8632496E+03  0.7818608E-02  0.9472724E-01
         -2   -1    0    0    0  501 -0.00000000000E+00  0.00000000000E+00  0.41779495511E+03  0.41779495511E+03  0.00000000000E+00 0.  1.
          2   -1    0    0  501    0  0.00000000000E+00 -0.00000000000E+00 -0.44591244269E+03  0.44591244269E+03  0.00000000000E+00 0. -1.
         23    2    1    2    0    0  0.16904768230E+03  0.33857210608E+02 -0.40400146345E+03  0.45017119271E+03  0.98557042720E+02 0.  0.
         11    1    3    3    0    0  0.95777712999E+02  0.18517662855E+01 -0.11179889195E+03  0.14722700699E+03  0.00000000000E+00 0.  1.
        -11    1    3    3    0    0  0.73269969301E+02  0.32005444322E+02 -0.29220257150E+03  0.30294418572E+03  0.00000000000E+00 0. -1.
         22    1    1    2    0    0 -0.16904768230E+03 -0.33857210608E+02  0.37588397588E+03  0.41353620509E+03  0.00000000000E+00 0.  1.
<mgrwt>
<rscale>  0 0.86324960E+03</rscale>
<asrwt>0</asrwt>
<pdfrwt beam="1">  1        2 0.68601914E-01 0.86324960E+03</pdfrwt>
<pdfrwt beam="2">  1       -2 0.64276147E-01 0.86324960E+03</pdfrwt>
<totfact> 0.15803683E+02</totfact>
</mgrwt>
</event>
<event>
 6    1  0.2003386E-005  0.1445089E+04  0.7818608E-02  0.8921812E-01
          2   -1    0    0  501    0  0.00000000000E+00  0.00000000000E+00  0.21229696317E+04  0.21229696317E+04  0.00000000000E+00 0.  1.
         -2   -1    0    0    0  501 -0.00000000000E+00 -0.00000000000E+00 -0.24591517356E+03  0.24591517356E+03  0.00000000000E+00 0. -1.
         23    2    1    2    0    0  0.27929013657E+03 -0.43636928740E+03  0.12333254613E+03  0.54023457080E+03  0.90671600722E+02 0.  0.
         13    1    3    3    0    0  0.67995947307E+02 -0.16541388157E+03  0.12840463830E+02  0.17930442989E+03  0.00000000000E+00 0. -1.
        -13    1    3    3    0    0  0.21129418926E+03 -0.27095540583E+03  0.11049208230E+03  0.36093014090E+03  0.00000000000E+00 0.  1.
         22    1    1    2    0    0 -0.27929013657E+03  0.43636928740E+03  0.17537219120E+04  0.18286502345E+04  0.00000000000E+00 0.  1.
<mgrwt>
<rscale>  0 0.14450888E+04</rscale>
<asrwt>0</asrwt>
<pdfrwt beam="1">  1        2 0.32661070E+00 0.14450888E+04</pdfrwt>
<pdfrwt beam="2">  1       -2 0.37833105E-01 0.14450888E+04</pdfrwt>
<totfact> 0.36521934E+01</totfact>
</mgrwt>
</event>
<event>
 6    1  0.2003386E-005  0.1911790E+04  0.7818608E-02  0.8649010E-01
          2   -1    0    0  501    0  0.00000000000E+00  0.00000000000E+00  0.13901875532E+04  0.13901875532E+04  0.00000000000E+00 0. -1.
         -2   -1    0    0    0  501 -0.00000000000E+00 -0.00000000000E+00 -0.65727480343E+03  0.65727480343E+03  0.00000000000E+00 0.  1.
         23    2    1    2    0    0  0.13104159937E+03  0.69054352670E+03 -0.32332163524E+03  0.77874121346E+03  0.88762236827E+02 0.  0.
         13    1    3    3    0    0  0.46944350977E+01  0.22953369879E+03 -0.87100821774E+02  0.24554899665E+03  0.00000000000E+00 0. -1.
        -13    1    3    3    0    0  0.12634716427E+03  0.46100982792E+03 -0.23622081347E+03  0.53319221681E+03  0.00000000000E+00 0.  1.
         22    1    1    2    0    0 -0.13104159937E+03 -0.69054352670E+03  0.10562343851E+04  0.12687211432E+04  0.00000000000E+00 0. -1.
<mgrwt>
<rscale>  0 0.19117900E+04</rscale>
<asrwt>0</asrwt>
<pdfrwt beam="1">  1        2 0.21387501E+00 0.19117900E+04</pdfrwt>
<pdfrwt beam="2">  1       -2 0.10111920E+00 0.19117900E+04</pdfrwt>
<totfact> 0.11035357E+01</totfact>
</mgrwt>
</event>
<event>
 6    1  0.2003386E-005  0.2179408E+04  0.7818608E-02  0.8527048E-01
          2   -1    0    0  501    0  0.00000000000E+00  0.00000000000E+00  0.19757794735E+04  0.19757794735E+04  0.00000000000E+00 0.  1.
         -2   -1    0    0    0  501 -0.00000000000E+00 -0.00000000000E+00 -0.60100561005E+03  0.60100561005E+03  0.00000000000E+00 0. -1.
         23    2    1    2    0    0  0.10642097591E+04 -0.44349784466E+02  0.42606040418E+03  0.11504027567E+04  0.85963479816E+02 0.  0.
         13    1    3    3    0    0  0.84842364395E+03 -0.27635005165E+02  0.37508018993E+03  0.92804715506E+03  0.00000000000E+00 0. -1.
        -13    1    3    3    0    0  0.21578611510E+03 -0.16714779301E+02  0.50980214246E+02  0.22235560160E+03  0.00000000000E+00 0.  1.
         22    1    1    2    0    0 -0.10642097591E+04  0.44349784466E+02  0.94871345924E+03  0.14263823269E+04  0.00000000000E+00 0.  1.
<mgrwt>
<rscale>  0 0.21794078E+04</rscale>
<asrwt>0</asrwt>
<pdfrwt beam="1">  1        2 0.30396607E+00 0.21794078E+04</pdfrwt>
<pdfrwt beam="2">  1       -2 0.92462403E-01 0.21794078E+04</pdfrwt>
<totfact> 0.62637302E+00</totfact>
</mgrwt>
</event>
<event>
 6    1  0.2003386E-005  0.1318502E+04  0.7818608E-02  0.9015020E-01
         -2   -1    0    0    0  501 -0.00000000000E+00  0.00000000000E+00  0.34458511987E+03  0.34458511987E+03  0.00000000000E+00 0.  1.
          2   -1    0    0  501    0  0.00000000000E+00 -0.00000000000E+00 -0.12612607087E+04  0.12612607087E+04  0.00000000000E+00 0. -1.
         23    2    1    2    0    0  0.30445152481E+03 -0.55098981855E+03 -0.23040259647E+03  0.67458263745E+03  0.75470969071E+02 0.  0.
         13    1    3    3    0    0  0.23660371627E+03 -0.36917653432E+03 -0.18066857686E+03  0.47425074244E+03  0.00000000000E+00 0.  1.
        -13    1    3    3    0    0  0.67847808546E+02 -0.18181328424E+03 -0.49734019610E+02  0.20033189501E+03  0.00000000000E+00 0. -1.
         22    1    1    2    0    0 -0.30445152481E+03  0.55098981855E+03 -0.68627299235E+03  0.93126319112E+03  0.00000000000E+00 0.  1.
<mgrwt>
<rscale>  0 0.13185017E+04</rscale>
<asrwt>0</asrwt>
<pdfrwt beam="1">  1        2 0.19404010E+00 0.13185017E+04</pdfrwt>
<pdfrwt beam="2">  1       -2 0.53013097E-01 0.13185017E+04</pdfrwt>
<totfact> 0.57208499E+01</totfact>
</mgrwt>
</event>
<event>
 6    1  0.2140493E-005  0.5464254E+04  0.7818608E-02  0.7760627E-01
          2   -1    0    0  501    0  0.00000000000E+00  0.00000000000E+00  0.34600586327E+04  0.34600586327E+04  0.00000000000E+00 0. -1.
         -2   -1    0    0    0  501 -0.00000000000E+00 -0.00000000000E+00 -0.21573387357E+04  0.21573387357E+04  0.00000000000E+00 0.  1.
         23    2    1    2    0    0 -0.23344294763E+04 -0.10749907737E+03 -0.80207512190E+03  0.24723569707E+04  0.90041424766E+02 0.  0.
         11    1    3    3    0    0 -0.70960334011E+03  0.18698959672E+01 -0.26766681292E+03  0.75841012621E+03  0.00000000000E+00 0.  1.
        -11    1    3    3    0    0 -0.16248261362E+04 -0.10936897333E+03 -0.53440830899E+03  0.17139468445E+04  0.00000000000E+00 0. -1.
         22    1    1    2    0    0  0.23344294763E+04  0.10749907737E+03  0.21047950189E+04  0.31450403977E+04  0.00000000000E+00 0. -1.
<mgrwt>
<rscale>  0 0.54642542E+04</rscale>
<asrwt>0</asrwt>
<pdfrwt beam="1">  1        2 0.53231671E+00 0.54642542E+04</pdfrwt>
<pdfrwt beam="2">  1       -2 0.33189827E+00 0.54642542E+04</pdfrwt>
<totfact> 0.12266092E-02</totfact>
</mgrwt>
</event>
<event>
 6    1  0.2003386E-005  0.1492472E+04  0.7818608E-02  0.8889474E-01
          2   -1    0    0  501    0  0.00000000000E+00  0.00000000000E+00  0.15809749316E+04  0.15809749316E+04  0.00000000000E+00 0. -1.
         -2   -1    0    0    0  501 -0.00000000000E+00 -0.00000000000E+00 -0.35223102057E+03  0.35223102057E+03  0.00000000000E+00 0.  1.
         23    2    1    2    0    0  0.35698451140E+03  0.36898921217E+03  0.13130547090E+04  0.14129182523E+04  0.92921142559E+02 0.  0.
         13    1    3    3    0    0  0.26118835585E+03  0.25008653046E+03  0.80666030380E+03  0.88400422831E+03  0.00000000000E+00 0.  1.
        -13    1    3    3    0    0  0.95796155551E+02  0.11890268171E+03  0.50639440519E+03  0.52891402396E+03  0.00000000000E+00 0. -1.
         22    1    1    2    0    0 -0.35698451140E+03 -0.36898921217E+03 -0.84310797908E+02  0.52028769995E+03  0.00000000000E+00 0.  1.
<mgrwt>
<rscale>  0 0.14924723E+04</rscale>
<asrwt>0</asrwt>
<pdfrwt beam="1">  1        2 0.24322691E+00 0.14924723E+04</pdfrwt>
<pdfrwt beam="2">  1       -2 0.54189389E-01 0.14924723E+04</pdfrwt>
<totfact> 0.35421497E+01</totfact>
</mgrwt>
</event>
<event>
 6    1  0.2003386E-005  0.2380528E+04  0.7818608E-02  0.8446830E-01
          2   -1    0    0  501    0  0.00000000000E+00  0.00000000000E+00  0.65713594577E+03  0.65713594577E+03  0.00000000000E+00 0. -1.
         -2   -1    0    0    0  501 -0.00000000000E+00 -0.00000000000E+00 -0.21559129910E+04  0.21559129910E+04  0.00000000000E+00 0.  1.
         23    2    1    2    0    0  0.24473556471E+03  0.77216591100E+03  0.27679686478E+03  0.86143463045E+03  0.96526822392E+02 0.  0.
         13    1    3    3    0    0  0.12019929109E+03  0.45681404967E+03  0.11713038377E+03  0.48666875013E+03  0.00000000000E+00 0.  1.
        -13    1    3    3    0    0  0.12453627362E+03  0.31535186134E+03  0.15966648100E+03  0.37476588032E+03  0.00000000000E+00 0. -1.
         22    1    1    2    0    0 -0.24473556471E+03 -0.77216591100E+03 -0.17755739100E+04  0.19516143063E+04  0.00000000000E+00 0.  1.
<mgrwt>
<rscale>  0 0.23805276E+04</rscale>
<asrwt>0</asrwt>
<pdfrwt beam="1">  1        2 0.10109784E+00 0.23805276E+04</pdfrwt>
<pdfrwt beam="2">  1       -2 0.33167892E+00 0.23805276E+04</pdfrwt>
<totfact> 0.81014708E-01</totfact>
</mgrwt>
</event>
<event>
 6    1  0.2003386E-005  0.2961838E+04  0.7818608E-02  0.8254713E-01
         -2   -1    0    0    0  501 -0.00000000000E+00  0.00000000000E+00  0.76441467489E+03  0.76441467489E+03  0.00000000000E+00 0.  1.
          2   -1    0    0  501    0  0.00000000000E+00 -0.00000000000E+00 -0.28690201471E+04  0.28690201471E+04  0.00000000000E+00 0. -1.
         23    2    1    2    0    0 -0.56261324922E+03 -0.13402341025E+04 -0.13909331885E+04  0.20141481746E+04  0.96626170729E+02 0.  0.
         13    1    3    3    0    0 -0.78139960211E+02 -0.12070190802E+03 -0.11906531736E+03  0.18668517290E+03  0.00000000000E+00 0. -1.
        -13    1    3    3    0    0 -0.48447328901E+03 -0.12195321945E+04 -0.12718678711E+04  0.18274630017E+04  0.00000000000E+00 0.  1.
         22    1    1    2    0    0  0.56261324922E+03  0.13402341025E+04 -0.71367228372E+03  0.16192866473E+04  0.00000000000E+00 0.  1.
<mgrwt>
<rscale>  0 0.29618380E+04</rscale>
<asrwt>0</asrwt>
<pdfrwt beam="1">  1        2 0.44138771E+00 0.29618380E+04</pdfrwt>
<pdfrwt beam="2">  1       -2 0.11760226E+00 0.29618380E+04</pdfrwt>
<totfact> 0.10056555E+00</totfact>
</mgrwt>
</event>
<event>
 6    1  0.2003386E-005  0.2586457E+04  0.7818608E-02  0.8372816E-01
          2   -1    0    0  501    0  0.00000000000E+00  0.00000000000E+00  0.13618857020E+04  0.13618857020E+04  0.00000000000E+00 0. -1.
         -2   -1    0    0    0  501 -0.00000000000E+00 -0.00000000000E+00 -0.12280321662E+04  0.12280321662E+04  0.00000000000E+00 0.  1.
         23    2    1    2    0    0  0.10034969855E+04  0.70919250360E+03  0.46416253778E+03  0.13174933149E+04  0.10188997069E+03 0.  0.
         11    1    3    3    0    0  0.68463097472E+03  0.47305199916E+03  0.26370876306E+03  0.87294906906E+03  0.00000000000E+00 0. -1.
        -11    1    3    3    0    0  0.31886601082E+03  0.23614050443E+03  0.20045377473E+03  0.44454424582E+03  0.00000000000E+00 0.  1.
         22    1    1    2    0    0 -0.10034969855E+04 -0.70919250360E+03 -0.33030900198E+03  0.12724245533E+04  0.00000000000E+00 0.  1.
<mgrwt>
<rscale>  0 0.25864566E+04</rscale>
<asrwt>0</asrwt>
<pdfrwt beam="1">  1        2 0.20952088E+00 0.25864566E+04</pdfrwt>
<pdfrwt beam="2">  1       -2 0.18892802E+00 0.25864566E+04</pdfrwt>
<totfact> 0.21241876E+00</totfact>
</mgrwt>
</event>
<event>
 6    1  0.2003386E-005  0.2291114E+04  0.7818608E-02  0.8481433E-01
          2   -1    0    0  501    0  0.00000000000E+00  0.00000000000E+00  0.34283697005E+04  0.34283697005E+04  0.00000000000E+00 0. -1.
         -2   -1    0    0    0  501 -0.00000000000E+00 -0.00000000000E+00 -0.38277704212E+03  0.38277704212E+03  0.00000000000E+00 0.  1.
         23    2    1    2    0    0  0.70707927197E+03 -0.67204283453E+03  0.53218063732E+03  0.11150676162E+04  0.92503457569E+02 0.  0.
         13    1    3    3    0    0  0.63097599707E+03 -0.56362198128E+03  0.43945130856E+03  0.95337185780E+03  0.00000000000E+00 0. -1.
        -13    1    3    3    0    0  0.76103274904E+02 -0.10842085326E+03  0.92729328758E+02  0.16169575840E+03  0.00000000000E+00 0.  1.
         22    1    1    2    0    0 -0.70707927197E+03  0.67204283453E+03  0.25134120211E+04  0.26960791265E+04  0.00000000000E+00 0. -1.
<mgrwt>
<rscale>  0 0.22911143E+04</rscale>
<asrwt>0</asrwt>
<pdfrwt beam="1">  1        2 0.52744147E+00 0.22911143E+04</pdfrwt>
<pdfrwt beam="2">  1       -2 0.58888778E-01 0.22911143E+04</pdfrwt>
<totfact> 0.22338223E+00</totfact>
</mgrwt>
</event>
<event>
 6    1  0.2003386E-005  0.2373800E+04  0.7818608E-02  0.8449378E-01
         -2   -1    0    0    0  501 -0.00000000000E+00  0.00000000000E+00  0.66733803152E+03  0.66733803152E+03  0.00000000000E+00 0. -1.
          2   -1    0    0  501    0  0.00000000000E+00 -0.00000000000E+00 -0.21109724370E+04  0.21109724370E+04  0.00000000000E+00 0.  1.
         23    2    1    2    0    0 -0.34243449952E+02 -0.11237331361E+04 -0.11619040526E+04  0.16192933130E+04  0.90227661697E+02 0.  0.
         11    1    3    3    0    0  0.29588484521E+01 -0.53041777826E+03 -0.60659951036E+03  0.80580068270E+03  0.00000000000E+00 0. -1.
        -11    1    3    3    0    0 -0.37202298404E+02 -0.59331535786E+03 -0.55530454223E+03  0.81349263027E+03  0.00000000000E+00 0.  1.
         22    1    1    2    0    0  0.34243449952E+02  0.11237331361E+04 -0.28173035286E+03  0.11590171555E+04  0.00000000000E+00 0.  1.
<mgrwt>
<rscale>  0 0.23738005E+04</rscale>
<asrwt>0</asrwt>
<pdfrwt beam="1">  1        2 0.32476498E+00 0.23738005E+04</pdfrwt>
<pdfrwt beam="2">  1       -2 0.10266739E+00 0.23738005E+04</pdfrwt>
<totfact> 0.40496813E+00</totfact>
</mgrwt>
</event>
<event>
 6    1  0.2003386E-005  0.3314896E+04  0.7818608E-02  0.8159116E-01
          2   -1    0    0  501    0  0.00000000000E+00  0.00000000000E+00  0.21002254543E+04  0.21002254543E+04  0.00000000000E+00 0. -1.
         -2   -1    0    0    0  501 -0.00000000000E+00 -0.00000000000E+00 -0.13080181799E+04  0.13080181799E+04  0.00000000000E+00 0.  1.
         23    2    1    2    0    0 -0.12842508124E+04  0.10432571471E+04  0.47136751443E+03  0.17228286184E+04  0.90914744384E+02 0.  0.
         11    1    3    3    0    0 -0.38119859854E+03  0.26143496338E+03  0.11478525583E+03  0.47627331078E+03  0.00000000000E+00 0.  1.
        -11    1    3    3    0    0 -0.90305221382E+03  0.78182218370E+03  0.35658225861E+03  0.12465553076E+04  0.00000000000E+00 0. -1.
         22    1    1    2    0    0  0.12842508124E+04 -0.10432571471E+04  0.32083976000E+03  0.16854150158E+04  0.00000000000E+00 0.  1.
<mgrwt>
<rscale>  0 0.33148955E+04</rscale>
<asrwt>0</asrwt>
<pdfrwt beam="1">  1        2 0.32311161E+00 0.33148955E+04</pdfrwt>
<pdfrwt beam="2">  1       -2 0.20123357E+00 0.33148955E+04</pdfrwt>
<totfact> 0.63972160E-01</totfact>
</mgrwt>
</event>
<event>
 6    1  0.2003386E-005  0.5077482E+04  0.7818608E-02  0.7816665E-01
          2   -1    0    0  501    0  0.00000000000E+00  0.00000000000E+00  0.36308550555E+04  0.36308550555E+04  0.00000000000E+00 0. -1.
         -2   -1    0    0    0  501 -0.00000000000E+00 -0.00000000000E+00 -0.17751207786E+04  0.17751207786E+04  0.00000000000E+00 0.  1.
         23    2    1    2    0    0 -0.19533221796E+04  0.16135255966E+04  0.10863842977E+04  0.27581783005E+04  0.91565861125E+02 0.  0.
         11    1    3    3    0    0 -0.43150893553E+03  0.40434776502E+03  0.24081640315E+03  0.63850576861E+03  0.00000000000E+00 0. -1.
        -11    1    3    3    0    0 -0.15218132441E+04  0.12091778316E+04  0.84556789458E+03  0.21196725319E+04  0.00000000000E+00 0.  1.
         22    1    1    2    0    0  0.19533221796E+04 -0.16135255966E+04  0.76934997917E+03  0.26477975335E+04  0.00000000000E+00 0.  1.
<mgrwt>
<rscale>  0 0.50774822E+04</rscale>
<asrwt>0</asrwt>
<pdfrwt beam="1">  1        2 0.55859308E+00 0.50774822E+04</pdfrwt>
<pdfrwt beam="2">  1       -2 0.27309550E+00 0.50774822E+04</pdfrwt>
<totfact> 0.21964309E-02</totfact>
</mgrwt>
</event>
<event>
 6    1  0.2003386E-005  0.4791286E+04  0.7818608E-02  0.7861535E-01
          2   -1    0    0  501    0  0.00000000000E+00  0.00000000000E+00  0.25917954066E+04  0.25917954066E+04  0.00000000000E+00 0. -1.
         -2   -1    0    0    0  501 -0.00000000000E+00 -0.00000000000E+00 -0.22143357644E+04  0.22143357644E+04  0.00000000000E+00 0.  1.
         23    2    1    2    0    0  0.10712872748E+04  0.39858161519E+03 -0.19221151914E+04  0.22381420464E+04  0.90715389610E+02 0.  0.
         13    1    3    3    0    0  0.93241339669E+03  0.37410021539E+03 -0.17142846815E+04  0.19869870867E+04  0.00000000000E+00 0. -1.
        -13    1    3    3    0    0  0.13887387807E+03  0.24481399798E+02 -0.20783050986E+03  0.25115495968E+03  0.00000000000E+00 0.  1.
         22    1    1    2    0    0 -0.10712872748E+04 -0.39858161519E+03  0.22995748335E+04  0.25679891246E+04  0.00000000000E+00 0. -1.
<mgrwt>
<rscale>  0 0.47912859E+04</rscale>
<asrwt>0</asrwt>
<pdfrwt beam="1">  1        2 0.39873775E+00 0.47912859E+04</pdfrwt>
<pdfrwt beam="2">  1       -2 0.34066704E+00 0.47912859E+04</pdfrwt>
<totfact> 0.40562304E-02</totfact>
</mgrwt>
</event>
<event>
 6    1  0.2003386E-005  0.1747234E+04  0.7818608E-02  0.8734874E-01
          1   -1    0    0  501    0  0.00000000000E+00  0.00000000000E+00  0.26322730697E+04  0.26322730697E+04  0.00000000000E+00 0. -1.
         -1   -1    0    0    0  501 -0.00000000000E+00 -0.00000000000E+00 -0.28994193649E+03  0.28994193649E+03  0.00000000000E+00 0.  1.
         23    2    1    2    0    0 -0.29087930826E+03  0.52233278354E+03  0.11461175170E+03  0.61566434526E+03  0.92002302440E+02 0.  0.
         11    1    3    3    0    0 -0.26023958828E+03  0.38864001115E+03  0.90688166812E+02  0.47643472289E+03  0.00000000000E+00 0. -1.
        -11    1    3    3    0    0 -0.30639719980E+02  0.13369277239E+03  0.23923584893E+02  0.13922962237E+03  0.00000000000E+00 0.  1.
         22    1    1    2    0    0  0.29087930826E+03 -0.52233278354E+03  0.22277193816E+04  0.23065506610E+04  0.00000000000E+00 0. -1.
<mgrwt>
<rscale>  0 0.17472336E+04</rscale>
<asrwt>0</asrwt>
<pdfrwt beam="1">  1        1 0.40496507E+00 0.17472336E+04</pdfrwt>
<pdfrwt beam="2">  1       -1 0.44606454E-01 0.17472336E+04</pdfrwt>
<totfact> 0.51777451E+00</totfact>
</mgrwt>
</event>
<event>
 6    1  0.2003386E-005  0.1995971E+04  0.7818608E-02  0.8608507E-01
         -2   -1    0    0    0  501 -0.00000000000E+00  0.00000000000E+00  0.13598110302E+04  0.13598110302E+04  0.00000000000E+00 0.  1.
          2   -1    0    0  501    0  0.00000000000E+00 -0.00000000000E+00 -0.73243606356E+03  0.73243606356E+03  0.00000000000E+00 0. -1.
         23    2    1    2    0    0  0.48590485626E+03  0.86880370407E+03  0.33971372986E+03  0.10560654530E+04  0.94580215260E+02 0.  0.
         13    1    3    3    0    0  0.26539168756E+03  0.38395729936E+03  0.14124470146E+03  0.48765358734E+03  0.00000000000E+00 0.  1.
        -13    1    3    3    0    0  0.22051316870E+03  0.48484640471E+03  0.19846902840E+03  0.56841186561E+03  0.00000000000E+00 0. -1.
         22    1    1    2    0    0 -0.48590485626E+03 -0.86880370407E+03  0.28766123676E+03  0.10361816408E+04  0.00000000000E+00 0. -1.
<mgrwt>
<rscale>  0 0.19959706E+04</rscale>
<asrwt>0</asrwt>
<pdfrwt beam="1">  1        2 0.11268247E+00 0.19959706E+04</pdfrwt>
<pdfrwt beam="2">  1       -2 0.20920170E+00 0.19959706E+04</pdfrwt>
<totfact> 0.41616653E+00</totfact>
</mgrwt>
</event>
<event>
 6    1  0.2003386E-005  0.3598703E+04  0.7818608E-02  0.8090789E-01
          2   -1    0    0  501    0  0.00000000000E+00  0.00000000000E+00  0.18453328527E+04  0.18453328527E+04  0.00000000000E+00 0. -1.
         -2   -1    0    0    0  501 -0.00000000000E+00 -0.00000000000E+00 -0.17545154164E+04  0.17545154164E+04  0.00000000000E+00 0.  1.
         23    2    1    2    0    0 -0.61398704431E+03  0.33880281651E+03  0.17017894524E+04  0.18428627041E+04  0.91039370288E+02 0.  0.
         11    1    3    3    0    0 -0.17823722199E+03  0.71187827168E+02  0.55430081103E+03  0.58658810348E+03  0.00000000000E+00 0. -1.
        -11    1    3    3    0    0 -0.43574982233E+03  0.26761498934E+03  0.11474886413E+04  0.12562746006E+04  0.00000000000E+00 0.  1.
         22    1    1    2    0    0  0.61398704431E+03 -0.33880281651E+03 -0.16109720161E+04  0.17569855650E+04  0.00000000000E+00 0.  1.
<mgrwt>
<rscale>  0 0.35987025E+04</rscale>
<asrwt>0</asrwt>
<pdfrwt beam="1">  1        2 0.28389736E+00 0.35987025E+04</pdfrwt>
<pdfrwt beam="2">  1       -2 0.26992545E+00 0.35987025E+04</pdfrwt>
<totfact> 0.32204894E-01</totfact>
</mgrwt>
</event>
<event>
 6    1  0.2003386E-005  0.2230150E+04  0.7818608E-02  0.8505983E-01
         -1   -1    0    0    0  501 -0.00000000000E+00  0.00000000000E+00  0.13048096576E+04  0.13048096576E+04  0.00000000000E+00 0.  1.
          1   -1    0    0  501    0  0.00000000000E+00 -0.00000000000E+00 -0.95293020242E+03  0.95293020242E+03  0.00000000000E+00 0. -1.
         23    2    1    2    0    0  0.44980303378E+03  0.47870704985E+03 -0.73361439401E+03  0.98896875954E+03  0.91574666128E+02 0.  0.
         13    1    3    3    0    0  0.26846509916E+03  0.34202115836E+03 -0.51132297486E+03  0.67119532690E+03  0.00000000000E+00 0.  1.
        -13    1    3    3    0    0  0.18133793462E+03  0.13668589149E+03 -0.22229141915E+03  0.31777343264E+03  0.00000000000E+00 0. -1.
         22    1    1    2    0    0 -0.44980303378E+03 -0.47870704985E+03  0.10854938492E+04  0.12687711005E+04  0.00000000000E+00 0.  1.
<mgrwt>
<rscale>  0 0.22301502E+04</rscale>
<asrwt>0</asrwt>
<pdfrwt beam="1">  1        1 0.14660465E+00 0.22301502E+04</pdfrwt>
<pdfrwt beam="2">  1       -1 0.20073995E+00 0.22301502E+04</pdfrwt>
<totfact> 0.22297293E+00</totfact>
</mgrwt>
</event>
<event>
 6    1  0.2003386E-005  0.2435374E+04  0.7818608E-02  0.8426378E-01
         -2   -1    0    0    0  501 -0.00000000000E+00  0.00000000000E+00  0.75174568924E+03  0.75174568924E+03  0.00000000000E+00 0.  1.
          2   -1    0    0  501    0  0.00000000000E+00 -0.00000000000E+00 -0.19724248273E+04  0.19724248273E+04  0.00000000000E+00 0. -1.
         23    2    1    2    0    0 -0.31579754225E+03  0.10517508233E+04 -0.11943212727E+04  0.16257158661E+04  0.10315470452E+03 0.  0.
         13    1    3    3    0    0 -0.15558107210E+03  0.44365980641E+03 -0.44326976950E+03  0.64616374269E+03  0.00000000000E+00 0. -1.
        -13    1    3    3    0    0 -0.16021647015E+03  0.60809101685E+03 -0.75105150322E+03  0.97955212346E+03  0.00000000000E+00 0.  1.
         22    1    1    2    0    0  0.31579754225E+03 -0.10517508233E+04 -0.26357865344E+02  0.10984546504E+04  0.00000000000E+00 0.  1.
<mgrwt>
<rscale>  0 0.24353742E+04</rscale>
<asrwt>0</asrwt>
<pdfrwt beam="1">  1        2 0.30344997E+00 0.24353742E+04</pdfrwt>
<pdfrwt beam="2">  1       -2 0.11565318E+00 0.24353742E+04</pdfrwt>
<totfact> 0.36090016E+00</totfact>
</mgrwt>
</event>
<event>
 6    1  0.2003386E-005  0.2869397E+04  0.7818608E-02  0.8282041E-01
         -2   -1    0    0    0  501 -0.00000000000E+00  0.00000000000E+00  0.10224275939E+04  0.10224275939E+04  0.00000000000E+00 0.  1.
          2   -1    0    0  501    0  0.00000000000E+00 -0.00000000000E+00 -0.20132085078E+04  0.20132085078E+04  0.00000000000E+00 0. -1.
         23    2    1    2    0    0  0.58694751818E+03  0.92140268049E+03  0.48553610196E+03  0.11990626020E+04  0.92279621254E+02 0.  0.
         11    1    3    3    0    0  0.51729352383E+03  0.76235600899E+03  0.38565768510E+03  0.99875478689E+03  0.00000000000E+00 0.  1.
        -11    1    3    3    0    0  0.69653994350E+02  0.15904667150E+03  0.99878416854E+02  0.20030781512E+03  0.00000000000E+00 0. -1.
         22    1    1    2    0    0 -0.58694751818E+03 -0.92140268049E+03 -0.14763170158E+04  0.18365734998E+04  0.00000000000E+00 0. -1.
<mgrwt>
<rscale>  0 0.28693971E+04</rscale>
<asrwt>0</asrwt>
<pdfrwt beam="1">  1        2 0.30972438E+00 0.28693971E+04</pdfrwt>
<pdfrwt beam="2">  1       -2 0.15729656E+00 0.28693971E+04</pdfrwt>
<totfact> 0.14996496E+00</totfact>
</mgrwt>
</event>
<event>
 6    1  0.2003386E-005  0.2618243E+04  0.7818608E-02  0.8362031E-01
         -2   -1    0    0    0  501 -0.00000000000E+00  0.00000000000E+00  0.10767900151E+04  0.10767900151E+04  0.00000000000E+00 0.  1.
          2   -1    0    0  501    0  0.00000000000E+00 -0.00000000000E+00 -0.15915820806E+04  0.15915820806E+04  0.00000000000E+00 0. -1.
         23    2    1    2    0    0 -0.76760278806E+03 -0.18444440484E+03 -0.13200390728E+04  0.15406946057E+04  0.89459127924E+02 0.  0.
         11    1    3    3    0    0 -0.34739922822E+03 -0.62471114328E+02 -0.51349709277E+03  0.62311164985E+03  0.00000000000E+00 0. -1.
        -11    1    3    3    0    0 -0.42020355984E+03 -0.12197329051E+03 -0.80654198002E+03  0.91758295583E+03  0.00000000000E+00 0.  1.
         22    1    1    2    0    0  0.76760278806E+03  0.18444440484E+03  0.80524700736E+03  0.11276774901E+04  0.00000000000E+00 0.  1.
<mgrwt>
<rscale>  0 0.26182435E+04</rscale>
<asrwt>0</asrwt>
<pdfrwt beam="1">  1        2 0.24485878E+00 0.26182435E+04</pdfrwt>
<pdfrwt beam="2">  1       -2 0.16566000E+00 0.26182435E+04</pdfrwt>
<totfact> 0.22804094E+00</totfact>
</mgrwt>
</event>
<event>
 6    1  0.2003386E-005  0.2571454E+04  0.7818608E-02  0.8377963E-01
         -2   -1    0    0    0  501 -0.00000000000E+00  0.00000000000E+00  0.58741985064E+03  0.58741985064E+03  0.00000000000E+00 0. -1.
          2   -1    0    0  501    0  0.00000000000E+00 -0.00000000000E+00 -0.28141613918E+04  0.28141613918E+04  0.00000000000E+00 0.  1.
         23    2    1    2    0    0 -0.31125412797E+03 -0.10737235875E+04 -0.19504578869E+04  0.22500196366E+04  0.92417108744E+02 0.  0.
         13    1    3    3    0    0 -0.10314929046E+03 -0.22525143261E+03 -0.40715709665E+03  0.47660768496E+03  0.00000000000E+00 0. -1.
        -13    1    3    3    0    0 -0.20810483750E+03 -0.84847215486E+03 -0.15433007903E+04  0.17734119517E+04  0.00000000000E+00 0.  1.
         22    1    1    2    0    0  0.31125412797E+03  0.10737235875E+04 -0.27628365425E+03  0.11515616059E+04  0.00000000000E+00 0. -1.
<mgrwt>
<rscale>  0 0.25714543E+04</rscale>
<asrwt>0</asrwt>
<pdfrwt beam="1">  1        2 0.43294791E+00 0.25714543E+04</pdfrwt>
<pdfrwt beam="2">  1       -2 0.90372284E-01 0.25714543E+04</pdfrwt>
<totfact> 0.21038616E+00</totfact>
</mgrwt>
</event>
<event>
 6    1  0.2003386E-005  0.5530041E+03  0.7818608E-02  0.1000801E+00
         -2   -1    0    0    0  501 -0.00000000000E+00  0.00000000000E+00  0.20064013396E+03  0.20064013396E+03  0.00000000000E+00 0. -1.
          2   -1    0    0  501    0  0.00000000000E+00 -0.00000000000E+00 -0.38104732439E+03  0.38104732439E+03  0.00000000000E+00 0.  1.
         23    2    1    2    0    0  0.68901876768E+02 -0.20041650574E+03 -0.26642237539E+03  0.35296741891E+03  0.93224848108E+02 0.  0.
         13    1    3    3    0    0  0.34965929669E+02 -0.83708117564E+02 -0.18681141783E+03  0.20767323134E+03  0.00000000000E+00 0. -1.
        -13    1    3    3    0    0  0.33935947099E+02 -0.11670838818E+03 -0.79610957562E+02  0.14529418757E+03  0.00000000000E+00 0.  1.
         22    1    1    2    0    0 -0.68901876768E+02  0.20041650574E+03  0.86015184957E+02  0.22872003944E+03  0.00000000000E+00 0. -1.
<mgrwt>
<rscale>  0 0.55300411E+03</rscale>
<asrwt>0</asrwt>
<pdfrwt beam="1">  1        2 0.58622665E-01 0.55300411E+03</pdfrwt>
<pdfrwt beam="2">  1       -2 0.30867713E-01 0.55300411E+03</pdfrwt>
<totfact> 0.81980672E+02</totfact>
</mgrwt>
</event>
<event>
 6    1  0.2003386E-005  0.9155546E+04  0.7818608E-02  0.7388540E-01
          2   -1    0    0  501    0  0.00000000000E+00  0.00000000000E+00  0.38790792925E+04  0.38790792925E+04  0.00000000000E+00 0. -1.
         -2   -1    0    0    0  501 -0.00000000000E+00 -0.00000000000E+00 -0.54023148799E+04  0.54023148799E+04  0.00000000000E+00 0.  1.
         23    2    1    2    0    0  0.19654946214E+03  0.45246131466E+04 -0.88497489175E+02  0.45306858854E+04  0.92341591975E+02 0.  0.
         11    1    3    3    0    0  0.18981074193E+03  0.36364037308E+04 -0.52920675552E+02  0.36417387068E+04  0.00000000000E+00 0.  1.
        -11    1    3    3    0    0  0.67387202096E+01  0.88820941580E+03 -0.35576813623E+02  0.88894717859E+03  0.00000000000E+00 0. -1.
         22    1    1    2    0    0 -0.19654946214E+03 -0.45246131466E+04 -0.14347380982E+04  0.47507082869E+04  0.00000000000E+00 0. -1.
<mgrwt>
<rscale>  0 0.91555465E+04</rscale>
<asrwt>0</asrwt>
<pdfrwt beam="1">  1        2 0.59678143E+00 0.91555465E+04</pdfrwt>
<pdfrwt beam="2">  1       -2 0.83112536E+00 0.91555465E+04</pdfrwt>
<totfact> 0.10718290E-05</totfact>
</mgrwt>
</event>
<event>
 6    1  0.2003386E-005  0.3362250E+04  0.7818608E-02  0.8147234E-01
         -2   -1    0    0    0  501 -0.00000000000E+00  0.00000000000E+00  0.10763039382E+04  0.10763039382E+04  0.00000000000E+00 0.  1.
          2   -1    0    0  501    0  0.00000000000E+00 -0.00000000000E+00 -0.26258203310E+04  0.26258203310E+04  0.00000000000E+00 0. -1.
         23    2    1    2    0    0 -0.10468376682E+04  0.26298627178E+03  0.64220912019E+03  0.12590336841E+04  0.87763209419E+02 0.  0.
         11    1    3    3    0    0 -0.22878322227E+03  0.73792868730E+02  0.10559866294E+03  0.26256090319E+03  0.00000000000E+00 0.  1.
        -11    1    3    3    0    0 -0.81805444593E+03  0.18919340305E+03  0.53661045725E+03  0.99647278091E+03  0.00000000000E+00 0. -1.
         22    1    1    2    0    0  0.10468376682E+04 -0.26298627178E+03 -0.21917255130E+04  0.24430905851E+04  0.00000000000E+00 0. -1.
<mgrwt>
<rscale>  0 0.33622497E+04</rscale>
<asrwt>0</asrwt>
<pdfrwt beam="1">  1        2 0.40397235E+00 0.33622497E+04</pdfrwt>
<pdfrwt beam="2">  1       -2 0.16558522E+00 0.33622497E+04</pdfrwt>
<totfact> 0.55970069E-01</totfact>
</mgrwt>
</event>
<event>
 6    1  0.2067088E-005  0.3344943E+04  0.7818608E-02  0.8151553E-01
          2   -1    0    0  501    0  0.00000000000E+00  0.00000000000E+00  0.17142915973E+04  0.17142915973E+04  0.00000000000E+00 0. -1.
         -2   -1    0    0    0  501 -0.00000000000E+00 -0.00000000000E+00 -0.16316720712E+04  0.16316720712E+04  0.00000000000E+00 0.  1.
         23    2    1    2    0    0  0.47158733481E+03 -0.59948298159E+03  0.15287610666E+04  0.17110019519E+04  0.92966773283E+02 0.  0.
         13    1    3    3    0    0  0.19182471351E+03 -0.19709475839E+03  0.47568886231E+03  0.54947516615E+03  0.00000000000E+00 0. -1.
        -13    1    3    3    0    0  0.27976262130E+03 -0.40238822320E+03  0.10530722043E+04  0.11615267857E+04  0.00000000000E+00 0.  1.
         22    1    1    2    0    0 -0.47158733481E+03  0.59948298159E+03 -0.14461415406E+04  0.16349617166E+04  0.00000000000E+00 0.  1.
<mgrwt>
<rscale>  0 0.33449435E+04</rscale>
<asrwt>0</asrwt>
<pdfrwt beam="1">  1        2 0.26373717E+00 0.33449435E+04</pdfrwt>
<pdfrwt beam="2">  1       -2 0.25102647E+00 0.33449435E+04</pdfrwt>
<totfact> 0.50750267E-01</totfact>
</mgrwt>
</event>
<event>
 6    1  0.2003386E-005  0.3197352E+04  0.7818608E-02  0.8189517E-01
          2   -1    0    0  501    0  0.00000000000E+00  0.00000000000E+00  0.32634935363E+04  0.32634935363E+04  0.00000000000E+00 0. -1.
         -2   -1    0    0    0  501 -0.00000000000E+00 -0.00000000000E+00 -0.78313795132E+03  0.78313795132E+03  0.00000000000E+00 0.  1.
         23    2    1    2    0    0  0.62743236167E+03  0.14591976491E+04  0.10269945488E+04  0.18936829399E+04  0.91586712603E+02 0.  0.
         13    1    3    3    0    0  0.12807122410E+03  0.36595430563E+03  0.28510714926E+03  0.48125967919E+03  0.00000000000E+00 0. -1.
        -13    1    3    3    0    0  0.49936113756E+03  0.10932433435E+04  0.74188739951E+03  0.14124232607E+04  0.00000000000E+00 0.  1.
         22    1    1    2    0    0 -0.62743236167E+03 -0.14591976491E+04  0.14533610362E+04  0.21529485478E+04  0.00000000000E+00 0.  1.
<mgrwt>
<rscale>  0 0.31973524E+04</rscale>
<asrwt>0</asrwt>
<pdfrwt beam="1">  1        2 0.50207592E+00 0.31973524E+04</pdfrwt>
<pdfrwt beam="2">  1       -2 0.12048276E+00 0.31973524E+04</pdfrwt>
<totfact> 0.52102605E-01</totfact>
</mgrwt>
</event>
<event>
 6    1  0.2003386E-005  0.2173590E+04  0.7818608E-02  0.8529501E-01
         -2   -1    0    0    0  501 -0.00000000000E+00  0.00000000000E+00  0.18341294981E+04  0.18341294981E+04  0.00000000000E+00 0.  1.
          2   -1    0    0  501    0  0.00000000000E+00 -0.00000000000E+00 -0.64396970581E+03  0.64396970581E+03  0.00000000000E+00 0. -1.
         23    2    1    2    0    0 -0.25887991666E+03  0.46191987576E+03 -0.48331226086E+03  0.72285064729E+03  0.92377128787E+02 0.  0.
         13    1    3    3    0    0 -0.25242641102E+03  0.38879839361E+03 -0.42816514403E+03  0.63103777574E+03  0.00000000000E+00 0. -1.
        -13    1    3    3    0    0 -0.64535056314E+01  0.73121482151E+02 -0.55147116827E+02  0.91812871544E+02  0.00000000000E+00 0.  1.
         22    1    1    2    0    0  0.25887991666E+03 -0.46191987576E+03  0.16734720532E+04  0.17552485566E+04  0.00000000000E+00 0.  1.
<mgrwt>
<rscale>  0 0.21735904E+04</rscale>
<asrwt>0</asrwt>
<pdfrwt beam="1">  1        2 0.99072263E-01 0.21735904E+04</pdfrwt>
<pdfrwt beam="2">  1       -2 0.28217377E+00 0.21735904E+04</pdfrwt>
<totfact> 0.17022956E+00</totfact>
</mgrwt>
</event>
<event>
 6    1  0.2110189E-005  0.3678724E+04  0.7818608E-02  0.8072693E-01
          2   -1    0    0  501    0  0.00000000000E+00  0.00000000000E+00  0.17437105091E+04  0.17437105091E+04  0.00000000000E+00 0. -1.
         -2   -1    0    0    0  501 -0.00000000000E+00 -0.00000000000E+00 -0.19402608209E+04  0.19402608209E+04  0.00000000000E+00 0.  1.
         23    2    1    2    0    0 -0.11763256105E+04 -0.13282171996E+03  0.13099203501E+04  0.17680283752E+04  0.93002476969E+02 0.  0.
         13    1    3    3    0    0 -0.28608612726E+03 -0.15447060711E+02  0.26471400899E+03  0.39007357056E+03  0.00000000000E+00 0. -1.
        -13    1    3    3    0    0 -0.89023948325E+03 -0.11737465925E+03  0.10452063411E+04  0.13779548046E+04  0.00000000000E+00 0.  1.
         22    1    1    2    0    0  0.11763256105E+04  0.13282171996E+03 -0.15064706618E+04  0.19159429548E+04  0.00000000000E+00 0.  1.
<mgrwt>
<rscale>  0 0.36787243E+04</rscale>
<asrwt>0</asrwt>
<pdfrwt beam="1">  1        2 0.26826316E+00 0.36787243E+04</pdfrwt>
<pdfrwt beam="2">  1       -2 0.29850166E+00 0.36787243E+04</pdfrwt>
<totfact> 0.24375555E-01</totfact>
</mgrwt>
</event>
<event>
 6    1  0.2044588E-005  0.3144527E+04  0.7818608E-02  0.8203623E-01
         -2   -1    0    0    0  501 -0.00000000000E+00  0.00000000000E+00  0.83663184753E+03  0.83663184753E+03  0.00000000000E+00 0. -1.
          2   -1    0    0  501    0  0.00000000000E+00 -0.00000000000E+00 -0.29547197289E+04  0.29547197289E+04  0.00000000000E+00 0.  1.
         23    2    1    2    0    0 -0.15383937753E+04 -0.22296072378E+03 -0.78688101712E+03  0.17447742855E+04  0.93213090028E+02 0.  0.
         13    1    3    3    0    0 -0.35144065209E+03 -0.23059987752E+02 -0.14760948260E+03  0.38187806213E+03  0.00000000000E+00 0.  1.
        -13    1    3    3    0    0 -0.11869531232E+04 -0.19990073602E+03 -0.63927153452E+03  0.13628962234E+04  0.00000000000E+00 0. -1.
         22    1    1    2    0    0  0.15383937753E+04  0.22296072378E+03 -0.13312068643E+04  0.20465772909E+04  0.00000000000E+00 0.  1.
<mgrwt>
<rscale>  0 0.31445271E+04</rscale>
<asrwt>0</asrwt>
<pdfrwt beam="1">  1        2 0.45457226E+00 0.31445271E+04</pdfrwt>
<pdfrwt beam="2">  1       -2 0.12871259E+00 0.31445271E+04</pdfrwt>
<totfact> 0.69968735E-01</totfact>
</mgrwt>
</event>
<event>
 6    1  0.2003386E-005  0.4687369E+04  0.7818608E-02  0.7878631E-01
         -2   -1    0    0    0  501 -0.00000000000E+00  0.00000000000E+00  0.21372735933E+04  0.21372735933E+04  0.00000000000E+00 0.  1.
          2   -1    0    0  501    0  0.00000000000E+00 -0.00000000000E+00 -0.25700301298E+04  0.25700301298E+04  0.00000000000E+00 0. -1.
         23    2    1    2    0    0 -0.27561274624E+03  0.84313660386E+03 -0.23939370086E+04  0.25548468564E+04  0.97295115528E+02 0.  0.
         13    1    3    3    0    0 -0.81617084728E+02  0.39484061645E+03 -0.11331062359E+04  0.12027012109E+04  0.00000000000E+00 0. -1.
        -13    1    3    3    0    0 -0.19399566152E+03  0.44829598741E+03 -0.12608307727E+04  0.13521456454E+04  0.00000000000E+00 0.  1.
         22    1    1    2    0    0  0.27561274624E+03 -0.84313660386E+03  0.19611804722E+04  0.21524568667E+04  0.00000000000E+00 0.  1.
<mgrwt>
<rscale>  0 0.46873692E+04</rscale>
<asrwt>0</asrwt>
<pdfrwt beam="1">  1        2 0.39538925E+00 0.46873692E+04</pdfrwt>
<pdfrwt beam="2">  1       -2 0.32881132E+00 0.46873692E+04</pdfrwt>
<totfact> 0.49937629E-02</totfact>
</mgrwt>
</event>
<event>
 6    1  0.2003386E-005  0.2571785E+04  0.7818608E-02  0.8377849E-01
         -2   -1    0    0    0  501 -0.00000000000E+00  0.00000000000E+00  0.60385343484E+03  0.60385343484E+03  0.00000000000E+00 0.  1.
          2   -1    0    0  501    0  0.00000000000E+00 -0.00000000000E+00 -0.27382798512E+04  0.27382798512E+04  0.00000000000E+00 0. -1.
         23    2    1    2    0    0 -0.10233965190E+04  0.29305105788E+03 -0.20020902718E+04  0.22694114149E+04  0.92969651631E+02 0.  0.
         11    1    3    3    0    0 -0.77652833026E+03  0.23022816344E+03 -0.14364551899E+04  0.16490617840E+04  0.00000000000E+00 0. -1.
        -11    1    3    3    0    0 -0.24686818872E+03  0.62822894441E+02 -0.56563508195E+03  0.62034963094E+03  0.00000000000E+00 0.  1.
         22    1    1    2    0    0  0.10233965190E+04 -0.29305105788E+03 -0.13233614453E+03  0.10727218711E+04  0.00000000000E+00 0.  1.
<mgrwt>
<rscale>  0 0.25717851E+04</rscale>
<asrwt>0</asrwt>
<pdfrwt beam="1">  1        2 0.42127382E+00 0.25717851E+04</pdfrwt>
<pdfrwt beam="2">  1       -2 0.92900529E-01 0.25717851E+04</pdfrwt>
<totfact> 0.21927049E+00</totfact>
</mgrwt>
</event>
<event>
 6    1  0.2003386E-005  0.2216080E+04  0.7818608E-02  0.8511765E-01
         -2   -1    0    0    0  501 -0.00000000000E+00  0.00000000000E+00  0.69875363099E+03  0.69875363099E+03  0.00000000000E+00 0.  1.
          2   -1    0    0  501    0  0.00000000000E+00 -0.00000000000E+00 -0.17570604035E+04  0.17570604035E+04  0.00000000000E+00 0. -1.
         23    2    1    2    0    0 -0.10277560765E+04 -0.38240673120E+03 -0.69213631648E+03  0.12997006042E+04  0.87472962730E+02 0.  0.
         11    1    3    3    0    0 -0.26679201178E+03 -0.89317606738E+02 -0.22235236517E+03  0.35860310472E+03  0.00000000000E+00 0.  1.
        -11    1    3    3    0    0 -0.76096406469E+03 -0.29308912447E+03 -0.46978395131E+03  0.94109749949E+03  0.00000000000E+00 0. -1.
         22    1    1    2    0    0  0.10277560765E+04  0.38240673120E+03 -0.36617045602E+03  0.11561134303E+04  0.00000000000E+00 0. -1.
<mgrwt>
<rscale>  0 0.22160797E+04</rscale>
<asrwt>0</asrwt>
<pdfrwt beam="1">  1        2 0.27031698E+00 0.22160797E+04</pdfrwt>
<pdfrwt beam="2">  1       -2 0.10750056E+00 0.22160797E+04</pdfrwt>
<totfact> 0.57800789E+00</totfact>
</mgrwt>
</event>
<event>
 6    1  0.2003386E-005  0.1933527E+04  0.7818608E-02  0.8638345E-01
         -1   -1    0    0    0  501 -0.00000000000E+00  0.00000000000E+00  0.18878185282E+04  0.18878185282E+04  0.00000000000E+00 0.  1.
          1   -1    0    0  501    0  0.00000000000E+00 -0.00000000000E+00 -0.49508568945E+03  0.49508568945E+03  0.00000000000E+00 0. -1.
         23    2    1    2    0    0  0.10091770772E+03  0.39216330413E+03 -0.38115479027E+03  0.56338401682E+03  0.90255943977E+02 0.  0.
         11    1    3    3    0    0  0.83357060766E+02  0.26159963454E+03 -0.30832944773E+03  0.41285568509E+03  0.00000000000E+00 0.  1.
        -11    1    3    3    0    0  0.17560646958E+02  0.13056366959E+03 -0.72825342541E+02  0.15052833173E+03  0.00000000000E+00 0. -1.
         22    1    1    2    0    0 -0.10091770772E+03 -0.39216330413E+03  0.17738876290E+04  0.18195202008E+04  0.00000000000E+00 0.  1.
<mgrwt>
<rscale>  0 0.19335273E+04</rscale>
<asrwt>0</asrwt>
<pdfrwt beam="1">  1        1 0.76167030E-01 0.19335273E+04</pdfrwt>
<pdfrwt beam="2">  1       -1 0.29043362E+00 0.19335273E+04</pdfrwt>
<totfact> 0.15978240E+00</totfact>
</mgrwt>
</event>
<event>
 6    1  0.2003386E-005  0.1188706E+04  0.7818608E-02  0.9122800E-01
         -2   -1    0    0    0  501 -0.00000000000E+00  0.00000000000E+00  0.34397175880E+03  0.34397175880E+03  0.00000000000E+00 0.  1.
          2   -1    0    0  501    0  0.00000000000E+00 -0.00000000000E+00 -0.10269901607E+04  0.10269901607E+04  0.00000000000E+00 0. -1.
         23    2    1    2    0    0  0.43974025126E+03 -0.15433852745E+03 -0.76234138096E+03  0.89822097076E+03  0.91894839631E+02 0.  0.
         11    1    3    3    0    0  0.26586174428E+03 -0.47119311012E+02 -0.45845892848E+03  0.53205947566E+03  0.00000000000E+00 0.  1.
        -11    1    3    3    0    0  0.17387850697E+03 -0.10721921644E+03 -0.30388245249E+03  0.36616149510E+03  0.00000000000E+00 0. -1.
         22    1    1    2    0    0 -0.43974025126E+03  0.15433852745E+03  0.79322979048E+02  0.47274094876E+03  0.00000000000E+00 0.  1.
<mgrwt>
<rscale>  0 0.11887062E+04</rscale>
<asrwt>0</asrwt>
<pdfrwt beam="1">  1        2 0.15799848E+00 0.11887062E+04</pdfrwt>
<pdfrwt beam="2">  1       -2 0.52918733E-01 0.11887062E+04</pdfrwt>
<totfact> 0.80495756E+01</totfact>
</mgrwt>
</event>
<event>
 6    1  0.2108813E-005  0.3417594E+04  0.7818608E-02  0.8133602E-01
          2   -1    0    0  501    0  0.00000000000E+00  0.00000000000E+00  0.26398157737E+04  0.26398157737E+04  0.00000000000E+00 0. -1.
         -2   -1    0    0    0  501 -0.00000000000E+00 -0.00000000000E+00 -0.11061330975E+04  0.11061330975E+04  0.00000000000E+00 0.  1.
         23    2    1    2    0    0  0.40050027213E+03  0.13172212896E+04  0.18746143164E+04  0.23276023772E+04  0.89897704808E+02 0.  0.
         11    1    3    3    0    0  0.13095603381E+03  0.39384181724E+03  0.49929423041E+03  0.64927312305E+03  0.00000000000E+00 0. -1.
        -11    1    3    3    0    0  0.26954423831E+03  0.92337947235E+03  0.13753200860E+04  0.16783292542E+04  0.00000000000E+00 0.  1.
         22    1    1    2    0    0 -0.40050027213E+03 -0.13172212896E+04 -0.34093164017E+03  0.14183464940E+04  0.00000000000E+00 0.  1.
<mgrwt>
<rscale>  0 0.34175942E+04</rscale>
<asrwt>0</asrwt>
<pdfrwt beam="1">  1        2 0.40612550E+00 0.34175942E+04</pdfrwt>
<pdfrwt beam="2">  1       -2 0.17017432E+00 0.34175942E+04</pdfrwt>
<totfact> 0.50676102E-01</totfact>
</mgrwt>
</event>
<event>
 6    1  0.2003386E-005  0.1748315E+04  0.7818608E-02  0.8734279E-01
         -4   -1    0    0    0  501 -0.00000000000E+00  0.00000000000E+00  0.20739930206E+04  0.20739930206E+04  0.00000000000E+00 0.  1.
          4   -1    0    0  501    0  0.00000000000E+00 -0.00000000000E+00 -0.36844432058E+03  0.36844432058E+03  0.00000000000E+00 0. -1.
         23    2    1    2    0    0  0.69026865494E+03  0.29655613094E+03  0.23767360877E+03  0.79347595948E+03  0.93268425418E+02 0.  0.
         13    1    3    3    0    0  0.21492897494E+03  0.46332869755E+02  0.68787506703E+02  0.23037560671E+03  0.00000000000E+00 0. -1.
        -13    1    3    3    0    0  0.47533967999E+03  0.25022326119E+03  0.16888610206E+03  0.56310035277E+03  0.00000000000E+00 0.  1.
         22    1    1    2    0    0 -0.69026865494E+03 -0.29655613094E+03  0.14678750912E+04  0.16489613817E+04  0.00000000000E+00 0.  1.
<mgrwt>
<rscale>  0 0.17483146E+04</rscale>
<asrwt>0</asrwt>
<pdfrwt beam="1">  1        4 0.56683743E-01 0.17483146E+04</pdfrwt>
<pdfrwt beam="2">  1       -4 0.31907584E+00 0.17483146E+04</pdfrwt>
<totfact> 0.13224257E-01</totfact>
</mgrwt>
</event>
<event>
 6    1  0.2003386E-005  0.4705657E+04  0.7818608E-02  0.7875589E-01
          1   -1    0    0  501    0  0.00000000000E+00  0.00000000000E+00  0.32010736141E+04  0.32010736141E+04  0.00000000000E+00 0. -1.
         -1   -1    0    0    0  501 -0.00000000000E+00 -0.00000000000E+00 -0.17293580573E+04  0.17293580573E+04  0.00000000000E+00 0.  1.
         23    2    1    2    0    0  0.21773963298E+04  0.88157903869E+03  0.61521541125E+03  0.24300659227E+04  0.92162943254E+02 0.  0.
         11    1    3    3    0    0  0.14385925314E+04  0.62614793838E+03  0.39443272232E+03  0.16177721980E+04  0.00000000000E+00 0.  1.
        -11    1    3    3    0    0  0.73880379837E+03  0.25543110031E+03  0.22078268893E+03  0.81229372472E+03  0.00000000000E+00 0. -1.
         22    1    1    2    0    0 -0.21773963298E+04 -0.88157903869E+03  0.85650014554E+03  0.25003657488E+04  0.00000000000E+00 0. -1.
<mgrwt>
<rscale>  0 0.47056572E+04</rscale>
<asrwt>0</asrwt>
<pdfrwt beam="1">  1        1 0.49247286E+00 0.47056572E+04</pdfrwt>
<pdfrwt beam="2">  1       -1 0.26605509E+00 0.47056572E+04</pdfrwt>
<totfact> 0.17176196E-02</totfact>
</mgrwt>
</event>
<event>
 6    1  0.2003386E-005  0.1083849E+04  0.7818608E-02  0.9221079E-01
          1   -1    0    0  501    0  0.00000000000E+00  0.00000000000E+00  0.13293245479E+04  0.13293245479E+04  0.00000000000E+00 0. -1.
         -1   -1    0    0    0  501 -0.00000000000E+00 -0.00000000000E+00 -0.22092573557E+03  0.22092573557E+03  0.00000000000E+00 0.  1.
         23    2    1    2    0    0  0.33042624239E+03 -0.49890307292E+02  0.11614100654E+04  0.12119002615E+04  0.90323637083E+02 0.  0.
         13    1    3    3    0    0  0.25057309988E+03 -0.37555511546E+02  0.72311656033E+03  0.76622115257E+03  0.00000000000E+00 0. -1.
        -13    1    3    3    0    0  0.79853142515E+02 -0.12334795746E+02  0.43829350508E+03  0.44567910895E+03  0.00000000000E+00 0.  1.
         22    1    1    2    0    0 -0.33042624239E+03  0.49890307292E+02 -0.53011253056E+02  0.33835002198E+03  0.00000000000E+00 0.  1.
<mgrwt>
<rscale>  0 0.10838487E+04</rscale>
<asrwt>0</asrwt>
<pdfrwt beam="1">  1        1 0.20451146E+00 0.10838487E+04</pdfrwt>
<pdfrwt beam="2">  1       -1 0.33988575E-01 0.10838487E+04</pdfrwt>
<totfact> 0.70275163E+01</totfact>
</mgrwt>
</event>
<event>
 6    1  0.2003386E-005  0.3467801E+04  0.7818608E-02  0.8121463E-01
         -2   -1    0    0    0  501 -0.00000000000E+00  0.00000000000E+00  0.13096079530E+04  0.13096079530E+04  0.00000000000E+00 0.  1.
          2   -1    0    0  501    0  0.00000000000E+00 -0.00000000000E+00 -0.22956567525E+04  0.22956567525E+04  0.00000000000E+00 0. -1.
         23    2    1    2    0    0 -0.50744793568E+03  0.15050240492E+04  0.22654629094E+03  0.16070185621E+04  0.92653337378E+02 0.  0.
         11    1    3    3    0    0 -0.39853876659E+03  0.12024607899E+04  0.14340345719E+03  0.12748763278E+04  0.00000000000E+00 0. -1.
        -11    1    3    3    0    0 -0.10890916910E+03  0.30256325937E+03  0.83142833755E+02  0.33214223435E+03  0.00000000000E+00 0.  1.
         22    1    1    2    0    0  0.50744793568E+03 -0.15050240492E+04 -0.12125950904E+04  0.19982461434E+04  0.00000000000E+00 0. -1.
<mgrwt>
<rscale>  0 0.34678007E+04</rscale>
<asrwt>0</asrwt>
<pdfrwt beam="1">  1        2 0.35317796E+00 0.34678007E+04</pdfrwt>
<pdfrwt beam="2">  1       -2 0.20147815E+00 0.34678007E+04</pdfrwt>
<totfact> 0.48856116E-01</totfact>
</mgrwt>
</event>
<event>
 6    1  0.2003386E-005  0.2230736E+04  0.7818608E-02  0.8505743E-01
         -2   -1    0    0    0  501 -0.00000000000E+00  0.00000000000E+00  0.46318856102E+03  0.46318856102E+03  0.00000000000E+00 0.  1.
          2   -1    0    0  501    0  0.00000000000E+00 -0.00000000000E+00 -0.26858312485E+04  0.26858312485E+04  0.00000000000E+00 0. -1.
         23    2    1    2    0    0 -0.74166508481E+03  0.26897959991E+03 -0.22228325663E+04  0.23600856175E+04  0.81255036192E+02 0.  0.
         13    1    3    3    0    0 -0.16297474691E+03  0.95862204272E+02 -0.52981789675E+03  0.56254540622E+03  0.00000000000E+00 0. -1.
        -13    1    3    3    0    0 -0.57869033790E+03  0.17311739564E+03 -0.16930146696E+04  0.17975402113E+04  0.00000000000E+00 0.  1.
         22    1    1    2    0    0  0.74166508481E+03 -0.26897959991E+03  0.18987888065E+00  0.78893419196E+03  0.00000000000E+00 0.  1.
<mgrwt>
<rscale>  0 0.22307365E+04</rscale>
<asrwt>0</asrwt>
<pdfrwt beam="1">  1        2 0.41320481E+00 0.22307365E+04</pdfrwt>
<pdfrwt beam="2">  1       -2 0.71259778E-01 0.22307365E+04</pdfrwt>
<totfact> 0.44145421E+00</totfact>
</mgrwt>
</event>
<event>
 6    1  0.2003386E-005  0.3436989E+04  0.7818608E-02  0.8128887E-01
          2   -1    0    0  501    0  0.00000000000E+00  0.00000000000E+00  0.41505730073E+04  0.41505730073E+04  0.00000000000E+00 0.  1.
         -2   -1    0    0    0  501 -0.00000000000E+00 -0.00000000000E+00 -0.71152167197E+03  0.71152167197E+03  0.00000000000E+00 0. -1.
         23    2    1    2    0    0 -0.22661711359E+03 -0.65489069488E+03 -0.50212613522E+03  0.86045539108E+03  0.89530363356E+02 0.  0.
         11    1    3    3    0    0 -0.35415031530E+02 -0.20236198433E+03 -0.17871018867E+03  0.27229015534E+03  0.00000000000E+00 0.  1.
        -11    1    3    3    0    0 -0.19120208206E+03 -0.45252871055E+03 -0.32341594655E+03  0.58816523574E+03  0.00000000000E+00 0. -1.
         22    1    1    2    0    0  0.22661711359E+03  0.65489069488E+03  0.39411774705E+04  0.40016392882E+04  0.00000000000E+00 0.  1.
<mgrwt>
<rscale>  0 0.34369886E+04</rscale>
<asrwt>0</asrwt>
<pdfrwt beam="1">  1        2 0.63854968E+00 0.34369886E+04</pdfrwt>
<pdfrwt beam="2">  1       -2 0.10946488E+00 0.34369886E+04</pdfrwt>
<totfact> 0.14040992E-01</totfact>
</mgrwt>
</event>
<event>
 6    1  0.2003386E-005  0.8615093E+03  0.7818608E-02  0.9475018E-01
          2   -1    0    0  501    0  0.00000000000E+00  0.00000000000E+00  0.16151027321E+04  0.16151027321E+04  0.00000000000E+00 0.  1.
         -2   -1    0    0    0  501 -0.00000000000E+00 -0.00000000000E+00 -0.11488406697E+03  0.11488406697E+03  0.00000000000E+00 0. -1.
         23    2    1    2    0    0  0.81212422284E+02 -0.31573009580E+03  0.13092834320E+04  0.13521810101E+04  0.88822451221E+02 0.  0.
         13    1    3    3    0    0  0.19865127521E+02 -0.10049598869E+02  0.15261873177E+03  0.15423389711E+03  0.00000000000E+00 0.  1.
        -13    1    3    3    0    0  0.61347294762E+02 -0.30568049693E+03  0.11566647002E+04  0.11979471130E+04  0.00000000000E+00 0. -1.
         22    1    1    2    0    0 -0.81212422284E+02  0.31573009580E+03  0.19093523313E+03  0.37780578897E+03  0.00000000000E+00 0. -1.
<mgrwt>
<rscale>  0 0.86150930E+03</rscale>
<asrwt>0</asrwt>
<pdfrwt beam="1">  1        2 0.24847733E+00 0.86150930E+03</pdfrwt>
<pdfrwt beam="2">  1       -2 0.17674473E-01 0.86150930E+03</pdfrwt>
<totfact> 0.29173028E+02</totfact>
</mgrwt>
</event>
<event>
 6    1  0.2003386E-005  0.3992024E+04  0.7818608E-02  0.8006157E-01
         -1   -1    0    0    0  501 -0.00000000000E+00  0.00000000000E+00  0.12110329119E+04  0.12110329119E+04  0.00000000000E+00 0.  1.
          1   -1    0    0  501    0  0.00000000000E+00 -0.00000000000E+00 -0.32898065378E+04  0.32898065378E+04  0.00000000000E+00 0. -1.
         23    2    1    2    0    0 -0.92285444505E+03 -0.19294462203E+03  0.94230928583E+03  0.13360598501E+04  0.90670717617E+02 0.  0.
         11    1    3    3    0    0 -0.72841554475E+03 -0.12301206020E+03  0.70131790436E+03  0.10186108068E+04  0.00000000000E+00 0. -1.
        -11    1    3    3    0    0 -0.19443890030E+03 -0.69932561825E+02  0.24099138147E+03  0.31744904331E+03  0.00000000000E+00 0.  1.
         22    1    1    2    0    0  0.92285444505E+03  0.19294462203E+03 -0.30210829118E+04  0.31647795996E+04  0.00000000000E+00 0. -1.
<mgrwt>
<rscale>  0 0.39920240E+04</rscale>
<asrwt>0</asrwt>
<pdfrwt beam="1">  1        1 0.50612408E+00 0.39920240E+04</pdfrwt>
<pdfrwt beam="2">  1       -1 0.18631276E+00 0.39920240E+04</pdfrwt>
<totfact> 0.53359948E-02</totfact>
</mgrwt>
</event>
<event>
 6    1  0.2003386E-005  0.2957272E+04  0.7818608E-02  0.8256038E-01
         -2   -1    0    0    0  501 -0.00000000000E+00  0.00000000000E+00  0.12905808888E+04  0.12905808888E+04  0.00000000000E+00 0.  1.
          2   -1    0    0  501    0  0.00000000000E+00 -0.00000000000E+00 -0.16940930927E+04  0.16940930927E+04  0.00000000000E+00 0. -1.
         23    2    1    2    0    0  0.11119486902E+04 -0.64728914146E+03 -0.93449524590E+03  0.15927845774E+04  0.90929770389E+02 0.  0.
         11    1    3    3    0    0  0.25934681455E+03 -0.10760999723E+03 -0.20428291955E+03  0.34723506871E+03  0.00000000000E+00 0.  1.
        -11    1    3    3    0    0  0.85260187567E+03 -0.53967914423E+03 -0.73021232636E+03  0.12455495087E+04  0.00000000000E+00 0. -1.
         22    1    1    2    0    0 -0.11119486902E+04  0.64728914146E+03  0.53098304193E+03  0.13918894041E+04  0.00000000000E+00 0.  1.
<mgrwt>
<rscale>  0 0.29572718E+04</rscale>
<asrwt>0</asrwt>
<pdfrwt beam="1">  1        2 0.26062971E+00 0.29572718E+04</pdfrwt>
<pdfrwt beam="2">  1       -2 0.19855091E+00 0.29572718E+04</pdfrwt>
<totfact> 0.11541651E+00</totfact>
</mgrwt>
</event>
<event>
 6    1  0.2003386E-005  0.2326992E+04  0.7818608E-02  0.8467354E-01
         -2   -1    0    0    0  501 -0.00000000000E+00  0.00000000000E+00  0.32273206299E+03  0.32273206299E+03  0.00000000000E+00 0.  1.
          2   -1    0    0  501    0  0.00000000000E+00 -0.00000000000E+00 -0.41945727855E+04  0.41945727855E+04  0.00000000000E+00 0. -1.
         23    2    1    2    0    0  0.84168342566E+03 -0.65504913464E+03 -0.28328886512E+04  0.30283650363E+04  0.90643947413E+02 0.  0.
         13    1    3    3    0    0  0.33627081617E+03 -0.23966120254E+03 -0.98332021581E+03  0.10665056027E+04  0.00000000000E+00 0. -1.
        -13    1    3    3    0    0  0.50541260949E+03 -0.41538793211E+03 -0.18495684353E+04  0.19618594335E+04  0.00000000000E+00 0.  1.
         22    1    1    2    0    0 -0.84168342566E+03  0.65504913464E+03 -0.10389520713E+04  0.14889398122E+04  0.00000000000E+00 0.  1.
<mgrwt>
<rscale>  0 0.23269922E+04</rscale>
<asrwt>0</asrwt>
<pdfrwt beam="1">  1        2 0.64531892E+00 0.23269922E+04</pdfrwt>
<pdfrwt beam="2">  1       -2 0.49651085E-01 0.23269922E+04</pdfrwt>
<totfact> 0.82186367E-01</totfact>
</mgrwt>
</event>
<event>
 6    1  0.2003386E-005  0.1517991E+04  0.7818608E-02  0.8872577E-01
         -2   -1    0    0    0  501 -0.00000000000E+00  0.00000000000E+00  0.36870362397E+03  0.36870362397E+03  0.00000000000E+00 0.  1.
          2   -1    0    0  501    0  0.00000000000E+00 -0.00000000000E+00 -0.15624306487E+04  0.15624306487E+04  0.00000000000E+00 0. -1.
         23    2    1    2    0    0  0.26607760614E+03 -0.56462373615E+03 -0.55627568330E+02  0.63310976266E+03  0.90201381908E+02 0.  0.
         11    1    3    3    0    0  0.25507761725E+02 -0.54197502888E+02  0.21381834833E+02  0.63601871737E+02  0.00000000000E+00 0.  1.
        -11    1    3    3    0    0  0.24056984441E+03 -0.51042623326E+03 -0.77009403163E+02  0.56950789092E+03  0.00000000000E+00 0. -1.
         22    1    1    2    0    0 -0.26607760614E+03  0.56462373615E+03 -0.11380994564E+04  0.12980245100E+04  0.00000000000E+00 0. -1.
<mgrwt>
<rscale>  0 0.15179906E+04</rscale>
<asrwt>0</asrwt>
<pdfrwt beam="1">  1        2 0.24037394E+00 0.15179906E+04</pdfrwt>
<pdfrwt beam="2">  1       -2 0.56723635E-01 0.15179906E+04</pdfrwt>
<totfact> 0.32920245E+01</totfact>
</mgrwt>
</event>
<event>
 6    1  0.2003386E-005  0.4630743E+04  0.7818608E-02  0.7888139E-01
         -2   -1    0    0    0  501 -0.00000000000E+00  0.00000000000E+00  0.17927963508E+04  0.17927963508E+04  0.00000000000E+00 0.  1.
          2   -1    0    0  501    0  0.00000000000E+00 -0.00000000000E+00 -0.29902694615E+04  0.29902694615E+04  0.00000000000E+00 0. -1.
         23    2    1    2    0    0 -0.10520121315E+04 -0.80448392869E+03 -0.25595278663E+04  0.28832981756E+04  0.91112867814E+02 0.  0.
         11    1    3    3    0    0 -0.25254219169E+03 -0.24364191560E+03 -0.67378517900E+03  0.75968770496E+03  0.00000000000E+00 0. -1.
        -11    1    3    3    0    0 -0.79946993978E+03 -0.56084201309E+03 -0.18857426873E+04  0.21236104707E+04  0.00000000000E+00 0.  1.
         22    1    1    2    0    0  0.10520121315E+04  0.80448392869E+03  0.13620547556E+04  0.18997676367E+04  0.00000000000E+00 0.  1.
<mgrwt>
<rscale>  0 0.46307426E+04</rscale>
<asrwt>0</asrwt>
<pdfrwt beam="1">  1        2 0.46004145E+00 0.46307426E+04</pdfrwt>
<pdfrwt beam="2">  1       -2 0.27581483E+00 0.46307426E+04</pdfrwt>
<totfact> 0.59099011E-02</totfact>
</mgrwt>
</event>
<event>
 6    1  0.2003386E-005  0.2069016E+04  0.7818608E-02  0.8575016E-01
          2   -1    0    0  501    0  0.00000000000E+00  0.00000000000E+00  0.33453210298E+04  0.33453210298E+04  0.00000000000E+00 0. -1.
         -2   -1    0    0    0  501 -0.00000000000E+00 -0.00000000000E+00 -0.31991161719E+03  0.31991161719E+03  0.00000000000E+00 0.  1.
         23    2    1    2    0    0 -0.62612277038E+03  0.68604555914E+03  0.23145814152E+04  0.24956324270E+04  0.90586146957E+02 0.  0.
         11    1    3    3    0    0 -0.21586031410E+03  0.19144434158E+03  0.64206155603E+03  0.70391025910E+03  0.00000000000E+00 0. -1.
        -11    1    3    3    0    0 -0.41026245628E+03  0.49460121756E+03  0.16725198592E+04  0.17917221679E+04  0.00000000000E+00 0.  1.
         22    1    1    2    0    0  0.62612277038E+03 -0.68604555914E+03  0.71082799741E+03  0.11696002200E+04  0.00000000000E+00 0.  1.
<mgrwt>
<rscale>  0 0.20690162E+04</rscale>
<asrwt>0</asrwt>
<pdfrwt beam="1">  1        2 0.51466475E+00 0.20690162E+04</pdfrwt>
<pdfrwt beam="2">  1       -2 0.49217174E-01 0.20690162E+04</pdfrwt>
<totfact> 0.37639453E+00</totfact>
</mgrwt>
</event>
<event>
 6    1  0.2092709E-005  0.3707112E+04  0.7818608E-02  0.8066387E-01
          2   -1    0    0  501    0  0.00000000000E+00  0.00000000000E+00  0.10174093104E+04  0.10174093104E+04  0.00000000000E+00 0.  1.
         -2   -1    0    0    0  501 -0.00000000000E+00 -0.00000000000E+00 -0.33768815131E+04  0.33768815131E+04  0.00000000000E+00 0. -1.
         23    2    1    2    0    0  0.14565548982E+04  0.31189375345E+03  0.12488801044E+03  0.14975900185E+04  0.91372662901E+02 0.  0.
         11    1    3    3    0    0  0.66452677808E+03  0.12030002029E+03  0.16394045220E+02  0.67552697828E+03  0.00000000000E+00 0. -1.
        -11    1    3    3    0    0  0.79202812010E+03  0.19159373316E+03  0.10849396522E+03  0.82206304023E+03  0.00000000000E+00 0.  1.
         22    1    1    2    0    0 -0.14565548982E+04 -0.31189375345E+03 -0.24843602132E+04  0.28967008050E+04  0.00000000000E+00 0. -1.
<mgrwt>
<rscale>  0 0.37071125E+04</rscale>
<asrwt>0</asrwt>
<pdfrwt beam="1">  1        2 0.15652451E+00 0.37071125E+04</pdfrwt>
<pdfrwt beam="2">  1       -2 0.51952023E+00 0.37071125E+04</pdfrwt>
<totfact> 0.24924877E-02</totfact>
</mgrwt>
</event>
<event>
 6    1  0.2003386E-005  0.2124386E+04  0.7818608E-02  0.8550576E-01
          2   -1    0    0  501    0  0.00000000000E+00  0.00000000000E+00  0.68184210446E+03  0.68184210446E+03  0.00000000000E+00 0. -1.
         -2   -1    0    0    0  501 -0.00000000000E+00 -0.00000000000E+00 -0.16547150089E+04  0.16547150089E+04  0.00000000000E+00 0.  1.
         23    2    1    2    0    0 -0.15844018795E+03  0.88490908564E+03  0.12984098515E+03  0.91383250708E+03  0.10031842578E+03 0.  0.
         13    1    3    3    0    0 -0.74692475685E+02  0.53098315878E+03  0.31811933675E+02  0.53715368374E+03  0.00000000000E+00 0. -1.
        -13    1    3    3    0    0 -0.83747712262E+02  0.35392592686E+03  0.98029051479E+02  0.37667882334E+03  0.00000000000E+00 0.  1.
         22    1    1    2    0    0  0.15844018795E+03 -0.88490908564E+03 -0.11027138896E+04  0.14227246063E+04  0.00000000000E+00 0.  1.
<mgrwt>
<rscale>  0 0.21243864E+04</rscale>
<asrwt>0</asrwt>
<pdfrwt beam="1">  1        2 0.10489879E+00 0.21243864E+04</pdfrwt>
<pdfrwt beam="2">  1       -2 0.25457154E+00 0.21243864E+04</pdfrwt>
<totfact> 0.23461758E+00</totfact>
</mgrwt>
</event>
<event>
 6    1  0.2003386E-005  0.2351277E+04  0.7818608E-02  0.8457973E-01
         -2   -1    0    0    0  501 -0.00000000000E+00  0.00000000000E+00  0.31966464695E+03  0.31966464695E+03  0.00000000000E+00 0.  1.
          2   -1    0    0  501    0  0.00000000000E+00 -0.00000000000E+00 -0.43236735048E+04  0.43236735048E+04  0.00000000000E+00 0. -1.
         23    2    1    2    0    0  0.10834282053E+04 -0.35077120692E+03 -0.14423672351E+04  0.18399714403E+04  0.90634123247E+02 0.  0.
         11    1    3    3    0    0  0.20331873269E+03 -0.49630288646E+02 -0.21636910338E+03  0.30102701127E+03  0.00000000000E+00 0. -1.
        -11    1    3    3    0    0  0.88010947266E+03 -0.30114091827E+03 -0.12259981317E+04  0.15389444290E+04  0.00000000000E+00 0.  1.
         22    1    1    2    0    0 -0.10834282053E+04  0.35077120692E+03 -0.25616416227E+04  0.28033667115E+04  0.00000000000E+00 0. -1.
<mgrwt>
<rscale>  0 0.23512767E+04</rscale>
<asrwt>0</asrwt>
<pdfrwt beam="1">  1        2 0.66518053E+00 0.23512767E+04</pdfrwt>
<pdfrwt beam="2">  1       -2 0.49179177E-01 0.23512767E+04</pdfrwt>
<totfact> 0.64268160E-01</totfact>
</mgrwt>
</event>
<event>
 6    1  0.2003386E-005  0.5000307E+04  0.7818608E-02  0.7828460E-01
         -1   -1    0    0    0  501 -0.00000000000E+00  0.00000000000E+00  0.28008686319E+04  0.28008686319E+04  0.00000000000E+00 0.  1.
          1   -1    0    0  501    0  0.00000000000E+00 -0.00000000000E+00 -0.22317249786E+04  0.22317249786E+04  0.00000000000E+00 0. -1.
         23    2    1    2    0    0 -0.18170499504E+04  0.10049405327E+04  0.16847129814E+04  0.26754616833E+04  0.90892202922E+02 0.  0.
         13    1    3    3    0    0 -0.34398718759E+03  0.19383819483E+03  0.36710552120E+03  0.53913532133E+03  0.00000000000E+00 0.  1.
        -13    1    3    3    0    0 -0.14730627628E+04  0.81110233786E+03  0.13176074602E+04  0.21363263620E+04  0.00000000000E+00 0. -1.
         22    1    1    2    0    0  0.18170499504E+04 -0.10049405327E+04 -0.11155693282E+04  0.23571319272E+04  0.00000000000E+00 0. -1.
<mgrwt>
<rscale>  0 0.50003074E+04</rscale>
<asrwt>0</asrwt>
<pdfrwt beam="1">  1        1 0.34334231E+00 0.50003074E+04</pdfrwt>
<pdfrwt beam="2">  1       -1 0.43090286E+00 0.50003074E+04</pdfrwt>
<totfact> 0.65687151E-03</totfact>
</mgrwt>
</event>
<event>
 6    1  0.2003386E-005  0.3784261E+04  0.7818608E-02  0.8049541E-01
         -2   -1    0    0    0  501 -0.00000000000E+00  0.00000000000E+00  0.11906075435E+04  0.11906075435E+04  0.00000000000E+00 0.  1.
          2   -1    0    0  501    0  0.00000000000E+00 -0.00000000000E+00 -0.30070012984E+04  0.30070012984E+04  0.00000000000E+00 0. -1.
         23    2    1    2    0    0 -0.14014816124E+04  0.12233003912E+04 -0.12851840617E+04  0.22629775345E+04  0.93566511599E+02 0.  0.
         11    1    3    3    0    0 -0.10411810638E+04  0.85365789076E+03 -0.93525744730E+03  0.16393585010E+04  0.00000000000E+00 0. -1.
        -11    1    3    3    0    0 -0.36030054868E+03  0.36964250044E+03 -0.34992661439E+03  0.62361903352E+03  0.00000000000E+00 0.  1.
         22    1    1    2    0    0  0.14014816124E+04 -0.12233003912E+04 -0.53120969322E+03  0.19346313073E+04  0.00000000000E+00 0.  1.
<mgrwt>
<rscale>  0 0.37842613E+04</rscale>
<asrwt>0</asrwt>
<pdfrwt beam="1">  1        2 0.46261558E+00 0.37842613E+04</pdfrwt>
<pdfrwt beam="2">  1       -2 0.18317039E+00 0.37842613E+04</pdfrwt>
<totfact> 0.23846916E-01</totfact>
</mgrwt>
</event>
<event>
 6    1  0.2003386E-005  0.5125625E+04  0.7818608E-02  0.7809415E-01
         -2   -1    0    0    0  501 -0.00000000000E+00  0.00000000000E+00  0.19484609328E+04  0.19484609328E+04  0.00000000000E+00 0.  1.
          2   -1    0    0  501    0  0.00000000000E+00 -0.00000000000E+00 -0.33708691079E+04  0.33708691079E+04  0.00000000000E+00 0. -1.
         23    2    1    2    0    0 -0.83147168706E+03  0.23162736472E+04  0.27909867936E+02  0.24627777129E+04  0.89589772901E+02 0.  0.
         13    1    3    3    0    0 -0.22845861192E+03  0.68601904299E+03  0.45421128744E+02  0.72448501961E+03  0.00000000000E+00 0. -1.
        -13    1    3    3    0    0 -0.60301307514E+03  0.16302546042E+04 -0.17511260808E+02  0.17382926933E+04  0.00000000000E+00 0.  1.
         22    1    1    2    0    0  0.83147168706E+03 -0.23162736472E+04 -0.14503180430E+04  0.28565523277E+04  0.00000000000E+00 0. -1.
<mgrwt>
<rscale>  0 0.51256246E+04</rscale>
<asrwt>0</asrwt>
<pdfrwt beam="1">  1        2 0.51859524E+00 0.51256246E+04</pdfrwt>
<pdfrwt beam="2">  1       -2 0.29976322E+00 0.51256246E+04</pdfrwt>
<totfact> 0.22905703E-02</totfact>
</mgrwt>
</event>
<event>
 6    1  0.2003386E-005  0.4553757E+04  0.7818608E-02  0.7901293E-01
          2   -1    0    0  501    0  0.00000000000E+00  0.00000000000E+00  0.26565925324E+04  0.26565925324E+04  0.00000000000E+00 0. -1.
         -2   -1    0    0    0  501 -0.00000000000E+00 -0.00000000000E+00 -0.19514380551E+04  0.19514380551E+04  0.00000000000E+00 0.  1.
         23    2    1    2    0    0  0.14051278089E+04 -0.48621201627E+03  0.20964156243E+04  0.25717609926E+04  0.90608216250E+02 0.  0.
         13    1    3    3    0    0  0.31928982360E+03 -0.14838012085E+03  0.47161019281E+03  0.58853957019E+03  0.00000000000E+00 0. -1.
        -13    1    3    3    0    0  0.10858379853E+04 -0.33783189543E+03  0.16248054315E+04  0.19832214224E+04  0.00000000000E+00 0.  1.
         22    1    1    2    0    0 -0.14051278089E+04  0.48621201627E+03 -0.13912611470E+04  0.20362695949E+04  0.00000000000E+00 0.  1.
<mgrwt>
<rscale>  0 0.45537570E+04</rscale>
<asrwt>0</asrwt>
<pdfrwt beam="1">  1        2 0.40870654E+00 0.45537570E+04</pdfrwt>
<pdfrwt beam="2">  1       -2 0.30022124E+00 0.45537570E+04</pdfrwt>
<totfact> 0.67356535E-02</totfact>
</mgrwt>
</event>
<event>
 6    1  0.2003386E-005  0.2154056E+04  0.7818608E-02  0.8537798E-01
         -2   -1    0    0    0  501 -0.00000000000E+00  0.00000000000E+00  0.48757600718E+03  0.48757600718E+03  0.00000000000E+00 0.  1.
          2   -1    0    0  501    0  0.00000000000E+00 -0.00000000000E+00 -0.23790941745E+04  0.23790941745E+04  0.00000000000E+00 0. -1.
         23    2    1    2    0    0  0.62227689376E+03 -0.13613897327E+03 -0.21001034782E+04  0.21963939815E+04  0.89160250495E+02 0.  0.
         13    1    3    3    0    0  0.49429269560E+03 -0.70264435770E+02 -0.16293928882E+04  0.17041665247E+04  0.00000000000E+00 0.  1.
        -13    1    3    3    0    0  0.12798419816E+03 -0.65874537504E+02 -0.47071059002E+03  0.49222745680E+03  0.00000000000E+00 0. -1.
         22    1    1    2    0    0 -0.62227689376E+03  0.13613897327E+03  0.20858531092E+03  0.67027620015E+03  0.00000000000E+00 0.  1.
<mgrwt>
<rscale>  0 0.21540559E+04</rscale>
<asrwt>0</asrwt>
<pdfrwt beam="1">  1        2 0.36601449E+00 0.21540559E+04</pdfrwt>
<pdfrwt beam="2">  1       -2 0.75011694E-01 0.21540559E+04</pdfrwt>
<totfact> 0.59852835E+00</totfact>
</mgrwt>
</event>
<event>
 6    1  0.2003386E-005  0.1530208E+04  0.7818608E-02  0.8864610E-01
          2   -1    0    0  501    0  0.00000000000E+00  0.00000000000E+00  0.14317670554E+04  0.14317670554E+04  0.00000000000E+00 0. -1.
         -2   -1    0    0    0  501 -0.00000000000E+00 -0.00000000000E+00 -0.40885411837E+03  0.40885411837E+03  0.00000000000E+00 0.  1.
         23    2    1    2    0    0 -0.53058269511E+03  0.30827325779E+03  0.10573530606E+04  0.12260184404E+04  0.92603043427E+02 0.  0.
         13    1    3    3    0    0 -0.28862601645E+03  0.22005133298E+03  0.60742637137E+03  0.70759759974E+03  0.00000000000E+00 0.  1.
        -13    1    3    3    0    0 -0.24195667866E+03  0.88221924811E+02  0.44992668920E+03  0.51842084065E+03  0.00000000000E+00 0. -1.
         22    1    1    2    0    0  0.53058269511E+03 -0.30827325779E+03 -0.34440123502E+02  0.61460273342E+03  0.00000000000E+00 0.  1.
<mgrwt>
<rscale>  0 0.15302076E+04</rscale>
<asrwt>0</asrwt>
<pdfrwt beam="1">  1        2 0.22027185E+00 0.15302076E+04</pdfrwt>
<pdfrwt beam="2">  1       -2 0.62900634E-01 0.15302076E+04</pdfrwt>
<totfact> 0.31335441E+01</totfact>
</mgrwt>
</event>
<event>
 6    1  0.2003386E-005  0.2601120E+04  0.7818608E-02  0.8367821E-01
          2   -1    0    0  501    0  0.00000000000E+00  0.00000000000E+00  0.15202691543E+04  0.15202691543E+04  0.00000000000E+00 0. -1.
         -2   -1    0    0    0  501 -0.00000000000E+00 -0.00000000000E+00 -0.11126029404E+04  0.11126029404E+04  0.00000000000E+00 0.  1.
         23    2    1    2    0    0  0.38549140903E+03  0.11976217043E+04 -0.12292307873E+03  0.12674321032E+04  0.91502348510E+02 0.  0.
         13    1    3    3    0    0  0.25458044403E+03  0.91641395712E+03 -0.10117991241E+03  0.95648477143E+03  0.00000000000E+00 0. -1.
        -13    1    3    3    0    0  0.13091096500E+03  0.28120774718E+03 -0.21743166319E+02  0.31094733174E+03  0.00000000000E+00 0.  1.
         22    1    1    2    0    0 -0.38549140903E+03 -0.11976217043E+04  0.53058929265E+03  0.13654399916E+04  0.00000000000E+00 0.  1.
<mgrwt>
<rscale>  0 0.26011197E+04</rscale>
<asrwt>0</asrwt>
<pdfrwt beam="1">  1        2 0.23388756E+00 0.26011197E+04</pdfrwt>
<pdfrwt beam="2">  1       -2 0.17116968E+00 0.26011197E+04</pdfrwt>
<totfact> 0.22868739E+00</totfact>
</mgrwt>
</event>
<event>
 6    1  0.2003386E-005  0.4612371E+04  0.7818608E-02  0.7891254E-01
         -2   -1    0    0    0  501 -0.00000000000E+00  0.00000000000E+00  0.20377043727E+04  0.20377043727E+04  0.00000000000E+00 0.  1.
          2   -1    0    0  501    0  0.00000000000E+00 -0.00000000000E+00 -0.26100407342E+04  0.26100407342E+04  0.00000000000E+00 0. -1.
         23    2    1    2    0    0  0.93805345987E+03  0.97318919996E+03 -0.21680271744E+04  0.25565084673E+04  0.91390383292E+02 0.  0.
         13    1    3    3    0    0  0.80973950774E+03  0.87868697594E+03 -0.19350170148E+04  0.22742162869E+04  0.00000000000E+00 0. -1.
        -13    1    3    3    0    0  0.12831395213E+03  0.94502224021E+02 -0.23301015961E+03  0.28229218045E+03  0.00000000000E+00 0.  1.
         22    1    1    2    0    0 -0.93805345987E+03 -0.97318919996E+03  0.15956908128E+04  0.20912366396E+04  0.00000000000E+00 0.  1.
<mgrwt>
<rscale>  0 0.46123709E+04</rscale>
<asrwt>0</asrwt>
<pdfrwt beam="1">  1        2 0.40154473E+00 0.46123709E+04</pdfrwt>
<pdfrwt beam="2">  1       -2 0.31349298E+00 0.46123709E+04</pdfrwt>
<totfact> 0.59198755E-02</totfact>
</mgrwt>
</event>
<event>
 6    1  0.2003386E-005  0.5428939E+04  0.7818608E-02  0.7765544E-01
         -2   -1    0    0    0  501 -0.00000000000E+00  0.00000000000E+00  0.26581542910E+04  0.26581542910E+04  0.00000000000E+00 0.  1.
          2   -1    0    0  501    0  0.00000000000E+00 -0.00000000000E+00 -0.27719780821E+04  0.27719780821E+04  0.00000000000E+00 0. -1.
         23    2    1    2    0    0  0.59606770857E+03  0.23933839301E+04  0.10749252376E+04  0.26921207582E+04  0.92013911824E+02 0.  0.
         11    1    3    3    0    0  0.37667703573E+03  0.15047525325E+04  0.62738552145E+03  0.16732538259E+04  0.00000000000E+00 0. -1.
        -11    1    3    3    0    0  0.21939067284E+03  0.88863139760E+03  0.44753971617E+03  0.10188669323E+04  0.00000000000E+00 0.  1.
         22    1    1    2    0    0 -0.59606770857E+03 -0.23933839301E+04 -0.11887490288E+04  0.27380116149E+04  0.00000000000E+00 0. -1.
<mgrwt>
<rscale>  0 0.54289393E+04</rscale>
<asrwt>0</asrwt>
<pdfrwt beam="1">  1        2 0.42645817E+00 0.54289393E+04</pdfrwt>
<pdfrwt beam="2">  1       -2 0.40894681E+00 0.54289393E+04</pdfrwt>
<totfact> 0.10984931E-02</totfact>
</mgrwt>
</event>
<event>
 6    1  0.2003386E-005  0.2185867E+04  0.7818608E-02  0.8524334E-01
         -2   -1    0    0    0  501 -0.00000000000E+00  0.00000000000E+00  0.81483454822E+03  0.81483454822E+03  0.00000000000E+00 0.  1.
          2   -1    0    0  501    0  0.00000000000E+00 -0.00000000000E+00 -0.14659461835E+04  0.14659461835E+04  0.00000000000E+00 0. -1.
         23    2    1    2    0    0 -0.76195941356E+03  0.55608238783E+03  0.24599688830E+03  0.97900752834E+03  0.90174838716E+02 0.  0.
         11    1    3    3    0    0 -0.37212741202E+03  0.26005590052E+03  0.16395542320E+03  0.48268961348E+03  0.00000000000E+00 0.  1.
        -11    1    3    3    0    0 -0.38983200154E+03  0.29602648731E+03  0.82041465098E+02  0.49631791486E+03  0.00000000000E+00 0. -1.
         22    1    1    2    0    0  0.76195941356E+03 -0.55608238783E+03 -0.89710852360E+03  0.13017732034E+04  0.00000000000E+00 0. -1.
<mgrwt>
<rscale>  0 0.21858670E+04</rscale>
<asrwt>0</asrwt>
<pdfrwt beam="1">  1        2 0.22553018E+00 0.21858670E+04</pdfrwt>
<pdfrwt beam="2">  1       -2 0.12535916E+00 0.21858670E+04</pdfrwt>
<totfact> 0.57818690E+00</totfact>
</mgrwt>
</event>
<event>
 6    1  0.2003386E-005  0.2186136E+04  0.7818608E-02  0.8524221E-01
          2   -1    0    0  501    0  0.00000000000E+00  0.00000000000E+00  0.17376309320E+04  0.17376309320E+04  0.00000000000E+00 0. -1.
         -2   -1    0    0    0  501 -0.00000000000E+00 -0.00000000000E+00 -0.68760137098E+03  0.68760137098E+03  0.00000000000E+00 0.  1.
         23    2    1    2    0    0 -0.11416101566E+03 -0.91617889291E+03 -0.11943457962E+03  0.93524476023E+03  0.89451894459E+02 0.  0.
         13    1    3    3    0    0 -0.10544881817E+03 -0.50982356986E+03 -0.51466734594E+02  0.52315232046E+03  0.00000000000E+00 0. -1.
        -13    1    3    3    0    0 -0.87121974927E+01 -0.40635532305E+03 -0.67967845023E+02  0.41209243977E+03  0.00000000000E+00 0.  1.
         22    1    1    2    0    0  0.11416101566E+03  0.91617889291E+03  0.11694641406E+04  0.14899875427E+04  0.00000000000E+00 0. -1.
<mgrwt>
<rscale>  0 0.21861358E+04</rscale>
<asrwt>0</asrwt>
<pdfrwt beam="1">  1        2 0.26732784E+00 0.21861358E+04</pdfrwt>
<pdfrwt beam="2">  1       -2 0.10578483E+00 0.21861358E+04</pdfrwt>
<totfact> 0.61750381E+00</totfact>
</mgrwt>
</event>
<event>
 6    1  0.2003386E-005  0.1402715E+04  0.7818608E-02  0.8951855E-01
         -2   -1    0    0    0  501 -0.00000000000E+00  0.00000000000E+00  0.59094089775E+03  0.59094089775E+03  0.00000000000E+00 0.  1.
          2   -1    0    0  501    0  0.00000000000E+00 -0.00000000000E+00 -0.83240590333E+03  0.83240590333E+03  0.00000000000E+00 0. -1.
         23    2    1    2    0    0 -0.57987308121E+03 -0.27996587464E+03  0.15254226926E+03  0.66844587121E+03  0.94430172922E+02 0.  0.
         11    1    3    3    0    0 -0.23599878985E+03 -0.16491601128E+03  0.57664666967E+02  0.29362890424E+03  0.00000000000E+00 0. -1.
        -11    1    3    3    0    0 -0.34387429136E+03 -0.11504986336E+03  0.94877602294E+02  0.37481696697E+03  0.00000000000E+00 0.  1.
         22    1    1    2    0    0  0.57987308121E+03  0.27996587464E+03 -0.39400727485E+03  0.75490092986E+03  0.00000000000E+00 0. -1.
<mgrwt>
<rscale>  0 0.14027155E+04</rscale>
<asrwt>0</asrwt>
<pdfrwt beam="1">  1        2 0.12806245E+00 0.14027155E+04</pdfrwt>
<pdfrwt beam="2">  1       -2 0.90913985E-01 0.14027155E+04</pdfrwt>
<totfact> 0.32817807E+01</totfact>
</mgrwt>
</event>
<event>
 6    1  0.2003386E-005  0.4310213E+04  0.7818608E-02  0.7944732E-01
         -2   -1    0    0    0  501 -0.00000000000E+00  0.00000000000E+00  0.25416085598E+04  0.25416085598E+04  0.00000000000E+00 0. -1.
          2   -1    0    0  501    0  0.00000000000E+00 -0.00000000000E+00 -0.18273794549E+04  0.18273794549E+04  0.00000000000E+00 0.  1.
         23    2    1    2    0    0  0.13091383310E+04  0.15414736325E+04 -0.39498804412E+03  0.20624003158E+04  0.86575851830E+02 0.  0.
         11    1    3    3    0    0  0.39646516447E+03  0.52851626758E+03 -0.12151919057E+03  0.67177450489E+03  0.00000000000E+00 0. -1.
        -11    1    3    3    0    0  0.91267316654E+03  0.10129573649E+04 -0.27346885356E+03  0.13906258109E+04  0.00000000000E+00 0.  1.
         22    1    1    2    0    0 -0.13091383310E+04 -0.15414736325E+04  0.11092171490E+04  0.23065876989E+04  0.00000000000E+00 0. -1.
<mgrwt>
<rscale>  0 0.43102126E+04</rscale>
<asrwt>0</asrwt>
<pdfrwt beam="1">  1        2 0.28113530E+00 0.43102126E+04</pdfrwt>
<pdfrwt beam="2">  1       -2 0.39101670E+00 0.43102126E+04</pdfrwt>
<totfact> 0.54448184E-02</totfact>
</mgrwt>
</event>
<event>
 6    1  0.2003386E-005  0.1474045E+04  0.7818608E-02  0.8901898E-01
         -2   -1    0    0    0  501 -0.00000000000E+00  0.00000000000E+00  0.79736748910E+03  0.79736748910E+03  0.00000000000E+00 0.  1.
          2   -1    0    0  501    0  0.00000000000E+00 -0.00000000000E+00 -0.68124462226E+03  0.68124462226E+03  0.00000000000E+00 0. -1.
         23    2    1    2    0    0 -0.21310589205E+03  0.56077590656E+03  0.48288463906E+03  0.77547774571E+03  0.91128595147E+02 0.  0.
         11    1    3    3    0    0 -0.63116511112E+02  0.87676393179E+02  0.11430244898E+03  0.15727648819E+03  0.00000000000E+00 0. -1.
        -11    1    3    3    0    0 -0.14998938094E+03  0.47309951338E+03  0.36858219008E+03  0.61820125751E+03  0.00000000000E+00 0.  1.
         22    1    1    2    0    0  0.21310589205E+03 -0.56077590656E+03 -0.36676177222E+03  0.70313436565E+03  0.00000000000E+00 0. -1.
<mgrwt>
<rscale>  0 0.14740452E+04</rscale>
<asrwt>0</asrwt>
<pdfrwt beam="1">  1        2 0.10480686E+00 0.14740452E+04</pdfrwt>
<pdfrwt beam="2">  1       -2 0.12267192E+00 0.14740452E+04</pdfrwt>
<totfact> 0.20627802E+01</totfact>
</mgrwt>
</event>
<event>
 6    1  0.2003386E-005  0.2758932E+04  0.7818608E-02  0.8316133E-01
          2   -1    0    0  501    0  0.00000000000E+00  0.00000000000E+00  0.10560477481E+04  0.10560477481E+04  0.00000000000E+00 0. -1.
         -2   -1    0    0    0  501 -0.00000000000E+00 -0.00000000000E+00 -0.18019316373E+04  0.18019316373E+04  0.00000000000E+00 0.  1.
         23    2    1    2    0    0 -0.20579603369E+03 -0.10685097765E+04  0.50260993585E+03  0.12018386966E+04  0.87945181766E+02 0.  0.
         13    1    3    3    0    0 -0.43717203342E+02 -0.38047338209E+03  0.14347733181E+03  0.40897057730E+03  0.00000000000E+00 0.  1.
        -13    1    3    3    0    0 -0.16207883035E+03 -0.68803639440E+03  0.35913260405E+03  0.79286811927E+03  0.00000000000E+00 0. -1.
         22    1    1    2    0    0  0.20579603369E+03  0.10685097765E+04 -0.12484938250E+04  0.16561406888E+04  0.00000000000E+00 0.  1.
<mgrwt>
<rscale>  0 0.27589316E+04</rscale>
<asrwt>0</asrwt>
<pdfrwt beam="1">  1        2 0.16246889E+00 0.27589316E+04</pdfrwt>
<pdfrwt beam="2">  1       -2 0.27722025E+00 0.27589316E+04</pdfrwt>
<totfact> 0.88711203E-01</totfact>
</mgrwt>
</event>
<event>
 6    1  0.2003386E-005  0.1321385E+04  0.7818608E-02  0.9012777E-01
          1   -1    0    0  501    0  0.00000000000E+00  0.00000000000E+00  0.29232796602E+03  0.29232796602E+03  0.00000000000E+00 0. -1.
         -1   -1    0    0    0  501 -0.00000000000E+00 -0.00000000000E+00 -0.14932354653E+04  0.14932354653E+04  0.00000000000E+00 0.  1.
         23    2    1    2    0    0  0.21892150096E+03  0.20165921632E+03  0.18869535905E+03  0.36444092886E+03  0.92834201652E+02 0.  0.
         11    1    3    3    0    0  0.93615546535E+02  0.14119875112E+03  0.12950986568E+03  0.21324578115E+03  0.00000000000E+00 0.  1.
        -11    1    3    3    0    0  0.12530595442E+03  0.60460465195E+02  0.59185493367E+02  0.15119514771E+03  0.00000000000E+00 0. -1.
         22    1    1    2    0    0 -0.21892150096E+03 -0.20165921632E+03 -0.13896028583E+04  0.14211225024E+04  0.00000000000E+00 0.  1.
<mgrwt>
<rscale>  0 0.13213849E+04</rscale>
<asrwt>0</asrwt>
<pdfrwt beam="1">  1        1 0.44973534E-01 0.13213849E+04</pdfrwt>
<pdfrwt beam="2">  1       -1 0.22972853E+00 0.13213849E+04</pdfrwt>
<totfact> 0.84381245E+00</totfact>
</mgrwt>
</event>
<event>
 6    1  0.2003386E-005  0.1290478E+04  0.7818608E-02  0.9037151E-01
          2   -1    0    0  501    0  0.00000000000E+00  0.00000000000E+00  0.15234288725E+04  0.15234288725E+04  0.00000000000E+00 0. -1.
         -2   -1    0    0    0  501 -0.00000000000E+00 -0.00000000000E+00 -0.27328683501E+03  0.27328683501E+03  0.00000000000E+00 0.  1.
         23    2    1    2    0    0  0.48353638014E+03  0.19305668810E+03  0.11505638587E+04  0.12666269136E+04  0.97304827493E+02 0.  0.
         11    1    3    3    0    0  0.11635553316E+03  0.52362143357E+02  0.39140291326E+03  0.41167541177E+03  0.00000000000E+00 0.  1.
        -11    1    3    3    0    0  0.36718084698E+03  0.14069454475E+03  0.75916094546E+03  0.85495150179E+03  0.00000000000E+00 0. -1.
         22    1    1    2    0    0 -0.48353638014E+03 -0.19305668810E+03  0.99578178727E+02  0.53008879390E+03  0.00000000000E+00 0.  1.
<mgrwt>
<rscale>  0 0.12904775E+04</rscale>
<asrwt>0</asrwt>
<pdfrwt beam="1">  1        2 0.23437367E+00 0.12904775E+04</pdfrwt>
<pdfrwt beam="2">  1       -2 0.42044130E-01 0.12904775E+04</pdfrwt>
<totfact> 0.64723142E+01</totfact>
</mgrwt>
</event>
<event>
 6    1  0.2003386E-005  0.6766881E+04  0.7818608E-02  0.7601967E-01
          2   -1    0    0  501    0  0.00000000000E+00  0.00000000000E+00  0.32135566189E+04  0.32135566189E+04  0.00000000000E+00 0. -1.
         -2   -1    0    0    0  501 -0.00000000000E+00 -0.00000000000E+00 -0.35623056536E+04  0.35623056536E+04  0.00000000000E+00 0.  1.
         23    2    1    2    0    0  0.12118282062E+03 -0.67886038725E+03  0.31417961558E+04  0.32178512511E+04  0.90260115359E+02 0.  0.
         11    1    3    3    0    0  0.94119281966E+02 -0.34893008369E+03  0.17891656295E+04  0.18253011511E+04  0.00000000000E+00 0. -1.
        -11    1    3    3    0    0  0.27063538658E+02 -0.32993030356E+03  0.13526305263E+04  0.13925501000E+04  0.00000000000E+00 0.  1.
         22    1    1    2    0    0 -0.12118282062E+03  0.67886038725E+03 -0.34905451904E+04  0.35580110213E+04  0.00000000000E+00 0.  1.
<mgrwt>
<rscale>  0 0.67668814E+04</rscale>
<asrwt>0</asrwt>
<pdfrwt beam="1">  1        2 0.49439333E+00 0.67668814E+04</pdfrwt>
<pdfrwt beam="2">  1       -2 0.54804702E+00 0.67668814E+04</pdfrwt>
<totfact> 0.72010627E-04</totfact>
</mgrwt>
</event>
<event>
 6    1  0.2003386E-005  0.3472188E+04  0.7818608E-02  0.8120413E-01
         -2   -1    0    0    0  501 -0.00000000000E+00  0.00000000000E+00  0.19778960511E+04  0.19778960511E+04  0.00000000000E+00 0. -1.
          2   -1    0    0  501    0  0.00000000000E+00 -0.00000000000E+00 -0.15238528343E+04  0.15238528343E+04  0.00000000000E+00 0.  1.
         23    2    1    2    0    0  0.56133015983E+03  0.16415562301E+04  0.20113151635E+03  0.17485339149E+04  0.84371557583E+02 0.  0.
         11    1    3    3    0    0  0.25111551245E+03  0.61323018019E+03  0.64689168538E+02  0.66580398242E+03  0.00000000000E+00 0.  1.
        -11    1    3    3    0    0  0.31021464739E+03  0.10283260499E+04  0.13644234781E+03  0.10827299324E+04  0.00000000000E+00 0. -1.
         22    1    1    2    0    0 -0.56133015983E+03 -0.16415562301E+04  0.25291170049E+03  0.17532149706E+04  0.00000000000E+00 0. -1.
<mgrwt>
<rscale>  0 0.34721881E+04</rscale>
<asrwt>0</asrwt>
<pdfrwt beam="1">  1        2 0.23443890E+00 0.34721881E+04</pdfrwt>
<pdfrwt beam="2">  1       -2 0.30429170E+00 0.34721881E+04</pdfrwt>
<totfact> 0.30316393E-01</totfact>
</mgrwt>
</event>
<event>
 6    1  0.2003386E-005  0.4652422E+04  0.7818608E-02  0.7884482E-01
          2   -1    0    0  501    0  0.00000000000E+00  0.00000000000E+00  0.32000151644E+04  0.32000151644E+04  0.00000000000E+00 0. -1.
         -2   -1    0    0    0  501 -0.00000000000E+00 -0.00000000000E+00 -0.16910096772E+04  0.16910096772E+04  0.00000000000E+00 0.  1.
         23    2    1    2    0    0  0.94734611892E+03 -0.90384345858E+02  0.29852592155E+04  0.31346196864E+04  0.91836788065E+02 0.  0.
         11    1    3    3    0    0  0.54414666444E+03 -0.76268182109E+02  0.18456138020E+04  0.19256694250E+04  0.00000000000E+00 0.  1.
        -11    1    3    3    0    0  0.40319945447E+03 -0.14116163750E+02  0.11396454135E+04  0.12089502614E+04  0.00000000000E+00 0. -1.
         22    1    1    2    0    0 -0.94734611892E+03  0.90384345858E+02 -0.14762537282E+04  0.17564051552E+04  0.00000000000E+00 0.  1.
<mgrwt>
<rscale>  0 0.46524216E+04</rscale>
<asrwt>0</asrwt>
<pdfrwt beam="1">  1        2 0.49231002E+00 0.46524216E+04</pdfrwt>
<pdfrwt beam="2">  1       -2 0.26015534E+00 0.46524216E+04</pdfrwt>
<totfact> 0.53977731E-02</totfact>
</mgrwt>
</event>
<event>
 6    1  0.2003386E-005  0.3550392E+04  0.7818608E-02  0.8101951E-01
         -2   -1    0    0    0  501 -0.00000000000E+00  0.00000000000E+00  0.16072873346E+04  0.16072873346E+04  0.00000000000E+00 0.  1.
          2   -1    0    0  501    0  0.00000000000E+00 -0.00000000000E+00 -0.19606451297E+04  0.19606451297E+04  0.00000000000E+00 0. -1.
         23    2    1    2    0    0 -0.44415769679E+03  0.70458225513E+03 -0.17508457656E+04  0.19410689662E+04  0.92604658183E+02 0.  0.
         11    1    3    3    0    0 -0.26587313235E+03  0.35906950821E+03 -0.10096464606E+04  0.11040857800E+04  0.00000000000E+00 0. -1.
        -11    1    3    3    0    0 -0.17828456444E+03  0.34551274693E+03 -0.74119930502E+03  0.83698318620E+03  0.00000000000E+00 0.  1.
         22    1    1    2    0    0  0.44415769679E+03 -0.70458225513E+03  0.13974879705E+04  0.16268634981E+04  0.00000000000E+00 0.  1.
<mgrwt>
<rscale>  0 0.35503916E+04</rscale>
<asrwt>0</asrwt>
<pdfrwt beam="1">  1        2 0.30163771E+00 0.35503916E+04</pdfrwt>
<pdfrwt beam="2">  1       -2 0.24727497E+00 0.35503916E+04</pdfrwt>
<totfact> 0.38410623E-01</totfact>
</mgrwt>
</event>
<event>
 6    1  0.2003386E-005  0.2276722E+04  0.7818608E-02  0.8487156E-01
         -2   -1    0    0    0  501 -0.00000000000E+00  0.00000000000E+00  0.94484411137E+03  0.94484411137E+03  0.00000000000E+00 0.  1.
          2   -1    0    0  501    0  0.00000000000E+00 -0.00000000000E+00 -0.13715129133E+04  0.13715129133E+04  0.00000000000E+00 0. -1.
         23    2    1    2    0    0 -0.36386222695E+02 -0.10152385564E+04  0.30554245740E+03  0.10640924312E+04  0.83085650010E+02 0.  0.
         13    1    3    3    0    0  0.24827312413E+01 -0.74131271248E+03  0.24619431900E+03  0.78112889099E+03  0.00000000000E+00 0. -1.
        -13    1    3    3    0    0 -0.38868953936E+02 -0.27392584396E+03  0.59348138395E+02  0.28296354023E+03  0.00000000000E+00 0.  1.
         22    1    1    2    0    0  0.36386222695E+02  0.10152385564E+04 -0.73221125931E+03  0.12522645934E+04  0.00000000000E+00 0. -1.
<mgrwt>
<rscale>  0 0.22767221E+04</rscale>
<asrwt>0</asrwt>
<pdfrwt beam="1">  1        2 0.21100199E+00 0.22767221E+04</pdfrwt>
<pdfrwt beam="2">  1       -2 0.14536063E+00 0.22767221E+04</pdfrwt>
<totfact> 0.44440461E+00</totfact>
</mgrwt>
</event>
<event>
 6    1  0.2003386E-005  0.1045128E+04  0.7818608E-02  0.9260388E-01
         -1   -1    0    0    0  501 -0.00000000000E+00  0.00000000000E+00  0.10861402345E+03  0.10861402345E+03  0.00000000000E+00 0.  1.
          1   -1    0    0  501    0  0.00000000000E+00 -0.00000000000E+00 -0.25141617903E+04  0.25141617903E+04  0.00000000000E+00 0. -1.
         23    2    1    2    0    0 -0.48869566616E+03  0.78241033984E+02 -0.82573185952E+03  0.96725069628E+03  0.93785351219E+02 0.  0.
         11    1    3    3    0    0 -0.18172119742E+03  0.44701937877E+02 -0.39689110222E+03  0.43879767988E+03  0.00000000000E+00 0. -1.
        -11    1    3    3    0    0 -0.30697446874E+03  0.33539096108E+02 -0.42884075730E+03  0.52845301640E+03  0.00000000000E+00 0.  1.
         22    1    1    2    0    0  0.48869566616E+03 -0.78241033984E+02 -0.15798159073E+04  0.16555251175E+04  0.00000000000E+00 0. -1.
<mgrwt>
<rscale>  0 0.10451282E+04</rscale>
<asrwt>0</asrwt>
<pdfrwt beam="1">  1        1 0.38679412E+00 0.10451282E+04</pdfrwt>
<pdfrwt beam="2">  1       -1 0.16709850E-01 0.10451282E+04</pdfrwt>
<totfact> 0.36914286E+01</totfact>
</mgrwt>
</event>
<event>
 6    1  0.2003386E-005  0.1997374E+04  0.7818608E-02  0.8607849E-01
         -2   -1    0    0    0  501 -0.00000000000E+00  0.00000000000E+00  0.20402376104E+04  0.20402376104E+04  0.00000000000E+00 0.  1.
          2   -1    0    0  501    0  0.00000000000E+00 -0.00000000000E+00 -0.48885281702E+03  0.48885281702E+03  0.00000000000E+00 0. -1.
         23    2    1    2    0    0 -0.86689346772E+03  0.18796423461E+03  0.20199753163E+03  0.91425891298E+03  0.90727720676E+02 0.  0.
         13    1    3    3    0    0 -0.65968197817E+03  0.12089846923E+03  0.11877194905E+03  0.68110463812E+03  0.00000000000E+00 0. -1.
        -13    1    3    3    0    0 -0.20721148955E+03  0.67065765386E+02  0.83225582581E+02  0.23315427486E+03  0.00000000000E+00 0.  1.
         22    1    1    2    0    0  0.86689346772E+03 -0.18796423461E+03  0.13493872617E+04  0.16148315144E+04  0.00000000000E+00 0.  1.
<mgrwt>
<rscale>  0 0.19973742E+04</rscale>
<asrwt>0</asrwt>
<pdfrwt beam="1">  1        2 0.75208127E-01 0.19973742E+04</pdfrwt>
<pdfrwt beam="2">  1       -2 0.31388271E+00 0.19973742E+04</pdfrwt>
<totfact> 0.15364652E+00</totfact>
</mgrwt>
</event>
<event>
 6    1  0.2003386E-005  0.3651123E+04  0.7818608E-02  0.8078881E-01
          2   -1    0    0  501    0  0.00000000000E+00  0.00000000000E+00  0.38889635524E+04  0.38889635524E+04  0.00000000000E+00 0. -1.
         -2   -1    0    0    0  501 -0.00000000000E+00 -0.00000000000E+00 -0.85695697164E+03  0.85695697164E+03  0.00000000000E+00 0.  1.
         23    2    1    2    0    0 -0.79515856592E+03 -0.15982841724E+04  0.10273393312E+04  0.20616179661E+04  0.89739044782E+02 0.  0.
         13    1    3    3    0    0 -0.16311247583E+03 -0.35189630982E+03  0.18297813492E+03  0.42885625855E+03  0.00000000000E+00 0. -1.
        -13    1    3    3    0    0 -0.63204609008E+03 -0.12463878626E+04  0.84436119624E+03  0.16327617076E+04  0.00000000000E+00 0.  1.
         22    1    1    2    0    0  0.79515856592E+03  0.15982841724E+04  0.20046672496E+04  0.26843025579E+04  0.00000000000E+00 0.  1.
<mgrwt>
<rscale>  0 0.36511228E+04</rscale>
<asrwt>0</asrwt>
<pdfrwt beam="1">  1        2 0.59830207E+00 0.36511228E+04</pdfrwt>
<pdfrwt beam="2">  1       -2 0.13183954E+00 0.36511228E+04</pdfrwt>
<totfact> 0.14224765E-01</totfact>
</mgrwt>
</event>
<event>
 6    1  0.2003386E-005  0.4922356E+04  0.7818608E-02  0.7840597E-01
         -2   -1    0    0    0  501 -0.00000000000E+00  0.00000000000E+00  0.19558430182E+04  0.19558430182E+04  0.00000000000E+00 0.  1.
          2   -1    0    0  501    0  0.00000000000E+00 -0.00000000000E+00 -0.30970767489E+04  0.30970767489E+04  0.00000000000E+00 0. -1.
         23    2    1    2    0    0  0.87443211772E+03 -0.16065281998E+04 -0.22600035199E+04  0.29088091761E+04  0.89389751603E+02 0.  0.
         11    1    3    3    0    0  0.29246573156E+03 -0.57802816679E+03 -0.74038201562E+03  0.98377756368E+03  0.00000000000E+00 0. -1.
        -11    1    3    3    0    0  0.58196638616E+03 -0.10285000330E+04 -0.15196215043E+04  0.19250316124E+04  0.00000000000E+00 0.  1.
         22    1    1    2    0    0 -0.87443211772E+03  0.16065281998E+04  0.11187697892E+04  0.21441105910E+04  0.00000000000E+00 0.  1.
<mgrwt>
<rscale>  0 0.49223555E+04</rscale>
<asrwt>0</asrwt>
<pdfrwt beam="1">  1        2 0.47647335E+00 0.49223555E+04</pdfrwt>
<pdfrwt beam="2">  1       -2 0.30089893E+00 0.49223555E+04</pdfrwt>
<totfact> 0.34719734E-02</totfact>
</mgrwt>
</event>
<event>
 6    1  0.2003386E-005  0.1652617E+04  0.7818608E-02  0.8788860E-01
          2   -1    0    0  501    0  0.00000000000E+00  0.00000000000E+00  0.15730039760E+04  0.15730039760E+04  0.00000000000E+00 0. -1.
         -2   -1    0    0    0  501 -0.00000000000E+00 -0.00000000000E+00 -0.43406500503E+03  0.43406500503E+03  0.00000000000E+00 0.  1.
         23    2    1    2    0    0 -0.20092512871E+03  0.78873696034E+03  0.72464800301E+03  0.10937706146E+04  0.93501492897E+02 0.  0.
         11    1    3    3    0    0 -0.37230870735E+02  0.92502168419E+02  0.12869456081E+03  0.16280380487E+03  0.00000000000E+00 0. -1.
        -11    1    3    3    0    0 -0.16369425798E+03  0.69623479192E+03  0.59595344219E+03  0.93096680974E+03  0.00000000000E+00 0.  1.
         22    1    1    2    0    0  0.20092512871E+03 -0.78873696034E+03  0.41429096796E+03  0.91329836641E+03  0.00000000000E+00 0.  1.
<mgrwt>
<rscale>  0 0.16526173E+04</rscale>
<asrwt>0</asrwt>
<pdfrwt beam="1">  1        2 0.24200061E+00 0.16526173E+04</pdfrwt>
<pdfrwt beam="2">  1       -2 0.66779233E-01 0.16526173E+04</pdfrwt>
<totfact> 0.22711073E+01</totfact>
</mgrwt>
</event>
<event>
 6    1  0.2003386E-005  0.4775903E+04  0.7818608E-02  0.7864038E-01
          2   -1    0    0  501    0  0.00000000000E+00  0.00000000000E+00  0.30724314748E+04  0.30724314748E+04  0.00000000000E+00 0. -1.
         -2   -1    0    0    0  501 -0.00000000000E+00 -0.00000000000E+00 -0.18559604849E+04  0.18559604849E+04  0.00000000000E+00 0.  1.
         23    2    1    2    0    0 -0.10938653965E+04 -0.15677123570E+04  0.20837376149E+04  0.28292457194E+04  0.91680711790E+02 0.  0.
         11    1    3    3    0    0 -0.26901393039E+03 -0.38619742405E+03  0.57265707476E+03  0.74125101710E+03  0.00000000000E+00 0.  1.
        -11    1    3    3    0    0 -0.82485146609E+03 -0.11815149329E+04  0.15110805402E+04  0.20879947023E+04  0.00000000000E+00 0. -1.
         22    1    1    2    0    0  0.10938653965E+04  0.15677123570E+04 -0.86726662501E+03  0.20991462404E+04  0.00000000000E+00 0.  1.
<mgrwt>
<rscale>  0 0.47759026E+04</rscale>
<asrwt>0</asrwt>
<pdfrwt beam="1">  1        2 0.47268176E+00 0.47759026E+04</pdfrwt>
<pdfrwt beam="2">  1       -2 0.28553238E+00 0.47759026E+04</pdfrwt>
<totfact> 0.45217925E-02</totfact>
</mgrwt>
</event>
<event>
 6    1  0.2003386E-005  0.1802652E+04  0.7818608E-02  0.8704891E-01
          1   -1    0    0  501    0  0.00000000000E+00  0.00000000000E+00  0.11982729597E+04  0.11982729597E+04  0.00000000000E+00 0. -1.
         -1   -1    0    0    0  501 -0.00000000000E+00 -0.00000000000E+00 -0.67796593134E+03  0.67796593134E+03  0.00000000000E+00 0.  1.
         23    2    1    2    0    0  0.67439245632E+01 -0.88389464602E+03  0.90113387307E+02  0.89319169247E+03  0.91409797877E+02 0.  0.
         11    1    3    3    0    0 -0.49066490554E+01 -0.58174767754E+03  0.10173617269E+03  0.59059688821E+03  0.00000000000E+00 0.  1.
        -11    1    3    3    0    0  0.11650573619E+02 -0.30214696848E+03 -0.11622785382E+02  0.30259480427E+03  0.00000000000E+00 0. -1.
         22    1    1    2    0    0 -0.67439245632E+01  0.88389464602E+03  0.43019364102E+03  0.98304719854E+03  0.00000000000E+00 0. -1.
<mgrwt>
<rscale>  0 0.18026517E+04</rscale>
<asrwt>0</asrwt>
<pdfrwt beam="1">  1        1 0.18434969E+00 0.18026517E+04</pdfrwt>
<pdfrwt beam="2">  1       -1 0.10430245E+00 0.18026517E+04</pdfrwt>
<totfact> 0.87431289E+00</totfact>
</mgrwt>
</event>
<event>
 6    1  0.2003386E-005  0.2785504E+04  0.7818608E-02  0.8307783E-01
          2   -1    0    0  501    0  0.00000000000E+00  0.00000000000E+00  0.16608041962E+04  0.16608041962E+04  0.00000000000E+00 0. -1.
         -2   -1    0    0    0  501 -0.00000000000E+00 -0.00000000000E+00 -0.11679627704E+04  0.11679627704E+04  0.00000000000E+00 0.  1.
         23    2    1    2    0    0  0.58607351073E+03  0.10261827935E+04 -0.49897373801E+03  0.12859673668E+04  0.90575889571E+02 0.  0.
         13    1    3    3    0    0  0.39412698137E+03  0.75415496942E+03 -0.33077072353E+03  0.91295951000E+03  0.00000000000E+00 0.  1.
        -13    1    3    3    0    0  0.19194652937E+03  0.27202782404E+03 -0.16820301448E+03  0.37300785685E+03  0.00000000000E+00 0. -1.
         22    1    1    2    0    0 -0.58607351073E+03 -0.10261827935E+04  0.99181516384E+03  0.15427995997E+04  0.00000000000E+00 0. -1.
<mgrwt>
<rscale>  0 0.27855035E+04</rscale>
<asrwt>0</asrwt>
<pdfrwt beam="1">  1        2 0.25550834E+00 0.27855035E+04</pdfrwt>
<pdfrwt beam="2">  1       -2 0.17968658E+00 0.27855035E+04</pdfrwt>
<totfact> 0.16375060E+00</totfact>
</mgrwt>
</event>
<event>
 6    1  0.2003386E-005  0.1662734E+04  0.7818608E-02  0.8782909E-01
          2   -1    0    0  501    0  0.00000000000E+00  0.00000000000E+00  0.20179887990E+04  0.20179887990E+04  0.00000000000E+00 0. -1.
         -2   -1    0    0    0  501 -0.00000000000E+00 -0.00000000000E+00 -0.34250493567E+03  0.34250493567E+03  0.00000000000E+00 0.  1.
         23    2    1    2    0    0 -0.57018436306E+03  0.15182765005E+03  0.16669738022E+04  0.17703799623E+04  0.85332939863E+02 0.  0.
         11    1    3    3    0    0 -0.11802791623E+03  0.42470269693E+02  0.46205214929E+03  0.47877604522E+03  0.00000000000E+00 0.  1.
        -11    1    3    3    0    0 -0.45215644683E+03  0.10935738036E+03  0.12049216529E+04  0.12916039171E+04  0.00000000000E+00 0. -1.
         22    1    1    2    0    0  0.57018436306E+03 -0.15182765005E+03  0.85100611592E+01  0.59011377237E+03  0.00000000000E+00 0.  1.
<mgrwt>
<rscale>  0 0.16627340E+04</rscale>
<asrwt>0</asrwt>
<pdfrwt beam="1">  1        2 0.31045981E+00 0.16627340E+04</pdfrwt>
<pdfrwt beam="2">  1       -2 0.52693068E-01 0.16627340E+04</pdfrwt>
<totfact> 0.21173871E+01</totfact>
</mgrwt>
</event>
<event>
 6    1  0.2003386E-005  0.4510850E+04  0.7818608E-02  0.7908740E-01
          2   -1    0    0  501    0  0.00000000000E+00  0.00000000000E+00  0.30367413302E+04  0.30367413302E+04  0.00000000000E+00 0. -1.
         -2   -1    0    0    0  501 -0.00000000000E+00 -0.00000000000E+00 -0.16751317834E+04  0.16751317834E+04  0.00000000000E+00 0.  1.
         23    2    1    2    0    0  0.19770971697E+04 -0.88045064310E+03  0.13405033986E+04  0.25474905173E+04  0.93016240228E+02 0.  0.
         13    1    3    3    0    0  0.11011933513E+04 -0.53912035220E+03  0.77282832316E+03  0.14493243833E+04  0.00000000000E+00 0. -1.
        -13    1    3    3    0    0  0.87590381843E+03 -0.34133029090E+03  0.56767507541E+03  0.10981661340E+04  0.00000000000E+00 0.  1.
         22    1    1    2    0    0 -0.19770971697E+04  0.88045064310E+03  0.21106148210E+02  0.21643825962E+04  0.00000000000E+00 0.  1.
<mgrwt>
<rscale>  0 0.45108500E+04</rscale>
<asrwt>0</asrwt>
<pdfrwt beam="1">  1        2 0.46719097E+00 0.45108500E+04</pdfrwt>
<pdfrwt beam="2">  1       -2 0.25771258E+00 0.45108500E+04</pdfrwt>
<totfact> 0.71970140E-02</totfact>
</mgrwt>
</event>
<event>
 6    1  0.2003386E-005  0.3107200E+03  0.7818608E-02  0.1080001E+00
         -2   -1    0    0    0  501 -0.00000000000E+00  0.00000000000E+00  0.29322660933E+03  0.29322660933E+03  0.00000000000E+00 0.  1.
          2   -1    0    0  501    0  0.00000000000E+00 -0.00000000000E+00 -0.82314240870E+02  0.82314240870E+02  0.00000000000E+00 0. -1.
         23    2    1    2    0    0  0.20693662261E+01  0.13944378271E+03  0.57393755261E+02  0.16813589507E+03  0.74342351678E+02 0.  0.
         13    1    3    3    0    0 -0.63245788868E+01  0.19106608913E+02 -0.17056366795E+02  0.26381479309E+02  0.00000000000E+00 0. -1.
        -13    1    3    3    0    0  0.83939451129E+01  0.12033717380E+03  0.74450122057E+02  0.14175441576E+03  0.00000000000E+00 0.  1.
         22    1    1    2    0    0 -0.20693662261E+01 -0.13944378271E+03  0.15351861320E+03  0.20740495513E+03  0.00000000000E+00 0.  1.
<mgrwt>
<rscale>  0 0.31071998E+03</rscale>
<asrwt>0</asrwt>
<pdfrwt beam="1">  1        2 0.12663730E-01 0.31071998E+03</pdfrwt>
<pdfrwt beam="2">  1       -2 0.45111786E-01 0.31071998E+03</pdfrwt>
<totfact> 0.22579153E+03</totfact>
</mgrwt>
</event>
<event>
 6    1  0.2003386E-005  0.2509542E+04  0.7818608E-02  0.8399594E-01
         -2   -1    0    0    0  501 -0.00000000000E+00  0.00000000000E+00  0.93199702498E+03  0.93199702498E+03  0.00000000000E+00 0.  1.
          2   -1    0    0  501    0  0.00000000000E+00 -0.00000000000E+00 -0.16893292292E+04  0.16893292292E+04  0.00000000000E+00 0. -1.
         23    2    1    2    0    0  0.71499524176E+03 -0.10227439421E+04 -0.49858687258E+03  0.13468959839E+04  0.91195148578E+02 0.  0.
         13    1    3    3    0    0  0.35348241693E+03 -0.57950900387E+03 -0.25281890442E+03  0.72436034063E+03  0.00000000000E+00 0. -1.
        -13    1    3    3    0    0  0.36151282483E+03 -0.44323493828E+03 -0.24576796816E+03  0.62253564332E+03  0.00000000000E+00 0.  1.
         22    1    1    2    0    0 -0.71499524176E+03  0.10227439421E+04 -0.25874533159E+03  0.12744302702E+04  0.00000000000E+00 0. -1.
<mgrwt>
<rscale>  0 0.25095416E+04</rscale>
<asrwt>0</asrwt>
<pdfrwt beam="1">  1        2 0.25989680E+00 0.25095416E+04</pdfrwt>
<pdfrwt beam="2">  1       -2 0.14338416E+00 0.25095416E+04</pdfrwt>
<totfact> 0.29903388E+00</totfact>
</mgrwt>
</event>
<event>
 6    1  0.2003386E-005  0.2231718E+04  0.7818608E-02  0.8505341E-01
         -2   -1    0    0    0  501 -0.00000000000E+00  0.00000000000E+00  0.42053574369E+03  0.42053574369E+03  0.00000000000E+00 0. -1.
          2   -1    0    0  501    0  0.00000000000E+00 -0.00000000000E+00 -0.29608462558E+04  0.29608462558E+04  0.00000000000E+00 0.  1.
         23    2    1    2    0    0 -0.80718953367E+03  0.76350947034E+03 -0.11497258333E+04  0.16014304824E+04  0.90600460190E+02 0.  0.
         13    1    3    3    0    0 -0.27064715477E+03  0.23486431994E+03 -0.42853200872E+03  0.55861508543E+03  0.00000000000E+00 0.  1.
        -13    1    3    3    0    0 -0.53654237890E+03  0.52864515040E+03 -0.72119382462E+03  0.10428153969E+04  0.00000000000E+00 0. -1.
         22    1    1    2    0    0  0.80718953367E+03 -0.76350947034E+03 -0.13905846788E+04  0.17799515172E+04  0.00000000000E+00 0.  1.
<mgrwt>
<rscale>  0 0.22317183E+04</rscale>
<asrwt>0</asrwt>
<pdfrwt beam="1">  1        2 0.45551479E+00 0.22317183E+04</pdfrwt>
<pdfrwt beam="2">  1       -2 0.64697809E-01 0.22317183E+04</pdfrwt>
<totfact> 0.37068180E+00</totfact>
</mgrwt>
</event>
<event>
 6    1  0.2003386E-005  0.2223632E+04  0.7818608E-02  0.8508656E-01
          2   -1    0    0  501    0  0.00000000000E+00  0.00000000000E+00  0.78783090305E+03  0.78783090305E+03  0.00000000000E+00 0.  1.
         -2   -1    0    0    0  501 -0.00000000000E+00 -0.00000000000E+00 -0.15690362981E+04  0.15690362981E+04  0.00000000000E+00 0. -1.
         23    2    1    2    0    0 -0.66320378549E+03  0.16248259407E+03 -0.13183469317E+04  0.14880974475E+04  0.10077463202E+03 0.  0.
         13    1    3    3    0    0 -0.49536645880E+03  0.14561286504E+03 -0.90987451758E+03  0.10461657004E+04  0.00000000000E+00 0.  1.
        -13    1    3    3    0    0 -0.16783732669E+03  0.16869729030E+02 -0.40847241410E+03  0.44193174707E+03  0.00000000000E+00 0. -1.
         22    1    1    2    0    0  0.66320378549E+03 -0.16248259407E+03  0.53714153665E+03  0.86876975365E+03  0.00000000000E+00 0.  1.
<mgrwt>
<rscale>  0 0.22236324E+04</rscale>
<asrwt>0</asrwt>
<pdfrwt beam="1">  1        2 0.12120475E+00 0.22236324E+04</pdfrwt>
<pdfrwt beam="2">  1       -2 0.24139020E+00 0.22236324E+04</pdfrwt>
<totfact> 0.23284276E+00</totfact>
</mgrwt>
</event>
<event>
 6    1  0.2003386E-005  0.2505278E+04  0.7818608E-02  0.8401108E-01
         -2   -1    0    0    0  501 -0.00000000000E+00  0.00000000000E+00  0.50823014290E+03  0.50823014290E+03  0.00000000000E+00 0. -1.
          2   -1    0    0  501    0  0.00000000000E+00 -0.00000000000E+00 -0.30873898014E+04  0.30873898014E+04  0.00000000000E+00 0.  1.
         23    2    1    2    0    0  0.33092760313E+03 -0.10062964398E+04 -0.22459566542E+04  0.24851381365E+04  0.97183650583E+02 0.  0.
         13    1    3    3    0    0  0.26059385288E+03 -0.83544785133E+03 -0.19295708074E+04  0.21187557125E+04  0.00000000000E+00 0. -1.
        -13    1    3    3    0    0  0.70333750246E+02 -0.17084858847E+03 -0.31638584682E+03  0.36638242408E+03  0.00000000000E+00 0.  1.
         22    1    1    2    0    0 -0.33092760313E+03  0.10062964398E+04 -0.33320300429E+03  0.11104818077E+04  0.00000000000E+00 0. -1.
<mgrwt>
<rscale>  0 0.25052781E+04</rscale>
<asrwt>0</asrwt>
<pdfrwt beam="1">  1        2 0.47498303E+00 0.25052781E+04</pdfrwt>
<pdfrwt beam="2">  1       -2 0.78189255E-01 0.25052781E+04</pdfrwt>
<totfact> 0.19893884E+00</totfact>
</mgrwt>
</event>
<event>
 6    1  0.2003386E-005  0.9373586E+03  0.7818608E-02  0.9380050E-01
          2   -1    0    0  501    0  0.00000000000E+00  0.00000000000E+00  0.56085786512E+03  0.56085786512E+03  0.00000000000E+00 0. -1.
         -2   -1    0    0    0  501 -0.00000000000E+00 -0.00000000000E+00 -0.39165055126E+03  0.39165055126E+03  0.00000000000E+00 0.  1.
         23    2    1    2    0    0  0.21760739625E+03  0.31325120942E+03 -0.18126273002E+03  0.43452332899E+03  0.10234767726E+03 0.  0.
         13    1    3    3    0    0  0.58245653116E+02  0.11928659174E+03 -0.15387268506E+02  0.13363612950E+03  0.00000000000E+00 0.  1.
        -13    1    3    3    0    0  0.15936174313E+03  0.19396461768E+03 -0.16587546152E+03  0.30088719949E+03  0.00000000000E+00 0. -1.
         22    1    1    2    0    0 -0.21760739625E+03 -0.31325120942E+03  0.35047004388E+03  0.51798508739E+03  0.00000000000E+00 0. -1.
<mgrwt>
<rscale>  0 0.93735861E+03</rscale>
<asrwt>0</asrwt>
<pdfrwt beam="1">  1        2 0.86285825E-01 0.93735861E+03</pdfrwt>
<pdfrwt beam="2">  1       -2 0.60253931E-01 0.93735861E+03</pdfrwt>
<totfact> 0.13836026E+02</totfact>
</mgrwt>
</event>
<event>
 6    1  0.2003386E-005  0.1274481E+04  0.7818608E-02  0.9050050E-01
         -2   -1    0    0    0  501 -0.00000000000E+00  0.00000000000E+00  0.10982943408E+04  0.10982943408E+04  0.00000000000E+00 0.  1.
          2   -1    0    0  501    0  0.00000000000E+00 -0.00000000000E+00 -0.36973299107E+03  0.36973299107E+03  0.00000000000E+00 0. -1.
         23    2    1    2    0    0 -0.43146517942E+03  0.39657908663E+03  0.64466931555E+03  0.87601800220E+03  0.91497763748E+02 0.  0.
         13    1    3    3    0    0 -0.28946946361E+03  0.31962466123E+03  0.45439485036E+03  0.62644008050E+03  0.00000000000E+00 0. -1.
        -13    1    3    3    0    0 -0.14199571581E+03  0.76954425401E+02  0.19027446519E+03  0.24957792170E+03  0.00000000000E+00 0.  1.
         22    1    1    2    0    0  0.43146517942E+03 -0.39657908663E+03  0.83892034172E+02  0.59200932966E+03  0.00000000000E+00 0. -1.
<mgrwt>
<rscale>  0 0.12744813E+04</rscale>
<asrwt>0</asrwt>
<pdfrwt beam="1">  1        2 0.56881999E-01 0.12744813E+04</pdfrwt>
<pdfrwt beam="2">  1       -2 0.16896836E+00 0.12744813E+04</pdfrwt>
<totfact> 0.18472112E+01</totfact>
</mgrwt>
</event>
<event>
 6    1  0.2003386E-005  0.3448486E+04  0.7818608E-02  0.8126108E-01
         -1   -1    0    0    0  501 -0.00000000000E+00  0.00000000000E+00  0.12416255727E+04  0.12416255727E+04  0.00000000000E+00 0. -1.
          1   -1    0    0  501    0  0.00000000000E+00 -0.00000000000E+00 -0.23944526086E+04  0.23944526086E+04  0.00000000000E+00 0.  1.
         23    2    1    2    0    0  0.17972402705E+03  0.16736102714E+04 -0.18868519020E+03  0.16962736640E+04  0.92033557853E+02 0.  0.
         11    1    3    3    0    0 -0.39263730804E+01  0.27620707482E+03 -0.24354303367E+02  0.27730650313E+03  0.00000000000E+00 0.  1.
        -11    1    3    3    0    0  0.18365040013E+03  0.13974031966E+04 -0.16433088683E+03  0.14189671609E+04  0.00000000000E+00 0. -1.
         22    1    1    2    0    0 -0.17972402705E+03 -0.16736102714E+04 -0.96414184573E+03  0.19398045172E+04  0.00000000000E+00 0.  1.
<mgrwt>
<rscale>  0 0.34484858E+04</rscale>
<asrwt>0</asrwt>
<pdfrwt beam="1">  1        1 0.36837732E+00 0.34484858E+04</pdfrwt>
<pdfrwt beam="2">  1       -1 0.19101932E+00 0.34484858E+04</pdfrwt>
<totfact> 0.22823382E-01</totfact>
</mgrwt>
</event>
<event>
 6    1  0.2003386E-005  0.2571438E+04  0.7818608E-02  0.8377968E-01
          2   -1    0    0  501    0  0.00000000000E+00  0.00000000000E+00  0.16779738064E+04  0.16779738064E+04  0.00000000000E+00 0. -1.
         -2   -1    0    0    0  501 -0.00000000000E+00 -0.00000000000E+00 -0.98516037135E+03  0.98516037135E+03  0.00000000000E+00 0.  1.
         23    2    1    2    0    0  0.12608892292E+04 -0.19756573469E+03  0.49318502425E+03  0.13713426426E+04  0.92061433325E+02 0.  0.
         11    1    3    3    0    0  0.72929847543E+03 -0.85269738006E+02  0.32123139199E+03  0.80145917032E+03  0.00000000000E+00 0.  1.
        -11    1    3    3    0    0  0.53159075378E+03 -0.11229599668E+03  0.17195363226E+03  0.56988347232E+03  0.00000000000E+00 0. -1.
         22    1    1    2    0    0 -0.12608892292E+04  0.19756573469E+03  0.19962841084E+03  0.12917915351E+04  0.00000000000E+00 0.  1.
<mgrwt>
<rscale>  0 0.25714380E+04</rscale>
<asrwt>0</asrwt>
<pdfrwt beam="1">  1        2 0.25814982E+00 0.25714380E+04</pdfrwt>
<pdfrwt beam="2">  1       -2 0.15156313E+00 0.25714380E+04</pdfrwt>
<totfact> 0.26074896E+00</totfact>
</mgrwt>
</event>
<event>
 6    1  0.2003386E-005  0.2666728E+04  0.7818608E-02  0.8345882E-01
          2   -1    0    0  501    0  0.00000000000E+00  0.00000000000E+00  0.11092760233E+04  0.11092760233E+04  0.00000000000E+00 0. -1.
         -2   -1    0    0    0  501 -0.00000000000E+00 -0.00000000000E+00 -0.16027203714E+04  0.16027203714E+04  0.00000000000E+00 0.  1.
         23    2    1    2    0    0  0.79427734292E+03  0.32490832279E+03 -0.12827239625E+04  0.15460614800E+04  0.92105484507E+02 0.  0.
         13    1    3    3    0    0  0.60369637517E+03  0.28565333024E+03 -0.10177125804E+04  0.12172863405E+04  0.00000000000E+00 0.  1.
        -13    1    3    3    0    0  0.19058096775E+03  0.39254992553E+02 -0.26501138206E+03  0.32877513946E+03  0.00000000000E+00 0. -1.
         22    1    1    2    0    0 -0.79427734292E+03 -0.32490832279E+03  0.78927961436E+03  0.11659349147E+04  0.00000000000E+00 0. -1.
<mgrwt>
<rscale>  0 0.26667278E+04</rscale>
<asrwt>0</asrwt>
<pdfrwt beam="1">  1        2 0.17065785E+00 0.26667278E+04</pdfrwt>
<pdfrwt beam="2">  1       -2 0.24657236E+00 0.26667278E+04</pdfrwt>
<totfact> 0.12759665E+00</totfact>
</mgrwt>
</event>
<event>
 6    1  0.2003386E-005  0.2407612E+04  0.7818608E-02  0.8436659E-01
         -2   -1    0    0    0  501 -0.00000000000E+00  0.00000000000E+00  0.18343368856E+04  0.18343368856E+04  0.00000000000E+00 0.  1.
          2   -1    0    0  501    0  0.00000000000E+00 -0.00000000000E+00 -0.79001251563E+03  0.79001251563E+03  0.00000000000E+00 0. -1.
         23    2    1    2    0    0  0.10134209013E+04  0.33740975307E+03  0.11238841030E+04  0.15532765672E+04  0.93195238439E+02 0.  0.
         13    1    3    3    0    0  0.31081021539E+03  0.11662232091E+03  0.41051325104E+03  0.52794401692E+03  0.00000000000E+00 0. -1.
        -13    1    3    3    0    0  0.70261068595E+03  0.22078743216E+03  0.71337085194E+03  0.10253325502E+04  0.00000000000E+00 0.  1.
         22    1    1    2    0    0 -0.10134209013E+04 -0.33740975307E+03 -0.79559733010E+02  0.10710728341E+04  0.00000000000E+00 0. -1.
<mgrwt>
<rscale>  0 0.24076122E+04</rscale>
<asrwt>0</asrwt>
<pdfrwt beam="1">  1        2 0.12154039E+00 0.24076122E+04</pdfrwt>
<pdfrwt beam="2">  1       -2 0.28220567E+00 0.24076122E+04</pdfrwt>
<totfact> 0.12852582E+00</totfact>
</mgrwt>
</event>
<event>
 6    1  0.2003386E-005  0.2467811E+04  0.7818608E-02  0.8414544E-01
          2   -1    0    0  501    0  0.00000000000E+00  0.00000000000E+00  0.11605249943E+04  0.11605249943E+04  0.00000000000E+00 0.  1.
         -2   -1    0    0    0  501 -0.00000000000E+00 -0.00000000000E+00 -0.13119260846E+04  0.13119260846E+04  0.00000000000E+00 0. -1.
         23    2    1    2    0    0 -0.19992150247E+02  0.80883348102E+03 -0.10069352856E+04  0.12949324822E+04  0.91215009172E+02 0.  0.
         11    1    3    3    0    0  0.88618669372E+01  0.49794199716E+03 -0.67987359399E+03  0.84276501412E+03  0.00000000000E+00 0. -1.
        -11    1    3    3    0    0 -0.28854017184E+02  0.31089148385E+03 -0.32706169165E+03  0.45216746807E+03  0.00000000000E+00 0.  1.
         22    1    1    2    0    0  0.19992150247E+02 -0.80883348102E+03  0.85553419538E+03  0.11775185967E+04  0.00000000000E+00 0.  1.
<mgrwt>
<rscale>  0 0.24678112E+04</rscale>
<asrwt>0</asrwt>
<pdfrwt beam="1">  1        2 0.17854231E+00 0.24678112E+04</pdfrwt>
<pdfrwt beam="2">  1       -2 0.20183478E+00 0.24678112E+04</pdfrwt>
<totfact> 0.23142425E+00</totfact>
</mgrwt>
</event>
<event>
 6    1  0.2003386E-005  0.5515479E+04  0.7818608E-02  0.7753563E-01
          2   -1    0    0  501    0  0.00000000000E+00  0.00000000000E+00  0.28550703317E+04  0.28550703317E+04  0.00000000000E+00 0. -1.
         -2   -1    0    0    0  501 -0.00000000000E+00 -0.00000000000E+00 -0.26637268764E+04  0.26637268764E+04  0.00000000000E+00 0.  1.
         23    2    1    2    0    0  0.17738335363E+04 -0.13689366379E+03  0.22030669735E+04  0.28332326857E+04  0.92076446440E+02 0.  0.
         11    1    3    3    0    0  0.73690788325E+03 -0.95299282413E+02  0.88063563688E+03  0.11522301448E+04  0.00000000000E+00 0.  1.
        -11    1    3    3    0    0  0.10369256531E+04 -0.41594381378E+02  0.13224313366E+04  0.16810025410E+04  0.00000000000E+00 0. -1.
         22    1    1    2    0    0 -0.17738335363E+04  0.13689366379E+03 -0.20117235182E+04  0.26855645223E+04  0.00000000000E+00 0.  1.
<mgrwt>
<rscale>  0 0.55154792E+04</rscale>
<asrwt>0</asrwt>
<pdfrwt beam="1">  1        2 0.43924159E+00 0.55154792E+04</pdfrwt>
<pdfrwt beam="2">  1       -2 0.40980413E+00 0.55154792E+04</pdfrwt>
<totfact> 0.95887796E-03</totfact>
</mgrwt>
</event>
<event>
 6    1  0.2003386E-005  0.1997726E+04  0.7818608E-02  0.8607685E-01
         -1   -1    0    0    0  501 -0.00000000000E+00  0.00000000000E+00  0.34644664680E+03  0.34644664680E+03  0.00000000000E+00 0.  1.
          1   -1    0    0  501    0  0.00000000000E+00 -0.00000000000E+00 -0.28798874353E+04  0.28798874353E+04  0.00000000000E+00 0. -1.
         23    2    1    2    0    0  0.51791188101E+03  0.49410649113E+03 -0.23897167916E+04  0.24962446846E+04  0.90095728990E+02 0.  0.
         13    1    3    3    0    0  0.43227419585E+03  0.38595005384E+03 -0.18183253142E+04  0.19084353205E+04  0.00000000000E+00 0. -1.
        -13    1    3    3    0    0  0.85637685160E+02  0.10815643729E+03 -0.57139147742E+03  0.58780936409E+03  0.00000000000E+00 0.  1.
         22    1    1    2    0    0 -0.51791188101E+03 -0.49410649113E+03 -0.14372399695E+03  0.73008939752E+03  0.00000000000E+00 0.  1.
<mgrwt>
<rscale>  0 0.19977261E+04</rscale>
<asrwt>0</asrwt>
<pdfrwt beam="1">  1        1 0.44305959E+00 0.19977261E+04</pdfrwt>
<pdfrwt beam="2">  1       -1 0.53299486E-01 0.19977261E+04</pdfrwt>
<totfact> 0.24100107E+00</totfact>
</mgrwt>
</event>
<event>
 6    1  0.2003386E-005  0.1906708E+04  0.7818608E-02  0.8651525E-01
         -2   -1    0    0    0  501 -0.00000000000E+00  0.00000000000E+00  0.68598129332E+03  0.68598129332E+03  0.00000000000E+00 0.  1.
          2   -1    0    0  501    0  0.00000000000E+00 -0.00000000000E+00 -0.13249390885E+04  0.13249390885E+04  0.00000000000E+00 0. -1.
         23    2    1    2    0    0  0.37838258007E+03  0.17960024250E+03 -0.12218833672E+04  0.12931238602E+04  0.61161513134E+02 0.  0.
         11    1    3    3    0    0  0.21649238768E+03  0.11143525760E+03 -0.79694043619E+03  0.83330716390E+03  0.00000000000E+00 0.  1.
        -11    1    3    3    0    0  0.16189019239E+03  0.68164984903E+02 -0.42494293103E+03  0.45981669630E+03  0.00000000000E+00 0. -1.
         22    1    1    2    0    0 -0.37838258007E+03 -0.17960024250E+03  0.58292557201E+03  0.71779652166E+03  0.00000000000E+00 0.  1.
<mgrwt>
<rscale>  0 0.19067076E+04</rscale>
<asrwt>0</asrwt>
<pdfrwt beam="1">  1        2 0.20383678E+00 0.19067076E+04</pdfrwt>
<pdfrwt beam="2">  1       -2 0.10553559E+00 0.19067076E+04</pdfrwt>
<totfact> 0.10868950E+01</totfact>
</mgrwt>
</event>
<event>
 6    1  0.2003386E-005  0.1649991E+04  0.7818608E-02  0.8790412E-01
          1   -1    0    0  501    0  0.00000000000E+00  0.00000000000E+00  0.43415045648E+03  0.43415045648E+03  0.00000000000E+00 0. -1.
         -1   -1    0    0    0  501 -0.00000000000E+00 -0.00000000000E+00 -0.15676989743E+04  0.15676989743E+04  0.00000000000E+00 0.  1.
         23    2    1    2    0    0  0.14326825811E+03 -0.75812164433E+03 -0.22237748355E+03  0.80790350443E+03  0.89342632044E+02 0.  0.
         11    1    3    3    0    0  0.14237910593E+03 -0.61688003343E+03 -0.15706734167E+03  0.65229052980E+03  0.00000000000E+00 0. -1.
        -11    1    3    3    0    0  0.88915218267E+00 -0.14124161090E+03 -0.65310141877E+02  0.15561297463E+03  0.00000000000E+00 0.  1.
         22    1    1    2    0    0 -0.14326825811E+03  0.75812164433E+03 -0.91117103431E+03  0.11939459264E+04  0.00000000000E+00 0.  1.
<mgrwt>
<rscale>  0 0.16499906E+04</rscale>
<asrwt>0</asrwt>
<pdfrwt beam="1">  1        1 0.66792378E-01 0.16499906E+04</pdfrwt>
<pdfrwt beam="2">  1       -1 0.24118446E+00 0.16499906E+04</pdfrwt>
<totfact> 0.40908010E+00</totfact>
</mgrwt>
</event>
<event>
 6    1  0.2003386E-005  0.5891280E+03  0.7818608E-02  0.9928222E-01
          1   -1    0    0  501    0  0.00000000000E+00  0.00000000000E+00  0.20234534025E+04  0.20234534025E+04  0.00000000000E+00 0. -1.
         -1   -1    0    0    0  501 -0.00000000000E+00 -0.00000000000E+00 -0.42881127257E+02  0.42881127257E+02  0.00000000000E+00 0.  1.
         23    2    1    2    0    0  0.22543877368E+03  0.57039017199E+02  0.16074570286E+04  0.16266857183E+04  0.90067958273E+02 0.  0.
         11    1    3    3    0    0  0.17063105198E+02  0.68424529887E+01  0.39512735266E+03  0.39555479208E+03  0.00000000000E+00 0.  1.
        -11    1    3    3    0    0  0.20837566848E+03  0.50196564210E+02  0.12123296759E+04  0.12311309262E+04  0.00000000000E+00 0. -1.
         22    1    1    2    0    0 -0.22543877368E+03 -0.57039017199E+02  0.37311524668E+03  0.43964881151E+03  0.00000000000E+00 0.  1.
<mgrwt>
<rscale>  0 0.58912804E+03</rscale>
<asrwt>0</asrwt>
<pdfrwt beam="1">  1        1 0.31130045E+00 0.58912804E+03</pdfrwt>
<pdfrwt beam="2">  1       -1 0.65970981E-02 0.58912804E+03</pdfrwt>
<totfact> 0.36279032E+02</totfact>
</mgrwt>
</event>
<event>
 6    1  0.2003386E-005  0.3443952E+04  0.7818608E-02  0.8127203E-01
         -2   -1    0    0    0  501 -0.00000000000E+00  0.00000000000E+00  0.12724490655E+04  0.12724490655E+04  0.00000000000E+00 0.  1.
          2   -1    0    0  501    0  0.00000000000E+00 -0.00000000000E+00 -0.23303105413E+04  0.23303105413E+04  0.00000000000E+00 0. -1.
         23    2    1    2    0    0 -0.69981768566E+03 -0.15693679916E+04 -0.43390601741E+03  0.17746509941E+04  0.91929498474E+02 0.  0.
         13    1    3    3    0    0 -0.34186882172E+03 -0.66734817011E+03 -0.16745732184E+03  0.76829019651E+03  0.00000000000E+00 0.  1.
        -13    1    3    3    0    0 -0.35794886394E+03 -0.90201982145E+03 -0.26644869557E+03  0.10063607976E+04  0.00000000000E+00 0. -1.
         22    1    1    2    0    0  0.69981768566E+03  0.15693679916E+04 -0.62395545841E+03  0.18281086128E+04  0.00000000000E+00 0. -1.
<mgrwt>
<rscale>  0 0.34439521E+04</rscale>
<asrwt>0</asrwt>
<pdfrwt beam="1">  1        2 0.35850931E+00 0.34439521E+04</pdfrwt>
<pdfrwt beam="2">  1       -2 0.19576140E+00 0.34439521E+04</pdfrwt>
<totfact> 0.51021236E-01</totfact>
</mgrwt>
</event>
<event>
 6    1  0.2003386E-005  0.3326802E+04  0.7818608E-02  0.8156109E-01
         -2   -1    0    0    0  501 -0.00000000000E+00  0.00000000000E+00  0.81188758974E+03  0.81188758974E+03  0.00000000000E+00 0. -1.
          2   -1    0    0  501    0  0.00000000000E+00 -0.00000000000E+00 -0.34079883753E+04  0.34079883753E+04  0.00000000000E+00 0.  1.
         23    2    1    2    0    0 -0.14681104959E+04  0.75951053163E+03 -0.10776166641E+04  0.19753273015E+04  0.91954322705E+02 0.  0.
         13    1    3    3    0    0 -0.99987246536E+03  0.56485960336E+03 -0.75117187137E+03  0.13722501590E+04  0.00000000000E+00 0.  1.
        -13    1    3    3    0    0 -0.46823803056E+03  0.19465092827E+03 -0.32644479276E+03  0.60307714254E+03  0.00000000000E+00 0. -1.
         22    1    1    2    0    0  0.14681104959E+04 -0.75951053163E+03 -0.15184841215E+04  0.22445486636E+04  0.00000000000E+00 0.  1.
<mgrwt>
<rscale>  0 0.33268023E+04</rscale>
<asrwt>0</asrwt>
<pdfrwt beam="1">  1        2 0.52430592E+00 0.33268023E+04</pdfrwt>
<pdfrwt beam="2">  1       -2 0.12490578E+00 0.33268023E+04</pdfrwt>
<totfact> 0.37642683E-01</totfact>
</mgrwt>
</event>
<event>
 6    1  0.3350374E-005  0.3184911E+04  0.7818608E-02  0.8192814E-01
         -1   -1    0    0    0  501 -0.00000000000E+00  0.00000000000E+00  0.16906185018E+04  0.16906185018E+04  0.00000000000E+00 0.  1.
          1   -1    0    0  501    0  0.00000000000E+00 -0.00000000000E+00 -0.14999917660E+04  0.14999917660E+04  0.00000000000E+00 0. -1.
         23    2    1    2    0    0  0.38039094459E+03 -0.14146555348E+04 -0.52663003514E+03  0.15595355213E+04  0.94150386407E+02 0.  0.
         11    1    3    3    0    0  0.13729110314E+03 -0.35367626836E+03 -0.12967137598E+03  0.40093692216E+03  0.00000000000E+00 0. -1.
        -11    1    3    3    0    0  0.24309984144E+03 -0.10609792665E+04 -0.39695865917E+03  0.11585985991E+04  0.00000000000E+00 0.  1.
         22    1    1    2    0    0 -0.38039094459E+03  0.14146555348E+04  0.71725677095E+03  0.16310747464E+04  0.00000000000E+00 0.  1.
<mgrwt>
<rscale>  0 0.31849106E+04</rscale>
<asrwt>0</asrwt>
<pdfrwt beam="1">  1        1 0.23076796E+00 0.31849106E+04</pdfrwt>
<pdfrwt beam="2">  1       -1 0.26009516E+00 0.31849106E+04</pdfrwt>
<totfact> 0.32834710E-01</totfact>
</mgrwt>
</event>
<event>
 6    1  0.2003386E-005  0.1959710E+04  0.7818608E-02  0.8625693E-01
         -2   -1    0    0    0  501 -0.00000000000E+00  0.00000000000E+00  0.12114800878E+04  0.12114800878E+04  0.00000000000E+00 0.  1.
          2   -1    0    0  501    0  0.00000000000E+00 -0.00000000000E+00 -0.79251466666E+03  0.79251466666E+03  0.00000000000E+00 0. -1.
         23    2    1    2    0    0 -0.25727314758E+02  0.19418332630E+03  0.11893811620E+04  0.12090674165E+04  0.94060672187E+02 0.  0.
         11    1    3    3    0    0 -0.30281102890E+02  0.10168234763E+03  0.38427841571E+03  0.39865542238E+03  0.00000000000E+00 0. -1.
        -11    1    3    3    0    0  0.45537881324E+01  0.92500978661E+02  0.80510274630E+03  0.81041199408E+03  0.00000000000E+00 0.  1.
         22    1    1    2    0    0  0.25727314758E+02 -0.19418332630E+03 -0.77041574087E+03  0.79492733801E+03  0.00000000000E+00 0. -1.
<mgrwt>
<rscale>  0 0.19597099E+04</rscale>
<asrwt>0</asrwt>
<pdfrwt beam="1">  1        2 0.12192533E+00 0.19597099E+04</pdfrwt>
<pdfrwt beam="2">  1       -2 0.18638155E+00 0.19597099E+04</pdfrwt>
<totfact> 0.53278610E+00</totfact>
</mgrwt>
</event>
<event>
 6    1  0.2003386E-005  0.2868372E+04  0.7818608E-02  0.8282350E-01
          2   -1    0    0  501    0  0.00000000000E+00  0.00000000000E+00  0.13133240103E+04  0.13133240103E+04  0.00000000000E+00 0. -1.
         -2   -1    0    0    0  501 -0.00000000000E+00 -0.00000000000E+00 -0.15661705365E+04  0.15661705365E+04  0.00000000000E+00 0.  1.
         23    2    1    2    0    0 -0.75986775359E+03  0.58148984849E+03 -0.11971622729E+04  0.15351502173E+04  0.89214546593E+02 0.  0.
         11    1    3    3    0    0 -0.51157807411E+02  0.59007686210E+02 -0.70199671651E+02  0.10500962904E+03  0.00000000000E+00 0. -1.
        -11    1    3    3    0    0 -0.70870994618E+03  0.52248216228E+03 -0.11269626012E+04  0.14301405883E+04  0.00000000000E+00 0.  1.
         22    1    1    2    0    0  0.75986775359E+03 -0.58148984849E+03  0.94431574671E+03  0.13443443295E+04  0.00000000000E+00 0. -1.
<mgrwt>
<rscale>  0 0.28683719E+04</rscale>
<asrwt>0</asrwt>
<pdfrwt beam="1">  1        2 0.20204985E+00 0.28683719E+04</pdfrwt>
<pdfrwt beam="2">  1       -2 0.24094931E+00 0.28683719E+04</pdfrwt>
<totfact> 0.10268542E+00</totfact>
</mgrwt>
</event>
<event>
 6    1  0.2003386E-005  0.1200712E+04  0.7818608E-02  0.9112233E-01
         -2   -1    0    0    0  501 -0.00000000000E+00  0.00000000000E+00  0.46730768243E+03  0.46730768243E+03  0.00000000000E+00 0.  1.
          2   -1    0    0  501    0  0.00000000000E+00 -0.00000000000E+00 -0.77128505535E+03  0.77128505535E+03  0.00000000000E+00 0. -1.
         23    2    1    2    0    0 -0.20571161662E+03 -0.40107003771E+03  0.25080556297E+03  0.52377909052E+03  0.90921179551E+02 0.  0.
         11    1    3    3    0    0 -0.75166430429E+02 -0.20868573485E+03  0.82068401167E+02  0.23650570958E+03  0.00000000000E+00 0. -1.
        -11    1    3    3    0    0 -0.13054518619E+03 -0.19238430285E+03  0.16873716181E+03  0.28727338094E+03  0.00000000000E+00 0.  1.
         22    1    1    2    0    0  0.20571161662E+03  0.40107003771E+03 -0.55478293589E+03  0.71481364726E+03  0.00000000000E+00 0. -1.
<mgrwt>
<rscale>  0 0.12007122E+04</rscale>
<asrwt>0</asrwt>
<pdfrwt beam="1">  1        2 0.11865924E+00 0.12007122E+04</pdfrwt>
<pdfrwt beam="2">  1       -2 0.71893490E-01 0.12007122E+04</pdfrwt>
<totfact> 0.62572518E+01</totfact>
</mgrwt>
</event>
<event>
 6    1  0.2003386E-005  0.4846195E+04  0.7818608E-02  0.7852681E-01
          2   -1    0    0  501    0  0.00000000000E+00  0.00000000000E+00  0.21003464414E+04  0.21003464414E+04  0.00000000000E+00 0. -1.
         -2   -1    0    0    0  501 -0.00000000000E+00 -0.00000000000E+00 -0.27954447009E+04  0.27954447009E+04  0.00000000000E+00 0.  1.
         23    2    1    2    0    0  0.18605493139E+04  0.26824021435E+03 -0.18909138784E+04  0.26678837033E+04  0.91932564545E+02 0.  0.
         11    1    3    3    0    0  0.52487930905E+03  0.11487208375E+03 -0.56098145085E+03  0.77678444429E+03  0.00000000000E+00 0. -1.
        -11    1    3    3    0    0  0.13356700049E+04  0.15336813060E+03 -0.13299324276E+04  0.18910992590E+04  0.00000000000E+00 0.  1.
         22    1    1    2    0    0 -0.18605493139E+04 -0.26824021435E+03  0.11958156190E+04  0.22279074390E+04  0.00000000000E+00 0. -1.
<mgrwt>
<rscale>  0 0.48461953E+04</rscale>
<asrwt>0</asrwt>
<pdfrwt beam="1">  1        2 0.32313022E+00 0.48461953E+04</pdfrwt>
<pdfrwt beam="2">  1       -2 0.43006841E+00 0.48461953E+04</pdfrwt>
<totfact> 0.20387157E-02</totfact>
</mgrwt>
</event>
<event>
 6    1  0.2003386E-005  0.2963582E+04  0.7818608E-02  0.8254207E-01
          2   -1    0    0  501    0  0.00000000000E+00  0.00000000000E+00  0.15087434945E+04  0.15087434945E+04  0.00000000000E+00 0. -1.
         -2   -1    0    0    0  501 -0.00000000000E+00 -0.00000000000E+00 -0.14553204581E+04  0.14553204581E+04  0.00000000000E+00 0.  1.
         23    2    1    2    0    0  0.60189909157E+03  0.83380771744E+02  0.13769714306E+04  0.15076933880E+04  0.88623709525E+02 0.  0.
         11    1    3    3    0    0  0.15938125762E+03  0.62059190466E+02  0.38023194294E+03  0.41692932115E+03  0.00000000000E+00 0. -1.
        -11    1    3    3    0    0  0.44251783396E+03  0.21321581277E+02  0.99673948768E+03  0.10907640668E+04  0.00000000000E+00 0.  1.
         22    1    1    2    0    0 -0.60189909157E+03 -0.83380771744E+02 -0.13235483942E+04  0.14563705646E+04  0.00000000000E+00 0.  1.
<mgrwt>
<rscale>  0 0.29635825E+04</rscale>
<asrwt>0</asrwt>
<pdfrwt beam="1">  1        2 0.23211438E+00 0.29635825E+04</pdfrwt>
<pdfrwt beam="2">  1       -2 0.22389546E+00 0.29635825E+04</pdfrwt>
<totfact> 0.10063528E+00</totfact>
</mgrwt>
</event>
<event>
 6    1  0.2003386E-005  0.2015328E+04  0.7818608E-02  0.8599488E-01
          2   -1    0    0  501    0  0.00000000000E+00  0.00000000000E+00  0.68983923170E+03  0.68983923170E+03  0.00000000000E+00 0. -1.
         -2   -1    0    0    0  501 -0.00000000000E+00 -0.00000000000E+00 -0.14719173343E+04  0.14719173343E+04  0.00000000000E+00 0.  1.
         23    2    1    2    0    0  0.82548362591E+03 -0.32885083625E+03  0.11362972619E+03  0.90006777567E+03  0.87431098455E+02 0.  0.
         13    1    3    3    0    0  0.18319582433E+03 -0.43530360914E+02  0.47222814446E+02  0.19412778415E+03  0.00000000000E+00 0. -1.
        -13    1    3    3    0    0  0.64228780157E+03 -0.28532047534E+03  0.66406911743E+02  0.70593999152E+03  0.00000000000E+00 0.  1.
         22    1    1    2    0    0 -0.82548362591E+03  0.32885083625E+03 -0.89570782883E+03  0.12616887904E+04  0.00000000000E+00 0.  1.
<mgrwt>
<rscale>  0 0.20153276E+04</rscale>
<asrwt>0</asrwt>
<pdfrwt beam="1">  1        2 0.10612911E+00 0.20153276E+04</pdfrwt>
<pdfrwt beam="2">  1       -2 0.22644882E+00 0.20153276E+04</pdfrwt>
<totfact> 0.34838326E+00</totfact>
</mgrwt>
</event>
<event>
 6    1  0.2003386E-005  0.1048169E+04  0.7818608E-02  0.9257237E-01
         -2   -1    0    0    0  501 -0.00000000000E+00  0.00000000000E+00  0.11187841405E+03  0.11187841405E+03  0.00000000000E+00 0.  1.
          2   -1    0    0  501    0  0.00000000000E+00 -0.00000000000E+00 -0.24550261187E+04  0.24550261187E+04  0.00000000000E+00 0. -1.
         23    2    1    2    0    0 -0.20819320780E+03 -0.56307922550E+01 -0.23475633323E+04  0.23585883899E+04  0.92246824150E+02 0.  0.
         11    1    3    3    0    0 -0.13779666886E+03 -0.23929726261E+02 -0.19012298094E+04  0.19063670533E+04  0.00000000000E+00 0.  1.
        -11    1    3    3    0    0 -0.70396538943E+02  0.18298934006E+02 -0.44633352285E+03  0.45222133663E+03  0.00000000000E+00 0. -1.
         22    1    1    2    0    0  0.20819320780E+03  0.56307922550E+01  0.44156275872E+01  0.20831614283E+03  0.00000000000E+00 0.  1.
<mgrwt>
<rscale>  0 0.10481687E+04</rscale>
<asrwt>0</asrwt>
<pdfrwt beam="1">  1        2 0.37769626E+00 0.10481687E+04</pdfrwt>
<pdfrwt beam="2">  1       -2 0.17212067E-01 0.10481687E+04</pdfrwt>
<totfact> 0.10315549E+02</totfact>
</mgrwt>
</event>
<event>
 6    1  0.2003386E-005  0.2259212E+04  0.7818608E-02  0.8494179E-01
          2   -1    0    0  501    0  0.00000000000E+00  0.00000000000E+00  0.73563031778E+03  0.73563031778E+03  0.00000000000E+00 0. -1.
         -2   -1    0    0    0  501 -0.00000000000E+00 -0.00000000000E+00 -0.17345806177E+04  0.17345806177E+04  0.00000000000E+00 0.  1.
         23    2    1    2    0    0  0.92360355114E+03 -0.47161790952E+03 -0.98549693795E+03  0.14330764383E+04  0.83886179558E+02 0.  0.
         13    1    3    3    0    0  0.70933204455E+03 -0.32139428367E+03 -0.73889406274E+03  0.10735039222E+04  0.00000000000E+00 0. -1.
        -13    1    3    3    0    0  0.21427150658E+03 -0.15022362585E+03 -0.24660287521E+03  0.35957251614E+03  0.00000000000E+00 0.  1.
         22    1    1    2    0    0 -0.92360355114E+03  0.47161790952E+03 -0.13453361967E+02  0.10371344972E+04  0.00000000000E+00 0. -1.
<mgrwt>
<rscale>  0 0.22592123E+04</rscale>
<asrwt>0</asrwt>
<pdfrwt beam="1">  1        2 0.11317390E+00 0.22592123E+04</pdfrwt>
<pdfrwt beam="2">  1       -2 0.26685856E+00 0.22592123E+04</pdfrwt>
<totfact> 0.17717820E+00</totfact>
</mgrwt>
</event>
<event>
 6    1  0.2003386E-005  0.4051458E+04  0.7818608E-02  0.7994245E-01
         -1   -1    0    0    0  501 -0.00000000000E+00  0.00000000000E+00  0.20002735163E+04  0.20002735163E+04  0.00000000000E+00 0.  1.
          1   -1    0    0  501    0  0.00000000000E+00 -0.00000000000E+00 -0.20515087546E+04  0.20515087546E+04  0.00000000000E+00 0. -1.
         23    2    1    2    0    0  0.40757163098E+03  0.57014807937E+03 -0.19253345363E+04  0.20509245435E+04  0.90525907465E+02 0.  0.
         11    1    3    3    0    0  0.28364243237E+03  0.33339847907E+03 -0.11251324732E+04  0.12072823438E+04  0.00000000000E+00 0. -1.
        -11    1    3    3    0    0  0.12392919861E+03  0.23674960030E+03 -0.80020206304E+03  0.84364219975E+03  0.00000000000E+00 0.  1.
         22    1    1    2    0    0 -0.40757163098E+03 -0.57014807937E+03  0.18740992980E+04  0.20008577274E+04  0.00000000000E+00 0.  1.
<mgrwt>
<rscale>  0 0.40514583E+04</rscale>
<asrwt>0</asrwt>
<pdfrwt beam="1">  1        1 0.31561673E+00 0.40514583E+04</pdfrwt>
<pdfrwt beam="2">  1       -1 0.30773439E+00 0.40514583E+04</pdfrwt>
<totfact> 0.63033981E-02</totfact>
</mgrwt>
</event>
<event>
 6    1  0.2003386E-005  0.1538398E+04  0.7818608E-02  0.8859312E-01
          2   -1    0    0  501    0  0.00000000000E+00  0.00000000000E+00  0.14479103732E+04  0.14479103732E+04  0.00000000000E+00 0. -1.
         -2   -1    0    0    0  501 -0.00000000000E+00 -0.00000000000E+00 -0.40863543410E+03  0.40863543410E+03  0.00000000000E+00 0.  1.
         23    2    1    2    0    0 -0.61154690512E+03  0.82421908997E+02 -0.27209220232E+02  0.62440480469E+03  0.91422263173E+02 0.  0.
         11    1    3    3    0    0 -0.52301676613E+03  0.10066666730E+03 -0.12056264823E+02  0.53275291560E+03  0.00000000000E+00 0. -1.
        -11    1    3    3    0    0 -0.88530138988E+02 -0.18244758306E+02 -0.15152955409E+02  0.91651889083E+02  0.00000000000E+00 0.  1.
         22    1    1    2    0    0  0.61154690512E+03 -0.82421908997E+02  0.10664841594E+04  0.12321410026E+04  0.00000000000E+00 0. -1.
<mgrwt>
<rscale>  0 0.15383985E+04</rscale>
<asrwt>0</asrwt>
<pdfrwt beam="1">  1        2 0.22275544E+00 0.15383985E+04</pdfrwt>
<pdfrwt beam="2">  1       -2 0.62866990E-01 0.15383985E+04</pdfrwt>
<totfact> 0.30695008E+01</totfact>
</mgrwt>
</event>
<event>
 6    1  0.2325571E-005  0.4535902E+04  0.7818608E-02  0.7904381E-01
         -2   -1    0    0    0  501 -0.00000000000E+00  0.00000000000E+00  0.18910077226E+04  0.18910077226E+04  0.00000000000E+00 0.  1.
          2   -1    0    0  501    0  0.00000000000E+00 -0.00000000000E+00 -0.27200323139E+04  0.27200323139E+04  0.00000000000E+00 0. -1.
         23    2    1    2    0    0 -0.63347152455E+03  0.12116161316E+04 -0.22529911462E+04  0.26369628921E+04  0.91128299452E+02 0.  0.
         11    1    3    3    0    0 -0.38257904706E+03  0.64832478278E+03 -0.11927488972E+04  0.14104402444E+04  0.00000000000E+00 0. -1.
        -11    1    3    3    0    0 -0.25089247749E+03  0.56329134879E+03 -0.10602422489E+04  0.12265226477E+04  0.00000000000E+00 0.  1.
         22    1    1    2    0    0  0.63347152455E+03 -0.12116161316E+04  0.14239665549E+04  0.19740771444E+04  0.00000000000E+00 0.  1.
<mgrwt>
<rscale>  0 0.45359022E+04</rscale>
<asrwt>0</asrwt>
<pdfrwt beam="1">  1        2 0.41846651E+00 0.45359022E+04</pdfrwt>
<pdfrwt beam="2">  1       -2 0.29092427E+00 0.45359022E+04</pdfrwt>
<totfact> 0.70483411E-02</totfact>
</mgrwt>
</event>
<event>
 6    1  0.2003386E-005  0.1724279E+04  0.7818608E-02  0.8747637E-01
          2   -1    0    0  501    0  0.00000000000E+00  0.00000000000E+00  0.10623905585E+04  0.10623905585E+04  0.00000000000E+00 0. -1.
         -2   -1    0    0    0  501 -0.00000000000E+00 -0.00000000000E+00 -0.69963374386E+03  0.69963374386E+03  0.00000000000E+00 0.  1.
         23    2    1    2    0    0  0.61127945739E+03  0.60343911936E+03  0.17210688531E+03  0.88216707453E+03  0.10390679295E+03 0.  0.
         13    1    3    3    0    0  0.27623829583E+03  0.22552534197E+03  0.31962922617E+02  0.35803757398E+03  0.00000000000E+00 0.  1.
        -13    1    3    3    0    0  0.33504116156E+03  0.37791377738E+03  0.14014396269E+03  0.52412950056E+03  0.00000000000E+00 0. -1.
         22    1    1    2    0    0 -0.61127945739E+03 -0.60343911936E+03  0.19064992932E+03  0.87985722782E+03  0.00000000000E+00 0.  1.
<mgrwt>
<rscale>  0 0.17242787E+04</rscale>
<asrwt>0</asrwt>
<pdfrwt beam="1">  1        2 0.16344470E+00 0.17242787E+04</pdfrwt>
<pdfrwt beam="2">  1       -2 0.10763596E+00 0.17242787E+04</pdfrwt>
<totfact> 0.15123854E+01</totfact>
</mgrwt>
</event>
<event>
 6    1  0.2003386E-005  0.1306508E+04  0.7818608E-02  0.9024420E-01
         -1   -1    0    0    0  501 -0.00000000000E+00  0.00000000000E+00  0.26544343764E+03  0.26544343764E+03  0.00000000000E+00 0.  1.
          1   -1    0    0  501    0  0.00000000000E+00 -0.00000000000E+00 -0.16076516915E+04  0.16076516915E+04  0.00000000000E+00 0. -1.
         23    2    1    2    0    0  0.47992436093E+03  0.31249347899E+02 -0.13011628953E+04  0.13904061658E+04  0.94342523333E+02 0.  0.
         13    1    3    3    0    0  0.20266682656E+03  0.18947975971E+01 -0.67956480074E+03  0.70914437969E+03  0.00000000000E+00 0. -1.
        -13    1    3    3    0    0  0.27725753437E+03  0.29354550302E+02 -0.62159809456E+03  0.68126178606E+03  0.00000000000E+00 0.  1.
         22    1    1    2    0    0 -0.47992436093E+03 -0.31249347899E+02 -0.41045358600E+02  0.48268896343E+03  0.00000000000E+00 0.  1.
<mgrwt>
<rscale>  0 0.13065077E+04</rscale>
<asrwt>0</asrwt>
<pdfrwt beam="1">  1        1 0.24733103E+00 0.13065077E+04</pdfrwt>
<pdfrwt beam="2">  1       -1 0.40837452E-01 0.13065077E+04</pdfrwt>
<totfact> 0.31745026E+01</totfact>
</mgrwt>
</event>
<event>
 6    1  0.2003386E-005  0.1839150E+04  0.7818608E-02  0.8685753E-01
          1   -1    0    0  501    0  0.00000000000E+00  0.00000000000E+00  0.96614214128E+03  0.96614214128E+03  0.00000000000E+00 0. -1.
         -1   -1    0    0    0  501 -0.00000000000E+00 -0.00000000000E+00 -0.87525229474E+03  0.87525229474E+03  0.00000000000E+00 0.  1.
         23    2    1    2    0    0 -0.72549055128E+00  0.89722571862E+03  0.23680792251E+03  0.93238035395E+03  0.90777837510E+02 0.  0.
         13    1    3    3    0    0 -0.29941412509E+02  0.65752674292E+03  0.20135956329E+03  0.68831938776E+03  0.00000000000E+00 0. -1.
        -13    1    3    3    0    0  0.29215921957E+02  0.23969897570E+03  0.35448359221E+02  0.24406096619E+03  0.00000000000E+00 0.  1.
         22    1    1    2    0    0  0.72549055128E+00 -0.89722571862E+03 -0.14591807597E+03  0.90901408206E+03  0.00000000000E+00 0.  1.
<mgrwt>
<rscale>  0 0.18391499E+04</rscale>
<asrwt>0</asrwt>
<pdfrwt beam="1">  1        1 0.14863725E+00 0.18391499E+04</pdfrwt>
<pdfrwt beam="2">  1       -1 0.13465420E+00 0.18391499E+04</pdfrwt>
<totfact> 0.70176650E+00</totfact>
</mgrwt>
</event>
<event>
 6    1  0.2003386E-005  0.2495320E+04  0.7818608E-02  0.8404655E-01
         -1   -1    0    0    0  501 -0.00000000000E+00  0.00000000000E+00  0.79594330311E+03  0.79594330311E+03  0.00000000000E+00 0.  1.
          1   -1    0    0  501    0  0.00000000000E+00 -0.00000000000E+00 -0.19557371781E+04  0.19557371781E+04  0.00000000000E+00 0. -1.
         23    2    1    2    0    0  0.46999967786E+03  0.29228998370E+03 -0.18114845329E+04  0.18966753086E+04  0.97815548564E+02 0.  0.
         11    1    3    3    0    0  0.21492748850E+03  0.79997304391E+02 -0.68921906792E+03  0.72637202425E+03  0.00000000000E+00 0. -1.
        -11    1    3    3    0    0  0.25507218936E+03  0.21229267931E+03 -0.11222654650E+04  0.11703032843E+04  0.00000000000E+00 0.  1.
         22    1    1    2    0    0 -0.46999967786E+03 -0.29228998370E+03  0.65169065785E+03  0.85500517267E+03  0.00000000000E+00 0.  1.
<mgrwt>
<rscale>  0 0.24953203E+04</rscale>
<asrwt>0</asrwt>
<pdfrwt beam="1">  1        1 0.30088264E+00 0.24953203E+04</pdfrwt>
<pdfrwt beam="2">  1       -1 0.12245282E+00 0.24953203E+04</pdfrwt>
<totfact> 0.16713946E+00</totfact>
</mgrwt>
</event>
<event>
 6    1  0.2003386E-005  0.2736386E+04  0.7818608E-02  0.8323295E-01
          1   -1    0    0  501    0  0.00000000000E+00  0.00000000000E+00  0.10001770827E+04  0.10001770827E+04  0.00000000000E+00 0. -1.
         -1   -1    0    0    0  501 -0.00000000000E+00 -0.00000000000E+00 -0.18716204119E+04  0.18716204119E+04  0.00000000000E+00 0.  1.
         23    2    1    2    0    0  0.77732583746E+03 -0.62864173097E+03 -0.14140436401E+04  0.17343261847E+04  0.94562230545E+02 0.  0.
         13    1    3    3    0    0  0.12834738475E+03 -0.14915131508E+03 -0.29951160554E+03  0.35836624815E+03  0.00000000000E+00 0. -1.
        -13    1    3    3    0    0  0.64897845272E+03 -0.47949041589E+03 -0.11145320345E+04  0.13759599365E+04  0.00000000000E+00 0.  1.
         22    1    1    2    0    0 -0.77732583746E+03  0.62864173097E+03  0.54260031083E+03  0.11374713099E+04  0.00000000000E+00 0. -1.
<mgrwt>
<rscale>  0 0.27363858E+04</rscale>
<asrwt>0</asrwt>
<pdfrwt beam="1">  1        1 0.15387340E+00 0.27363858E+04</pdfrwt>
<pdfrwt beam="2">  1       -1 0.28794160E+00 0.27363858E+04</pdfrwt>
<totfact> 0.52052375E-01</totfact>
</mgrwt>
</event>
<event>
 6    1  0.2003386E-005  0.1359423E+04  0.7818608E-02  0.8983726E-01
         -2   -1    0    0    0  501 -0.00000000000E+00  0.00000000000E+00  0.58963454262E+03  0.58963454262E+03  0.00000000000E+00 0.  1.
          2   -1    0    0  501    0  0.00000000000E+00 -0.00000000000E+00 -0.78354921487E+03  0.78354921487E+03  0.00000000000E+00 0. -1.
         23    2    1    2    0    0  0.54707359185E+03  0.38243321598E+03  0.17497394558E+02  0.67301253444E+03  0.84232019538E+02 0.  0.
         13    1    3    3    0    0  0.34040816489E+03  0.26416408684E+03 -0.22922004918E+02  0.43149252810E+03  0.00000000000E+00 0. -1.
        -13    1    3    3    0    0  0.20666542696E+03  0.11826912915E+03  0.40419399476E+02  0.24152000634E+03  0.00000000000E+00 0.  1.
         22    1    1    2    0    0 -0.54707359185E+03 -0.38243321598E+03 -0.21141206681E+03  0.70017122304E+03  0.00000000000E+00 0.  1.
<mgrwt>
<rscale>  0 0.13594229E+04</rscale>
<asrwt>0</asrwt>
<pdfrwt beam="1">  1        2 0.12054603E+00 0.13594229E+04</pdfrwt>
<pdfrwt beam="2">  1       -2 0.90713007E-01 0.13594229E+04</pdfrwt>
<totfact> 0.35879738E+01</totfact>
</mgrwt>
</event>
<event>
 6    1  0.2003386E-005  0.9340861E+03  0.7818608E-02  0.9383947E-01
         -2   -1    0    0    0  501 -0.00000000000E+00  0.00000000000E+00  0.16304395516E+04  0.16304395516E+04  0.00000000000E+00 0.  1.
          2   -1    0    0  501    0  0.00000000000E+00 -0.00000000000E+00 -0.13378552946E+03  0.13378552946E+03  0.00000000000E+00 0. -1.
         23    2    1    2    0    0  0.10488771721E+03  0.44548797883E+03  0.62790739418E+03  0.78229755009E+03  0.90888881118E+02 0.  0.
         13    1    3    3    0    0  0.97961980472E+02  0.43839904607E+03  0.62831404431E+03  0.77237867105E+03  0.00000000000E+00 0. -1.
        -13    1    3    3    0    0  0.69257367402E+01  0.70889327586E+01 -0.40665013597E+00  0.99188790386E+01  0.00000000000E+00 0.  1.
         22    1    1    2    0    0 -0.10488771721E+03 -0.44548797883E+03  0.86874662800E+03  0.98192753101E+03  0.00000000000E+00 0.  1.
<mgrwt>
<rscale>  0 0.93408612E+03</rscale>
<asrwt>0</asrwt>
<pdfrwt beam="1">  1        2 0.20582390E-01 0.93408612E+03</pdfrwt>
<pdfrwt beam="2">  1       -2 0.25083684E+00 0.93408612E+03</pdfrwt>
<totfact> 0.17657326E+01</totfact>
</mgrwt>
</event>
<event>
 6    1  0.2003386E-005  0.4485730E+04  0.7818608E-02  0.7913140E-01
          2   -1    0    0  501    0  0.00000000000E+00  0.00000000000E+00  0.17875736998E+04  0.17875736998E+04  0.00000000000E+00 0.  1.
         -2   -1    0    0    0  501 -0.00000000000E+00 -0.00000000000E+00 -0.28141183988E+04  0.28141183988E+04  0.00000000000E+00 0. -1.
         23    2    1    2    0    0  0.86268252475E+03  0.20514521929E+04 -0.79208207625E+03  0.23639141920E+04  0.89549167037E+02 0.  0.
         13    1    3    3    0    0  0.24298728022E+03  0.57661474695E+03 -0.26571953292E+03  0.67980457112E+03  0.00000000000E+00 0.  1.
        -13    1    3    3    0    0  0.61969524453E+03  0.14748374459E+04 -0.52636254333E+03  0.16841096208E+04  0.00000000000E+00 0. -1.
         22    1    1    2    0    0 -0.86268252475E+03 -0.20514521929E+04 -0.23446262268E+03  0.22377779067E+04  0.00000000000E+00 0.  1.
<mgrwt>
<rscale>  0 0.44857303E+04</rscale>
<asrwt>0</asrwt>
<pdfrwt beam="1">  1        2 0.27501134E+00 0.44857303E+04</pdfrwt>
<pdfrwt beam="2">  1       -2 0.43294129E+00 0.44857303E+04</pdfrwt>
<totfact> 0.29961316E-02</totfact>
</mgrwt>
</event>
<event>
 6    1  0.2003386E-005  0.2066455E+04  0.7818608E-02  0.8576166E-01
          2   -1    0    0  501    0  0.00000000000E+00  0.00000000000E+00  0.63894444830E+03  0.63894444830E+03  0.00000000000E+00 0.  1.
         -2   -1    0    0    0  501 -0.00000000000E+00 -0.00000000000E+00 -0.16708160028E+04  0.16708160028E+04  0.00000000000E+00 0. -1.
         23    2    1    2    0    0 -0.68432144411E+03 -0.88007091636E+02 -0.13735212337E+04  0.15398477350E+04  0.92354645295E+02 0.  0.
         13    1    3    3    0    0 -0.21492859899E+03  0.14284144979E+02 -0.44628630038E+03  0.49554999886E+03  0.00000000000E+00 0.  1.
        -13    1    3    3    0    0 -0.46939284513E+03 -0.10229123661E+03 -0.92723493332E+03  0.10442977361E+04  0.00000000000E+00 0. -1.
         22    1    1    2    0    0  0.68432144411E+03  0.88007091636E+02  0.34164967923E+03  0.76991271607E+03  0.00000000000E+00 0.  1.
<mgrwt>
<rscale>  0 0.20664546E+04</rscale>
<asrwt>0</asrwt>
<pdfrwt beam="1">  1        2 0.98299148E-01 0.20664546E+04</pdfrwt>
<pdfrwt beam="2">  1       -2 0.25704861E+00 0.20664546E+04</pdfrwt>
<totfact> 0.24682258E+00</totfact>
</mgrwt>
</event>
<event>
 6    1  0.2003386E-005  0.4296143E+04  0.7818608E-02  0.7947332E-01
          1   -1    0    0  501    0  0.00000000000E+00  0.00000000000E+00  0.11320744516E+04  0.11320744516E+04  0.00000000000E+00 0. -1.
         -1   -1    0    0    0  501 -0.00000000000E+00 -0.00000000000E+00 -0.40758903253E+04  0.40758903253E+04  0.00000000000E+00 0.  1.
         23    2    1    2    0    0 -0.66967468997E+03  0.45994933612E+03 -0.38818715524E+04  0.39670110959E+04  0.90734248422E+02 0.  0.
         13    1    3    3    0    0 -0.46416335976E+03  0.29271130041E+03 -0.24335563852E+04  0.24946591370E+04  0.00000000000E+00 0. -1.
        -13    1    3    3    0    0 -0.20551133021E+03  0.16723803571E+03 -0.14483151672E+04  0.14723519589E+04  0.00000000000E+00 0.  1.
         22    1    1    2    0    0  0.66967468997E+03 -0.45994933612E+03  0.93805567866E+03  0.12409536810E+04  0.00000000000E+00 0. -1.
<mgrwt>
<rscale>  0 0.42961431E+04</rscale>
<asrwt>0</asrwt>
<pdfrwt beam="1">  1        1 0.17416530E+00 0.42961431E+04</pdfrwt>
<pdfrwt beam="2">  1       -1 0.62706005E+00 0.42961431E+04</pdfrwt>
<totfact> 0.32155779E-03</totfact>
</mgrwt>
</event>
<event>
 6    1  0.2003386E-005  0.1511906E+04  0.7818608E-02  0.8876574E-01
          2   -1    0    0  501    0  0.00000000000E+00  0.00000000000E+00  0.11850956130E+04  0.11850956130E+04  0.00000000000E+00 0. -1.
         -2   -1    0    0    0  501 -0.00000000000E+00 -0.00000000000E+00 -0.48221030361E+03  0.48221030361E+03  0.00000000000E+00 0.  1.
         23    2    1    2    0    0  0.54873318640E+03  0.32309897169E+03  0.79665396052E+03  0.10236494746E+04  0.87747699431E+02 0.  0.
         11    1    3    3    0    0  0.33009492925E+03  0.17067382701E+03  0.40219298400E+03  0.54758690080E+03  0.00000000000E+00 0. -1.
        -11    1    3    3    0    0  0.21863825715E+03  0.15242514468E+03  0.39446097651E+03  0.47606257384E+03  0.00000000000E+00 0.  1.
         22    1    1    2    0    0 -0.54873318640E+03 -0.32309897169E+03 -0.93768651121E+02  0.64365644197E+03  0.00000000000E+00 0.  1.
<mgrwt>
<rscale>  0 0.15119065E+04</rscale>
<asrwt>0</asrwt>
<pdfrwt beam="1">  1        2 0.18232240E+00 0.15119065E+04</pdfrwt>
<pdfrwt beam="2">  1       -2 0.74186201E-01 0.15119065E+04</pdfrwt>
<totfact> 0.30536853E+01</totfact>
</mgrwt>
</event>
<event>
 6    1  0.2003386E-005  0.4037382E+04  0.7818608E-02  0.7997048E-01
          2   -1    0    0  501    0  0.00000000000E+00  0.00000000000E+00  0.27027258476E+04  0.27027258476E+04  0.00000000000E+00 0. -1.
         -2   -1    0    0    0  501 -0.00000000000E+00 -0.00000000000E+00 -0.15077788173E+04  0.15077788173E+04  0.00000000000E+00 0.  1.
         23    2    1    2    0    0  0.11655030210E+04  0.14909655882E+04  0.13255986368E+04  0.23135477545E+04  0.11796520318E+03 0.  0.
         13    1    3    3    0    0  0.18590422870E+03  0.30990484885E+03  0.26879954182E+03  0.45039381798E+03  0.00000000000E+00 0. -1.
        -13    1    3    3    0    0  0.97959879233E+03  0.11810607394E+04  0.10567990950E+04  0.18631539365E+04  0.00000000000E+00 0.  1.
         22    1    1    2    0    0 -0.11655030210E+04 -0.14909655882E+04 -0.13065160651E+03  0.18969569103E+04  0.00000000000E+00 0. -1.
<mgrwt>
<rscale>  0 0.40373817E+04</rscale>
<asrwt>0</asrwt>
<pdfrwt beam="1">  1        2 0.41580398E+00 0.40373817E+04</pdfrwt>
<pdfrwt beam="2">  1       -2 0.23196597E+00 0.40373817E+04</pdfrwt>
<totfact> 0.17290890E-01</totfact>
</mgrwt>
</event>
<event>
 6    1  0.2003386E-005  0.5304726E+04  0.7818608E-02  0.7783146E-01
         -2   -1    0    0    0  501 -0.00000000000E+00  0.00000000000E+00  0.33470539383E+04  0.33470539383E+04  0.00000000000E+00 0. -1.
          2   -1    0    0  501    0  0.00000000000E+00 -0.00000000000E+00 -0.21018569112E+04  0.21018569112E+04  0.00000000000E+00 0.  1.
         23    2    1    2    0    0  0.95498754250E+03 -0.22181774204E+04 -0.50156920881E+03  0.24683899962E+04  0.95211487634E+02 0.  0.
         11    1    3    3    0    0  0.41611494388E+03 -0.96383934432E+03 -0.26627904206E+03  0.10830708455E+04  0.00000000000E+00 0.  1.
        -11    1    3    3    0    0  0.53887259862E+03 -0.12543380761E+04 -0.23529016675E+03  0.13853191507E+04  0.00000000000E+00 0. -1.
         22    1    1    2    0    0 -0.95498754250E+03  0.22181774204E+04  0.17467662359E+04  0.29805208534E+04  0.00000000000E+00 0. -1.
<mgrwt>
<rscale>  0 0.53047256E+04</rscale>
<asrwt>0</asrwt>
<pdfrwt beam="1">  1        2 0.32336260E+00 0.53047256E+04</pdfrwt>
<pdfrwt beam="2">  1       -2 0.51493138E+00 0.53047256E+04</pdfrwt>
<totfact> 0.56308269E-03</totfact>
</mgrwt>
</event>
<event>
 6    1  0.2003386E-005  0.2033629E+04  0.7818608E-02  0.8591057E-01
          2   -1    0    0  501    0  0.00000000000E+00  0.00000000000E+00  0.81227888463E+03  0.81227888463E+03  0.00000000000E+00 0. -1.
         -2   -1    0    0    0  501 -0.00000000000E+00 -0.00000000000E+00 -0.12728535194E+04  0.12728535194E+04  0.00000000000E+00 0.  1.
         23    2    1    2    0    0 -0.88292880361E+02 -0.42134861439E+03  0.71143852841E+03  0.83655515682E+03  0.91375396716E+02 0.  0.
         11    1    3    3    0    0 -0.84045453548E+02 -0.40378423526E+03  0.62901286404E+03  0.75217187533E+03  0.00000000000E+00 0.  1.
        -11    1    3    3    0    0 -0.42474268131E+01 -0.17564379134E+02  0.82425664369E+02  0.84383281493E+02  0.00000000000E+00 0. -1.
         22    1    1    2    0    0  0.88292880361E+02  0.42134861439E+03 -0.11720131632E+04  0.12485772472E+04  0.00000000000E+00 0.  1.
<mgrwt>
<rscale>  0 0.20336293E+04</rscale>
<asrwt>0</asrwt>
<pdfrwt beam="1">  1        2 0.12496598E+00 0.20336293E+04</pdfrwt>
<pdfrwt beam="2">  1       -2 0.19582362E+00 0.20336293E+04</pdfrwt>
<totfact> 0.44297015E+00</totfact>
</mgrwt>
</event>
<event>
 6    1  0.2003386E-005  0.1757410E+04  0.7818608E-02  0.8729282E-01
          1   -1    0    0  501    0  0.00000000000E+00  0.00000000000E+00  0.17958661948E+04  0.17958661948E+04  0.00000000000E+00 0. -1.
         -1   -1    0    0    0  501 -0.00000000000E+00 -0.00000000000E+00 -0.42994453841E+03  0.42994453841E+03  0.00000000000E+00 0.  1.
         23    2    1    2    0    0  0.64086094187E+03  0.14653522157E+03  0.14187191950E+04  0.15662935628E+04  0.91301985782E+02 0.  0.
         13    1    3    3    0    0  0.86048968710E+02 -0.79413754529E+01  0.22136030432E+03  0.23762970099E+03  0.00000000000E+00 0.  1.
        -13    1    3    3    0    0  0.55481197316E+03  0.15447659703E+03  0.11973588907E+04  0.13286638618E+04  0.00000000000E+00 0. -1.
         22    1    1    2    0    0 -0.64086094187E+03 -0.14653522157E+03 -0.52797538624E+02  0.65951717040E+03  0.00000000000E+00 0.  1.
<mgrwt>
<rscale>  0 0.17574104E+04</rscale>
<asrwt>0</asrwt>
<pdfrwt beam="1">  1        1 0.27628710E+00 0.17574104E+04</pdfrwt>
<pdfrwt beam="2">  1       -1 0.66145315E-01 0.17574104E+04</pdfrwt>
<totfact> 0.89948094E+00</totfact>
</mgrwt>
</event>
<event>
 6    1  0.2003386E-005  0.3299475E+04  0.7818608E-02  0.8163029E-01
         -2   -1    0    0    0  501 -0.00000000000E+00  0.00000000000E+00  0.19287521270E+04  0.19287521270E+04  0.00000000000E+00 0.  1.
          2   -1    0    0  501    0  0.00000000000E+00 -0.00000000000E+00 -0.14110855265E+04  0.14110855265E+04  0.00000000000E+00 0. -1.
         23    2    1    2    0    0  0.84122157347E+03 -0.33838186219E+03  0.16525678920E+04  0.18871997214E+04  0.91575817890E+02 0.  0.
         11    1    3    3    0    0  0.39557933419E+03 -0.17773728580E+03  0.87785511195E+03  0.97913387745E+03  0.00000000000E+00 0.  1.
        -11    1    3    3    0    0  0.44564223929E+03 -0.16064457640E+03  0.77471278007E+03  0.90806584396E+03  0.00000000000E+00 0. -1.
         22    1    1    2    0    0 -0.84122157347E+03  0.33838186219E+03 -0.11349012915E+04  0.14526379321E+04  0.00000000000E+00 0. -1.
<mgrwt>
<rscale>  0 0.32994752E+04</rscale>
<asrwt>0</asrwt>
<pdfrwt beam="1">  1        2 0.21709008E+00 0.32994752E+04</pdfrwt>
<pdfrwt beam="2">  1       -2 0.29673110E+00 0.32994752E+04</pdfrwt>
<totfact> 0.39638701E-01</totfact>
</mgrwt>
</event>
<event>
 6    1  0.2003386E-005  0.2961235E+04  0.7818608E-02  0.8254888E-01
          2   -1    0    0  501    0  0.00000000000E+00  0.00000000000E+00  0.16881825183E+04  0.16881825183E+04  0.00000000000E+00 0. -1.
         -2   -1    0    0    0  501 -0.00000000000E+00 -0.00000000000E+00 -0.12985733815E+04  0.12985733815E+04  0.00000000000E+00 0.  1.
         23    2    1    2    0    0  0.14727262605E+03 -0.14454980429E+04 -0.84109975133E+02  0.14585008114E+04  0.94848882971E+02 0.  0.
         11    1    3    3    0    0  0.10589255553E+03 -0.11688260152E+04 -0.32710936028E+02  0.11740687767E+04  0.00000000000E+00 0.  1.
        -11    1    3    3    0    0  0.41380070522E+02 -0.27667202770E+03 -0.51399039104E+02  0.28443203471E+03  0.00000000000E+00 0. -1.
         22    1    1    2    0    0 -0.14727262605E+03  0.14454980429E+04  0.47371911201E+03  0.15282550884E+04  0.00000000000E+00 0. -1.
<mgrwt>
<rscale>  0 0.29612355E+04</rscale>
<asrwt>0</asrwt>
<pdfrwt beam="1">  1        2 0.25972039E+00 0.29612355E+04</pdfrwt>
<pdfrwt beam="2">  1       -2 0.19978052E+00 0.29612355E+04</pdfrwt>
<totfact> 0.11410921E+00</totfact>
</mgrwt>
</event>
<event>
 6    1  0.2003386E-005  0.1520691E+04  0.7818608E-02  0.8870809E-01
         -2   -1    0    0    0  501 -0.00000000000E+00  0.00000000000E+00  0.23226031083E+03  0.23226031083E+03  0.00000000000E+00 0.  1.
          2   -1    0    0  501    0  0.00000000000E+00 -0.00000000000E+00 -0.24891249808E+04  0.24891249808E+04  0.00000000000E+00 0. -1.
         23    2    1    2    0    0 -0.15865494067E+03 -0.62001186088E+02 -0.24537667816E+04  0.24610278857E+04  0.81678016830E+02 0.  0.
         11    1    3    3    0    0 -0.11206601510E+03 -0.20192895796E+02 -0.11152615351E+04  0.11210596935E+04  0.00000000000E+00 0. -1.
        -11    1    3    3    0    0 -0.46588925576E+02 -0.41808290292E+02 -0.13385052465E+04  0.13399681922E+04  0.00000000000E+00 0.  1.
         22    1    1    2    0    0  0.15865494067E+03  0.62001186088E+02  0.19690211161E+03  0.26035740595E+03  0.00000000000E+00 0.  1.
<mgrwt>
<rscale>  0 0.15206906E+04</rscale>
<asrwt>0</asrwt>
<pdfrwt beam="1">  1        2 0.38294226E+00 0.15206906E+04</pdfrwt>
<pdfrwt beam="2">  1       -2 0.35732360E-01 0.15206906E+04</pdfrwt>
<totfact> 0.25150207E+01</totfact>
</mgrwt>
</event>
<event>
 6    1  0.2003386E-005  0.7890368E+03  0.7818608E-02  0.9576023E-01
         -2   -1    0    0    0  501 -0.00000000000E+00  0.00000000000E+00  0.10615022231E+03  0.10615022231E+03  0.00000000000E+00 0.  1.
          2   -1    0    0  501    0  0.00000000000E+00 -0.00000000000E+00 -0.14662688741E+04  0.14662688741E+04  0.00000000000E+00 0. -1.
         23    2    1    2    0    0  0.17770699035E+03  0.45383753191E+02 -0.13733546152E+04  0.13885314943E+04  0.90979954517E+02 0.  0.
         13    1    3    3    0    0  0.58337410751E+02  0.55111569929E+02 -0.41181292877E+03  0.41955980138E+03  0.00000000000E+00 0. -1.
        -13    1    3    3    0    0  0.11936957960E+03 -0.97278167381E+01 -0.96154168643E+03  0.96897169293E+03  0.00000000000E+00 0.  1.
         22    1    1    2    0    0 -0.17770699035E+03 -0.45383753191E+02  0.13235963429E+02  0.18388760208E+03  0.00000000000E+00 0.  1.
<mgrwt>
<rscale>  0 0.78903680E+03</rscale>
<asrwt>0</asrwt>
<pdfrwt beam="1">  1        2 0.22557983E+00 0.78903680E+03</pdfrwt>
<pdfrwt beam="2">  1       -2 0.16330803E-01 0.78903680E+03</pdfrwt>
<totfact> 0.40608427E+02</totfact>
</mgrwt>
</event>
<event>
 6    1  0.2003386E-005  0.1408637E+04  0.7818608E-02  0.8947590E-01
          2   -1    0    0  501    0  0.00000000000E+00  0.00000000000E+00  0.18005759592E+04  0.18005759592E+04  0.00000000000E+00 0. -1.
         -2   -1    0    0    0  501 -0.00000000000E+00 -0.00000000000E+00 -0.27550338111E+03  0.27550338111E+03  0.00000000000E+00 0.  1.
         23    2    1    2    0    0  0.20728808583E+03  0.65717766513E+03  0.57283920932E+03  0.90066485057E+03  0.90562570884E+02 0.  0.
         11    1    3    3    0    0 -0.22855007005E+01  0.87078379217E+02  0.60708177612E+02  0.10617603529E+03  0.00000000000E+00 0.  1.
        -11    1    3    3    0    0  0.20957358653E+03  0.57009928592E+03  0.51213103171E+03  0.79448881528E+03  0.00000000000E+00 0. -1.
         22    1    1    2    0    0 -0.20728808583E+03 -0.65717766513E+03  0.95223336880E+03  0.11754144898E+04  0.00000000000E+00 0. -1.
<mgrwt>
<rscale>  0 0.14086373E+04</rscale>
<asrwt>0</asrwt>
<pdfrwt beam="1">  1        2 0.27701168E+00 0.14086373E+04</pdfrwt>
<pdfrwt beam="2">  1       -2 0.42385137E-01 0.14086373E+04</pdfrwt>
<totfact> 0.44254012E+01</totfact>
</mgrwt>
</event>
<event>
 6    1  0.2003386E-005  0.1419488E+04  0.7818608E-02  0.8939831E-01
         -2   -1    0    0    0  501 -0.00000000000E+00  0.00000000000E+00  0.78979743014E+03  0.78979743014E+03  0.00000000000E+00 0.  1.
          2   -1    0    0  501    0  0.00000000000E+00 -0.00000000000E+00 -0.63780514843E+03  0.63780514843E+03  0.00000000000E+00 0. -1.
         23    2    1    2    0    0  0.88877803035E+02 -0.49632397671E+03 -0.42200197445E+03  0.66359592949E+03  0.89650083454E+02 0.  0.
         11    1    3    3    0    0 -0.66943526387E+01 -0.47125592556E+02 -0.71399986128E+02  0.85811385318E+02  0.00000000000E+00 0. -1.
        -11    1    3    3    0    0  0.95572155674E+02 -0.44919838416E+03 -0.35060198832E+03  0.57778454417E+03  0.00000000000E+00 0.  1.
         22    1    1    2    0    0 -0.88877803035E+02  0.49632397671E+03  0.57399425615E+03  0.76400664908E+03  0.00000000000E+00 0.  1.
<mgrwt>
<rscale>  0 0.14194885E+04</rscale>
<asrwt>0</asrwt>
<pdfrwt beam="1">  1        2 0.98123870E-01 0.14194885E+04</pdfrwt>
<pdfrwt beam="2">  1       -2 0.12150730E+00 0.14194885E+04</pdfrwt>
<totfact> 0.23022525E+01</totfact>
</mgrwt>
</event>
<event>
 6    1  0.2003386E-005  0.3220145E+04  0.7818608E-02  0.8183517E-01
         -2   -1    0    0    0  501 -0.00000000000E+00  0.00000000000E+00  0.93084449536E+03  0.93084449536E+03  0.00000000000E+00 0.  1.
          2   -1    0    0  501    0  0.00000000000E+00 -0.00000000000E+00 -0.27849265258E+04  0.27849265258E+04  0.00000000000E+00 0. -1.
         23    2    1    2    0    0 -0.11065593029E+04  0.51035040147E+03  0.28456487436E+03  0.12543199031E+04  0.86082683583E+02 0.  0.
         11    1    3    3    0    0 -0.64534994721E+03  0.34235593651E+03  0.18199022894E+03  0.75286425407E+03  0.00000000000E+00 0.  1.
        -11    1    3    3    0    0 -0.46120935572E+03  0.16799446496E+03  0.10257464543E+03  0.50145564903E+03  0.00000000000E+00 0. -1.
         22    1    1    2    0    0  0.11065593029E+04 -0.51035040147E+03 -0.21386469048E+04  0.24614511181E+04  0.00000000000E+00 0.  1.
<mgrwt>
<rscale>  0 0.32201450E+04</rscale>
<asrwt>0</asrwt>
<pdfrwt beam="1">  1        2 0.42845023E+00 0.32201450E+04</pdfrwt>
<pdfrwt beam="2">  1       -2 0.14320685E+00 0.32201450E+04</pdfrwt>
<totfact> 0.67177325E-01</totfact>
</mgrwt>
</event>
<event>
 6    1  0.2003386E-005  0.1432712E+04  0.7818608E-02  0.8930475E-01
          2   -1    0    0  501    0  0.00000000000E+00  0.00000000000E+00  0.61848388194E+03  0.61848388194E+03  0.00000000000E+00 0. -1.
         -2   -1    0    0    0  501 -0.00000000000E+00 -0.00000000000E+00 -0.82971571466E+03  0.82971571466E+03  0.00000000000E+00 0.  1.
         23    2    1    2    0    0  0.32246367129E+03 -0.27399183268E+03  0.47467885202E+03  0.64226671408E+03  0.90178577199E+02 0.  0.
         13    1    3    3    0    0  0.14376008942E+03 -0.16125009101E+03  0.29013596001E+03  0.36172839321E+03  0.00000000000E+00 0. -1.
        -13    1    3    3    0    0  0.17870358187E+03 -0.11274174167E+03  0.18454289200E+03  0.28053832087E+03  0.00000000000E+00 0.  1.
         22    1    1    2    0    0 -0.32246367129E+03  0.27399183268E+03 -0.68591068474E+03  0.80593288251E+03  0.00000000000E+00 0.  1.
<mgrwt>
<rscale>  0 0.14327118E+04</rscale>
<asrwt>0</asrwt>
<pdfrwt beam="1">  1        2 0.95151367E-01 0.14327118E+04</pdfrwt>
<pdfrwt beam="2">  1       -2 0.12764857E+00 0.14327118E+04</pdfrwt>
<totfact> 0.21102146E+01</totfact>
</mgrwt>
</event>
<event>
 6    1  0.2003386E-005  0.1871696E+04  0.7818608E-02  0.8669075E-01
          2   -1    0    0  501    0  0.00000000000E+00  0.00000000000E+00  0.15451521099E+04  0.15451521099E+04  0.00000000000E+00 0. -1.
         -2   -1    0    0    0  501 -0.00000000000E+00 -0.00000000000E+00 -0.56681257529E+03  0.56681257529E+03  0.00000000000E+00 0.  1.
         23    2    1    2    0    0  0.13408383016E+03 -0.43779587811E+03  0.14084588040E+04  0.14837558901E+04  0.90175575672E+02 0.  0.
         13    1    3    3    0    0  0.53599439224E+02 -0.14009121037E+03  0.60028358080E+03  0.61873970657E+03  0.00000000000E+00 0.  1.
        -13    1    3    3    0    0  0.80484390938E+02 -0.29770466774E+03  0.80817522320E+03  0.86501618353E+03  0.00000000000E+00 0. -1.
         22    1    1    2    0    0 -0.13408383016E+03  0.43779587811E+03 -0.43011926935E+03  0.62820879512E+03  0.00000000000E+00 0.  1.
<mgrwt>
<rscale>  0 0.18716962E+04</rscale>
<asrwt>0</asrwt>
<pdfrwt beam="1">  1        2 0.23771571E+00 0.18716962E+04</pdfrwt>
<pdfrwt beam="2">  1       -2 0.87201935E-01 0.18716962E+04</pdfrwt>
<totfact> 0.12770852E+01</totfact>
</mgrwt>
</event>
<event>
 6    1  0.2003386E-005  0.3099574E+04  0.7818608E-02  0.8215855E-01
          2   -1    0    0  501    0  0.00000000000E+00  0.00000000000E+00  0.89542335628E+03  0.89542335628E+03  0.00000000000E+00 0. -1.
         -2   -1    0    0    0  501 -0.00000000000E+00 -0.00000000000E+00 -0.26823502287E+04  0.26823502287E+04  0.00000000000E+00 0.  1.
         23    2    1    2    0    0 -0.68221470345E+03 -0.13646323984E+04 -0.58810828118E+03  0.16374631720E+04  0.88180524238E+02 0.  0.
         13    1    3    3    0    0 -0.10173956063E+03 -0.14104084368E+03 -0.67079766452E+02  0.18639515243E+03  0.00000000000E+00 0. -1.
        -13    1    3    3    0    0 -0.58047514282E+03 -0.12235915547E+04 -0.52102851473E+03  0.14510680195E+04  0.00000000000E+00 0.  1.
         22    1    1    2    0    0  0.68221470345E+03  0.13646323984E+04 -0.11988185913E+04  0.19403104131E+04  0.00000000000E+00 0.  1.
<mgrwt>
<rscale>  0 0.30995735E+04</rscale>
<asrwt>0</asrwt>
<pdfrwt beam="1">  1        2 0.13775744E+00 0.30995735E+04</pdfrwt>
<pdfrwt beam="2">  1       -2 0.41266926E+00 0.30995735E+04</pdfrwt>
<totfact> 0.15352738E-01</totfact>
</mgrwt>
</event>
<event>
 6    1  0.2003386E-005  0.1946053E+04  0.7818608E-02  0.8632266E-01
         -2   -1    0    0    0  501 -0.00000000000E+00  0.00000000000E+00  0.20504229156E+03  0.20504229156E+03  0.00000000000E+00 0.  1.
          2   -1    0    0  501    0  0.00000000000E+00 -0.00000000000E+00 -0.46174907391E+04  0.46174907391E+04  0.00000000000E+00 0. -1.
         23    2    1    2    0    0  0.36302265044E+02  0.66047704587E+03 -0.44969984882E+03  0.80495611923E+03  0.90424649841E+02 0.  0.
         11    1    3    3    0    0  0.60197866731E+02  0.28004731129E+03 -0.19398543280E+03  0.34594888041E+03  0.00000000000E+00 0. -1.
        -11    1    3    3    0    0 -0.23895601688E+02  0.38042973458E+03 -0.25571441602E+03  0.45900723882E+03  0.00000000000E+00 0.  1.
         22    1    1    2    0    0 -0.36302265044E+02 -0.66047704587E+03 -0.39627485987E+04  0.40175769114E+04  0.00000000000E+00 0. -1.
<mgrwt>
<rscale>  0 0.19460533E+04</rscale>
<asrwt>0</asrwt>
<pdfrwt beam="1">  1        2 0.71038323E+00 0.19460533E+04</pdfrwt>
<pdfrwt beam="2">  1       -2 0.31544966E-01 0.19460533E+04</pdfrwt>
<totfact> 0.83296475E-01</totfact>
</mgrwt>
</event>
<event>
 6    1  0.2003386E-005  0.2426641E+04  0.7818608E-02  0.8429596E-01
         -2   -1    0    0    0  501 -0.00000000000E+00  0.00000000000E+00  0.53200332101E+03  0.53200332101E+03  0.00000000000E+00 0.  1.
          2   -1    0    0  501    0  0.00000000000E+00 -0.00000000000E+00 -0.27671762248E+04  0.27671762248E+04  0.00000000000E+00 0. -1.
         23    2    1    2    0    0  0.83872616771E+03  0.87435843768E+03 -0.11365221993E+04  0.16636375462E+04  0.89682293613E+02 0.  0.
         11    1    3    3    0    0  0.82090138545E+03  0.83143731027E+03 -0.10953151433E+04  0.16015250072E+04  0.00000000000E+00 0. -1.
        -11    1    3    3    0    0  0.17824782255E+02  0.42921127411E+02 -0.41207056004E+02  0.62112539034E+02  0.00000000000E+00 0.  1.
         22    1    1    2    0    0 -0.83872616771E+03 -0.87435843768E+03 -0.10986507046E+04  0.16355419996E+04  0.00000000000E+00 0.  1.
<mgrwt>
<rscale>  0 0.24266413E+04</rscale>
<asrwt>0</asrwt>
<pdfrwt beam="1">  1        2 0.42571942E+00 0.24266413E+04</pdfrwt>
<pdfrwt beam="2">  1       -2 0.81846664E-01 0.24266413E+04</pdfrwt>
<totfact> 0.28514793E+00</totfact>
</mgrwt>
</event>
<event>
 6    1  0.2003386E-005  0.2869010E+04  0.7818608E-02  0.8282158E-01
         -2   -1    0    0    0  501 -0.00000000000E+00  0.00000000000E+00  0.72892934188E+03  0.72892934188E+03  0.00000000000E+00 0.  1.
          2   -1    0    0  501    0  0.00000000000E+00 -0.00000000000E+00 -0.28230512652E+04  0.28230512652E+04  0.00000000000E+00 0. -1.
         23    2    1    2    0    0  0.11688356252E+04 -0.33681127183E+03 -0.11037675149E+03  0.12249946900E+04  0.93863792153E+02 0.  0.
         11    1    3    3    0    0  0.51838738599E+03 -0.10776152242E+03 -0.24076781278E+02  0.53001671583E+03  0.00000000000E+00 0. -1.
        -11    1    3    3    0    0  0.65044823926E+03 -0.22904974941E+03 -0.86299970213E+02  0.69497797413E+03  0.00000000000E+00 0.  1.
         22    1    1    2    0    0 -0.11688356252E+04  0.33681127183E+03 -0.19837451718E+04  0.23269859171E+04  0.00000000000E+00 0. -1.
<mgrwt>
<rscale>  0 0.28690102E+04</rscale>
<asrwt>0</asrwt>
<pdfrwt beam="1">  1        2 0.43431558E+00 0.28690102E+04</pdfrwt>
<pdfrwt beam="2">  1       -2 0.11214297E+00 0.28690102E+04</pdfrwt>
<totfact> 0.12141480E+00</totfact>
</mgrwt>
</event>
<event>
 6    1  0.2003386E-005  0.9569380E+03  0.7818608E-02  0.9357078E-01
         -2   -1    0    0    0  501 -0.00000000000E+00  0.00000000000E+00  0.16946167371E+03  0.16946167371E+03  0.00000000000E+00 0.  1.
          2   -1    0    0  501    0  0.00000000000E+00 -0.00000000000E+00 -0.13509402891E+04  0.13509402891E+04  0.00000000000E+00 0. -1.
         23    2    1    2    0    0 -0.15118621385E+03 -0.44517028338E+03 -0.49934570125E+03  0.69194607079E+03  0.91702688418E+02 0.  0.
         13    1    3    3    0    0 -0.15537762260E+02 -0.16498069517E+03 -0.14406597147E+03  0.21957927036E+03  0.00000000000E+00 0.  1.
        -13    1    3    3    0    0 -0.13564845159E+03 -0.28018958821E+03 -0.35527972978E+03  0.47236680044E+03  0.00000000000E+00 0. -1.
         22    1    1    2    0    0  0.15118621385E+03  0.44517028338E+03 -0.68213291418E+03  0.82845589205E+03  0.00000000000E+00 0. -1.
<mgrwt>
<rscale>  0 0.95693804E+03</rscale>
<asrwt>0</asrwt>
<pdfrwt beam="1">  1        2 0.20783697E+00 0.95693804E+03</pdfrwt>
<pdfrwt beam="2">  1       -2 0.26071027E-01 0.95693804E+03</pdfrwt>
<totfact> 0.20505676E+02</totfact>
</mgrwt>
</event>
<event>
 6    1  0.2003386E-005  0.5650213E+04  0.7818608E-02  0.7735351E-01
         -2   -1    0    0    0  501 -0.00000000000E+00  0.00000000000E+00  0.31196581053E+04  0.31196581053E+04  0.00000000000E+00 0.  1.
          2   -1    0    0  501    0  0.00000000000E+00 -0.00000000000E+00 -0.25583660012E+04  0.25583660012E+04  0.00000000000E+00 0. -1.
         23    2    1    2    0    0 -0.12032758609E+04 -0.16160203151E+04 -0.17083865554E+04  0.26430882467E+04  0.89086479201E+02 0.  0.
         13    1    3    3    0    0 -0.51332041917E+03 -0.75998551381E+03 -0.79505748424E+03  0.12137513078E+04  0.00000000000E+00 0. -1.
        -13    1    3    3    0    0 -0.68995544178E+03 -0.85603480128E+03 -0.91332907116E+03  0.14293369389E+04  0.00000000000E+00 0.  1.
         22    1    1    2    0    0  0.12032758609E+04  0.16160203151E+04  0.22696786595E+04  0.30349358599E+04  0.00000000000E+00 0.  1.
<mgrwt>
<rscale>  0 0.56502132E+04</rscale>
<asrwt>0</asrwt>
<pdfrwt beam="1">  1        2 0.39359477E+00 0.56502132E+04</pdfrwt>
<pdfrwt beam="2">  1       -2 0.47994740E+00 0.56502132E+04</pdfrwt>
<totfact> 0.49565756E-03</totfact>
</mgrwt>
</event>
<event>
 6    1  0.2003386E-005  0.1792177E+04  0.7818608E-02  0.8710471E-01
          2   -1    0    0  501    0  0.00000000000E+00  0.00000000000E+00  0.12151919099E+04  0.12151919099E+04  0.00000000000E+00 0. -1.
         -2   -1    0    0    0  501 -0.00000000000E+00 -0.00000000000E+00 -0.66078000884E+03  0.66078000884E+03  0.00000000000E+00 0.  1.
         23    2    1    2    0    0  0.44735432943E+03  0.21029650454E+03 -0.50147479704E+03  0.71010432973E+03  0.91764214977E+02 0.  0.
         11    1    3    3    0    0  0.91172452566E+02  0.40371031350E+02 -0.15849684303E+03  0.18725246468E+03  0.00000000000E+00 0. -1.
        -11    1    3    3    0    0  0.35618187686E+03  0.16992547319E+03 -0.34297795401E+03  0.52285186505E+03  0.00000000000E+00 0.  1.
         22    1    1    2    0    0 -0.44735432943E+03 -0.21029650454E+03  0.10558866981E+04  0.11658675890E+04  0.00000000000E+00 0. -1.
<mgrwt>
<rscale>  0 0.17921769E+04</rscale>
<asrwt>0</asrwt>
<pdfrwt beam="1">  1        2 0.18695260E+00 0.17921769E+04</pdfrwt>
<pdfrwt beam="2">  1       -2 0.10165846E+00 0.17921769E+04</pdfrwt>
<totfact> 0.13920254E+01</totfact>
</mgrwt>
</event>
<event>
 6    1  0.2003386E-005  0.1095299E+04  0.7818608E-02  0.9209786E-01
         -1   -1    0    0    0  501 -0.00000000000E+00  0.00000000000E+00  0.54057684064E+03  0.54057684064E+03  0.00000000000E+00 0.  1.
          1   -1    0    0  501    0  0.00000000000E+00 -0.00000000000E+00 -0.55481483326E+03  0.55481483326E+03  0.00000000000E+00 0. -1.
         23    2    1    2    0    0  0.27746489298E+03 -0.30836473374E+03 -0.35886536492E+03  0.55609249757E+03  0.91536549351E+02 0.  0.
         13    1    3    3    0    0  0.56380402962E+02 -0.12564351008E+03 -0.12570833075E+03  0.18646078913E+03  0.00000000000E+00 0.  1.
        -13    1    3    3    0    0  0.22108449002E+03 -0.18272122366E+03 -0.23315703417E+03  0.36963170844E+03  0.00000000000E+00 0. -1.
         22    1    1    2    0    0 -0.27746489298E+03  0.30836473374E+03  0.34462737229E+03  0.53929917633E+03  0.00000000000E+00 0.  1.
<mgrwt>
<rscale>  0 0.10952991E+04</rscale>
<asrwt>0</asrwt>
<pdfrwt beam="1">  1        1 0.85356128E-01 0.10952991E+04</pdfrwt>
<pdfrwt beam="2">  1       -1 0.83165668E-01 0.10952991E+04</pdfrwt>
<totfact> 0.54848314E+01</totfact>
</mgrwt>
</event>
<event>
 6    1  0.2003386E-005  0.2883042E+04  0.7818608E-02  0.8277941E-01
          1   -1    0    0  501    0  0.00000000000E+00  0.00000000000E+00  0.21276868611E+04  0.21276868611E+04  0.00000000000E+00 0. -1.
         -1   -1    0    0    0  501 -0.00000000000E+00 -0.00000000000E+00 -0.97663967170E+03  0.97663967170E+03  0.00000000000E+00 0.  1.
         23    2    1    2    0    0  0.44280748684E+03 -0.74652116243E+03  0.18132520790E+04  0.20125904694E+04  0.96254761349E+02 0.  0.
         13    1    3    3    0    0  0.11391680348E+03 -0.20615343674E+03  0.59423869389E+03  0.63921506781E+03  0.00000000000E+00 0. -1.
        -13    1    3    3    0    0  0.32889068337E+03 -0.54036772569E+03  0.12190133851E+04  0.13733754016E+04  0.00000000000E+00 0.  1.
         22    1    1    2    0    0 -0.44280748684E+03  0.74652116243E+03 -0.66220488960E+03  0.10917360634E+04  0.00000000000E+00 0.  1.
<mgrwt>
<rscale>  0 0.28830424E+04</rscale>
<asrwt>0</asrwt>
<pdfrwt beam="1">  1        1 0.32733644E+00 0.28830424E+04</pdfrwt>
<pdfrwt beam="2">  1       -1 0.15025226E+00 0.28830424E+04</pdfrwt>
<totfact> 0.72846050E-01</totfact>
</mgrwt>
</event>
<event>
 6    1  0.2003386E-005  0.2460090E+04  0.7818608E-02  0.8417343E-01
         -2   -1    0    0    0  501 -0.00000000000E+00  0.00000000000E+00  0.14363501840E+04  0.14363501840E+04  0.00000000000E+00 0.  1.
          2   -1    0    0  501    0  0.00000000000E+00 -0.00000000000E+00 -0.10533716851E+04  0.10533716851E+04  0.00000000000E+00 0. -1.
         23    2    1    2    0    0  0.71875246147E+03  0.59677970649E+03  0.99841196879E+03  0.13710130263E+04  0.10049447697E+03 0.  0.
         13    1    3    3    0    0  0.38404093176E+03  0.34832618542E+03  0.48800302851E+03  0.71201511540E+03  0.00000000000E+00 0.  1.
        -13    1    3    3    0    0  0.33471152971E+03  0.24845352107E+03  0.51040894028E+03  0.65899791089E+03  0.00000000000E+00 0. -1.
         22    1    1    2    0    0 -0.71875246147E+03 -0.59677970649E+03 -0.61543346992E+03  0.11187088427E+04  0.00000000000E+00 0. -1.
<mgrwt>
<rscale>  0 0.24600899E+04</rscale>
<asrwt>0</asrwt>
<pdfrwt beam="1">  1        2 0.16205718E+00 0.24600899E+04</pdfrwt>
<pdfrwt beam="2">  1       -2 0.22097695E+00 0.24600899E+04</pdfrwt>
<totfact> 0.20306618E+00</totfact>
</mgrwt>
</event>
<event>
 6    1  0.2003386E-005  0.1946236E+04  0.7818608E-02  0.8632178E-01
          2   -1    0    0  501    0  0.00000000000E+00  0.00000000000E+00  0.20399335408E+04  0.20399335408E+04  0.00000000000E+00 0. -1.
         -2   -1    0    0    0  501 -0.00000000000E+00 -0.00000000000E+00 -0.46421041745E+03  0.46421041745E+03  0.00000000000E+00 0.  1.
         23    2    1    2    0    0 -0.43206548006E+03 -0.34182722011E+03 -0.23927478922E+03  0.60737200304E+03  0.90121572601E+02 0.  0.
         11    1    3    3    0    0 -0.22419770306E+03 -0.12767319476E+03 -0.13533533981E+03  0.29134294040E+03  0.00000000000E+00 0. -1.
        -11    1    3    3    0    0 -0.20786777700E+03 -0.21415402535E+03 -0.10393944941E+03  0.31602906264E+03  0.00000000000E+00 0.  1.
         22    1    1    2    0    0  0.43206548006E+03  0.34182722011E+03  0.18149979126E+04  0.18967719552E+04  0.00000000000E+00 0. -1.
<mgrwt>
<rscale>  0 0.19462358E+04</rscale>
<asrwt>0</asrwt>
<pdfrwt beam="1">  1        2 0.31383592E+00 0.19462358E+04</pdfrwt>
<pdfrwt beam="2">  1       -2 0.71416989E-01 0.19462358E+04</pdfrwt>
<totfact> 0.10536614E+01</totfact>
</mgrwt>
</event>
<event>
 6    1  0.2003386E-005  0.3570332E+04  0.7818608E-02  0.8097321E-01
         -2   -1    0    0    0  501 -0.00000000000E+00  0.00000000000E+00  0.19736046859E+04  0.19736046859E+04  0.00000000000E+00 0.  1.
          2   -1    0    0  501    0  0.00000000000E+00 -0.00000000000E+00 -0.16147195579E+04  0.16147195579E+04  0.00000000000E+00 0. -1.
         23    2    1    2    0    0 -0.12278876399E+04  0.82016339227E+03  0.11858030475E+04  0.18959385632E+04  0.89878371978E+02 0.  0.
         13    1    3    3    0    0 -0.79380867986E+03  0.49053748470E+03  0.78437531928E+03  0.12190175904E+04  0.00000000000E+00 0.  1.
        -13    1    3    3    0    0 -0.43407896008E+03  0.32962590757E+03  0.40142772821E+03  0.67692097286E+03  0.00000000000E+00 0. -1.
         22    1    1    2    0    0  0.12278876399E+04 -0.82016339227E+03 -0.82691791951E+03  0.16923856806E+04  0.00000000000E+00 0. -1.
<mgrwt>
<rscale>  0 0.35703322E+04</rscale>
<asrwt>0</asrwt>
<pdfrwt beam="1">  1        2 0.24841839E+00 0.35703322E+04</pdfrwt>
<pdfrwt beam="2">  1       -2 0.30363149E+00 0.35703322E+04</pdfrwt>
<totfact> 0.26992571E-01</totfact>
</mgrwt>
</event>
<event>
 6    1  0.2003386E-005  0.3595276E+04  0.7818608E-02  0.8091575E-01
          2   -1    0    0  501    0  0.00000000000E+00  0.00000000000E+00  0.23290735876E+04  0.23290735876E+04  0.00000000000E+00 0. -1.
         -2   -1    0    0    0  501 -0.00000000000E+00 -0.00000000000E+00 -0.13874624968E+04  0.13874624968E+04  0.00000000000E+00 0.  1.
         23    2    1    2    0    0 -0.33336258144E+03 -0.13305802521E+04  0.16696495264E+04  0.21635987445E+04  0.10888327793E+03 0.  0.
         13    1    3    3    0    0 -0.14839071071E+03 -0.76080871675E+03  0.99684113373E+03  0.12627517382E+04  0.00000000000E+00 0.  1.
        -13    1    3    3    0    0 -0.18497187073E+03 -0.56977153534E+03  0.67280839262E+03  0.90084700623E+03  0.00000000000E+00 0. -1.
         22    1    1    2    0    0  0.33336258144E+03  0.13305802521E+04 -0.72803843564E+03  0.15529373399E+04  0.00000000000E+00 0.  1.
<mgrwt>
<rscale>  0 0.35952759E+04</rscale>
<asrwt>0</asrwt>
<pdfrwt beam="1">  1        2 0.35831901E+00 0.35952759E+04</pdfrwt>
<pdfrwt beam="2">  1       -2 0.21345577E+00 0.35952759E+04</pdfrwt>
<totfact> 0.38715454E-01</totfact>
</mgrwt>
</event>
<event>
 6    1  0.2003386E-005  0.2641554E+04  0.7818608E-02  0.8354222E-01
         -2   -1    0    0    0  501 -0.00000000000E+00  0.00000000000E+00  0.82561961857E+03  0.82561961857E+03  0.00000000000E+00 0.  1.
          2   -1    0    0  501    0  0.00000000000E+00 -0.00000000000E+00 -0.21129007055E+04  0.21129007055E+04  0.00000000000E+00 0. -1.
         23    2    1    2    0    0  0.63099114118E+03  0.89436304826E+03 -0.14635323997E+04  0.18298726760E+04  0.92042614439E+02 0.  0.
         13    1    3    3    0    0  0.27500794719E+03  0.46397292880E+03 -0.69068924359E+03  0.87632863749E+03  0.00000000000E+00 0. -1.
        -13    1    3    3    0    0  0.35598319399E+03  0.43039011946E+03 -0.77284315612E+03  0.95354403846E+03  0.00000000000E+00 0.  1.
         22    1    1    2    0    0 -0.63099114118E+03 -0.89436304826E+03  0.17625131281E+03  0.11086476481E+04  0.00000000000E+00 0.  1.
<mgrwt>
<rscale>  0 0.26415543E+04</rscale>
<asrwt>0</asrwt>
<pdfrwt beam="1">  1        2 0.32506164E+00 0.26415543E+04</pdfrwt>
<pdfrwt beam="2">  1       -2 0.12701841E+00 0.26415543E+04</pdfrwt>
<totfact> 0.23460778E+00</totfact>
</mgrwt>
</event>
<event>
 6    1  0.2003386E-005  0.1496047E+04  0.7818608E-02  0.8887086E-01
          2   -1    0    0  501    0  0.00000000000E+00  0.00000000000E+00  0.14900860640E+04  0.14900860640E+04  0.00000000000E+00 0. -1.
         -2   -1    0    0    0  501 -0.00000000000E+00 -0.00000000000E+00 -0.37550800895E+03  0.37550800895E+03  0.00000000000E+00 0.  1.
         23    2    1    2    0    0 -0.43705148821E+03 -0.51068621765E+03  0.96096200159E+03  0.11760925805E+04  0.89058256829E+02 0.  0.
         13    1    3    3    0    0 -0.28006221753E+03 -0.38699326186E+03  0.65703873184E+03  0.81234138486E+03  0.00000000000E+00 0. -1.
        -13    1    3    3    0    0 -0.15698927068E+03 -0.12369295580E+03  0.30392326974E+03  0.36375119562E+03  0.00000000000E+00 0.  1.
         22    1    1    2    0    0  0.43705148821E+03  0.51068621765E+03  0.15361605346E+03  0.68950149248E+03  0.00000000000E+00 0.  1.
<mgrwt>
<rscale>  0 0.14960471E+04</rscale>
<asrwt>0</asrwt>
<pdfrwt beam="1">  1        2 0.22924401E+00 0.14960471E+04</pdfrwt>
<pdfrwt beam="2">  1       -2 0.57770463E-01 0.14960471E+04</pdfrwt>
<totfact> 0.34857979E+01</totfact>
</mgrwt>
</event>
<event>
 6    1  0.3695582E-005  0.3465266E+04  0.7818608E-02  0.8122071E-01
         -2   -1    0    0    0  501 -0.00000000000E+00  0.00000000000E+00  0.25904276803E+04  0.25904276803E+04  0.00000000000E+00 0.  1.
          2   -1    0    0  501    0  0.00000000000E+00 -0.00000000000E+00 -0.11588883551E+04  0.11588883551E+04  0.00000000000E+00 0. -1.
         23    2    1    2    0    0 -0.16403230099E+04  0.15634764367E+03  0.14087910372E+03  0.16562541706E+04  0.90701671747E+02 0.  0.
         11    1    3    3    0    0 -0.86972686064E+03  0.40453879962E+02  0.90680673295E+02  0.87537666923E+03  0.00000000000E+00 0. -1.
        -11    1    3    3    0    0 -0.77059614928E+03  0.11589376370E+03  0.50198430429E+02  0.78087750138E+03  0.00000000000E+00 0.  1.
         22    1    1    2    0    0  0.16403230099E+04 -0.15634764367E+03  0.12906602215E+04  0.20930618648E+04  0.00000000000E+00 0.  1.
<mgrwt>
<rscale>  0 0.34652656E+04</rscale>
<asrwt>0</asrwt>
<pdfrwt beam="1">  1        2 0.17829052E+00 0.34652656E+04</pdfrwt>
<pdfrwt beam="2">  1       -2 0.39852733E+00 0.34652656E+04</pdfrwt>
<totfact> 0.12528631E-01</totfact>
</mgrwt>
</event>
<event>
 6    1  0.2003386E-005  0.2222143E+04  0.7818608E-02  0.8509268E-01
          1   -1    0    0  501    0  0.00000000000E+00  0.00000000000E+00  0.21760448283E+04  0.21760448283E+04  0.00000000000E+00 0. -1.
         -1   -1    0    0    0  501 -0.00000000000E+00 -0.00000000000E+00 -0.56730448696E+03  0.56730448696E+03  0.00000000000E+00 0.  1.
         23    2    1    2    0    0  0.68930422820E+03  0.14878380876E+03  0.18627493302E+04  0.19938177901E+04  0.90539341070E+02 0.  0.
         11    1    3    3    0    0  0.37969291014E+03  0.59329261731E+02  0.90191277903E+03  0.98037407569E+03  0.00000000000E+00 0. -1.
        -11    1    3    3    0    0  0.30961131806E+03  0.89454547031E+02  0.96083655120E+03  0.10134437145E+04  0.00000000000E+00 0.  1.
         22    1    1    2    0    0 -0.68930422820E+03 -0.14878380876E+03 -0.25400898886E+03  0.74953152515E+03  0.00000000000E+00 0.  1.
<mgrwt>
<rscale>  0 0.22221431E+04</rscale>
<asrwt>0</asrwt>
<pdfrwt beam="1">  1        1 0.33477612E+00 0.22221431E+04</pdfrwt>
<pdfrwt beam="2">  1       -1 0.87277614E-01 0.22221431E+04</pdfrwt>
<totfact> 0.26597470E+00</totfact>
</mgrwt>
</event>
<event>
 6    1  0.2003386E-005  0.1759536E+04  0.7818608E-02  0.8728119E-01
          2   -1    0    0  501    0  0.00000000000E+00  0.00000000000E+00  0.67328743645E+03  0.67328743645E+03  0.00000000000E+00 0. -1.
         -2   -1    0    0    0  501 -0.00000000000E+00 -0.00000000000E+00 -0.11495712431E+04  0.11495712431E+04  0.00000000000E+00 0.  1.
         23    2    1    2    0    0  0.15285573058E+03  0.73879410319E+03 -0.70289267861E+03  0.10351193939E+04  0.90732798116E+02 0.  0.
         11    1    3    3    0    0  0.15438327882E+03  0.58436356876E+03 -0.58095237607E+03  0.83834398699E+03  0.00000000000E+00 0. -1.
        -11    1    3    3    0    0 -0.15275482437E+01  0.15443053444E+03 -0.12194030254E+03  0.19677540688E+03  0.00000000000E+00 0.  1.
         22    1    1    2    0    0 -0.15285573058E+03 -0.73879410319E+03  0.22660887199E+03  0.78773928565E+03  0.00000000000E+00 0. -1.
<mgrwt>
<rscale>  0 0.17595362E+04</rscale>
<asrwt>0</asrwt>
<pdfrwt beam="1">  1        2 0.10358268E+00 0.17595362E+04</pdfrwt>
<pdfrwt beam="2">  1       -2 0.17685711E+00 0.17595362E+04</pdfrwt>
<totfact> 0.77655204E+00</totfact>
</mgrwt>
</event>
<event>
 6    1  0.2003386E-005  0.1595046E+04  0.7818608E-02  0.8823597E-01
         -2   -1    0    0    0  501 -0.00000000000E+00  0.00000000000E+00  0.52417615889E+03  0.52417615889E+03  0.00000000000E+00 0.  1.
          2   -1    0    0  501    0  0.00000000000E+00 -0.00000000000E+00 -0.12134145536E+04  0.12134145536E+04  0.00000000000E+00 0. -1.
         23    2    1    2    0    0  0.28743889490E+03  0.44076932551E+03  0.30336196437E+03  0.61413435400E+03  0.90740325778E+02 0.  0.
         11    1    3    3    0    0  0.16966205746E+03  0.17773851796E+03  0.14446231528E+03  0.28503605920E+03  0.00000000000E+00 0.  1.
        -11    1    3    3    0    0  0.11777683744E+03  0.26303080755E+03  0.15889964909E+03  0.32909829480E+03  0.00000000000E+00 0. -1.
         22    1    1    2    0    0 -0.28743889490E+03 -0.44076932551E+03 -0.99260035911E+03  0.11234563585E+04  0.00000000000E+00 0. -1.
<mgrwt>
<rscale>  0 0.15950461E+04</rscale>
<asrwt>0</asrwt>
<pdfrwt beam="1">  1        2 0.18667916E+00 0.15950461E+04</pdfrwt>
<pdfrwt beam="2">  1       -2 0.80642486E-01 0.15950461E+04</pdfrwt>
<totfact> 0.24219544E+01</totfact>
</mgrwt>
</event>
<event>
 6    1  0.2003386E-005  0.2012447E+04  0.7818608E-02  0.8600823E-01
          2   -1    0    0  501    0  0.00000000000E+00  0.00000000000E+00  0.15516060838E+04  0.15516060838E+04  0.00000000000E+00 0. -1.
         -2   -1    0    0    0  501 -0.00000000000E+00 -0.00000000000E+00 -0.65254035604E+03  0.65254035604E+03  0.00000000000E+00 0.  1.
         23    2    1    2    0    0  0.11432228277E+03  0.56601916145E+03  0.13502913483E+04  0.14713082338E+04  0.89520490567E+02 0.  0.
         13    1    3    3    0    0  0.11415091886E+03  0.51041924235E+03  0.11483069928E+04  0.12618110734E+04  0.00000000000E+00 0.  1.
        -13    1    3    3    0    0  0.17136390616E+00  0.55599919100E+02  0.20198435551E+03  0.20949716046E+03  0.00000000000E+00 0. -1.
         22    1    1    2    0    0 -0.11432228277E+03 -0.56601916145E+03 -0.45122562056E+03  0.73283820596E+03  0.00000000000E+00 0.  1.
<mgrwt>
<rscale>  0 0.20124469E+04</rscale>
<asrwt>0</asrwt>
<pdfrwt beam="1">  1        2 0.23870863E+00 0.20124469E+04</pdfrwt>
<pdfrwt beam="2">  1       -2 0.10039082E+00 0.20124469E+04</pdfrwt>
<totfact> 0.90179886E+00</totfact>
</mgrwt>
</event>
<event>
 6    1  0.2003386E-005  0.2385489E+04  0.7818608E-02  0.8444956E-01
         -2   -1    0    0    0  501 -0.00000000000E+00  0.00000000000E+00  0.41691979916E+03  0.41691979916E+03  0.00000000000E+00 0.  1.
          2   -1    0    0  501    0  0.00000000000E+00 -0.00000000000E+00 -0.34122616489E+04  0.34122616489E+04  0.00000000000E+00 0. -1.
         23    2    1    2    0    0  0.86167822509E+03 -0.81108629329E+03 -0.12845993336E+04  0.17490395550E+04  0.92701554796E+02 0.  0.
         13    1    3    3    0    0  0.60716673637E+03 -0.58754222512E+03 -0.85608407084E+03  0.12028039110E+04  0.00000000000E+00 0. -1.
        -13    1    3    3    0    0  0.25451148872E+03 -0.22354406818E+03 -0.42851526278E+03  0.54623564397E+03  0.00000000000E+00 0.  1.
         22    1    1    2    0    0 -0.86167822509E+03  0.81108629329E+03 -0.17107425161E+04  0.20801418930E+04  0.00000000000E+00 0.  1.
<mgrwt>
<rscale>  0 0.23854890E+04</rscale>
<asrwt>0</asrwt>
<pdfrwt beam="1">  1        2 0.52496334E+00 0.23854890E+04</pdfrwt>
<pdfrwt beam="2">  1       -2 0.64141507E-01 0.23854890E+04</pdfrwt>
<totfact> 0.18945642E+00</totfact>
</mgrwt>
</event>
<event>
 6    1  0.2003386E-005  0.5326150E+03  0.7818608E-02  0.1005600E+00
         -1   -1    0    0    0  501 -0.00000000000E+00  0.00000000000E+00  0.45803843695E+02  0.45803843695E+02  0.00000000000E+00 0.  1.
          1   -1    0    0  501    0  0.00000000000E+00 -0.00000000000E+00 -0.15483345436E+04  0.15483345436E+04  0.00000000000E+00 0. -1.
         23    2    1    2    0    0 -0.21798219410E+03 -0.12146528720E+03 -0.57124613512E+03  0.63000095231E+03  0.91153716770E+02 0.  0.
         11    1    3    3    0    0 -0.11889110261E+03 -0.24037206037E+02 -0.33009412482E+03  0.35167458366E+03  0.00000000000E+00 0.  1.
        -11    1    3    3    0    0 -0.99091091490E+02 -0.97428081164E+02 -0.24115201031E+03  0.27832636865E+03  0.00000000000E+00 0. -1.
         22    1    1    2    0    0  0.21798219410E+03  0.12146528720E+03 -0.93128456477E+03  0.96413743497E+03  0.00000000000E+00 0. -1.
<mgrwt>
<rscale>  0 0.53261496E+03</rscale>
<asrwt>0</asrwt>
<pdfrwt beam="1">  1        1 0.23820527E+00 0.53261496E+03</pdfrwt>
<pdfrwt beam="2">  1       -1 0.70467465E-02 0.53261496E+03</pdfrwt>
<totfact> 0.68214765E+02</totfact>
</mgrwt>
</event>
<event>
 6    1  0.2003386E-005  0.4792524E+03  0.7818608E-02  0.1019341E+00
          1   -1    0    0  501    0  0.00000000000E+00  0.00000000000E+00  0.70016339606E+03  0.70016339606E+03  0.00000000000E+00 0. -1.
         -1   -1    0    0    0  501 -0.00000000000E+00 -0.00000000000E+00 -0.82010458716E+02  0.82010458716E+02  0.00000000000E+00 0.  1.
         23    2    1    2    0    0 -0.18282386629E+03  0.12172099940E+03  0.43677139851E+03  0.49732331430E+03  0.91217633224E+02 0.  0.
         11    1    3    3    0    0 -0.11088913860E+03  0.51158765072E+02  0.32315631364E+03  0.34546146435E+03  0.00000000000E+00 0. -1.
        -11    1    3    3    0    0 -0.71934727685E+02  0.70562234332E+02  0.11361508486E+03  0.15186184995E+03  0.00000000000E+00 0.  1.
         22    1    1    2    0    0  0.18282386629E+03 -0.12172099940E+03  0.18138153884E+03  0.28485054048E+03  0.00000000000E+00 0.  1.
<mgrwt>
<rscale>  0 0.47925242E+03</rscale>
<asrwt>0</asrwt>
<pdfrwt beam="1">  1        1 0.10771744E+00 0.47925242E+03</pdfrwt>
<pdfrwt beam="2">  1       -1 0.12616994E-01 0.47925242E+03</pdfrwt>
<totfact> 0.11927029E+03</totfact>
</mgrwt>
</event>
<event>
 6    1  0.2003386E-005  0.3525509E+04  0.7818608E-02  0.8107771E-01
          2   -1    0    0  501    0  0.00000000000E+00  0.00000000000E+00  0.28658987291E+04  0.28658987291E+04  0.00000000000E+00 0.  1.
         -2   -1    0    0    0  501 -0.00000000000E+00 -0.00000000000E+00 -0.10842337955E+04  0.10842337955E+04  0.00000000000E+00 0. -1.
         23    2    1    2    0    0  0.81642318991E+03  0.56542599154E+03  0.25216139749E+04  0.27116746284E+04  0.91590803366E+02 0.  0.
         13    1    3    3    0    0  0.16044794737E+03  0.14827449726E+03  0.61619247997E+03  0.65377522340E+03  0.00000000000E+00 0.  1.
        -13    1    3    3    0    0  0.65597524253E+03  0.41715149428E+03  0.19054214949E+04  0.20578994050E+04  0.00000000000E+00 0. -1.
         22    1    1    2    0    0 -0.81642318991E+03 -0.56542599154E+03 -0.73994904131E+03  0.12384578962E+04  0.00000000000E+00 0. -1.
<mgrwt>
<rscale>  0 0.35255095E+04</rscale>
<asrwt>0</asrwt>
<pdfrwt beam="1">  1        2 0.44090749E+00 0.35255095E+04</pdfrwt>
<pdfrwt beam="2">  1       -2 0.16680520E+00 0.35255095E+04</pdfrwt>
<totfact> 0.38820955E-01</totfact>
</mgrwt>
</event>
<event>
 6    1  0.2003386E-005  0.9919793E+03  0.7818608E-02  0.9317386E-01
          2   -1    0    0  501    0  0.00000000000E+00  0.00000000000E+00  0.49294301617E+03  0.49294301617E+03  0.00000000000E+00 0. -1.
         -2   -1    0    0    0  501 -0.00000000000E+00 -0.00000000000E+00 -0.49905511661E+03  0.49905511661E+03  0.00000000000E+00 0.  1.
         23    2    1    2    0    0  0.92898040078E+02 -0.35442720571E+03  0.32493523801E+03  0.49819550997E+03  0.91472221258E+02 0.  0.
         11    1    3    3    0    0  0.10234105217E+03 -0.23135566465E+03  0.23689844903E+03  0.34658333727E+03  0.00000000000E+00 0. -1.
        -11    1    3    3    0    0 -0.94430120951E+01 -0.12307154106E+03  0.88036788980E+02  0.15161217270E+03  0.00000000000E+00 0.  1.
         22    1    1    2    0    0 -0.92898040078E+02  0.35442720571E+03 -0.33104733845E+03  0.49380262281E+03  0.00000000000E+00 0. -1.
<mgrwt>
<rscale>  0 0.99197930E+03</rscale>
<asrwt>0</asrwt>
<pdfrwt beam="1">  1        2 0.75837387E-01 0.99197930E+03</pdfrwt>
<pdfrwt beam="2">  1       -2 0.76777711E-01 0.99197930E+03</pdfrwt>
<totfact> 0.94853705E+01</totfact>
</mgrwt>
</event>
<event>
 6    1  0.2003386E-005  0.2582355E+04  0.7818608E-02  0.8374219E-01
         -1   -1    0    0    0  501 -0.00000000000E+00  0.00000000000E+00  0.63418732551E+03  0.63418732551E+03  0.00000000000E+00 0.  1.
          1   -1    0    0  501    0  0.00000000000E+00 -0.00000000000E+00 -0.26287812040E+04  0.26287812040E+04  0.00000000000E+00 0. -1.
         23    2    1    2    0    0  0.59512451682E+03  0.10981228433E+04 -0.59295793404E+03  0.13855686546E+04  0.90301802960E+02 0.  0.
         11    1    3    3    0    0  0.21395229611E+03  0.33268029876E+03 -0.15485411126E+03  0.42477236488E+03  0.00000000000E+00 0. -1.
        -11    1    3    3    0    0  0.38117222071E+03  0.76544254453E+03 -0.43810382278E+03  0.96079628973E+03  0.00000000000E+00 0.  1.
         22    1    1    2    0    0 -0.59512451682E+03 -0.10981228433E+04 -0.14016359444E+04  0.18773998749E+04  0.00000000000E+00 0. -1.
<mgrwt>
<rscale>  0 0.25823553E+04</rscale>
<asrwt>0</asrwt>
<pdfrwt beam="1">  1        1 0.40442787E+00 0.25823553E+04</pdfrwt>
<pdfrwt beam="2">  1       -1 0.97567283E-01 0.25823553E+04</pdfrwt>
<totfact> 0.97915477E-01</totfact>
</mgrwt>
</event>
<event>
 6    1  0.2003386E-005  0.1523318E+04  0.7818608E-02  0.8869093E-01
          2   -1    0    0  501    0  0.00000000000E+00  0.00000000000E+00  0.14859040255E+04  0.14859040255E+04  0.00000000000E+00 0. -1.
         -2   -1    0    0    0  501 -0.00000000000E+00 -0.00000000000E+00 -0.39041860324E+03  0.39041860324E+03  0.00000000000E+00 0.  1.
         23    2    1    2    0    0  0.58189201630E+03  0.38200820507E+03  0.17908580120E+03  0.72553296383E+03  0.98983685679E+02 0.  0.
         13    1    3    3    0    0  0.23043679251E+03  0.20987866101E+03  0.75047981615E+02  0.32059689212E+03  0.00000000000E+00 0.  1.
        -13    1    3    3    0    0  0.35145522379E+03  0.17212954406E+03  0.10403781959E+03  0.40493607171E+03  0.00000000000E+00 0. -1.
         22    1    1    2    0    0 -0.58189201630E+03 -0.38200820507E+03  0.91639962104E+03  0.11507896649E+04  0.00000000000E+00 0. -1.
<mgrwt>
<rscale>  0 0.15233182E+04</rscale>
<asrwt>0</asrwt>
<pdfrwt beam="1">  1        2 0.22860062E+00 0.15233182E+04</pdfrwt>
<pdfrwt beam="2">  1       -2 0.60064401E-01 0.15233182E+04</pdfrwt>
<totfact> 0.32219418E+01</totfact>
</mgrwt>
</event>
<event>
 6    1  0.2003386E-005  0.1225953E+04  0.7818608E-02  0.9090438E-01
         -2   -1    0    0    0  501 -0.00000000000E+00  0.00000000000E+00  0.14408258373E+04  0.14408258373E+04  0.00000000000E+00 0.  1.
          2   -1    0    0  501    0  0.00000000000E+00 -0.00000000000E+00 -0.26078109975E+03  0.26078109975E+03  0.00000000000E+00 0. -1.
         23    2    1    2    0    0 -0.19517222195E+03 -0.11643675288E+03 -0.19280387570E+03  0.31007431848E+03  0.85574732554E+02 0.  0.
         13    1    3    3    0    0 -0.12531513178E+03 -0.85970337651E+02 -0.17506708286E+03  0.23182593623E+03  0.00000000000E+00 0.  1.
        -13    1    3    3    0    0 -0.69857090167E+02 -0.30466415231E+02 -0.17736792842E+02  0.78248382245E+02  0.00000000000E+00 0. -1.
         22    1    1    2    0    0  0.19517222195E+03  0.11643675288E+03  0.13728486133E+04  0.13915326186E+04  0.00000000000E+00 0.  1.
<mgrwt>
<rscale>  0 0.12259529E+04</rscale>
<asrwt>0</asrwt>
<pdfrwt beam="1">  1        2 0.40120170E-01 0.12259529E+04</pdfrwt>
<pdfrwt beam="2">  1       -2 0.22166551E+00 0.12259529E+04</pdfrwt>
<totfact> 0.12204064E+01</totfact>
</mgrwt>
</event>
<event>
 6    1  0.2003386E-005  0.2233651E+04  0.7818608E-02  0.8504551E-01
         -2   -1    0    0    0  501 -0.00000000000E+00  0.00000000000E+00  0.66669031401E+03  0.66669031401E+03  0.00000000000E+00 0.  1.
          2   -1    0    0  501    0  0.00000000000E+00 -0.00000000000E+00 -0.18708826881E+04  0.18708826881E+04  0.00000000000E+00 0. -1.
         23    2    1    2    0    0  0.12359295491E+03  0.99296693030E+03 -0.44627251377E+02  0.10059562690E+04  0.93262428050E+02 0.  0.
         11    1    3    3    0    0  0.12698816769E+02  0.11334719528E+03  0.24586610381E+02  0.11667625309E+03  0.00000000000E+00 0.  1.
        -11    1    3    3    0    0  0.11089413814E+03  0.87961973502E+03 -0.69213861757E+02  0.88928001595E+03  0.00000000000E+00 0. -1.
         22    1    1    2    0    0 -0.12359295491E+03 -0.99296693030E+03 -0.11595651227E+04  0.15316167330E+04  0.00000000000E+00 0. -1.
<mgrwt>
<rscale>  0 0.22336512E+04</rscale>
<asrwt>0</asrwt>
<pdfrwt beam="1">  1        2 0.28782811E+00 0.22336512E+04</pdfrwt>
<pdfrwt beam="2">  1       -2 0.10256774E+00 0.22336512E+04</pdfrwt>
<totfact> 0.55860059E+00</totfact>
</mgrwt>
</event>
<event>
 6    1  0.2003386E-005  0.5807927E+04  0.7818608E-02  0.7714683E-01
         -2   -1    0    0    0  501 -0.00000000000E+00  0.00000000000E+00  0.20927652489E+04  0.20927652489E+04  0.00000000000E+00 0. -1.
          2   -1    0    0  501    0  0.00000000000E+00 -0.00000000000E+00 -0.40295989310E+04  0.40295989310E+04  0.00000000000E+00 0.  1.
         23    2    1    2    0    0 -0.22650251207E+04  0.48413490537E+03 -0.28139300691E+04  0.36456680992E+04  0.89263944675E+02 0.  0.
         11    1    3    3    0    0 -0.17718393102E+04  0.41090998392E+03 -0.21786149608E+04  0.28380670717E+04  0.00000000000E+00 0.  1.
        -11    1    3    3    0    0 -0.49318581046E+03  0.73224921448E+02 -0.63531510827E+03  0.80760102746E+03  0.00000000000E+00 0. -1.
         22    1    1    2    0    0  0.22650251207E+04 -0.48413490537E+03  0.87709638699E+03  0.24766960806E+04  0.00000000000E+00 0. -1.
<mgrwt>
<rscale>  0 0.58079272E+04</rscale>
<asrwt>0</asrwt>
<pdfrwt beam="1">  1        2 0.61993829E+00 0.58079272E+04</pdfrwt>
<pdfrwt beam="2">  1       -2 0.32196389E+00 0.58079272E+04</pdfrwt>
<totfact> 0.51194498E-03</totfact>
</mgrwt>
</event>
<event>
 6    1  0.2003386E-005  0.1091125E+04  0.7818608E-02  0.9213885E-01
          1   -1    0    0  501    0  0.00000000000E+00  0.00000000000E+00  0.21190117069E+04  0.21190117069E+04  0.00000000000E+00 0. -1.
         -1   -1    0    0    0  501 -0.00000000000E+00 -0.00000000000E+00 -0.14046099788E+03  0.14046099788E+03  0.00000000000E+00 0.  1.
         23    2    1    2    0    0 -0.78203436267E+02  0.15816181239E+03  0.20569190568E+04  0.20664117448E+04  0.89501713730E+02 0.  0.
         13    1    3    3    0    0 -0.78570957156E+02  0.74204588384E+02  0.90340770137E+03  0.90984899359E+03  0.00000000000E+00 0. -1.
        -13    1    3    3    0    0  0.36752088923E+00  0.83957224008E+02  0.11535113554E+04  0.11565627512E+04  0.00000000000E+00 0.  1.
         22    1    1    2    0    0  0.78203436267E+02 -0.15816181239E+03 -0.78368347710E+02  0.19306095997E+03  0.00000000000E+00 0.  1.
<mgrwt>
<rscale>  0 0.10911251E+04</rscale>
<asrwt>0</asrwt>
<pdfrwt beam="1">  1        1 0.32600178E+00 0.10911251E+04</pdfrwt>
<pdfrwt beam="2">  1       -1 0.21609386E-01 0.10911251E+04</pdfrwt>
<totfact> 0.44475975E+01</totfact>
</mgrwt>
</event>
<event>
 6    1  0.2003386E-005  0.2764621E+04  0.7818608E-02  0.8314337E-01
          2   -1    0    0  501    0  0.00000000000E+00  0.00000000000E+00  0.19568430166E+04  0.19568430166E+04  0.00000000000E+00 0. -1.
         -2   -1    0    0    0  501 -0.00000000000E+00 -0.00000000000E+00 -0.97646187833E+03  0.97646187833E+03  0.00000000000E+00 0.  1.
         23    2    1    2    0    0  0.51178828753E+03 -0.63126500077E+03  0.16752332608E+04  0.18640798369E+04  0.89243530213E+02 0.  0.
         13    1    3    3    0    0  0.30723476618E+03 -0.36035704354E+03  0.10709786112E+04  0.11710019582E+04  0.00000000000E+00 0.  1.
        -13    1    3    3    0    0  0.20455352135E+03 -0.27090795723E+03  0.60425464960E+03  0.69307787871E+03  0.00000000000E+00 0. -1.
         22    1    1    2    0    0 -0.51178828753E+03  0.63126500077E+03 -0.69485212257E+03  0.10692250580E+04  0.00000000000E+00 0.  1.
<mgrwt>
<rscale>  0 0.27646212E+04</rscale>
<asrwt>0</asrwt>
<pdfrwt beam="1">  1        2 0.30105277E+00 0.27646212E+04</pdfrwt>
<pdfrwt beam="2">  1       -2 0.15022490E+00 0.27646212E+04</pdfrwt>
<totfact> 0.18390495E+00</totfact>
</mgrwt>
</event>
<event>
 6    1  0.2003386E-005  0.2444375E+04  0.7818608E-02  0.8423075E-01
         -2   -1    0    0    0  501 -0.00000000000E+00  0.00000000000E+00  0.61178785865E+03  0.61178785865E+03  0.00000000000E+00 0.  1.
          2   -1    0    0  501    0  0.00000000000E+00 -0.00000000000E+00 -0.24416012923E+04  0.24416012923E+04  0.00000000000E+00 0. -1.
         23    2    1    2    0    0 -0.32191754564E+03  0.10637556473E+04 -0.15463282616E+04  0.19064057919E+04  0.89693742842E+02 0.  0.
         13    1    3    3    0    0 -0.57258018507E+02  0.14269690535E+03 -0.26451712972E+03  0.30595783924E+03  0.00000000000E+00 0. -1.
        -13    1    3    3    0    0 -0.26465952713E+03  0.92105874192E+03 -0.12818111318E+04  0.16004479526E+04  0.00000000000E+00 0.  1.
         22    1    1    2    0    0  0.32191754564E+03 -0.10637556473E+04 -0.28348517213E+03  0.11469833591E+04  0.00000000000E+00 0.  1.
<mgrwt>
<rscale>  0 0.24443748E+04</rscale>
<asrwt>0</asrwt>
<pdfrwt beam="1">  1        2 0.37563097E+00 0.24443748E+04</pdfrwt>
<pdfrwt beam="2">  1       -2 0.94121208E-01 0.24443748E+04</pdfrwt>
<totfact> 0.32103577E+00</totfact>
</mgrwt>
</event>
<event>
 6    1  0.2003386E-005  0.2021694E+04  0.7818608E-02  0.8596544E-01
         -2   -1    0    0    0  501 -0.00000000000E+00  0.00000000000E+00  0.44336424107E+03  0.44336424107E+03  0.00000000000E+00 0.  1.
          2   -1    0    0  501    0  0.00000000000E+00 -0.00000000000E+00 -0.23046786659E+04  0.23046786659E+04  0.00000000000E+00 0. -1.
         23    2    1    2    0    0  0.34322722712E+03 -0.86857280769E+03 -0.14509808040E+04  0.17279461801E+04  0.90714146056E+02 0.  0.
         11    1    3    3    0    0  0.15598234645E+03 -0.51669930062E+03 -0.83646745597E+03  0.99548303078E+03  0.00000000000E+00 0. -1.
        -11    1    3    3    0    0  0.18724488066E+03 -0.35187350706E+03 -0.61451334799E+03  0.73246314936E+03  0.00000000000E+00 0.  1.
         22    1    1    2    0    0 -0.34322722712E+03  0.86857280769E+03 -0.41033362088E+03  0.10200967268E+04  0.00000000000E+00 0. -1.
<mgrwt>
<rscale>  0 0.20216944E+04</rscale>
<asrwt>0</asrwt>
<pdfrwt beam="1">  1        2 0.35456595E+00 0.20216944E+04</pdfrwt>
<pdfrwt beam="2">  1       -2 0.68209883E-01 0.20216944E+04</pdfrwt>
<totfact> 0.82208715E+00</totfact>
</mgrwt>
</event>
<event>
 6    1  0.2003386E-005  0.1972147E+04  0.7818608E-02  0.8619754E-01
          2   -1    0    0  501    0  0.00000000000E+00  0.00000000000E+00  0.52381384326E+03  0.52381384326E+03  0.00000000000E+00 0. -1.
         -2   -1    0    0    0  501 -0.00000000000E+00 -0.00000000000E+00 -0.18562726528E+04  0.18562726528E+04  0.00000000000E+00 0.  1.
         23    2    1    2    0    0  0.24030118534E+03  0.95412105829E+03 -0.65525113383E+03  0.11856402270E+04  0.91088122107E+02 0.  0.
         11    1    3    3    0    0  0.12367058621E+03  0.32929340475E+03 -0.25574802168E+03  0.43489724177E+03  0.00000000000E+00 0. -1.
        -11    1    3    3    0    0  0.11663059912E+03  0.62482765354E+03 -0.39950311215E+03  0.75074298525E+03  0.00000000000E+00 0.  1.
         22    1    1    2    0    0 -0.24030118534E+03 -0.95412105829E+03 -0.67720767568E+03  0.11944462690E+04  0.00000000000E+00 0.  1.
<mgrwt>
<rscale>  0 0.19721474E+04</rscale>
<asrwt>0</asrwt>
<pdfrwt beam="1">  1        2 0.80586745E-01 0.19721474E+04</pdfrwt>
<pdfrwt beam="2">  1       -2 0.28558041E+00 0.19721474E+04</pdfrwt>
<totfact> 0.21157844E+00</totfact>
</mgrwt>
</event>
<event>
 6    1  0.2003386E-005  0.3073379E+04  0.7818608E-02  0.8223082E-01
          2   -1    0    0  501    0  0.00000000000E+00  0.00000000000E+00  0.29178069184E+04  0.29178069184E+04  0.00000000000E+00 0. -1.
         -2   -1    0    0    0  501 -0.00000000000E+00 -0.00000000000E+00 -0.80931161246E+03  0.80931161246E+03  0.00000000000E+00 0.  1.
         23    2    1    2    0    0 -0.11648682176E+04 -0.99999622629E+03  0.10336277887E+04  0.18530185878E+04  0.91548151738E+02 0.  0.
         13    1    3    3    0    0 -0.26428438387E+03 -0.27876161565E+03  0.26342093883E+03  0.46577340513E+03  0.00000000000E+00 0.  1.
        -13    1    3    3    0    0 -0.90058383374E+03 -0.72123461064E+03  0.77020684987E+03  0.13872451826E+04  0.00000000000E+00 0. -1.
         22    1    1    2    0    0  0.11648682176E+04  0.99999622629E+03  0.10748675172E+04  0.18740999431E+04  0.00000000000E+00 0. -1.
<mgrwt>
<rscale>  0 0.30733793E+04</rscale>
<asrwt>0</asrwt>
<pdfrwt beam="1">  1        2 0.44889337E+00 0.30733793E+04</pdfrwt>
<pdfrwt beam="2">  1       -2 0.12450948E+00 0.30733793E+04</pdfrwt>
<totfact> 0.80664659E-01</totfact>
</mgrwt>
</event>
<event>
 6    1  0.2003386E-005  0.2293593E+04  0.7818608E-02  0.8480452E-01
          2   -1    0    0  501    0  0.00000000000E+00  0.00000000000E+00  0.58750833514E+03  0.58750833514E+03  0.00000000000E+00 0. -1.
         -2   -1    0    0    0  501 -0.00000000000E+00 -0.00000000000E+00 -0.22385072399E+04  0.22385072399E+04  0.00000000000E+00 0.  1.
         23    2    1    2    0    0 -0.31978126016E+03 -0.95751062158E+03 -0.16018753651E+03  0.10255697468E+04  0.83944111828E+02 0.  0.
         13    1    3    3    0    0 -0.25383461016E+03 -0.73451642276E+03 -0.88134221209E+02  0.78212149029E+03  0.00000000000E+00 0.  1.
        -13    1    3    3    0    0 -0.65946650000E+02 -0.22299419882E+03 -0.72053315305E+02  0.24344825651E+03  0.00000000000E+00 0. -1.
         22    1    1    2    0    0  0.31978126016E+03  0.95751062158E+03 -0.14908113683E+04  0.18004458283E+04  0.00000000000E+00 0.  1.
<mgrwt>
<rscale>  0 0.22935925E+04</rscale>
<asrwt>0</asrwt>
<pdfrwt beam="1">  1        2 0.90385897E-01 0.22935925E+04</pdfrwt>
<pdfrwt beam="2">  1       -2 0.34438573E+00 0.22935925E+04</pdfrwt>
<totfact> 0.77962766E-01</totfact>
</mgrwt>
</event>
<event>
 6    1  0.2003386E-005  0.5165717E+04  0.7818608E-02  0.7803440E-01
         -1   -1    0    0    0  501 -0.00000000000E+00  0.00000000000E+00  0.22263290866E+04  0.22263290866E+04  0.00000000000E+00 0.  1.
          1   -1    0    0  501    0  0.00000000000E+00 -0.00000000000E+00 -0.29964828356E+04  0.29964828356E+04  0.00000000000E+00 0. -1.
         23    2    1    2    0    0 -0.24423216783E+04 -0.83102909827E+03 -0.49353758291E+03  0.26281903610E+04  0.90888312053E+02 0.  0.
         11    1    3    3    0    0 -0.73223075073E+03 -0.28555240669E+03 -0.12619954184E+03  0.79600777235E+03  0.00000000000E+00 0.  1.
        -11    1    3    3    0    0 -0.17100909276E+04 -0.54547669159E+03 -0.36733804107E+03  0.18321825886E+04  0.00000000000E+00 0. -1.
         22    1    1    2    0    0  0.24423216783E+04  0.83102909827E+03 -0.27661616609E+03  0.25946215612E+04  0.00000000000E+00 0.  1.
<mgrwt>
<rscale>  0 0.51657166E+04</rscale>
<asrwt>0</asrwt>
<pdfrwt beam="1">  1        1 0.46099736E+00 0.51657166E+04</pdfrwt>
<pdfrwt beam="2">  1       -1 0.34251217E+00 0.51657166E+04</pdfrwt>
<totfact> 0.74619443E-03</totfact>
</mgrwt>
</event>
<event>
 6    1  0.2003386E-005  0.2924109E+04  0.7818608E-02  0.8265740E-01
          2   -1    0    0  501    0  0.00000000000E+00  0.00000000000E+00  0.25009572977E+04  0.25009572977E+04  0.00000000000E+00 0. -1.
         -2   -1    0    0    0  501 -0.00000000000E+00 -0.00000000000E+00 -0.85471409979E+03  0.85471409979E+03  0.00000000000E+00 0.  1.
         23    2    1    2    0    0 -0.20698823665E+02 -0.13637104347E+04  0.14239625666E+04  0.19738091503E+04  0.90103162741E+02 0.  0.
         11    1    3    3    0    0 -0.31129162458E+01 -0.50102732003E+03  0.58631399497E+03  0.77123418387E+03  0.00000000000E+00 0. -1.
        -11    1    3    3    0    0 -0.17585907419E+02 -0.86268311464E+03  0.83764857163E+03  0.12025749665E+04  0.00000000000E+00 0.  1.
         22    1    1    2    0    0  0.20698823665E+02  0.13637104347E+04  0.22228063126E+03  0.13818622471E+04  0.00000000000E+00 0.  1.
<mgrwt>
<rscale>  0 0.29241091E+04</rscale>
<asrwt>0</asrwt>
<pdfrwt beam="1">  1        2 0.38476266E+00 0.29241091E+04</pdfrwt>
<pdfrwt beam="2">  1       -2 0.13149448E+00 0.29241091E+04</pdfrwt>
<totfact> 0.12631201E+00</totfact>
</mgrwt>
</event>
<event>
 6    1  0.2003386E-005  0.3429347E+04  0.7818608E-02  0.8130741E-01
          2   -1    0    0  501    0  0.00000000000E+00  0.00000000000E+00  0.13890070839E+04  0.13890070839E+04  0.00000000000E+00 0. -1.
         -2   -1    0    0    0  501 -0.00000000000E+00 -0.00000000000E+00 -0.21166954761E+04  0.21166954761E+04  0.00000000000E+00 0.  1.
         23    2    1    2    0    0 -0.23238708716E+03  0.14793868771E+04 -0.12152481701E+04  0.19308045227E+04  0.92675237105E+02 0.  0.
         11    1    3    3    0    0 -0.13294338816E+03  0.60081717498E+03 -0.46660360813E+03  0.77225264604E+03  0.00000000000E+00 0. -1.
        -11    1    3    3    0    0 -0.99443699005E+02  0.87856970215E+03 -0.74864456198E+03  0.11585518767E+04  0.00000000000E+00 0.  1.
         22    1    1    2    0    0  0.23238708716E+03 -0.14793868771E+04  0.48755977791E+03  0.15748980372E+04  0.00000000000E+00 0. -1.
<mgrwt>
<rscale>  0 0.34293469E+04</rscale>
<asrwt>0</asrwt>
<pdfrwt beam="1">  1        2 0.21369340E+00 0.34293469E+04</pdfrwt>
<pdfrwt beam="2">  1       -2 0.32564546E+00 0.34293469E+04</pdfrwt>
<totfact> 0.26800767E-01</totfact>
</mgrwt>
</event>
<event>
 6    1  0.2003386E-005  0.1543798E+04  0.7818608E-02  0.8855839E-01
          2   -1    0    0  501    0  0.00000000000E+00  0.00000000000E+00  0.36117722908E+03  0.36117722908E+03  0.00000000000E+00 0.  1.
         -2   -1    0    0    0  501 -0.00000000000E+00 -0.00000000000E+00 -0.16496824270E+04  0.16496824270E+04  0.00000000000E+00 0. -1.
         23    2    1    2    0    0 -0.71360062828E+03 -0.25136790495E+03 -0.82742380209E+03  0.11248530343E+04  0.90843382525E+02 0.  0.
         13    1    3    3    0    0 -0.41841684502E+03 -0.14009314471E+03 -0.41618328107E+03  0.60655359931E+03  0.00000000000E+00 0. -1.
        -13    1    3    3    0    0 -0.29518378326E+03 -0.11127476024E+03 -0.41124052101E+03  0.51829943497E+03  0.00000000000E+00 0.  1.
         22    1    1    2    0    0  0.71360062828E+03  0.25136790495E+03 -0.46108139585E+03  0.88600662182E+03  0.00000000000E+00 0. -1.
<mgrwt>
<rscale>  0 0.15437976E+04</rscale>
<asrwt>0</asrwt>
<pdfrwt beam="1">  1        2 0.55565727E-01 0.15437976E+04</pdfrwt>
<pdfrwt beam="2">  1       -2 0.25379730E+00 0.15437976E+04</pdfrwt>
<totfact> 0.52350002E+00</totfact>
</mgrwt>
</event>
<event>
 6    1  0.2003386E-005  0.1357913E+04  0.7818608E-02  0.8984860E-01
         -2   -1    0    0    0  501 -0.00000000000E+00  0.00000000000E+00  0.46946410767E+03  0.46946410767E+03  0.00000000000E+00 0.  1.
          2   -1    0    0  501    0  0.00000000000E+00 -0.00000000000E+00 -0.98193203059E+03  0.98193203059E+03  0.00000000000E+00 0. -1.
         23    2    1    2    0    0 -0.67448002120E+03 -0.11910809147E+02 -0.21227562731E+03  0.71303269068E+03  0.91046744343E+02 0.  0.
         11    1    3    3    0    0 -0.23986321211E+03  0.12966630323E+02 -0.11792098715E+03  0.26759643727E+03  0.00000000000E+00 0.  1.
        -11    1    3    3    0    0 -0.43461680909E+03 -0.24877439470E+02 -0.94354640160E+02  0.44543625342E+03  0.00000000000E+00 0. -1.
         22    1    1    2    0    0  0.67448002120E+03  0.11910809147E+02 -0.30019229562E+03  0.73836344758E+03  0.00000000000E+00 0.  1.
<mgrwt>
<rscale>  0 0.13579129E+04</rscale>
<asrwt>0</asrwt>
<pdfrwt beam="1">  1        2 0.15106647E+00 0.13579129E+04</pdfrwt>
<pdfrwt beam="2">  1       -2 0.72225248E-01 0.13579129E+04</pdfrwt>
<totfact> 0.43851922E+01</totfact>
</mgrwt>
</event>
<event>
 6    1  0.2003386E-005  0.3465977E+04  0.7818608E-02  0.8121900E-01
         -2   -1    0    0    0  501 -0.00000000000E+00  0.00000000000E+00  0.35438917980E+04  0.35438917980E+04  0.00000000000E+00 0.  1.
          2   -1    0    0  501    0  0.00000000000E+00 -0.00000000000E+00 -0.84744402855E+03  0.84744402855E+03  0.00000000000E+00 0. -1.
         23    2    1    2    0    0 -0.61030297625E+03 -0.13650666494E+03 -0.69691186962E+03  0.94082956913E+03  0.91489517110E+02 0.  0.
         11    1    3    3    0    0 -0.39859772425E+03 -0.98896094211E+02 -0.51842711292E+03  0.66138283516E+03  0.00000000000E+00 0. -1.
        -11    1    3    3    0    0 -0.21170525200E+03 -0.37610570732E+02 -0.17848475670E+03  0.27944673398E+03  0.00000000000E+00 0.  1.
         22    1    1    2    0    0  0.61030297625E+03  0.13650666494E+03  0.33933596391E+04  0.34505062574E+04  0.00000000000E+00 0.  1.
<mgrwt>
<rscale>  0 0.34659775E+04</rscale>
<asrwt>0</asrwt>
<pdfrwt beam="1">  1        2 0.13037601E+00 0.34659775E+04</pdfrwt>
<pdfrwt beam="2">  1       -2 0.54521411E+00 0.34659775E+04</pdfrwt>
<totfact> 0.23657751E-02</totfact>
</mgrwt>
</event>
<event>
 6    1  0.2003386E-005  0.1461786E+04  0.7818608E-02  0.8910270E-01
          2   -1    0    0  501    0  0.00000000000E+00  0.00000000000E+00  0.22664573532E+04  0.22664573532E+04  0.00000000000E+00 0. -1.
         -2   -1    0    0    0  501 -0.00000000000E+00 -0.00000000000E+00 -0.23570026903E+03  0.23570026903E+03  0.00000000000E+00 0.  1.
         23    2    1    2    0    0 -0.59167214569E+03 -0.39895059033E+03  0.77073672718E+03  0.10540938109E+04  0.88550314231E+02 0.  0.
         11    1    3    3    0    0 -0.27634654513E+03 -0.13382330276E+03  0.33607056351E+03  0.45521370039E+03  0.00000000000E+00 0. -1.
        -11    1    3    3    0    0 -0.31532560055E+03 -0.26512728757E+03  0.43466616367E+03  0.59888011055E+03  0.00000000000E+00 0.  1.
         22    1    1    2    0    0  0.59167214569E+03  0.39895059033E+03  0.12600203570E+04  0.14480638113E+04  0.00000000000E+00 0. -1.
<mgrwt>
<rscale>  0 0.14617860E+04</rscale>
<asrwt>0</asrwt>
<pdfrwt beam="1">  1        2 0.34868573E+00 0.14617860E+04</pdfrwt>
<pdfrwt beam="2">  1       -2 0.36261581E-01 0.14617860E+04</pdfrwt>
<totfact> 0.32898176E+01</totfact>
</mgrwt>
</event>
<event>
 6    1  0.2003386E-005  0.2748958E+04  0.7818608E-02  0.8319292E-01
         -2   -1    0    0    0  501 -0.00000000000E+00  0.00000000000E+00  0.14928645776E+04  0.14928645776E+04  0.00000000000E+00 0.  1.
          2   -1    0    0  501    0  0.00000000000E+00 -0.00000000000E+00 -0.12654817315E+04  0.12654817315E+04  0.00000000000E+00 0. -1.
         23    2    1    2    0    0  0.53616563771E+03  0.11400197464E+04 -0.43385342273E+03  0.13355490584E+04  0.91344850804E+02 0.  0.
         11    1    3    3    0    0  0.37649428015E+03  0.87702008866E+03 -0.35100242925E+03  0.10169143938E+04  0.00000000000E+00 0. -1.
        -11    1    3    3    0    0  0.15967135756E+03  0.26299965773E+03 -0.82850993480E+02  0.31863466464E+03  0.00000000000E+00 0.  1.
         22    1    1    2    0    0 -0.53616563771E+03 -0.11400197464E+04  0.66123626886E+03  0.14227972507E+04  0.00000000000E+00 0.  1.
<mgrwt>
<rscale>  0 0.27489582E+04</rscale>
<asrwt>0</asrwt>
<pdfrwt beam="1">  1        2 0.19468950E+00 0.27489582E+04</pdfrwt>
<pdfrwt beam="2">  1       -2 0.22967147E+00 0.27489582E+04</pdfrwt>
<totfact> 0.13000893E+00</totfact>
</mgrwt>
</event>
<event>
 6    1  0.2003386E-005  0.2412716E+04  0.7818608E-02  0.8434758E-01
          2   -1    0    0  501    0  0.00000000000E+00  0.00000000000E+00  0.25006693230E+04  0.25006693230E+04  0.00000000000E+00 0. -1.
         -2   -1    0    0    0  501 -0.00000000000E+00 -0.00000000000E+00 -0.58196402503E+03  0.58196402503E+03  0.00000000000E+00 0.  1.
         23    2    1    2    0    0 -0.13279039946E+03 -0.94076750741E+03  0.19068705661E+04  0.21324665973E+04  0.92637139891E+02 0.  0.
         13    1    3    3    0    0 -0.11239776488E+03 -0.66160599765E+03  0.14271401502E+04  0.15770493847E+04  0.00000000000E+00 0. -1.
        -13    1    3    3    0    0 -0.20392634580E+02 -0.27916150976E+03  0.47973041594E+03  0.55541721260E+03  0.00000000000E+00 0.  1.
         22    1    1    2    0    0  0.13279039946E+03  0.94076750741E+03  0.11834731833E+02  0.95016675066E+03  0.00000000000E+00 0.  1.
<mgrwt>
<rscale>  0 0.24127160E+04</rscale>
<asrwt>0</asrwt>
<pdfrwt beam="1">  1        2 0.38471835E+00 0.24127160E+04</pdfrwt>
<pdfrwt beam="2">  1       -2 0.89532928E-01 0.24127160E+04</pdfrwt>
<totfact> 0.33412574E+00</totfact>
</mgrwt>
</event>
<event>
 6    1  0.2003386E-005  0.3855403E+04  0.7818608E-02  0.8034369E-01
          2   -1    0    0  501    0  0.00000000000E+00  0.00000000000E+00  0.17570230057E+04  0.17570230057E+04  0.00000000000E+00 0. -1.
         -2   -1    0    0    0  501 -0.00000000000E+00 -0.00000000000E+00 -0.21149597863E+04  0.21149597863E+04  0.00000000000E+00 0.  1.
         23    2    1    2    0    0  0.18404769202E+04 -0.56881672321E+03 -0.20930298949E+03  0.19398855476E+04  0.91871856682E+02 0.  0.
         13    1    3    3    0    0  0.12354295513E+04 -0.34391748296E+03 -0.16317753833E+03  0.12927460386E+04  0.00000000000E+00 0.  1.
        -13    1    3    3    0    0  0.60504736881E+03 -0.22489924025E+03 -0.46125451153E+02  0.64713950893E+03  0.00000000000E+00 0. -1.
         22    1    1    2    0    0 -0.18404769202E+04  0.56881672321E+03 -0.14863379116E+03  0.19320972445E+04  0.00000000000E+00 0.  1.
<mgrwt>
<rscale>  0 0.38554030E+04</rscale>
<asrwt>0</asrwt>
<pdfrwt beam="1">  1        2 0.27031123E+00 0.38554030E+04</pdfrwt>
<pdfrwt beam="2">  1       -2 0.32537843E+00 0.38554030E+04</pdfrwt>
<totfact> 0.16134603E-01</totfact>
</mgrwt>
</event>
<event>
 6    1  0.2003386E-005  0.1033996E+04  0.7818608E-02  0.9272025E-01
         -2   -1    0    0    0  501 -0.00000000000E+00  0.00000000000E+00  0.17880199338E+03  0.17880199338E+03  0.00000000000E+00 0.  1.
          2   -1    0    0  501    0  0.00000000000E+00 -0.00000000000E+00 -0.14948773208E+04  0.14948773208E+04  0.00000000000E+00 0. -1.
         23    2    1    2    0    0  0.22356036939E+03 -0.30853911003E+03 -0.12197595344E+04  0.12806750481E+04  0.84496365931E+02 0.  0.
         13    1    3    3    0    0  0.52640950351E+02 -0.13575572243E+03 -0.40159237139E+03  0.42717340575E+03  0.00000000000E+00 0.  1.
        -13    1    3    3    0    0  0.17091941904E+03 -0.17278338760E+03 -0.81816716302E+03  0.85350164234E+03  0.00000000000E+00 0. -1.
         22    1    1    2    0    0 -0.22356036939E+03  0.30853911003E+03 -0.96315793033E+02  0.39300426610E+03  0.00000000000E+00 0.  1.
<mgrwt>
<rscale>  0 0.10339962E+04</rscale>
<asrwt>0</asrwt>
<pdfrwt beam="1">  1        2 0.22998112E+00 0.10339962E+04</pdfrwt>
<pdfrwt beam="2">  1       -2 0.27507999E-01 0.10339962E+04</pdfrwt>
<totfact> 0.15325833E+02</totfact>
</mgrwt>
</event>
<event>
 6    1  0.2003386E-005  0.4661905E+04  0.7818608E-02  0.7882889E-01
         -1   -1    0    0    0  501 -0.00000000000E+00  0.00000000000E+00  0.18388007800E+04  0.18388007800E+04  0.00000000000E+00 0. -1.
          1   -1    0    0  501    0  0.00000000000E+00 -0.00000000000E+00 -0.29548282645E+04  0.29548282645E+04  0.00000000000E+00 0.  1.
         23    2    1    2    0    0 -0.16364546122E+04 -0.16280782720E+04 -0.23216006172E+03  0.23218191452E+04  0.91232074990E+02 0.  0.
         11    1    3    3    0    0 -0.28026097603E+03 -0.27217510690E+03 -0.73480947257E+02  0.39752352523E+03  0.00000000000E+00 0. -1.
        -11    1    3    3    0    0 -0.13561936361E+04 -0.13559031651E+04 -0.15867911447E+03  0.19242956200E+04  0.00000000000E+00 0.  1.
         22    1    1    2    0    0  0.16364546122E+04  0.16280782720E+04 -0.88386742275E+03  0.24718098993E+04  0.00000000000E+00 0.  1.
<mgrwt>
<rscale>  0 0.46619054E+04</rscale>
<asrwt>0</asrwt>
<pdfrwt beam="1">  1        1 0.45458896E+00 0.46619054E+04</pdfrwt>
<pdfrwt beam="2">  1       -1 0.28289243E+00 0.46619054E+04</pdfrwt>
<totfact> 0.20381922E-02</totfact>
</mgrwt>
</event>
<event>
 6    1  0.2003386E-005  0.4441064E+04  0.7818608E-02  0.7921037E-01
         -2   -1    0    0    0  501 -0.00000000000E+00  0.00000000000E+00  0.12981959177E+04  0.12981959177E+04  0.00000000000E+00 0. -1.
          2   -1    0    0  501    0  0.00000000000E+00 -0.00000000000E+00 -0.37981642989E+04  0.37981642989E+04  0.00000000000E+00 0.  1.
         23    2    1    2    0    0  0.12762023851E+04  0.23136313551E+03 -0.33174882142E+04  0.35632065696E+04  0.92149758235E+02 0.  0.
         11    1    3    3    0    0  0.65066272852E+03  0.16070384367E+03 -0.16592392630E+04  0.17894866983E+04  0.00000000000E+00 0.  1.
        -11    1    3    3    0    0  0.62553965656E+03  0.70659291835E+02 -0.16582489512E+04  0.17737198713E+04  0.00000000000E+00 0. -1.
         22    1    1    2    0    0 -0.12762023851E+04 -0.23136313551E+03  0.81751983299E+03  0.15331536471E+04  0.00000000000E+00 0. -1.
<mgrwt>
<rscale>  0 0.44410636E+04</rscale>
<asrwt>0</asrwt>
<pdfrwt beam="1">  1        2 0.58433295E+00 0.44410636E+04</pdfrwt>
<pdfrwt beam="2">  1       -2 0.19972246E+00 0.44410636E+04</pdfrwt>
<totfact> 0.49943255E-02</totfact>
</mgrwt>
</event>
<event>
 6    1  0.2003386E-005  0.1248066E+04  0.7818608E-02  0.9071795E-01
          1   -1    0    0  501    0  0.00000000000E+00  0.00000000000E+00  0.70762306332E+03  0.70762306332E+03  0.00000000000E+00 0. -1.
         -1   -1    0    0    0  501 -0.00000000000E+00 -0.00000000000E+00 -0.55031685247E+03  0.55031685247E+03  0.00000000000E+00 0.  1.
         23    2    1    2    0    0 -0.25063571983E+03 -0.81551733652E+02 -0.48726151979E+03  0.56156608752E+03  0.91998547101E+02 0.  0.
         13    1    3    3    0    0 -0.20980348262E+03 -0.93379530325E+02 -0.35645597263E+03  0.42402605866E+03  0.00000000000E+00 0.  1.
        -13    1    3    3    0    0 -0.40832237211E+02  0.11827796673E+02 -0.13080554716E+03  0.13754002886E+03  0.00000000000E+00 0. -1.
         22    1    1    2    0    0  0.25063571983E+03  0.81551733652E+02  0.64456773063E+03  0.69637382827E+03  0.00000000000E+00 0. -1.
<mgrwt>
<rscale>  0 0.12480655E+04</rscale>
<asrwt>0</asrwt>
<pdfrwt beam="1">  1        1 0.10886509E+00 0.12480655E+04</pdfrwt>
<pdfrwt beam="2">  1       -1 0.84664131E-01 0.12480655E+04</pdfrwt>
<totfact> 0.36515906E+01</totfact>
</mgrwt>
</event>
<event>
 6    1  0.2003386E-005  0.2273968E+04  0.7818608E-02  0.8488256E-01
          2   -1    0    0  501    0  0.00000000000E+00  0.00000000000E+00  0.11545158949E+04  0.11545158949E+04  0.00000000000E+00 0.  1.
         -2   -1    0    0    0  501 -0.00000000000E+00 -0.00000000000E+00 -0.11197185045E+04  0.11197185045E+04  0.00000000000E+00 0. -1.
         23    2    1    2    0    0  0.34989989733E+02  0.78771501193E+03  0.83410166732E+03  0.11514670297E+04  0.91823143684E+02 0.  0.
         11    1    3    3    0    0  0.54729577098E+02  0.34972605099E+03  0.33872555461E+03  0.48993738243E+03  0.00000000000E+00 0. -1.
        -11    1    3    3    0    0 -0.19739587365E+02  0.43798896094E+03  0.49537611270E+03  0.66152964730E+03  0.00000000000E+00 0.  1.
         22    1    1    2    0    0 -0.34989989733E+02 -0.78771501193E+03 -0.79930427691E+03  0.11227673697E+04  0.00000000000E+00 0. -1.
<mgrwt>
<rscale>  0 0.22739682E+04</rscale>
<asrwt>0</asrwt>
<pdfrwt beam="1">  1        2 0.17761783E+00 0.22739682E+04</pdfrwt>
<pdfrwt beam="2">  1       -2 0.17226439E+00 0.22739682E+04</pdfrwt>
<totfact> 0.37647289E+00</totfact>
</mgrwt>
</event>
<event>
 6    1  0.2003386E-005  0.1620622E+04  0.7818608E-02  0.8807978E-01
          1   -1    0    0  501    0  0.00000000000E+00  0.00000000000E+00  0.28170341939E+04  0.28170341939E+04  0.00000000000E+00 0. -1.
         -1   -1    0    0    0  501 -0.00000000000E+00 -0.00000000000E+00 -0.23308334440E+03  0.23308334440E+03  0.00000000000E+00 0.  1.
         23    2    1    2    0    0  0.63127575272E+03 -0.49265918672E+03  0.14964444664E+04  0.16996019762E+04  0.89881511913E+02 0.  0.
         11    1    3    3    0    0  0.33736314052E+03 -0.30747838833E+03  0.79078691506E+03  0.91307217289E+03  0.00000000000E+00 0.  1.
        -11    1    3    3    0    0  0.29391261219E+03 -0.18518079838E+03  0.70565755136E+03  0.78652980331E+03  0.00000000000E+00 0. -1.
         22    1    1    2    0    0 -0.63127575272E+03  0.49265918672E+03  0.10875063830E+04  0.13505155621E+04  0.00000000000E+00 0. -1.
<mgrwt>
<rscale>  0 0.16206218E+04</rscale>
<asrwt>0</asrwt>
<pdfrwt beam="1">  1        1 0.43338985E+00 0.16206218E+04</pdfrwt>
<pdfrwt beam="2">  1       -1 0.35858978E-01 0.16206218E+04</pdfrwt>
<totfact> 0.57871734E+00</totfact>
</mgrwt>
</event>
<event>
 6    1  0.2003386E-005  0.4171571E+04  0.7818608E-02  0.7970802E-01
         -2   -1    0    0    0  501 -0.00000000000E+00  0.00000000000E+00  0.17518719132E+04  0.17518719132E+04  0.00000000000E+00 0.  1.
          2   -1    0    0  501    0  0.00000000000E+00 -0.00000000000E+00 -0.24833439956E+04  0.24833439956E+04  0.00000000000E+00 0. -1.
         23    2    1    2    0    0 -0.74074096388E+03  0.66050906662E+03  0.14954696633E+04  0.17971349131E+04  0.91076777207E+02 0.  0.
         13    1    3    3    0    0 -0.20466076077E+03  0.14898378348E+03  0.43822613635E+03  0.50608728627E+03  0.00000000000E+00 0. -1.
        -13    1    3    3    0    0 -0.53608020311E+03  0.51152528314E+03  0.10572435269E+04  0.12910476268E+04  0.00000000000E+00 0.  1.
         22    1    1    2    0    0  0.74074096388E+03 -0.66050906662E+03 -0.22269417458E+04  0.24380809957E+04  0.00000000000E+00 0. -1.
<mgrwt>
<rscale>  0 0.41715707E+04</rscale>
<asrwt>0</asrwt>
<pdfrwt beam="1">  1        2 0.38205292E+00 0.41715707E+04</pdfrwt>
<pdfrwt beam="2">  1       -2 0.26951876E+00 0.41715707E+04</pdfrwt>
<totfact> 0.13513593E-01</totfact>
</mgrwt>
</event>
<event>
 6    1  0.2003386E-005  0.3366630E+04  0.7818608E-02  0.8146145E-01
          2   -1    0    0  501    0  0.00000000000E+00  0.00000000000E+00  0.11658604987E+04  0.11658604987E+04  0.00000000000E+00 0. -1.
         -2   -1    0    0    0  501 -0.00000000000E+00 -0.00000000000E+00 -0.24304364335E+04  0.24304364335E+04  0.00000000000E+00 0.  1.
         23    2    1    2    0    0  0.36590091958E+03 -0.13886559714E+04 -0.15683889617E+04  0.21284579611E+04  0.90777019122E+02 0.  0.
         11    1    3    3    0    0  0.16354889963E+02 -0.79201289766E+02 -0.60480972539E+02  0.10098650784E+03  0.00000000000E+00 0. -1.
        -11    1    3    3    0    0  0.34954602962E+03 -0.13094546816E+04 -0.15079079892E+04  0.20274714533E+04  0.00000000000E+00 0.  1.
         22    1    1    2    0    0 -0.36590091958E+03  0.13886559714E+04  0.30381302698E+03  0.14678389711E+04  0.00000000000E+00 0.  1.
<mgrwt>
<rscale>  0 0.33666303E+04</rscale>
<asrwt>0</asrwt>
<pdfrwt beam="1">  1        2 0.17936315E+00 0.33666303E+04</pdfrwt>
<pdfrwt beam="2">  1       -2 0.37391330E+00 0.33666303E+04</pdfrwt>
<totfact> 0.18064350E-01</totfact>
</mgrwt>
</event>
<event>
 6    1  0.2003386E-005  0.2732430E+04  0.7818608E-02  0.8324559E-01
         -2   -1    0    0    0  501 -0.00000000000E+00  0.00000000000E+00  0.14821846346E+04  0.14821846346E+04  0.00000000000E+00 0.  1.
          2   -1    0    0  501    0  0.00000000000E+00 -0.00000000000E+00 -0.12593194127E+04  0.12593194127E+04  0.00000000000E+00 0. -1.
         23    2    1    2    0    0  0.92644417251E+03  0.17258615984E+03 -0.87886133781E+03  0.12917157180E+04  0.89707624011E+02 0.  0.
         11    1    3    3    0    0  0.48399879802E+03  0.44772239932E+02 -0.45724712340E+03  0.66733374095E+03  0.00000000000E+00 0. -1.
        -11    1    3    3    0    0  0.44244537449E+03  0.12781391991E+03 -0.42161421441E+03  0.62438197710E+03  0.00000000000E+00 0.  1.
         22    1    1    2    0    0 -0.92644417251E+03 -0.17258615984E+03  0.11017265597E+04  0.14497883293E+04  0.00000000000E+00 0.  1.
<mgrwt>
<rscale>  0 0.27324303E+04</rscale>
<asrwt>0</asrwt>
<pdfrwt beam="1">  1        2 0.19374145E+00 0.27324303E+04</pdfrwt>
<pdfrwt beam="2">  1       -2 0.22802841E+00 0.27324303E+04</pdfrwt>
<totfact> 0.13442728E+00</totfact>
</mgrwt>
</event>
<event>
 6    1  0.2003386E-005  0.3739000E+04  0.7818608E-02  0.8059373E-01
          2   -1    0    0  501    0  0.00000000000E+00  0.00000000000E+00  0.14553813954E+04  0.14553813954E+04  0.00000000000E+00 0.  1.
         -2   -1    0    0    0  501 -0.00000000000E+00 -0.00000000000E+00 -0.24014537590E+04  0.24014537590E+04  0.00000000000E+00 0. -1.
         23    2    1    2    0    0 -0.15434980359E+03  0.14029568319E+04  0.78943710280E+03  0.16198494946E+04  0.92680697435E+02 0.  0.
         11    1    3    3    0    0 -0.41568118137E+02  0.33308233321E+03  0.23348855399E+03  0.40888709198E+03  0.00000000000E+00 0.  1.
        -11    1    3    3    0    0 -0.11278168545E+03  0.10698744987E+04  0.55594854881E+03  0.12109624026E+04  0.00000000000E+00 0. -1.
         22    1    1    2    0    0  0.15434980359E+03 -0.14029568319E+04 -0.17355094664E+04  0.22369856598E+04  0.00000000000E+00 0. -1.
<mgrwt>
<rscale>  0 0.37390005E+04</rscale>
<asrwt>0</asrwt>
<pdfrwt beam="1">  1        2 0.22390483E+00 0.37390005E+04</pdfrwt>
<pdfrwt beam="2">  1       -2 0.36945443E+00 0.37390005E+04</pdfrwt>
<totfact> 0.12682884E-01</totfact>
</mgrwt>
</event>
<event>
 6    1  0.2003386E-005  0.1859336E+04  0.7818608E-02  0.8675367E-01
          2   -1    0    0  501    0  0.00000000000E+00  0.00000000000E+00  0.18339487208E+04  0.18339487208E+04  0.00000000000E+00 0.  1.
         -2   -1    0    0    0  501 -0.00000000000E+00 -0.00000000000E+00 -0.47126842720E+03  0.47126842720E+03  0.00000000000E+00 0. -1.
         23    2    1    2    0    0  0.34965236838E+03 -0.48482475252E+02  0.17462409235E+04  0.17839436249E+04  0.92142091477E+02 0.  0.
         13    1    3    3    0    0  0.32952776585E+03 -0.37276658159E+02  0.14795894716E+04  0.15162991467E+04  0.00000000000E+00 0.  1.
        -13    1    3    3    0    0  0.20124602533E+02 -0.11205817092E+02  0.26665145185E+03  0.26764447825E+03  0.00000000000E+00 0. -1.
         22    1    1    2    0    0 -0.34965236838E+03  0.48482475252E+02 -0.38356062983E+03  0.52127352309E+03  0.00000000000E+00 0. -1.
<mgrwt>
<rscale>  0 0.18593355E+04</rscale>
<asrwt>0</asrwt>
<pdfrwt beam="1">  1        2 0.28214595E+00 0.18593355E+04</pdfrwt>
<pdfrwt beam="2">  1       -2 0.72502836E-01 0.18593355E+04</pdfrwt>
<totfact> 0.13359143E+01</totfact>
</mgrwt>
</event>
<event>
 6    1  0.2003386E-005  0.7643825E+03  0.7818608E-02  0.9613053E-01
          1   -1    0    0  501    0  0.00000000000E+00  0.00000000000E+00  0.56833555591E+03  0.56833555591E+03  0.00000000000E+00 0. -1.
         -1   -1    0    0    0  501 -0.00000000000E+00 -0.00000000000E+00 -0.25701391335E+03  0.25701391335E+03  0.00000000000E+00 0.  1.
         23    2    1    2    0    0  0.23054762339E+03  0.26615940907E+03  0.14984549414E+02  0.36512266597E+03  0.95378125364E+02 0.  0.
         13    1    3    3    0    0  0.15262080652E+03  0.14392326505E+03 -0.33140537981E+02  0.21238011221E+03  0.00000000000E+00 0. -1.
        -13    1    3    3    0    0  0.77926816871E+02  0.12223614402E+03  0.48125087395E+02  0.15274255376E+03  0.00000000000E+00 0.  1.
         22    1    1    2    0    0 -0.23054762339E+03 -0.26615940907E+03  0.29633709315E+03  0.46022680329E+03  0.00000000000E+00 0.  1.
<mgrwt>
<rscale>  0 0.76438248E+03</rscale>
<asrwt>0</asrwt>
<pdfrwt beam="1">  1        1 0.87436239E-01 0.76438248E+03</pdfrwt>
<pdfrwt beam="2">  1       -1 0.39540602E-01 0.76438248E+03</pdfrwt>
<totfact> 0.23299326E+02</totfact>
</mgrwt>
</event>
<event>
 6    1  0.2003386E-005  0.1277632E+04  0.7818608E-02  0.9047494E-01
         -1   -1    0    0    0  501 -0.00000000000E+00  0.00000000000E+00  0.35166912330E+03  0.35166912330E+03  0.00000000000E+00 0.  1.
          1   -1    0    0  501    0  0.00000000000E+00 -0.00000000000E+00 -0.11604259381E+04  0.11604259381E+04  0.00000000000E+00 0. -1.
         23    2    1    2    0    0 -0.20866978514E+03  0.10771439699E+03 -0.11052768609E+04  0.11338496275E+04  0.93981743091E+02 0.  0.
         13    1    3    3    0    0  0.32943078537E+01  0.13939713171E+02 -0.15721436913E+03  0.15786553116E+03  0.00000000000E+00 0.  1.
        -13    1    3    3    0    0 -0.21196409299E+03  0.93774683823E+02 -0.94806249178E+03  0.97598409637E+03  0.00000000000E+00 0. -1.
         22    1    1    2    0    0  0.20866978514E+03 -0.10771439699E+03  0.29652004607E+03  0.37824543390E+03  0.00000000000E+00 0.  1.
<mgrwt>
<rscale>  0 0.12776321E+04</rscale>
<asrwt>0</asrwt>
<pdfrwt beam="1">  1        1 0.17852707E+00 0.12776321E+04</pdfrwt>
<pdfrwt beam="2">  1       -1 0.54102942E-01 0.12776321E+04</pdfrwt>
<totfact> 0.38786182E+01</totfact>
</mgrwt>
</event>
<event>
 6    1  0.2003386E-005  0.1961459E+04  0.7818608E-02  0.8624855E-01
         -2   -1    0    0    0  501 -0.00000000000E+00  0.00000000000E+00  0.61756728921E+03  0.61756728921E+03  0.00000000000E+00 0.  1.
          2   -1    0    0  501    0  0.00000000000E+00 -0.00000000000E+00 -0.15574495786E+04  0.15574495786E+04  0.00000000000E+00 0. -1.
         23    2    1    2    0    0  0.73769675069E+03 -0.63810805910E+03 -0.55927165571E+03  0.11280007048E+04  0.90677528178E+02 0.  0.
         13    1    3    3    0    0  0.48222634464E+03 -0.38151099799E+03 -0.31184198075E+03  0.68944782979E+03  0.00000000000E+00 0. -1.
        -13    1    3    3    0    0  0.25547040606E+03 -0.25659706112E+03 -0.24742967496E+03  0.43855287503E+03  0.00000000000E+00 0.  1.
         22    1    1    2    0    0 -0.73769675069E+03  0.63810805910E+03 -0.38061063367E+03  0.10470161630E+04  0.00000000000E+00 0.  1.
<mgrwt>
<rscale>  0 0.19614586E+04</rscale>
<asrwt>0</asrwt>
<pdfrwt beam="1">  1        2 0.23960762E+00 0.19614586E+04</pdfrwt>
<pdfrwt beam="2">  1       -2 0.95010353E-01 0.19614586E+04</pdfrwt>
<totfact> 0.10231719E+01</totfact>
</mgrwt>
</event>
<event>
 6    1  0.2003386E-005  0.1282364E+04  0.7818608E-02  0.9043669E-01
          2   -1    0    0  501    0  0.00000000000E+00  0.00000000000E+00  0.11610071550E+04  0.11610071550E+04  0.00000000000E+00 0. -1.
         -2   -1    0    0    0  501 -0.00000000000E+00 -0.00000000000E+00 -0.35410157274E+03  0.35410157274E+03  0.00000000000E+00 0.  1.
         23    2    1    2    0    0  0.18838865863E+03  0.59745718887E+03  0.54918561549E+03  0.83771300843E+03  0.87822918364E+02 0.  0.
         13    1    3    3    0    0  0.97795725876E+02  0.18850982505E+03  0.21101509442E+03  0.29937823604E+03  0.00000000000E+00 0.  1.
        -13    1    3    3    0    0  0.90592932755E+02  0.40894736382E+03  0.33817052107E+03  0.53833477239E+03  0.00000000000E+00 0. -1.
         22    1    1    2    0    0 -0.18838865863E+03 -0.59745718887E+03  0.25771996673E+03  0.67739571927E+03  0.00000000000E+00 0. -1.
<mgrwt>
<rscale>  0 0.12823642E+04</rscale>
<asrwt>0</asrwt>
<pdfrwt beam="1">  1        2 0.17861648E+00 0.12823642E+04</pdfrwt>
<pdfrwt beam="2">  1       -2 0.54477166E-01 0.12823642E+04</pdfrwt>
<totfact> 0.62214839E+01</totfact>
</mgrwt>
</event>
<event>
 6    1  0.2003386E-005  0.1595145E+04  0.7818608E-02  0.8823536E-01
         -2   -1    0    0    0  501 -0.00000000000E+00  0.00000000000E+00  0.12847689862E+04  0.12847689862E+04  0.00000000000E+00 0.  1.
          2   -1    0    0  501    0  0.00000000000E+00 -0.00000000000E+00 -0.49512548455E+03  0.49512548455E+03  0.00000000000E+00 0. -1.
         23    2    1    2    0    0  0.65933176469E+03 -0.14139215055E+03  0.86604992949E+03  0.11012575587E+04  0.89529962203E+02 0.  0.
         13    1    3    3    0    0  0.50899872314E+03 -0.72049437482E+02  0.63463390373E+03  0.81671966632E+03  0.00000000000E+00 0. -1.
        -13    1    3    3    0    0  0.15033304155E+03 -0.69342713071E+02  0.23141602577E+03  0.28453789241E+03  0.00000000000E+00 0.  1.
         22    1    1    2    0    0 -0.65933176469E+03  0.14139215055E+03 -0.76406427810E+02  0.67863691204E+03  0.00000000000E+00 0. -1.
<mgrwt>
<rscale>  0 0.15951450E+04</rscale>
<asrwt>0</asrwt>
<pdfrwt beam="1">  1        2 0.76173152E-01 0.15951450E+04</pdfrwt>
<pdfrwt beam="2">  1       -2 0.19765677E+00 0.15951450E+04</pdfrwt>
<totfact> 0.82261415E+00</totfact>
</mgrwt>
</event>
<event>
 6    1  0.2003386E-005  0.8400948E+03  0.7818608E-02  0.9503729E-01
         -1   -1    0    0    0  501 -0.00000000000E+00  0.00000000000E+00  0.26806807918E+03  0.26806807918E+03  0.00000000000E+00 0.  1.
          1   -1    0    0  501    0  0.00000000000E+00 -0.00000000000E+00 -0.65819039816E+03  0.65819039816E+03  0.00000000000E+00 0. -1.
         23    2    1    2    0    0  0.32634028126E+03  0.25274979801E+03 -0.14863190665E+03  0.44803461886E+03  0.90901795662E+02 0.  0.
         13    1    3    3    0    0  0.29680695683E+03  0.25713289418E+03 -0.14069102315E+03  0.41713985531E+03  0.00000000000E+00 0. -1.
        -13    1    3    3    0    0  0.29533324431E+02 -0.43830961730E+01 -0.79408835024E+01  0.30894763550E+02  0.00000000000E+00 0.  1.
         22    1    1    2    0    0 -0.32634028126E+03 -0.25274979801E+03 -0.24149041234E+03  0.47822385848E+03  0.00000000000E+00 0. -1.
<mgrwt>
<rscale>  0 0.84009484E+03</rscale>
<asrwt>0</asrwt>
<pdfrwt beam="1">  1        1 0.10126006E+00 0.84009484E+03</pdfrwt>
<pdfrwt beam="2">  1       -1 0.41241243E-01 0.84009484E+03</pdfrwt>
<totfact> 0.17374946E+02</totfact>
</mgrwt>
</event>
<event>
 6    1  0.2003386E-005  0.4449277E+04  0.7818608E-02  0.7919578E-01
          2   -1    0    0  501    0  0.00000000000E+00  0.00000000000E+00  0.39834510272E+04  0.39834510272E+04  0.00000000000E+00 0. -1.
         -2   -1    0    0    0  501 -0.00000000000E+00 -0.00000000000E+00 -0.12423940746E+04  0.12423940746E+04  0.00000000000E+00 0.  1.
         23    2    1    2    0    0  0.14803063345E+04 -0.16546039432E+04  0.15150286887E+04  0.26896735073E+04  0.10005296543E+03 0.  0.
         13    1    3    3    0    0  0.78347212477E+03 -0.93487586888E+03  0.79501657704E+03  0.14559783028E+04  0.00000000000E+00 0. -1.
        -13    1    3    3    0    0  0.69683420971E+03 -0.71972807427E+03  0.72001211168E+03  0.12336952045E+04  0.00000000000E+00 0.  1.
         22    1    1    2    0    0 -0.14803063345E+04  0.16546039432E+04  0.12260282639E+04  0.25361715944E+04  0.00000000000E+00 0.  1.
<mgrwt>
<rscale>  0 0.44492768E+04</rscale>
<asrwt>0</asrwt>
<pdfrwt beam="1">  1        2 0.61283861E+00 0.44492768E+04</pdfrwt>
<pdfrwt beam="2">  1       -2 0.19113755E+00 0.44492768E+04</pdfrwt>
<totfact> 0.40716492E-02</totfact>
</mgrwt>
</event>
<event>
 6    1  0.2003386E-005  0.2466893E+04  0.7818608E-02  0.8414876E-01
          2   -1    0    0  501    0  0.00000000000E+00  0.00000000000E+00  0.10298755110E+04  0.10298755110E+04  0.00000000000E+00 0. -1.
         -2   -1    0    0    0  501 -0.00000000000E+00 -0.00000000000E+00 -0.14772561669E+04  0.14772561669E+04  0.00000000000E+00 0.  1.
         23    2    1    2    0    0  0.24614223971E+03 -0.86272724976E+03 -0.10815869335E+04  0.14084497803E+04  0.94953562924E+02 0.  0.
         13    1    3    3    0    0  0.15828417855E+03 -0.66369611630E+03 -0.86169596310E+03  0.10991207162E+04  0.00000000000E+00 0. -1.
        -13    1    3    3    0    0  0.87858061159E+02 -0.19903113346E+03 -0.21989097041E+03  0.30932906405E+03  0.00000000000E+00 0.  1.
         22    1    1    2    0    0 -0.24614223971E+03  0.86272724976E+03  0.63420627760E+03  0.10986818976E+04  0.00000000000E+00 0. -1.
<mgrwt>
<rscale>  0 0.24668927E+04</rscale>
<asrwt>0</asrwt>
<pdfrwt beam="1">  1        2 0.15844239E+00 0.24668927E+04</pdfrwt>
<pdfrwt beam="2">  1       -2 0.22727018E+00 0.24668927E+04</pdfrwt>
<totfact> 0.19168680E+00</totfact>
</mgrwt>
</event>
<event>
 6    1  0.2003386E-005  0.1035845E+04  0.7818608E-02  0.9270082E-01
         -2   -1    0    0    0  501 -0.00000000000E+00  0.00000000000E+00  0.22007965829E+03  0.22007965829E+03  0.00000000000E+00 0. -1.
          2   -1    0    0  501    0  0.00000000000E+00 -0.00000000000E+00 -0.12188475420E+04  0.12188475420E+04  0.00000000000E+00 0.  1.
         23    2    1    2    0    0 -0.19241607506E+03 -0.27865035632E+03  0.37099312258E+02  0.34911491613E+03  0.76386508484E+02 0.  0.
         11    1    3    3    0    0 -0.96926431536E+02 -0.20423198752E+03  0.25391997526E+02  0.22748668400E+03  0.00000000000E+00 0. -1.
        -11    1    3    3    0    0 -0.95489643521E+02 -0.74418368802E+02  0.11707314733E+02  0.12162823214E+03  0.00000000000E+00 0.  1.
         22    1    1    2    0    0  0.19241607506E+03  0.27865035632E+03 -0.10358671960E+04  0.10898122842E+04  0.00000000000E+00 0.  1.
<mgrwt>
<rscale>  0 0.10358447E+04</rscale>
<asrwt>0</asrwt>
<pdfrwt beam="1">  1        2 0.18751500E+00 0.10358447E+04</pdfrwt>
<pdfrwt beam="2">  1       -2 0.33858410E-01 0.10358447E+04</pdfrwt>
<totfact> 0.14992537E+02</totfact>
</mgrwt>
</event>
<event>
 6    1  0.2003386E-005  0.8722565E+03  0.7818608E-02  0.9460942E-01
         -2   -1    0    0    0  501 -0.00000000000E+00  0.00000000000E+00  0.14980336202E+03  0.14980336202E+03  0.00000000000E+00 0.  1.
          2   -1    0    0  501    0  0.00000000000E+00 -0.00000000000E+00 -0.12697169023E+04  0.12697169023E+04  0.00000000000E+00 0. -1.
         23    2    1    2    0    0 -0.33662481966E+03 -0.15219749925E+03 -0.20545042239E+03  0.43325298718E+03  0.94962765605E+02 0.  0.
         11    1    3    3    0    0 -0.77023560416E+02 -0.77924721796E+02 -0.40349213273E+02  0.11676022498E+03  0.00000000000E+00 0.  1.
        -11    1    3    3    0    0 -0.25960125924E+03 -0.74272777453E+02 -0.16510120912E+03  0.31649276220E+03  0.00000000000E+00 0. -1.
         22    1    1    2    0    0  0.33662481966E+03  0.15219749925E+03 -0.91446311784E+03  0.98626727710E+03  0.00000000000E+00 0. -1.
<mgrwt>
<rscale>  0 0.87225652E+03</rscale>
<asrwt>0</asrwt>
<pdfrwt beam="1">  1        2 0.19534106E+00 0.87225652E+03</pdfrwt>
<pdfrwt beam="2">  1       -2 0.23046671E-01 0.87225652E+03</pdfrwt>
<totfact> 0.28679201E+02</totfact>
</mgrwt>
</event>
<event>
 6    1  0.2003386E-005  0.1049282E+04  0.7818608E-02  0.9256085E-01
          2   -1    0    0  501    0  0.00000000000E+00  0.00000000000E+00  0.63352503340E+03  0.63352503340E+03  0.00000000000E+00 0. -1.
         -2   -1    0    0    0  501 -0.00000000000E+00 -0.00000000000E+00 -0.43447101442E+03  0.43447101442E+03  0.00000000000E+00 0.  1.
         23    2    1    2    0    0  0.15126597393E+03 -0.29113768648E+03  0.51183009178E+03  0.61470649458E+03  0.90837680911E+02 0.  0.
         11    1    3    3    0    0  0.51746383778E+02 -0.16079734641E+03  0.19528577231E+03  0.25820535957E+03  0.00000000000E+00 0.  1.
        -11    1    3    3    0    0  0.99519590150E+02 -0.13034034007E+03  0.31654431947E+03  0.35650113501E+03  0.00000000000E+00 0. -1.
         22    1    1    2    0    0 -0.15126597393E+03  0.29113768648E+03 -0.31277607280E+03  0.45328955324E+03  0.00000000000E+00 0.  1.
<mgrwt>
<rscale>  0 0.10492822E+04</rscale>
<asrwt>0</asrwt>
<pdfrwt beam="1">  1        2 0.97465390E-01 0.10492822E+04</pdfrwt>
<pdfrwt beam="2">  1       -2 0.66841694E-01 0.10492822E+04</pdfrwt>
<totfact> 0.95048452E+01</totfact>
</mgrwt>
</event>
<event>
 6    1  0.2003386E-005  0.3790010E+04  0.7818608E-02  0.8048302E-01
          1   -1    0    0  501    0  0.00000000000E+00  0.00000000000E+00  0.19012533907E+04  0.19012533907E+04  0.00000000000E+00 0. -1.
         -1   -1    0    0    0  501 -0.00000000000E+00 -0.00000000000E+00 -0.18887774939E+04  0.18887774939E+04  0.00000000000E+00 0.  1.
         23    2    1    2    0    0  0.79463978473E+03  0.20996002050E+03  0.17125380489E+04  0.19017123420E+04  0.90485718184E+02 0.  0.
         11    1    3    3    0    0  0.52710397566E+03  0.11089954123E+03  0.11940235106E+04  0.13098967338E+04  0.00000000000E+00 0.  1.
        -11    1    3    3    0    0  0.26753580908E+03  0.99060479269E+02  0.51851453827E+03  0.59181560819E+03  0.00000000000E+00 0. -1.
         22    1    1    2    0    0 -0.79463978473E+03 -0.20996002050E+03 -0.17000621520E+04  0.18883185426E+04  0.00000000000E+00 0.  1.
<mgrwt>
<rscale>  0 0.37900104E+04</rscale>
<asrwt>0</asrwt>
<pdfrwt beam="1">  1        1 0.29250052E+00 0.37900104E+04</pdfrwt>
<pdfrwt beam="2">  1       -1 0.29058115E+00 0.37900104E+04</pdfrwt>
<totfact> 0.10524902E-01</totfact>
</mgrwt>
</event>
<event>
 6    1  0.2003386E-005  0.1659638E+04  0.7818608E-02  0.8784725E-01
          2   -1    0    0  501    0  0.00000000000E+00  0.00000000000E+00  0.23590445842E+04  0.23590445842E+04  0.00000000000E+00 0.  1.
         -2   -1    0    0    0  501 -0.00000000000E+00 -0.00000000000E+00 -0.29189752869E+03  0.29189752869E+03  0.00000000000E+00 0. -1.
         23    2    1    2    0    0  0.77596387737E+03 -0.26276645204E+03  0.85213182838E+03  0.11855315392E+04  0.90499890681E+02 0.  0.
         11    1    3    3    0    0  0.51124852953E+03 -0.18486262319E+03  0.50422847661E+03  0.74148203284E+03  0.00000000000E+00 0. -1.
        -11    1    3    3    0    0  0.26471534784E+03 -0.77903828853E+02  0.34790335178E+03  0.44404950638E+03  0.00000000000E+00 0.  1.
         22    1    1    2    0    0 -0.77596387737E+03  0.26276645204E+03  0.12150152272E+04  0.14654105737E+04  0.00000000000E+00 0. -1.
<mgrwt>
<rscale>  0 0.16596377E+04</rscale>
<asrwt>0</asrwt>
<pdfrwt beam="1">  1        2 0.36292992E+00 0.16596377E+04</pdfrwt>
<pdfrwt beam="2">  1       -2 0.44907314E-01 0.16596377E+04</pdfrwt>
<totfact> 0.18856903E+01</totfact>
</mgrwt>
</event>
<event>
 6    1  0.2003386E-005  0.4998262E+04  0.7818608E-02  0.7828775E-01
          2   -1    0    0  501    0  0.00000000000E+00  0.00000000000E+00  0.34634511341E+04  0.34634511341E+04  0.00000000000E+00 0. -1.
         -2   -1    0    0    0  501 -0.00000000000E+00 -0.00000000000E+00 -0.18033039269E+04  0.18033039269E+04  0.00000000000E+00 0.  1.
         23    2    1    2    0    0 -0.24675943370E+03  0.48375739026E+03  0.33998670976E+04  0.34442466995E+04  0.93955389854E+02 0.  0.
         13    1    3    3    0    0 -0.14447273233E+03  0.18715298413E+03  0.15619370355E+04  0.15797296961E+04  0.00000000000E+00 0. -1.
        -13    1    3    3    0    0 -0.10228670137E+03  0.29660440612E+03  0.18379300621E+04  0.18645170034E+04  0.00000000000E+00 0.  1.
         22    1    1    2    0    0  0.24675943370E+03 -0.48375739026E+03 -0.17397198904E+04  0.18225083615E+04  0.00000000000E+00 0.  1.
<mgrwt>
<rscale>  0 0.49982617E+04</rscale>
<asrwt>0</asrwt>
<pdfrwt beam="1">  1        2 0.53283863E+00 0.49982617E+04</pdfrwt>
<pdfrwt beam="2">  1       -2 0.27743137E+00 0.49982617E+04</pdfrwt>
<totfact> 0.27356229E-02</totfact>
</mgrwt>
</event>
<event>
 6    1  0.2003386E-005  0.2397274E+04  0.7818608E-02  0.8440525E-01
         -2   -1    0    0    0  501 -0.00000000000E+00  0.00000000000E+00  0.21778035667E+04  0.21778035667E+04  0.00000000000E+00 0.  1.
          2   -1    0    0  501    0  0.00000000000E+00 -0.00000000000E+00 -0.65971549087E+03  0.65971549087E+03  0.00000000000E+00 0. -1.
         23    2    1    2    0    0 -0.20894828894E+03  0.93409039729E+03 -0.90438856210E+02  0.96574365736E+03  0.91089885588E+02 0.  0.
         11    1    3    3    0    0 -0.15211276657E+03  0.74626353660E+03 -0.37691717180E+02  0.76254063850E+03  0.00000000000E+00 0.  1.
        -11    1    3    3    0    0 -0.56835522365E+02  0.18782686068E+03 -0.52747139029E+02  0.20320301886E+03  0.00000000000E+00 0. -1.
         22    1    1    2    0    0  0.20894828894E+03 -0.93409039729E+03  0.16085269321E+04  0.18717754003E+04  0.00000000000E+00 0.  1.
<mgrwt>
<rscale>  0 0.23972741E+04</rscale>
<asrwt>0</asrwt>
<pdfrwt beam="1">  1        2 0.10149469E+00 0.23972741E+04</pdfrwt>
<pdfrwt beam="2">  1       -2 0.33504670E+00 0.23972741E+04</pdfrwt>
<totfact> 0.76711776E-01</totfact>
</mgrwt>
</event>
<event>
 6    1  0.2003386E-005  0.7568727E+03  0.7818608E-02  0.9624630E-01
         -1   -1    0    0    0  501 -0.00000000000E+00  0.00000000000E+00  0.24464314081E+03  0.24464314081E+03  0.00000000000E+00 0.  1.
          1   -1    0    0  501    0  0.00000000000E+00 -0.00000000000E+00 -0.58539984424E+03  0.58539984424E+03  0.00000000000E+00 0. -1.
         23    2    1    2    0    0  0.11344895513E+03 -0.10293169077E+03 -0.54582005919E+03  0.57408092095E+03  0.90464182977E+02 0.  0.
         11    1    3    3    0    0  0.19569893346E+02 -0.69957516650E+02 -0.30464735375E+03  0.31318851353E+03  0.00000000000E+00 0. -1.
        -11    1    3    3    0    0  0.93879061783E+02 -0.32974174123E+02 -0.24117270544E+03  0.26089240742E+03  0.00000000000E+00 0.  1.
         22    1    1    2    0    0 -0.11344895513E+03  0.10293169077E+03  0.20506335575E+03  0.25596206410E+03  0.00000000000E+00 0.  1.
<mgrwt>
<rscale>  0 0.75687266E+03</rscale>
<asrwt>0</asrwt>
<pdfrwt beam="1">  1        1 0.90061513E-01 0.75687266E+03</pdfrwt>
<pdfrwt beam="2">  1       -1 0.37637407E-01 0.75687266E+03</pdfrwt>
<totfact> 0.24431349E+02</totfact>
</mgrwt>
</event>
<event>
 6    1  0.2003386E-005  0.2806231E+04  0.7818608E-02  0.8301337E-01
         -2   -1    0    0    0  501 -0.00000000000E+00  0.00000000000E+00  0.92724489286E+03  0.92724489286E+03  0.00000000000E+00 0.  1.
          2   -1    0    0  501    0  0.00000000000E+00 -0.00000000000E+00 -0.21232065830E+04  0.21232065830E+04  0.00000000000E+00 0. -1.
         23    2    1    2    0    0 -0.74536172752E+03  0.29563772372E+03  0.65113328111E+03  0.10368165533E+04  0.89712022054E+02 0.  0.
         13    1    3    3    0    0 -0.52752530128E+03  0.24742358994E+03  0.49444406351E+03  0.76418342581E+03  0.00000000000E+00 0.  1.
        -13    1    3    3    0    0 -0.21783642624E+03  0.48214133778E+02  0.15668921760E+03  0.27263312749E+03  0.00000000000E+00 0. -1.
         22    1    1    2    0    0  0.74536172752E+03 -0.29563772372E+03 -0.18470949713E+04  0.20136349226E+04  0.00000000000E+00 0. -1.
<mgrwt>
<rscale>  0 0.28062305E+04</rscale>
<asrwt>0</asrwt>
<pdfrwt beam="1">  1        2 0.32664716E+00 0.28062305E+04</pdfrwt>
<pdfrwt beam="2">  1       -2 0.14265306E+00 0.28062305E+04</pdfrwt>
<totfact> 0.16962347E+00</totfact>
</mgrwt>
</event>
<event>
 6    1  0.2003386E-005  0.4430544E+04  0.7818608E-02  0.7922911E-01
          2   -1    0    0  501    0  0.00000000000E+00  0.00000000000E+00  0.30706362855E+04  0.30706362855E+04  0.00000000000E+00 0.  1.
         -2   -1    0    0    0  501 -0.00000000000E+00 -0.00000000000E+00 -0.15981803810E+04  0.15981803810E+04  0.00000000000E+00 0. -1.
         23    2    1    2    0    0 -0.19906420722E+04 -0.46471844763E+03  0.16335718542E+04  0.26183100353E+04  0.91495040173E+02 0.  0.
         11    1    3    3    0    0 -0.71086172422E+03 -0.19445020627E+03  0.63255756630E+03  0.97121797160E+03  0.00000000000E+00 0. -1.
        -11    1    3    3    0    0 -0.12797803480E+04 -0.27026824136E+03  0.10010142879E+04  0.16470920637E+04  0.00000000000E+00 0.  1.
         22    1    1    2    0    0  0.19906420722E+04  0.46471844763E+03 -0.16111594980E+03  0.20505066312E+04  0.00000000000E+00 0.  1.
<mgrwt>
<rscale>  0 0.44305443E+04</rscale>
<asrwt>0</asrwt>
<pdfrwt beam="1">  1        2 0.47240558E+00 0.44305443E+04</pdfrwt>
<pdfrwt beam="2">  1       -2 0.24587391E+00 0.44305443E+04</pdfrwt>
<totfact> 0.81515263E-02</totfact>
</mgrwt>
</event>
<event>
 6    1  0.2003386E-005  0.1535510E+04  0.7818608E-02  0.8861177E-01
          2   -1    0    0  501    0  0.00000000000E+00  0.00000000000E+00  0.91118098551E+03  0.91118098551E+03  0.00000000000E+00 0. -1.
         -2   -1    0    0    0  501 -0.00000000000E+00 -0.00000000000E+00 -0.64690482837E+03  0.64690482837E+03  0.00000000000E+00 0.  1.
         23    2    1    2    0    0 -0.76476552944E+03 -0.11115115604E+02  0.14501291004E+03  0.78399694112E+03  0.92911779578E+02 0.  0.
         11    1    3    3    0    0 -0.42308365489E+03 -0.49684639863E+02  0.95939929475E+02  0.43666098124E+03  0.00000000000E+00 0.  1.
        -11    1    3    3    0    0 -0.34168187455E+03  0.38569524259E+02  0.49072980562E+02  0.34733595987E+03  0.00000000000E+00 0. -1.
         22    1    1    2    0    0  0.76476552944E+03  0.11115115604E+02  0.11926324710E+03  0.77408887276E+03  0.00000000000E+00 0.  1.
<mgrwt>
<rscale>  0 0.15355095E+04</rscale>
<asrwt>0</asrwt>
<pdfrwt beam="1">  1        2 0.14018169E+00 0.15355095E+04</pdfrwt>
<pdfrwt beam="2">  1       -2 0.99523820E-01 0.15355095E+04</pdfrwt>
<totfact> 0.23202125E+01</totfact>
</mgrwt>
</event>
<event>
 6    1  0.2255578E-005  0.3656100E+04  0.7818608E-02  0.8077761E-01
          1   -1    0    0  501    0  0.00000000000E+00  0.00000000000E+00  0.25768487693E+04  0.25768487693E+04  0.00000000000E+00 0. -1.
         -1   -1    0    0    0  501 -0.00000000000E+00 -0.00000000000E+00 -0.12968421825E+04  0.12968421825E+04  0.00000000000E+00 0.  1.
         23    2    1    2    0    0  0.67490706496E+03 -0.16686457747E+04  0.97160977888E+03  0.20474963130E+04  0.91308934299E+02 0.  0.
         13    1    3    3    0    0  0.32717727398E+03 -0.79410656370E+03  0.41223065319E+03  0.95267219680E+03  0.00000000000E+00 0. -1.
        -13    1    3    3    0    0  0.34772979098E+03 -0.87453921102E+03  0.55937912570E+03  0.10948241162E+04  0.00000000000E+00 0.  1.
         22    1    1    2    0    0 -0.67490706496E+03  0.16686457747E+04  0.30839680786E+03  0.18261946388E+04  0.00000000000E+00 0. -1.
<mgrwt>
<rscale>  0 0.36560997E+04</rscale>
<asrwt>0</asrwt>
<pdfrwt beam="1">  1        1 0.39643827E+00 0.36560997E+04</pdfrwt>
<pdfrwt beam="2">  1       -1 0.19951418E+00 0.36560997E+04</pdfrwt>
<totfact> 0.14625630E-01</totfact>
</mgrwt>
</event>
<event>
 6    1  0.2003386E-005  0.1911149E+04  0.7818608E-02  0.8649327E-01
         -2   -1    0    0    0  501 -0.00000000000E+00  0.00000000000E+00  0.10741752627E+04  0.10741752627E+04  0.00000000000E+00 0.  1.
          2   -1    0    0  501    0  0.00000000000E+00 -0.00000000000E+00 -0.85006865948E+03  0.85006865948E+03  0.00000000000E+00 0. -1.
         23    2    1    2    0    0 -0.48495256883E+03 -0.82416580494E+02  0.93467264449E+03  0.10600242825E+04  0.89816704297E+02 0.  0.
         13    1    3    3    0    0 -0.60768404820E+02 -0.10462320491E+02  0.64128731648E+02  0.88964899805E+02  0.00000000000E+00 0. -1.
        -13    1    3    3    0    0 -0.42418416401E+03 -0.71954260003E+02  0.87054391284E+03  0.97105938269E+03  0.00000000000E+00 0.  1.
         22    1    1    2    0    0  0.48495256883E+03  0.82416580494E+02 -0.71056604123E+03  0.86421963973E+03  0.00000000000E+00 0. -1.
<mgrwt>
<rscale>  0 0.19111491E+04</rscale>
<asrwt>0</asrwt>
<pdfrwt beam="1">  1        2 0.13077979E+00 0.19111491E+04</pdfrwt>
<pdfrwt beam="2">  1       -2 0.16525773E+00 0.19111491E+04</pdfrwt>
<totfact> 0.68428479E+00</totfact>
</mgrwt>
</event>
<event>
 6    1  0.2003386E-005  0.3852843E+04  0.7818608E-02  0.8034909E-01
         -2   -1    0    0    0  501 -0.00000000000E+00  0.00000000000E+00  0.26786906037E+04  0.26786906037E+04  0.00000000000E+00 0.  1.
          2   -1    0    0  501    0  0.00000000000E+00 -0.00000000000E+00 -0.13854155453E+04  0.13854155453E+04  0.00000000000E+00 0. -1.
         23    2    1    2    0    0 -0.53254298139E+03  0.81461842415E+03  0.23992518563E+04  0.25908818343E+04  0.95152537454E+02 0.  0.
         11    1    3    3    0    0 -0.13395005568E+03  0.23551875582E+03  0.56772468280E+03  0.62906519314E+03  0.00000000000E+00 0. -1.
        -11    1    3    3    0    0 -0.39859292571E+03  0.57909966833E+03  0.18315271735E+04  0.19618166412E+04  0.00000000000E+00 0.  1.
         22    1    1    2    0    0  0.53254298139E+03 -0.81461842415E+03 -0.11059767979E+04  0.14732243147E+04  0.00000000000E+00 0. -1.
<mgrwt>
<rscale>  0 0.38528429E+04</rscale>
<asrwt>0</asrwt>
<pdfrwt beam="1">  1        2 0.21314085E+00 0.38528429E+04</pdfrwt>
<pdfrwt beam="2">  1       -2 0.41210625E+00 0.38528429E+04</pdfrwt>
<totfact> 0.72754608E-02</totfact>
</mgrwt>
</event>
<event>
 6    1  0.2003386E-005  0.1540089E+04  0.7818608E-02  0.8858223E-01
          2   -1    0    0  501    0  0.00000000000E+00  0.00000000000E+00  0.28550574590E+04  0.28550574590E+04  0.00000000000E+00 0. -1.
         -2   -1    0    0    0  501 -0.00000000000E+00 -0.00000000000E+00 -0.20769048869E+03  0.20769048869E+03  0.00000000000E+00 0.  1.
         23    2    1    2    0    0  0.31651117101E+03 -0.60115465016E+03  0.62065856924E+03  0.92519954409E+03  0.95973444394E+02 0.  0.
         11    1    3    3    0    0  0.71289845597E+02 -0.23208731123E+03  0.23133866893E+03  0.33535703640E+03  0.00000000000E+00 0. -1.
        -11    1    3    3    0    0  0.24522132542E+03 -0.36906733893E+03  0.38931990031E+03  0.58984250769E+03  0.00000000000E+00 0.  1.
         22    1    1    2    0    0 -0.31651117101E+03  0.60115465016E+03  0.20267084010E+04  0.21375484036E+04  0.00000000000E+00 0. -1.
<mgrwt>
<rscale>  0 0.15400887E+04</rscale>
<asrwt>0</asrwt>
<pdfrwt beam="1">  1        2 0.43923958E+00 0.15400887E+04</pdfrwt>
<pdfrwt beam="2">  1       -2 0.31952385E-01 0.15400887E+04</pdfrwt>
<totfact> 0.18885407E+01</totfact>
</mgrwt>
</event>
<event>
 6    1  0.2003386E-005  0.2122235E+04  0.7818608E-02  0.8551511E-01
         -2   -1    0    0    0  501 -0.00000000000E+00  0.00000000000E+00  0.15055898984E+04  0.15055898984E+04  0.00000000000E+00 0. -1.
          2   -1    0    0  501    0  0.00000000000E+00 -0.00000000000E+00 -0.74786014180E+03  0.74786014180E+03  0.00000000000E+00 0.  1.
         23    2    1    2    0    0 -0.80596904258E+03  0.46118722665E+03 -0.16168726437E+03  0.94669550545E+03  0.88373372440E+02 0.  0.
         11    1    3    3    0    0 -0.57787547419E+03  0.31880411909E+03 -0.75250755666E+02  0.66425808708E+03  0.00000000000E+00 0. -1.
        -11    1    3    3    0    0 -0.22809356838E+03  0.14238310757E+03 -0.86436508708E+02  0.28243741837E+03  0.00000000000E+00 0.  1.
         22    1    1    2    0    0  0.80596904258E+03 -0.46118722665E+03  0.91941702095E+03  0.13067545347E+04  0.00000000000E+00 0. -1.
<mgrwt>
<rscale>  0 0.21222353E+04</rscale>
<asrwt>0</asrwt>
<pdfrwt beam="1">  1        2 0.11505541E+00 0.21222353E+04</pdfrwt>
<pdfrwt beam="2">  1       -2 0.23162921E+00 0.21222353E+04</pdfrwt>
<totfact> 0.28905092E+00</totfact>
</mgrwt>
</event>
<event>
 6    1  0.2003386E-005  0.7721594E+03  0.7818608E-02  0.9601213E-01
         -2   -1    0    0    0  501 -0.00000000000E+00  0.00000000000E+00  0.91062985036E+02  0.91062985036E+02  0.00000000000E+00 0. -1.
          2   -1    0    0  501    0  0.00000000000E+00 -0.00000000000E+00 -0.16368617416E+04  0.16368617416E+04  0.00000000000E+00 0.  1.
         23    2    1    2    0    0 -0.25109009470E+03  0.13884997857E+03 -0.22564067578E+03  0.37694622552E+03  0.94070134294E+02 0.  0.
         13    1    3    3    0    0 -0.18895125020E+03  0.12508090871E+03 -0.12759597964E+03  0.26005488401E+03  0.00000000000E+00 0. -1.
        -13    1    3    3    0    0 -0.62138844501E+02  0.13769069852E+02 -0.98044696133E+02  0.11689134151E+03  0.00000000000E+00 0.  1.
         22    1    1    2    0    0  0.25109009470E+03 -0.13884997857E+03 -0.13201580808E+04  0.13509785011E+04  0.00000000000E+00 0.  1.
<mgrwt>
<rscale>  0 0.77215935E+03</rscale>
<asrwt>0</asrwt>
<pdfrwt beam="1">  1        2 0.25182486E+00 0.77215935E+03</pdfrwt>
<pdfrwt beam="2">  1       -2 0.14009691E-01 0.77215935E+03</pdfrwt>
<totfact> 0.42387040E+02</totfact>
</mgrwt>
</event>
<event>
 6    1  0.2003386E-005  0.8414802E+03  0.7818608E-02  0.9501844E-01
          2   -1    0    0  501    0  0.00000000000E+00  0.00000000000E+00  0.57728650430E+03  0.57728650430E+03  0.00000000000E+00 0. -1.
         -2   -1    0    0    0  501 -0.00000000000E+00 -0.00000000000E+00 -0.30664533240E+03  0.30664533240E+03  0.00000000000E+00 0.  1.
         23    2    1    2    0    0  0.21974665512E+03  0.25276190061E+03  0.39558732025E+03  0.52645636786E+03  0.92140156739E+02 0.  0.
         13    1    3    3    0    0  0.37092310066E+02  0.10831656017E+03  0.13252703830E+03  0.17513347068E+03  0.00000000000E+00 0. -1.
        -13    1    3    3    0    0  0.18265434505E+03  0.14444534043E+03  0.26306028196E+03  0.35132289718E+03  0.00000000000E+00 0.  1.
         22    1    1    2    0    0 -0.21974665512E+03 -0.25276190061E+03 -0.12494614835E+03  0.35747546884E+03  0.00000000000E+00 0.  1.
<mgrwt>
<rscale>  0 0.84148015E+03</rscale>
<asrwt>0</asrwt>
<pdfrwt beam="1">  1        2 0.88813308E-01 0.84148015E+03</pdfrwt>
<pdfrwt beam="2">  1       -2 0.47176205E-01 0.84148015E+03</pdfrwt>
<totfact> 0.22248382E+02</totfact>
</mgrwt>
</event>
<event>
 6    1  0.2003386E-005  0.2116870E+04  0.7818608E-02  0.8553848E-01
         -2   -1    0    0    0  501 -0.00000000000E+00  0.00000000000E+00  0.15676171551E+04  0.15676171551E+04  0.00000000000E+00 0.  1.
          2   -1    0    0  501    0  0.00000000000E+00 -0.00000000000E+00 -0.71464199174E+03  0.71464199174E+03  0.00000000000E+00 0. -1.
         23    2    1    2    0    0  0.72652739901E+03 -0.55783686749E+03 -0.13998332961E+03  0.93133701696E+03  0.93644403691E+02 0.  0.
         13    1    3    3    0    0  0.34509920096E+03 -0.21150263275E+03 -0.80845724370E+02  0.41275035229E+03  0.00000000000E+00 0. -1.
        -13    1    3    3    0    0  0.38142819805E+03 -0.34633423474E+03 -0.59137605242E+02  0.51858666467E+03  0.00000000000E+00 0.  1.
         22    1    1    2    0    0 -0.72652739901E+03  0.55783686749E+03  0.99295849296E+03  0.13509221299E+04  0.00000000000E+00 0.  1.
<mgrwt>
<rscale>  0 0.21168704E+04</rscale>
<asrwt>0</asrwt>
<pdfrwt beam="1">  1        2 0.10994492E+00 0.21168704E+04</pdfrwt>
<pdfrwt beam="2">  1       -2 0.24117187E+00 0.21168704E+04</pdfrwt>
<totfact> 0.26746051E+00</totfact>
</mgrwt>
</event>
<event>
 6    1  0.2003386E-005  0.2314977E+04  0.7818608E-02  0.8472039E-01
          2   -1    0    0  501    0  0.00000000000E+00  0.00000000000E+00  0.21962398855E+04  0.21962398855E+04  0.00000000000E+00 0. -1.
         -2   -1    0    0    0  501 -0.00000000000E+00 -0.00000000000E+00 -0.61003363118E+03  0.61003363118E+03  0.00000000000E+00 0.  1.
         23    2    1    2    0    0  0.10021664808E+04  0.55467211863E+03  0.60811106561E+03  0.13000633678E+04  0.91470639041E+02 0.  0.
         11    1    3    3    0    0  0.38791924996E+03  0.24697724949E+03  0.20467296893E+03  0.50335884860E+03  0.00000000000E+00 0.  1.
        -11    1    3    3    0    0  0.61424723081E+03  0.30769486914E+03  0.40343809668E+03  0.79670451919E+03  0.00000000000E+00 0. -1.
         22    1    1    2    0    0 -0.10021664808E+04 -0.55467211863E+03  0.97809518866E+03  0.15062101488E+04  0.00000000000E+00 0. -1.
<mgrwt>
<rscale>  0 0.23149775E+04</rscale>
<asrwt>0</asrwt>
<pdfrwt beam="1">  1        2 0.33788305E+00 0.23149775E+04</pdfrwt>
<pdfrwt beam="2">  1       -2 0.93851329E-01 0.23149775E+04</pdfrwt>
<totfact> 0.45048695E+00</totfact>
</mgrwt>
</event>
<event>
 6    1  0.2003386E-005  0.4081317E+04  0.7818608E-02  0.7988340E-01
         -2   -1    0    0    0  501 -0.00000000000E+00  0.00000000000E+00  0.18805329619E+04  0.18805329619E+04  0.00000000000E+00 0.  1.
          2   -1    0    0  501    0  0.00000000000E+00 -0.00000000000E+00 -0.22144185893E+04  0.22144185893E+04  0.00000000000E+00 0. -1.
         23    2    1    2    0    0  0.19024516039E+04  0.73451023255E+03 -0.12953822394E+03  0.20454186170E+04  0.90165294701E+02 0.  0.
         11    1    3    3    0    0  0.18649771101E+03  0.54158427085E+02 -0.33015773677E+02  0.19698876300E+03  0.00000000000E+00 0. -1.
        -11    1    3    3    0    0  0.17159538929E+04  0.68035180546E+03 -0.96522450262E+02  0.18484298540E+04  0.00000000000E+00 0.  1.
         22    1    1    2    0    0 -0.19024516039E+04 -0.73451023255E+03 -0.20434740349E+03  0.20495329342E+04  0.00000000000E+00 0. -1.
<mgrwt>
<rscale>  0 0.40813170E+04</rscale>
<asrwt>0</asrwt>
<pdfrwt beam="1">  1        2 0.34067978E+00 0.40813170E+04</pdfrwt>
<pdfrwt beam="2">  1       -2 0.28931277E+00 0.40813170E+04</pdfrwt>
<totfact> 0.14675609E-01</totfact>
</mgrwt>
</event>
<event>
 6    1  0.2003386E-005  0.1260644E+04  0.7818608E-02  0.9061371E-01
         -2   -1    0    0    0  501 -0.00000000000E+00  0.00000000000E+00  0.97503699108E+02  0.97503699108E+02  0.00000000000E+00 0. -1.
          2   -1    0    0  501    0  0.00000000000E+00 -0.00000000000E+00 -0.40747737207E+04  0.40747737207E+04  0.00000000000E+00 0.  1.
         23    2    1    2    0    0 -0.30553136484E+03 -0.44427586215E+03 -0.94077943719E+03  0.10882856031E+04  0.92569691638E+02 0.  0.
         13    1    3    3    0    0 -0.17401685454E+03 -0.19143663020E+03 -0.50822145897E+03  0.57027966859E+03  0.00000000000E+00 0.  1.
        -13    1    3    3    0    0 -0.13151451029E+03 -0.25283923195E+03 -0.43255797822E+03  0.51800593448E+03  0.00000000000E+00 0. -1.
         22    1    1    2    0    0  0.30553136484E+03  0.44427586215E+03 -0.30364905844E+04  0.30839918167E+04  0.00000000000E+00 0.  1.
<mgrwt>
<rscale>  0 0.12606435E+04</rscale>
<asrwt>0</asrwt>
<pdfrwt beam="1">  1        2 0.62688812E+00 0.12606435E+04</pdfrwt>
<pdfrwt beam="2">  1       -2 0.15000572E-01 0.12606435E+04</pdfrwt>
<totfact> 0.10649764E+01</totfact>
</mgrwt>
</event>
<event>
 6    1  0.2003386E-005  0.1896935E+04  0.7818608E-02  0.8656383E-01
          2   -1    0    0  501    0  0.00000000000E+00  0.00000000000E+00  0.75190861555E+03  0.75190861555E+03  0.00000000000E+00 0. -1.
         -2   -1    0    0    0  501 -0.00000000000E+00 -0.00000000000E+00 -0.11964100086E+04  0.11964100086E+04  0.00000000000E+00 0.  1.
         23    2    1    2    0    0  0.43409633401E+03  0.34689678340E+03 -0.10084829319E+04  0.11565786532E+04  0.10890065049E+03 0.  0.
         13    1    3    3    0    0  0.21470496065E+03  0.23700205105E+03 -0.53503478968E+03  0.62332208247E+03  0.00000000000E+00 0. -1.
        -13    1    3    3    0    0  0.21939137336E+03  0.10989473236E+03 -0.47344814219E+03  0.53325657075E+03  0.00000000000E+00 0.  1.
         22    1    1    2    0    0 -0.43409633401E+03 -0.34689678340E+03  0.56398153878E+03  0.79173997096E+03  0.00000000000E+00 0. -1.
<mgrwt>
<rscale>  0 0.18969354E+04</rscale>
<asrwt>0</asrwt>
<pdfrwt beam="1">  1        2 0.11567825E+00 0.18969354E+04</pdfrwt>
<pdfrwt beam="2">  1       -2 0.18406308E+00 0.18969354E+04</pdfrwt>
<totfact> 0.59499393E+00</totfact>
</mgrwt>
</event>
<event>
 6    1  0.2003386E-005  0.3078158E+04  0.7818608E-02  0.8221758E-01
         -1   -1    0    0    0  501 -0.00000000000E+00  0.00000000000E+00  0.19998026929E+04  0.19998026929E+04  0.00000000000E+00 0.  1.
          1   -1    0    0  501    0  0.00000000000E+00 -0.00000000000E+00 -0.11844988654E+04  0.11844988654E+04  0.00000000000E+00 0. -1.
         23    2    1    2    0    0 -0.41562789047E+03 -0.14228041591E+04  0.83327804014E+03  0.17019246524E+04  0.71253153862E+02 0.  0.
         13    1    3    3    0    0 -0.20639223269E+03 -0.68489803742E+03  0.36190959381E+03  0.80166179244E+03  0.00000000000E+00 0.  1.
        -13    1    3    3    0    0 -0.20923565777E+03 -0.73790612168E+03  0.47136844633E+03  0.90026286000E+03  0.00000000000E+00 0. -1.
         22    1    1    2    0    0  0.41562789047E+03  0.14228041591E+04 -0.17974212634E+02  0.14823769058E+04  0.00000000000E+00 0. -1.
<mgrwt>
<rscale>  0 0.30781579E+04</rscale>
<asrwt>0</asrwt>
<pdfrwt beam="1">  1        1 0.18223059E+00 0.30781579E+04</pdfrwt>
<pdfrwt beam="2">  1       -1 0.30766195E+00 0.30781579E+04</pdfrwt>
<totfact> 0.27305714E-01</totfact>
</mgrwt>
</event>
<event>
 6    1  0.2003386E-005  0.3099676E+04  0.7818608E-02  0.8215827E-01
          2   -1    0    0  501    0  0.00000000000E+00  0.00000000000E+00  0.27732618639E+04  0.27732618639E+04  0.00000000000E+00 0.  1.
         -2   -1    0    0    0  501 -0.00000000000E+00 -0.00000000000E+00 -0.86612747439E+03  0.86612747439E+03  0.00000000000E+00 0. -1.
         23    2    1    2    0    0 -0.11433126474E+04  0.10429164831E+04  0.88788956219E+03  0.17863651564E+04  0.88960648652E+02 0.  0.
         13    1    3    3    0    0 -0.55732058538E+03  0.47648082576E+03  0.46394355891E+03  0.86768879102E+03  0.00000000000E+00 0.  1.
        -13    1    3    3    0    0 -0.58599206206E+03  0.56643565732E+03  0.42394600328E+03  0.91867636542E+03  0.00000000000E+00 0. -1.
         22    1    1    2    0    0  0.11433126474E+04 -0.10429164831E+04  0.10192448273E+04  0.18530241819E+04  0.00000000000E+00 0. -1.
<mgrwt>
<rscale>  0 0.30996763E+04</rscale>
<asrwt>0</asrwt>
<pdfrwt beam="1">  1        2 0.42665567E+00 0.30996763E+04</pdfrwt>
<pdfrwt beam="2">  1       -2 0.13325038E+00 0.30996763E+04</pdfrwt>
<totfact> 0.83078163E-01</totfact>
</mgrwt>
</event>
<event>
 6    1  0.2003386E-005  0.2696342E+04  0.7818608E-02  0.8336193E-01
          2   -1    0    0  501    0  0.00000000000E+00  0.00000000000E+00  0.16375936751E+04  0.16375936751E+04  0.00000000000E+00 0.  1.
         -2   -1    0    0    0  501 -0.00000000000E+00 -0.00000000000E+00 -0.11099002905E+04  0.11099002905E+04  0.00000000000E+00 0. -1.
         23    2    1    2    0    0  0.11363717300E+04 -0.27400148829E+03 -0.41714607603E+03  0.12444506759E+04  0.90714452012E+02 0.  0.
         11    1    3    3    0    0  0.72689224464E+03 -0.18780204136E+03 -0.31184420166E+03  0.81295064313E+03  0.00000000000E+00 0. -1.
        -11    1    3    3    0    0  0.40947948534E+03 -0.86199446936E+02 -0.10530187438E+03  0.43150003281E+03  0.00000000000E+00 0.  1.
         22    1    1    2    0    0 -0.11363717300E+04  0.27400148829E+03  0.94483946062E+03  0.15030432897E+04  0.00000000000E+00 0.  1.
<mgrwt>
<rscale>  0 0.26963425E+04</rscale>
<asrwt>0</asrwt>
<pdfrwt beam="1">  1        2 0.25193749E+00 0.26963425E+04</pdfrwt>
<pdfrwt beam="2">  1       -2 0.17075389E+00 0.26963425E+04</pdfrwt>
<totfact> 0.19632018E+00</totfact>
</mgrwt>
</event>
<event>
 6    1  0.2003386E-005  0.1145220E+04  0.7818608E-02  0.9162205E-01
          2   -1    0    0  501    0  0.00000000000E+00  0.00000000000E+00  0.62229730644E+03  0.62229730644E+03  0.00000000000E+00 0. -1.
         -2   -1    0    0    0  501 -0.00000000000E+00 -0.00000000000E+00 -0.52688959768E+03  0.52688959768E+03  0.00000000000E+00 0.  1.
         23    2    1    2    0    0 -0.13201532217E+03  0.16417871819E+03 -0.48238747177E+03  0.53418286558E+03  0.90944841347E+02 0.  0.
         13    1    3    3    0    0 -0.54851804835E+02  0.12420977399E+03 -0.35402787318E+03  0.37917347407E+03  0.00000000000E+00 0. -1.
        -13    1    3    3    0    0 -0.77163517332E+02  0.39968944204E+02 -0.12835959859E+03  0.15500939151E+03  0.00000000000E+00 0.  1.
         22    1    1    2    0    0  0.13201532217E+03 -0.16417871819E+03  0.57779518053E+03  0.61500403855E+03  0.00000000000E+00 0. -1.
<mgrwt>
<rscale>  0 0.11452196E+04</rscale>
<asrwt>0</asrwt>
<pdfrwt beam="1">  1        2 0.95738047E-01 0.11452196E+04</pdfrwt>
<pdfrwt beam="2">  1       -2 0.81059938E-01 0.11452196E+04</pdfrwt>
<totfact> 0.63068891E+01</totfact>
</mgrwt>
</event>
<event>
 6    1  0.2003386E-005  0.2741630E+04  0.7818608E-02  0.8321623E-01
         -2   -1    0    0    0  501 -0.00000000000E+00  0.00000000000E+00  0.12160672799E+04  0.12160672799E+04  0.00000000000E+00 0.  1.
          2   -1    0    0  501    0  0.00000000000E+00 -0.00000000000E+00 -0.15452544890E+04  0.15452544890E+04  0.00000000000E+00 0. -1.
         23    2    1    2    0    0 -0.59159912855E+03 -0.99384945248E+03  0.57344203011E+03  0.12941933470E+04  0.91511716874E+02 0.  0.
         13    1    3    3    0    0 -0.29486004847E+03 -0.45187281934E+03  0.22293661910E+03  0.58380838396E+03  0.00000000000E+00 0.  1.
        -13    1    3    3    0    0 -0.29673908008E+03 -0.54197663314E+03  0.35050541100E+03  0.71038496301E+03  0.00000000000E+00 0. -1.
         22    1    1    2    0    0  0.59159912855E+03  0.99384945248E+03 -0.90262923923E+03  0.14671284220E+04  0.00000000000E+00 0. -1.
<mgrwt>
<rscale>  0 0.27416298E+04</rscale>
<asrwt>0</asrwt>
<pdfrwt beam="1">  1        2 0.23773146E+00 0.27416298E+04</pdfrwt>
<pdfrwt beam="2">  1       -2 0.18708727E+00 0.27416298E+04</pdfrwt>
<totfact> 0.16973762E+00</totfact>
</mgrwt>
</event>
<event>
 6    1  0.2003386E-005  0.1633682E+04  0.7818608E-02  0.8800119E-01
         -1   -1    0    0    0  501 -0.00000000000E+00  0.00000000000E+00  0.37579639740E+03  0.37579639740E+03  0.00000000000E+00 0.  1.
          1   -1    0    0  501    0  0.00000000000E+00 -0.00000000000E+00 -0.17755071016E+04  0.17755071016E+04  0.00000000000E+00 0. -1.
         23    2    1    2    0    0  0.17785421642E+03 -0.79440928805E+03 -0.72425073790E+03  0.10934923602E+04  0.92022667526E+02 0.  0.
         13    1    3    3    0    0  0.91776197857E+02 -0.21960459177E+03 -0.21501563573E+03  0.32075032475E+03  0.00000000000E+00 0.  1.
        -13    1    3    3    0    0  0.86078018565E+02 -0.57480469628E+03 -0.50923510217E+03  0.77274203550E+03  0.00000000000E+00 0. -1.
         22    1    1    2    0    0 -0.17785421642E+03  0.79440928805E+03 -0.67545996634E+03  0.10578111388E+04  0.00000000000E+00 0.  1.
<mgrwt>
<rscale>  0 0.16336819E+04</rscale>
<asrwt>0</asrwt>
<pdfrwt beam="1">  1        1 0.27315494E+00 0.16336819E+04</pdfrwt>
<pdfrwt beam="2">  1       -1 0.57814829E-01 0.16336819E+04</pdfrwt>
<totfact> 0.12277082E+01</totfact>
</mgrwt>
</event>
<event>
 6    1  0.2003386E-005  0.8944587E+03  0.7818608E-02  0.9432535E-01
          2   -1    0    0  501    0  0.00000000000E+00  0.00000000000E+00  0.16816347107E+04  0.16816347107E+04  0.00000000000E+00 0. -1.
         -2   -1    0    0    0  501 -0.00000000000E+00 -0.00000000000E+00 -0.11894027214E+03  0.11894027214E+03  0.00000000000E+00 0.  1.
         23    2    1    2    0    0 -0.40320461695E+03 -0.17352913690E+03  0.90913122649E+03  0.10132813930E+04  0.86794411662E+02 0.  0.
         13    1    3    3    0    0 -0.26552317944E+03 -0.15294399519E+03  0.58133540225E+03  0.65714935471E+03  0.00000000000E+00 0.  1.
        -13    1    3    3    0    0 -0.13768143750E+03 -0.20585141714E+02  0.32779582424E+03  0.35613203827E+03  0.00000000000E+00 0. -1.
         22    1    1    2    0    0  0.40320461695E+03  0.17352913690E+03  0.65356321209E+03  0.78729358989E+03  0.00000000000E+00 0.  1.
<mgrwt>
<rscale>  0 0.89445870E+03</rscale>
<asrwt>0</asrwt>
<pdfrwt beam="1">  1        2 0.25871301E+00 0.89445870E+03</pdfrwt>
<pdfrwt beam="2">  1       -2 0.18298505E-01 0.89445870E+03</pdfrwt>
<totfact> 0.25193081E+02</totfact>
</mgrwt>
</event>
<event>
 6    1  0.2003386E-005  0.1371661E+04  0.7818608E-02  0.8974591E-01
         -2   -1    0    0    0  501 -0.00000000000E+00  0.00000000000E+00  0.19563925545E+03  0.19563925545E+03  0.00000000000E+00 0.  1.
          2   -1    0    0  501    0  0.00000000000E+00 -0.00000000000E+00 -0.24042400416E+04  0.24042400416E+04  0.00000000000E+00 0. -1.
         23    2    1    2    0    0  0.40187802087E+03 -0.41815043641E+03 -0.42598943226E+03  0.72529695153E+03  0.90735551842E+02 0.  0.
         11    1    3    3    0    0  0.16880606694E+03 -0.23221274825E+03 -0.23718801583E+03  0.37239280812E+03  0.00000000000E+00 0. -1.
        -11    1    3    3    0    0  0.23307195393E+03 -0.18593768816E+03 -0.18880141642E+03  0.35290414340E+03  0.00000000000E+00 0.  1.
         22    1    1    2    0    0 -0.40187802087E+03  0.41815043641E+03 -0.17826113539E+04  0.18745823456E+04  0.00000000000E+00 0.  1.
<mgrwt>
<rscale>  0 0.13716614E+04</rscale>
<asrwt>0</asrwt>
<pdfrwt beam="1">  1        2 0.36988308E+00 0.13716614E+04</pdfrwt>
<pdfrwt beam="2">  1       -2 0.30098347E-01 0.13716614E+04</pdfrwt>
<totfact> 0.39419314E+01</totfact>
</mgrwt>
</event>
<event>
 6    1  0.2003386E-005  0.2132007E+04  0.7818608E-02  0.8547274E-01
          2   -1    0    0  501    0  0.00000000000E+00  0.00000000000E+00  0.31714492823E+04  0.31714492823E+04  0.00000000000E+00 0. -1.
         -2   -1    0    0    0  501 -0.00000000000E+00 -0.00000000000E+00 -0.35831046903E+03  0.35831046903E+03  0.00000000000E+00 0.  1.
         23    2    1    2    0    0  0.50903271745E+03  0.20210779906E+03 -0.10155275052E+03  0.56405767898E+03  0.88804471793E+02 0.  0.
         13    1    3    3    0    0  0.26826472115E+03  0.13963593018E+03 -0.87887471391E+02  0.31494183787E+03  0.00000000000E+00 0.  1.
        -13    1    3    3    0    0  0.24076799629E+03  0.62471868875E+02 -0.13665279128E+02  0.24911584111E+03  0.00000000000E+00 0. -1.
         22    1    1    2    0    0 -0.50903271745E+03 -0.20210779906E+03  0.29146915638E+04  0.29657020724E+04  0.00000000000E+00 0. -1.
<mgrwt>
<rscale>  0 0.21320070E+04</rscale>
<asrwt>0</asrwt>
<pdfrwt beam="1">  1        2 0.48791526E+00 0.21320070E+04</pdfrwt>
<pdfrwt beam="2">  1       -2 0.55124690E-01 0.21320070E+04</pdfrwt>
<totfact> 0.38585548E+00</totfact>
</mgrwt>
</event>
<event>
 6    1  0.2003386E-005  0.8900244E+03  0.7818608E-02  0.9438138E-01
          2   -1    0    0  501    0  0.00000000000E+00  0.00000000000E+00  0.21173955367E+03  0.21173955367E+03  0.00000000000E+00 0. -1.
         -2   -1    0    0    0  501 -0.00000000000E+00 -0.00000000000E+00 -0.93528043606E+03  0.93528043606E+03  0.00000000000E+00 0.  1.
         23    2    1    2    0    0 -0.22693809215E+03 -0.12029794024E+03 -0.82645307873E+03  0.87031904602E+03  0.91967703122E+02 0.  0.
         13    1    3    3    0    0 -0.18151227528E+03 -0.51431501832E+02 -0.61722649594E+03  0.64541494617E+03  0.00000000000E+00 0.  1.
        -13    1    3    3    0    0 -0.45425816875E+02 -0.68866438413E+02 -0.20922658279E+03  0.22490409984E+03  0.00000000000E+00 0. -1.
         22    1    1    2    0    0  0.22693809215E+03  0.12029794024E+03  0.10291219634E+03  0.27670094372E+03  0.00000000000E+00 0. -1.
<mgrwt>
<rscale>  0 0.89002441E+03</rscale>
<asrwt>0</asrwt>
<pdfrwt beam="1">  1        2 0.32575316E-01 0.89002441E+03</pdfrwt>
<pdfrwt beam="2">  1       -2 0.14388930E+00 0.89002441E+03</pdfrwt>
<totfact> 0.54407598E+01</totfact>
</mgrwt>
</event>
<event>
 6    1  0.2003386E-005  0.1436440E+04  0.7818608E-02  0.8927856E-01
          2   -1    0    0  501    0  0.00000000000E+00  0.00000000000E+00  0.93395408067E+03  0.93395408067E+03  0.00000000000E+00 0. -1.
         -2   -1    0    0    0  501 -0.00000000000E+00 -0.00000000000E+00 -0.55231843144E+03  0.55231843144E+03  0.00000000000E+00 0.  1.
         23    2    1    2    0    0 -0.19954951203E+02 -0.31168347302E+03  0.85760714480E+03  0.91698027430E+03  0.88419574837E+02 0.  0.
         13    1    3    3    0    0  0.10080021280E+02 -0.25828882525E+03  0.62274535730E+03  0.67425996775E+03  0.00000000000E+00 0.  1.
        -13    1    3    3    0    0 -0.30034972484E+02 -0.53394647774E+02  0.23486178750E+03  0.24272030655E+03  0.00000000000E+00 0. -1.
         22    1    1    2    0    0  0.19954951203E+02  0.31168347302E+03 -0.47597149557E+03  0.56929223781E+03  0.00000000000E+00 0.  1.
<mgrwt>
<rscale>  0 0.14364401E+04</rscale>
<asrwt>0</asrwt>
<pdfrwt beam="1">  1        2 0.14368524E+00 0.14364401E+04</pdfrwt>
<pdfrwt beam="2">  1       -2 0.84972066E-01 0.14364401E+04</pdfrwt>
<totfact> 0.32576388E+01</totfact>
</mgrwt>
</event>
<event>
 6    1  0.2003386E-005  0.1737573E+04  0.7818608E-02  0.8740221E-01
          1   -1    0    0  501    0  0.00000000000E+00  0.00000000000E+00  0.28817491186E+04  0.28817491186E+04  0.00000000000E+00 0. -1.
         -1   -1    0    0    0  501 -0.00000000000E+00 -0.00000000000E+00 -0.26192078356E+03  0.26192078356E+03  0.00000000000E+00 0.  1.
         23    2    1    2    0    0 -0.64981003469E+03 -0.50343731747E+03  0.18077296491E+04  0.19881585481E+04  0.95842130821E+02 0.  0.
         13    1    3    3    0    0 -0.55506634663E+03 -0.44326026043E+03  0.14777069940E+04  0.16395719770E+04  0.00000000000E+00 0. -1.
        -13    1    3    3    0    0 -0.94743688063E+02 -0.60177057042E+02  0.33002265511E+03  0.34858657104E+03  0.00000000000E+00 0.  1.
         22    1    1    2    0    0  0.64981003469E+03  0.50343731747E+03  0.81209868591E+03  0.11555113541E+04  0.00000000000E+00 0.  1.
<mgrwt>
<rscale>  0 0.17375730E+04</rscale>
<asrwt>0</asrwt>
<pdfrwt beam="1">  1        1 0.44334600E+00 0.17375730E+04</pdfrwt>
<pdfrwt beam="2">  1       -1 0.40295507E-01 0.17375730E+04</pdfrwt>
<totfact> 0.41636283E+00</totfact>
</mgrwt>
</event>
<event>
 6    1  0.2003386E-005  0.3659685E+04  0.7818608E-02  0.8076955E-01
          2   -1    0    0  501    0  0.00000000000E+00  0.00000000000E+00  0.22887205489E+04  0.22887205489E+04  0.00000000000E+00 0. -1.
         -2   -1    0    0    0  501 -0.00000000000E+00 -0.00000000000E+00 -0.14629672786E+04  0.14629672786E+04  0.00000000000E+00 0.  1.
         23    2    1    2    0    0  0.99744290888E+03 -0.14920407636E+04  0.77266873130E+03  0.19561667429E+04  0.92159433131E+02 0.  0.
         11    1    3    3    0    0  0.33941393825E+03 -0.48484635474E+03  0.30017914283E+03  0.66361534564E+03  0.00000000000E+00 0. -1.
        -11    1    3    3    0    0  0.65802897063E+03 -0.10071944089E+04  0.47248958848E+03  0.12925513973E+04  0.00000000000E+00 0.  1.
         22    1    1    2    0    0 -0.99744290888E+03  0.14920407636E+04  0.53084538956E+02  0.17955210845E+04  0.00000000000E+00 0.  1.
<mgrwt>
<rscale>  0 0.36596848E+04</rscale>
<asrwt>0</asrwt>
<pdfrwt beam="1">  1        2 0.35211086E+00 0.36596848E+04</pdfrwt>
<pdfrwt beam="2">  1       -2 0.22507189E+00 0.36596848E+04</pdfrwt>
<totfact> 0.34260696E-01</totfact>
</mgrwt>
</event>
<event>
 6    1  0.2003386E-005  0.5278643E+04  0.7818608E-02  0.7786905E-01
         -2   -1    0    0    0  501 -0.00000000000E+00  0.00000000000E+00  0.26023182268E+04  0.26023182268E+04  0.00000000000E+00 0.  1.
          2   -1    0    0  501    0  0.00000000000E+00 -0.00000000000E+00 -0.26768510959E+04  0.26768510959E+04  0.00000000000E+00 0. -1.
         23    2    1    2    0    0 -0.36685661061E+03  0.15860402572E+04  0.20393041128E+04  0.26111336677E+04  0.95657180102E+02 0.  0.
         13    1    3    3    0    0 -0.21604553195E+03  0.95030710267E+03  0.12949879377E+04  0.16207260780E+04  0.00000000000E+00 0.  1.
        -13    1    3    3    0    0 -0.15081107866E+03  0.63573315449E+03  0.74431617514E+03  0.99040758971E+03  0.00000000000E+00 0. -1.
         22    1    1    2    0    0  0.36685661061E+03 -0.15860402572E+04 -0.21138369819E+04  0.26680356550E+04  0.00000000000E+00 0. -1.
<mgrwt>
<rscale>  0 0.52786432E+04</rscale>
<asrwt>0</asrwt>
<pdfrwt beam="1">  1        2 0.41182325E+00 0.52786432E+04</pdfrwt>
<pdfrwt beam="2">  1       -2 0.40035665E+00 0.52786432E+04</pdfrwt>
<totfact> 0.14423756E-02</totfact>
</mgrwt>
</event>
<event>
 6    1  0.2003386E-005  0.2016511E+04  0.7818608E-02  0.8598940E-01
         -2   -1    0    0    0  501 -0.00000000000E+00  0.00000000000E+00  0.23838977927E+03  0.23838977927E+03  0.00000000000E+00 0.  1.
          2   -1    0    0  501    0  0.00000000000E+00 -0.00000000000E+00 -0.42643588118E+04  0.42643588118E+04  0.00000000000E+00 0. -1.
         23    2    1    2    0    0  0.61879255006E+03 -0.16428296405E+03 -0.28340394564E+03  0.70581739050E+03  0.89259621559E+02 0.  0.
         11    1    3    3    0    0  0.34307863759E+03 -0.46795902463E+02 -0.13856995628E+03  0.37295367118E+03  0.00000000000E+00 0. -1.
        -11    1    3    3    0    0  0.27571391246E+03 -0.11748706159E+03 -0.14483398936E+03  0.33286371932E+03  0.00000000000E+00 0.  1.
         22    1    1    2    0    0 -0.61879255006E+03  0.16428296405E+03 -0.37425650868E+04  0.37969312005E+04  0.00000000000E+00 0. -1.
<mgrwt>
<rscale>  0 0.20165114E+04</rscale>
<asrwt>0</asrwt>
<pdfrwt beam="1">  1        2 0.65605513E+00 0.20165114E+04</pdfrwt>
<pdfrwt beam="2">  1       -2 0.36675355E-01 0.20165114E+04</pdfrwt>
<totfact> 0.13438881E+00</totfact>
</mgrwt>
</event>
<event>
 6    1  0.2003386E-005  0.3607852E+04  0.7818608E-02  0.8088695E-01
         -2   -1    0    0    0  501 -0.00000000000E+00  0.00000000000E+00  0.10217691109E+04  0.10217691109E+04  0.00000000000E+00 0.  1.
          2   -1    0    0  501    0  0.00000000000E+00 -0.00000000000E+00 -0.31848184963E+04  0.31848184963E+04  0.00000000000E+00 0. -1.
         23    2    1    2    0    0  0.65970161048E+03 -0.12482210330E+04  0.22481873091E+03  0.14325695641E+04  0.91924600048E+02 0.  0.
         11    1    3    3    0    0  0.28861357337E+03 -0.46474264590E+03  0.11096372702E+03  0.55820826791E+03  0.00000000000E+00 0. -1.
        -11    1    3    3    0    0  0.37108803711E+03 -0.78347838715E+03  0.11385500389E+03  0.87436129622E+03  0.00000000000E+00 0.  1.
         22    1    1    2    0    0 -0.65970161048E+03  0.12482210330E+04 -0.23878681164E+04  0.27740180431E+04  0.00000000000E+00 0. -1.
<mgrwt>
<rscale>  0 0.36078521E+04</rscale>
<asrwt>0</asrwt>
<pdfrwt beam="1">  1        2 0.48997207E+00 0.36078521E+04</pdfrwt>
<pdfrwt beam="2">  1       -2 0.15719525E+00 0.36078521E+04</pdfrwt>
<totfact> 0.28529759E-01</totfact>
</mgrwt>
</event>
<event>
 6    1  0.2003386E-005  0.2987293E+04  0.7818608E-02  0.8247369E-01
          2   -1    0    0  501    0  0.00000000000E+00  0.00000000000E+00  0.13947757970E+04  0.13947757970E+04  0.00000000000E+00 0. -1.
         -2   -1    0    0    0  501 -0.00000000000E+00 -0.00000000000E+00 -0.15995261988E+04  0.15995261988E+04  0.00000000000E+00 0.  1.
         23    2    1    2    0    0 -0.15214667656E+03  0.23773204599E+03  0.13662875652E+04  0.13981110828E+04  0.91146870581E+02 0.  0.
         13    1    3    3    0    0 -0.14065023342E+03  0.15453905058E+03  0.86819515627E+03  0.89298803782E+03  0.00000000000E+00 0.  1.
        -13    1    3    3    0    0 -0.11496443141E+02  0.83192995410E+02  0.49809240896E+03  0.50512304496E+03  0.00000000000E+00 0. -1.
         22    1    1    2    0    0  0.15214667656E+03 -0.23773204599E+03 -0.15710379670E+04  0.15961909130E+04  0.00000000000E+00 0.  1.
<mgrwt>
<rscale>  0 0.29872934E+04</rscale>
<asrwt>0</asrwt>
<pdfrwt beam="1">  1        2 0.21458089E+00 0.29872934E+04</pdfrwt>
<pdfrwt beam="2">  1       -2 0.24608095E+00 0.29872934E+04</pdfrwt>
<totfact> 0.84825785E-01</totfact>
</mgrwt>
</event>
<event>
 6    1  0.2003386E-005  0.7954117E+03  0.7818608E-02  0.9566682E-01
         -2   -1    0    0    0  501 -0.00000000000E+00  0.00000000000E+00  0.98149737596E+02  0.98149737596E+02  0.00000000000E+00 0.  1.
          2   -1    0    0  501    0  0.00000000000E+00 -0.00000000000E+00 -0.16115167326E+04  0.16115167326E+04  0.00000000000E+00 0. -1.
         23    2    1    2    0    0 -0.49445899589E+02  0.96580224462E+02 -0.15774024185E+04  0.15836776922E+04  0.89799810406E+02 0.  0.
         13    1    3    3    0    0 -0.37988173255E+02  0.11130870086E+03 -0.14672133084E+04  0.14719197059E+04  0.00000000000E+00 0.  1.
        -13    1    3    3    0    0 -0.11457726333E+02 -0.14728476394E+02 -0.11018911010E+03  0.11175798626E+03  0.00000000000E+00 0. -1.
         22    1    1    2    0    0  0.49445899589E+02 -0.96580224462E+02  0.64035423471E+02  0.12598877808E+03  0.00000000000E+00 0.  1.
<mgrwt>
<rscale>  0 0.79541170E+03</rscale>
<asrwt>0</asrwt>
<pdfrwt beam="1">  1        2 0.24792565E+00 0.79541170E+03</pdfrwt>
<pdfrwt beam="2">  1       -2 0.15099960E-01 0.79541170E+03</pdfrwt>
<totfact> 0.38517713E+02</totfact>
</mgrwt>
</event>
<event>
 6    1  0.2003386E-005  0.1846980E+04  0.7818608E-02  0.8681707E-01
         -2   -1    0    0    0  501 -0.00000000000E+00  0.00000000000E+00  0.24533390924E+03  0.24533390924E+03  0.00000000000E+00 0.  1.
          2   -1    0    0  501    0  0.00000000000E+00 -0.00000000000E+00 -0.34762171476E+04  0.34762171476E+04  0.00000000000E+00 0. -1.
         23    2    1    2    0    0  0.66432358323E+03  0.28253082252E+01 -0.33347688721E+03  0.74896003733E+03  0.91654228565E+02 0.  0.
         13    1    3    3    0    0  0.45144779912E+03 -0.15104160736E+02 -0.18156766672E+03  0.48682652824E+03  0.00000000000E+00 0.  1.
        -13    1    3    3    0    0  0.21287578411E+03  0.17929468961E+02 -0.15190922049E+03  0.26213350909E+03  0.00000000000E+00 0. -1.
         22    1    1    2    0    0 -0.66432358323E+03 -0.28253082252E+01 -0.28974063511E+04  0.29725910195E+04  0.00000000000E+00 0. -1.
<mgrwt>
<rscale>  0 0.18469802E+04</rscale>
<asrwt>0</asrwt>
<pdfrwt beam="1">  1        2 0.53480261E+00 0.18469802E+04</pdfrwt>
<pdfrwt beam="2">  1       -2 0.37743681E-01 0.18469802E+04</pdfrwt>
<totfact> 0.53004694E+00</totfact>
</mgrwt>
</event>
<event>
 6    1  0.2003386E-005  0.6193795E+03  0.7818608E-02  0.9865996E-01
         -2   -1    0    0    0  501 -0.00000000000E+00  0.00000000000E+00  0.11468911351E+03  0.11468911351E+03  0.00000000000E+00 0.  1.
          2   -1    0    0  501    0  0.00000000000E+00 -0.00000000000E+00 -0.83624097883E+03  0.83624097883E+03  0.00000000000E+00 0. -1.
         23    2    1    2    0    0 -0.16643865896E+03  0.14282559485E+03 -0.48130839243E+02  0.24269506348E+03  0.92105040106E+02 0.  0.
         11    1    3    3    0    0 -0.25547587201E+02  0.79143225316E+02 -0.13563749140E+02  0.84263305276E+02  0.00000000000E+00 0. -1.
        -11    1    3    3    0    0 -0.14089107176E+03  0.63682369533E+02 -0.34567090102E+02  0.15843175821E+03  0.00000000000E+00 0.  1.
         22    1    1    2    0    0  0.16643865896E+03 -0.14282559485E+03 -0.67342102608E+03  0.70823502886E+03  0.00000000000E+00 0. -1.
<mgrwt>
<rscale>  0 0.61937948E+03</rscale>
<asrwt>0</asrwt>
<pdfrwt beam="1">  1        2 0.12865246E+00 0.61937948E+03</pdfrwt>
<pdfrwt beam="2">  1       -2 0.17644479E-01 0.61937948E+03</pdfrwt>
<totfact> 0.86651460E+02</totfact>
</mgrwt>
</event>
<event>
 6    1  0.2003386E-005  0.9035117E+03  0.7818608E-02  0.9421202E-01
          2   -1    0    0  501    0  0.00000000000E+00  0.00000000000E+00  0.43576852347E+03  0.43576852347E+03  0.00000000000E+00 0. -1.
         -2   -1    0    0    0  501 -0.00000000000E+00 -0.00000000000E+00 -0.46832974336E+03  0.46832974336E+03  0.00000000000E+00 0.  1.
         23    2    1    2    0    0 -0.22972445372E+03 -0.11882867096E+03 -0.38130708420E+03  0.46991252830E+03  0.92353203041E+02 0.  0.
         11    1    3    3    0    0 -0.92017741181E+02 -0.71856779454E+02 -0.24097364079E+03  0.26776660919E+03  0.00000000000E+00 0. -1.
        -11    1    3    3    0    0 -0.13770671254E+03 -0.46971891503E+02 -0.14033344341E+03  0.20214591910E+03  0.00000000000E+00 0.  1.
         22    1    1    2    0    0  0.22972445372E+03  0.11882867096E+03  0.34874586430E+03  0.43418573854E+03  0.00000000000E+00 0. -1.
<mgrwt>
<rscale>  0 0.90351173E+03</rscale>
<asrwt>0</asrwt>
<pdfrwt beam="1">  1        2 0.67041311E-01 0.90351173E+03</pdfrwt>
<pdfrwt beam="2">  1       -2 0.72050730E-01 0.90351173E+03</pdfrwt>
<totfact> 0.12638097E+02</totfact>
</mgrwt>
</event>
<event>
 6    1  0.2003386E-005  0.1455564E+04  0.7818608E-02  0.8914552E-01
          2   -1    0    0  501    0  0.00000000000E+00  0.00000000000E+00  0.21772681115E+04  0.21772681115E+04  0.00000000000E+00 0. -1.
         -2   -1    0    0    0  501 -0.00000000000E+00 -0.00000000000E+00 -0.24327132800E+03  0.24327132800E+03  0.00000000000E+00 0.  1.
         23    2    1    2    0    0 -0.42246091434E+03  0.10501571328E+03  0.67315277621E+01  0.44472242112E+03  0.90725929044E+02 0.  0.
         13    1    3    3    0    0 -0.26319452059E+03  0.31558565137E+02 -0.25829780020E+02  0.26633527036E+03  0.00000000000E+00 0. -1.
        -13    1    3    3    0    0 -0.15926639374E+03  0.73457148148E+02  0.32561307782E+02  0.17838715075E+03  0.00000000000E+00 0.  1.
         22    1    1    2    0    0  0.42246091434E+03 -0.10501571328E+03  0.19272652557E+04  0.19758170184E+04  0.00000000000E+00 0. -1.
<mgrwt>
<rscale>  0 0.14555644E+04</rscale>
<asrwt>0</asrwt>
<pdfrwt beam="1">  1        2 0.33496431E+00 0.14555644E+04</pdfrwt>
<pdfrwt beam="2">  1       -2 0.37426360E-01 0.14555644E+04</pdfrwt>
<totfact> 0.34749797E+01</totfact>
</mgrwt>
</event>
<event>
 6    1  0.2003386E-005  0.2989831E+04  0.7818608E-02  0.8246641E-01
         -2   -1    0    0    0  501 -0.00000000000E+00  0.00000000000E+00  0.12851140322E+04  0.12851140322E+04  0.00000000000E+00 0. -1.
          2   -1    0    0  501    0  0.00000000000E+00 -0.00000000000E+00 -0.17389683390E+04  0.17389683390E+04  0.00000000000E+00 0.  1.
         23    2    1    2    0    0  0.30190990520E+03  0.38968071005E+03 -0.16530973094E+04  0.17274774099E+04  0.91906694429E+02 0.  0.
         13    1    3    3    0    0  0.12999198857E+03  0.23659626387E+03 -0.83011043295E+03  0.87290265211E+03  0.00000000000E+00 0. -1.
        -13    1    3    3    0    0  0.17191791663E+03  0.15308444619E+03 -0.82298687648E+03  0.85457475774E+03  0.00000000000E+00 0.  1.
         22    1    1    2    0    0 -0.30190990520E+03 -0.38968071005E+03  0.11992430026E+04  0.12966049614E+04  0.00000000000E+00 0. -1.
<mgrwt>
<rscale>  0 0.29898312E+04</rscale>
<asrwt>0</asrwt>
<pdfrwt beam="1">  1        2 0.26753359E+00 0.29898312E+04</pdfrwt>
<pdfrwt beam="2">  1       -2 0.19770985E+00 0.29898312E+04</pdfrwt>
<totfact> 0.11007603E+00</totfact>
</mgrwt>
</event>
<event>
 6    1  0.2003386E-005  0.8372456E+03  0.7818608E-02  0.9507617E-01
          2   -1    0    0  501    0  0.00000000000E+00  0.00000000000E+00  0.69710497842E+03  0.69710497842E+03  0.00000000000E+00 0. -1.
         -2   -1    0    0    0  501 -0.00000000000E+00 -0.00000000000E+00 -0.25138977267E+03  0.25138977267E+03  0.00000000000E+00 0.  1.
         23    2    1    2    0    0 -0.17349857293E+03  0.20281180571E+03  0.58344650241E+03  0.64815445505E+03  0.91978220727E+02 0.  0.
         13    1    3    3    0    0 -0.15931312621E+02  0.72502458999E+02  0.11308427177E+03  0.13527182191E+03  0.00000000000E+00 0. -1.
        -13    1    3    3    0    0 -0.15756726031E+03  0.13030934671E+03  0.47036223064E+03  0.51288263314E+03  0.00000000000E+00 0.  1.
         22    1    1    2    0    0  0.17349857293E+03 -0.20281180571E+03 -0.13773129667E+03  0.30034029604E+03  0.00000000000E+00 0.  1.
<mgrwt>
<rscale>  0 0.83724563E+03</rscale>
<asrwt>0</asrwt>
<pdfrwt beam="1">  1        2 0.10724692E+00 0.83724563E+03</pdfrwt>
<pdfrwt beam="2">  1       -2 0.38675350E-01 0.83724563E+03</pdfrwt>
<totfact> 0.26135662E+02</totfact>
</mgrwt>
</event>
<event>
 6    1  0.2003386E-005  0.2713318E+04  0.7818608E-02  0.8330696E-01
         -2   -1    0    0    0  501 -0.00000000000E+00  0.00000000000E+00  0.15992815224E+04  0.15992815224E+04  0.00000000000E+00 0.  1.
          2   -1    0    0  501    0  0.00000000000E+00 -0.00000000000E+00 -0.11508444782E+04  0.11508444782E+04  0.00000000000E+00 0. -1.
         23    2    1    2    0    0  0.28199020979E+03 -0.71130763665E+03  0.13580528660E+04  0.15614805633E+04  0.91852764608E+02 0.  0.
         11    1    3    3    0    0  0.18452114851E+03 -0.55143427333E+03  0.97810161519E+03  0.11378974390E+04  0.00000000000E+00 0.  1.
        -11    1    3    3    0    0  0.97469061272E+02 -0.15987336332E+03  0.37995125078E+03  0.42358312428E+03  0.00000000000E+00 0. -1.
         22    1    1    2    0    0 -0.28199020979E+03  0.71130763665E+03 -0.90961582179E+03  0.11886454373E+04  0.00000000000E+00 0. -1.
<mgrwt>
<rscale>  0 0.27133185E+04</rscale>
<asrwt>0</asrwt>
<pdfrwt beam="1">  1        2 0.17705300E+00 0.27133185E+04</pdfrwt>
<pdfrwt beam="2">  1       -2 0.24604331E+00 0.27133185E+04</pdfrwt>
<totfact> 0.12078819E+00</totfact>
</mgrwt>
</event>
<event>
 6    1  0.2003386E-005  0.2869065E+04  0.7818608E-02  0.8282141E-01
         -2   -1    0    0    0  501 -0.00000000000E+00  0.00000000000E+00  0.61300510182E+03  0.61300510182E+03  0.00000000000E+00 0.  1.
          2   -1    0    0  501    0  0.00000000000E+00 -0.00000000000E+00 -0.33570418888E+04  0.33570418888E+04  0.00000000000E+00 0. -1.
         23    2    1    2    0    0 -0.12779628881E+04 -0.12266755296E+03 -0.49229481558E+03  0.13780249271E+04  0.91444203970E+02 0.  0.
         13    1    3    3    0    0 -0.38065233400E+03 -0.76594499704E+02 -0.13461262304E+03  0.41095434667E+03  0.00000000000E+00 0. -1.
        -13    1    3    3    0    0 -0.89731055410E+03 -0.46073053252E+02 -0.35768219255E+03  0.96707058046E+03  0.00000000000E+00 0.  1.
         22    1    1    2    0    0  0.12779628881E+04  0.12266755296E+03 -0.22517419714E+04  0.25920220635E+04  0.00000000000E+00 0. -1.
<mgrwt>
<rscale>  0 0.28690652E+04</rscale>
<asrwt>0</asrwt>
<pdfrwt beam="1">  1        2 0.51646798E+00 0.28690652E+04</pdfrwt>
<pdfrwt beam="2">  1       -2 0.94308477E-01 0.28690652E+04</pdfrwt>
<totfact> 0.83610523E-01</totfact>
</mgrwt>
</event>
<event>
 6    1  0.2003386E-005  0.1575664E+04  0.7818608E-02  0.8835640E-01
          2   -1    0    0  501    0  0.00000000000E+00  0.00000000000E+00  0.17400133742E+04  0.17400133742E+04  0.00000000000E+00 0. -1.
         -2   -1    0    0    0  501 -0.00000000000E+00 -0.00000000000E+00 -0.35670932514E+03  0.35670932514E+03  0.00000000000E+00 0.  1.
         23    2    1    2    0    0  0.65132570391E+03 -0.37910818998E+03  0.40288453052E+03  0.86012631224E+03  0.97740144165E+02 0.  0.
         13    1    3    3    0    0  0.39224479442E+03 -0.22400521908E+03  0.18674281611E+03  0.48878133792E+03  0.00000000000E+00 0. -1.
        -13    1    3    3    0    0  0.25908090949E+03 -0.15510297090E+03  0.21614171441E+03  0.37134497432E+03  0.00000000000E+00 0.  1.
         22    1    1    2    0    0 -0.65132570391E+03  0.37910818998E+03  0.98041951852E+03  0.12365963871E+04  0.00000000000E+00 0. -1.
<mgrwt>
<rscale>  0 0.15756637E+04</rscale>
<asrwt>0</asrwt>
<pdfrwt beam="1">  1        2 0.26769436E+00 0.15756637E+04</pdfrwt>
<pdfrwt beam="2">  1       -2 0.54878358E-01 0.15756637E+04</pdfrwt>
<totfact> 0.27953771E+01</totfact>
</mgrwt>
</event>
<event>
 6    1  0.2003386E-005  0.1933947E+04  0.7818608E-02  0.8638141E-01
          2   -1    0    0  501    0  0.00000000000E+00  0.00000000000E+00  0.35211997330E+04  0.35211997330E+04  0.00000000000E+00 0.  1.
         -2   -1    0    0    0  501 -0.00000000000E+00 -0.00000000000E+00 -0.26554527254E+03  0.26554527254E+03  0.00000000000E+00 0. -1.
         23    2    1    2    0    0  0.92270256556E+03 -0.27923114382E+03  0.17053954570E+04  0.19611894644E+04  0.92414252930E+02 0.  0.
         13    1    3    3    0    0  0.80529640799E+03 -0.22131190181E+03  0.15183898758E+04  0.17329134651E+04  0.00000000000E+00 0. -1.
        -13    1    3    3    0    0  0.11740615757E+03 -0.57919242014E+02  0.18700558118E+03  0.22827599923E+03  0.00000000000E+00 0.  1.
         22    1    1    2    0    0 -0.92270256556E+03  0.27923114382E+03  0.15502590034E+04  0.18255555412E+04  0.00000000000E+00 0.  1.
<mgrwt>
<rscale>  0 0.19339472E+04</rscale>
<asrwt>0</asrwt>
<pdfrwt beam="1">  1        2 0.54172301E+00 0.19339472E+04</pdfrwt>
<pdfrwt beam="2">  1       -2 0.40853121E-01 0.19339472E+04</pdfrwt>
<totfact> 0.41909297E+00</totfact>
</mgrwt>
</event>
<event>
 6    1  0.2003386E-005  0.3111150E+04  0.7818608E-02  0.8212685E-01
         -2   -1    0    0    0  501 -0.00000000000E+00  0.00000000000E+00  0.65879778362E+03  0.65879778362E+03  0.00000000000E+00 0.  1.
          2   -1    0    0  501    0  0.00000000000E+00 -0.00000000000E+00 -0.36730739783E+04  0.36730739783E+04  0.00000000000E+00 0. -1.
         23    2    1    2    0    0 -0.83521064443E+03  0.48510891508E+02 -0.33322413346E+04  0.34368678751E+04  0.91095289906E+02 0.  0.
         11    1    3    3    0    0 -0.16947884229E+03 -0.22190108996E+02 -0.60772298686E+03  0.63130239004E+03  0.00000000000E+00 0.  1.
        -11    1    3    3    0    0 -0.66573180214E+03  0.70701000504E+02 -0.27245183478E+04  0.28055654851E+04  0.00000000000E+00 0. -1.
         22    1    1    2    0    0  0.83521064443E+03 -0.48510891508E+02  0.31796513993E+03  0.89500388679E+03  0.00000000000E+00 0.  1.
<mgrwt>
<rscale>  0 0.31111496E+04</rscale>
<asrwt>0</asrwt>
<pdfrwt beam="1">  1        2 0.56508831E+00 0.31111496E+04</pdfrwt>
<pdfrwt beam="2">  1       -2 0.10135350E+00 0.31111496E+04</pdfrwt>
<totfact> 0.41411393E-01</totfact>
</mgrwt>
</event>
<event>
 6    1  0.2003386E-005  0.9046596E+03  0.7818608E-02  0.9419775E-01
          2   -1    0    0  501    0  0.00000000000E+00  0.00000000000E+00  0.12447942376E+04  0.12447942376E+04  0.00000000000E+00 0. -1.
         -2   -1    0    0    0  501 -0.00000000000E+00 -0.00000000000E+00 -0.16436632976E+03  0.16436632976E+03  0.00000000000E+00 0.  1.
         23    2    1    2    0    0  0.41403233039E+03 -0.14902909681E+03  0.41686544475E+03  0.61295231274E+03  0.91111450250E+02 0.  0.
         13    1    3    3    0    0  0.21255006674E+03 -0.11674718653E+03  0.26028602845E+03  0.35574745683E+03  0.00000000000E+00 0. -1.
        -13    1    3    3    0    0  0.20148226365E+03 -0.32281910275E+02  0.15657941630E+03  0.25720485591E+03  0.00000000000E+00 0.  1.
         22    1    1    2    0    0 -0.41403233039E+03  0.14902909681E+03  0.66356246311E+03  0.79620825464E+03  0.00000000000E+00 0. -1.
<mgrwt>
<rscale>  0 0.90465963E+03</rscale>
<asrwt>0</asrwt>
<pdfrwt beam="1">  1        2 0.19150680E+00 0.90465963E+03</pdfrwt>
<pdfrwt beam="2">  1       -2 0.25287128E-01 0.90465963E+03</pdfrwt>
<totfact> 0.25055509E+02</totfact>
</mgrwt>
</event>
<event>
 6    1  0.2003386E-005  0.3216895E+04  0.7818608E-02  0.8184369E-01
          1   -1    0    0  501    0  0.00000000000E+00  0.00000000000E+00  0.14887421797E+04  0.14887421797E+04  0.00000000000E+00 0. -1.
         -1   -1    0    0    0  501 -0.00000000000E+00 -0.00000000000E+00 -0.17377781239E+04  0.17377781239E+04  0.00000000000E+00 0.  1.
         23    2    1    2    0    0  0.97443666325E+03 -0.11156194126E+04  0.50079319007E+03  0.15662862193E+04  0.91242627769E+02 0.  0.
         11    1    3    3    0    0  0.35782163177E+03 -0.39398097582E+03  0.13526105899E+03  0.54913831004E+03  0.00000000000E+00 0. -1.
        -11    1    3    3    0    0  0.61661503148E+03 -0.72163843675E+03  0.36553213108E+03  0.10171479093E+04  0.00000000000E+00 0.  1.
         22    1    1    2    0    0 -0.97443666325E+03  0.11156194126E+04 -0.74982913426E+03  0.16602340844E+04  0.00000000000E+00 0.  1.
<mgrwt>
<rscale>  0 0.32168951E+04</rscale>
<asrwt>0</asrwt>
<pdfrwt beam="1">  1        1 0.22903726E+00 0.32168951E+04</pdfrwt>
<pdfrwt beam="2">  1       -1 0.26735048E+00 0.32168951E+04</pdfrwt>
<totfact> 0.29911097E-01</totfact>
</mgrwt>
</event>
<event>
 6    1  0.2003386E-005  0.1735013E+04  0.7818608E-02  0.8741643E-01
         -2   -1    0    0    0  501 -0.00000000000E+00  0.00000000000E+00  0.14765808704E+04  0.14765808704E+04  0.00000000000E+00 0.  1.
          2   -1    0    0  501    0  0.00000000000E+00 -0.00000000000E+00 -0.50966923407E+03  0.50966923407E+03  0.00000000000E+00 0. -1.
         23    2    1    2    0    0 -0.88353275513E+02 -0.70589261720E+03 -0.78771031961E+02  0.72151972566E+03  0.91077718099E+02 0.  0.
         11    1    3    3    0    0 -0.10170972339E+03 -0.58627818945E+03 -0.46164778471E+02  0.59682339937E+03  0.00000000000E+00 0. -1.
        -11    1    3    3    0    0  0.13356447879E+02 -0.11961442774E+03 -0.32606253490E+02  0.12469632629E+03  0.00000000000E+00 0.  1.
         22    1    1    2    0    0  0.88353275513E+02  0.70589261720E+03  0.10456826683E+04  0.12647303788E+04  0.00000000000E+00 0.  1.
<mgrwt>
<rscale>  0 0.17350134E+04</rscale>
<asrwt>0</asrwt>
<pdfrwt beam="1">  1        2 0.78410652E-01 0.17350134E+04</pdfrwt>
<pdfrwt beam="2">  1       -2 0.22716628E+00 0.17350134E+04</pdfrwt>
<totfact> 0.50867845E+00</totfact>
</mgrwt>
</event>
<event>
 6    1  0.2003386E-005  0.3462335E+04  0.7818608E-02  0.8122775E-01
          2   -1    0    0  501    0  0.00000000000E+00  0.00000000000E+00  0.26966382989E+04  0.26966382989E+04  0.00000000000E+00 0. -1.
         -2   -1    0    0    0  501 -0.00000000000E+00 -0.00000000000E+00 -0.11113617229E+04  0.11113617229E+04  0.00000000000E+00 0.  1.
         23    2    1    2    0    0  0.82871216301E+03  0.64843333470E+03  0.23033966578E+04  0.25340588573E+04  0.92674108249E+02 0.  0.
         11    1    3    3    0    0  0.45335393376E+03  0.35939901090E+03  0.13757662286E+04  0.14924577562E+04  0.00000000000E+00 0.  1.
        -11    1    3    3    0    0  0.37535822925E+03  0.28903432379E+03  0.92763042929E+03  0.10416011012E+04  0.00000000000E+00 0. -1.
         22    1    1    2    0    0 -0.82871216301E+03 -0.64843333470E+03 -0.71812008186E+03  0.12739411645E+04  0.00000000000E+00 0.  1.
<mgrwt>
<rscale>  0 0.34623348E+04</rscale>
<asrwt>0</asrwt>
<pdfrwt beam="1">  1        2 0.41486743E+00 0.34623348E+04</pdfrwt>
<pdfrwt beam="2">  1       -2 0.17097873E+00 0.34623348E+04</pdfrwt>
<totfact> 0.46106671E-01</totfact>
</mgrwt>
</event>
<event>
 6    1  0.2003386E-005  0.1027890E+04  0.7818608E-02  0.9278474E-01
          2   -1    0    0  501    0  0.00000000000E+00  0.00000000000E+00  0.22073763330E+04  0.22073763330E+04  0.00000000000E+00 0. -1.
         -2   -1    0    0    0  501 -0.00000000000E+00 -0.00000000000E+00 -0.11966218367E+03  0.11966218367E+03  0.00000000000E+00 0.  1.
         23    2    1    2    0    0  0.43191946543E+03  0.18177796126E+02  0.16641950352E+04  0.17218498709E+04  0.91307206584E+02 0.  0.
         13    1    3    3    0    0  0.38398627461E+03  0.44737171140E+02  0.14821128548E+04  0.15317001626E+04  0.00000000000E+00 0. -1.
        -13    1    3    3    0    0  0.47933190821E+02 -0.26559375014E+02  0.18208218039E+03  0.19014970838E+03  0.00000000000E+00 0.  1.
         22    1    1    2    0    0 -0.43191946543E+03 -0.18177796126E+02  0.42351911410E+03  0.60518864571E+03  0.00000000000E+00 0. -1.
<mgrwt>
<rscale>  0 0.10278900E+04</rscale>
<asrwt>0</asrwt>
<pdfrwt beam="1">  1        2 0.33959633E+00 0.10278900E+04</pdfrwt>
<pdfrwt beam="2">  1       -2 0.18409568E-01 0.10278900E+04</pdfrwt>
<totfact> 0.12674921E+02</totfact>
</mgrwt>
</event>
<event>
 6    1  0.2003386E-005  0.1568621E+04  0.7818608E-02  0.8840061E-01
         -2   -1    0    0    0  501 -0.00000000000E+00  0.00000000000E+00  0.34956611742E+03  0.34956611742E+03  0.00000000000E+00 0.  1.
          2   -1    0    0  501    0  0.00000000000E+00 -0.00000000000E+00 -0.17597329392E+04  0.17597329392E+04  0.00000000000E+00 0. -1.
         23    2    1    2    0    0  0.46535767383E+03  0.62778734444E+03 -0.68492822161E+03  0.10431631640E+04  0.91586044102E+02 0.  0.
         13    1    3    3    0    0  0.20057661671E+03  0.32214443963E+03 -0.37667072503E+03  0.53468575281E+03  0.00000000000E+00 0.  1.
        -13    1    3    3    0    0  0.26478105711E+03  0.30564290481E+03 -0.30825749658E+03  0.50847741117E+03  0.00000000000E+00 0. -1.
         22    1    1    2    0    0 -0.46535767383E+03 -0.62778734444E+03 -0.72523860018E+03  0.10661358927E+04  0.00000000000E+00 0. -1.
<mgrwt>
<rscale>  0 0.15686211E+04</rscale>
<asrwt>0</asrwt>
<pdfrwt beam="1">  1        2 0.27072814E+00 0.15686211E+04</pdfrwt>
<pdfrwt beam="2">  1       -2 0.53779404E-01 0.15686211E+04</pdfrwt>
<totfact> 0.28442122E+01</totfact>
</mgrwt>
</event>
<event>
 6    1  0.2003386E-005  0.4215590E+04  0.7818608E-02  0.7962413E-01
          2   -1    0    0  501    0  0.00000000000E+00  0.00000000000E+00  0.23791750143E+04  0.23791750143E+04  0.00000000000E+00 0. -1.
         -2   -1    0    0    0  501 -0.00000000000E+00 -0.00000000000E+00 -0.18673699776E+04  0.18673699776E+04  0.00000000000E+00 0.  1.
         23    2    1    2    0    0  0.34093534347E+03  0.18585198186E+04  0.11946525880E+04  0.22374124420E+04  0.92123858681E+02 0.  0.
         13    1    3    3    0    0  0.31159548675E+03  0.16300851180E+04  0.10156287448E+04  0.19457057811E+04  0.00000000000E+00 0. -1.
        -13    1    3    3    0    0  0.29339856718E+02  0.22843470063E+03  0.17902384312E+03  0.29170666096E+03  0.00000000000E+00 0.  1.
         22    1    1    2    0    0 -0.34093534347E+03 -0.18585198186E+04 -0.68284755129E+03  0.20091325499E+04  0.00000000000E+00 0.  1.
<mgrwt>
<rscale>  0 0.42155901E+04</rscale>
<asrwt>0</asrwt>
<pdfrwt beam="1">  1        2 0.36602692E+00 0.42155901E+04</pdfrwt>
<pdfrwt beam="2">  1       -2 0.28728769E+00 0.42155901E+04</pdfrwt>
<totfact> 0.12042959E-01</totfact>
</mgrwt>
</event>
<event>
 6    1  0.2003386E-005  0.1230466E+04  0.7818608E-02  0.9086600E-01
         -2   -1    0    0    0  501 -0.00000000000E+00  0.00000000000E+00  0.29026907824E+03  0.29026907824E+03  0.00000000000E+00 0.  1.
          2   -1    0    0  501    0  0.00000000000E+00 -0.00000000000E+00 -0.13040018718E+04  0.13040018718E+04  0.00000000000E+00 0. -1.
         23    2    1    2    0    0  0.23117994962E+03  0.33809538230E+02  0.22280013833E+03  0.33585887698E+03  0.92596056202E+02 0.  0.
         11    1    3    3    0    0  0.91096700815E+02  0.46690855188E+02  0.13722809698E+03  0.17120220635E+03  0.00000000000E+00 0.  1.
        -11    1    3    3    0    0  0.14008324881E+03 -0.12881316959E+02  0.85572041350E+02  0.16465667063E+03  0.00000000000E+00 0. -1.
         22    1    1    2    0    0 -0.23117994962E+03 -0.33809538230E+02 -0.12365329319E+04  0.12584120731E+04  0.00000000000E+00 0. -1.
<mgrwt>
<rscale>  0 0.12304656E+04</rscale>
<asrwt>0</asrwt>
<pdfrwt beam="1">  1        2 0.20061567E+00 0.12304656E+04</pdfrwt>
<pdfrwt beam="2">  1       -2 0.44656781E-01 0.12304656E+04</pdfrwt>
<totfact> 0.76967785E+01</totfact>
</mgrwt>
</event>
<event>
 6    1  0.2003386E-005  0.2576668E+04  0.7818608E-02  0.8376170E-01
         -2   -1    0    0    0  501 -0.00000000000E+00  0.00000000000E+00  0.95294440612E+03  0.95294440612E+03  0.00000000000E+00 0.  1.
          2   -1    0    0  501    0  0.00000000000E+00 -0.00000000000E+00 -0.17417646777E+04  0.17417646777E+04  0.00000000000E+00 0. -1.
         23    2    1    2    0    0  0.93853784762E+03  0.45158849429E+03  0.39523546346E+03  0.11177584050E+04  0.91582317479E+02 0.  0.
         13    1    3    3    0    0  0.43677205300E+03  0.20377258259E+03  0.13456582788E+03  0.50040089301E+03  0.00000000000E+00 0. -1.
        -13    1    3    3    0    0  0.50176579462E+03  0.24781591170E+03  0.26066963558E+03  0.61735751203E+03  0.00000000000E+00 0.  1.
         22    1    1    2    0    0 -0.93853784762E+03 -0.45158849429E+03 -0.11840557350E+04  0.15769506787E+04  0.00000000000E+00 0. -1.
<mgrwt>
<rscale>  0 0.25766683E+04</rscale>
<asrwt>0</asrwt>
<pdfrwt beam="1">  1        2 0.26796379E+00 0.25766683E+04</pdfrwt>
<pdfrwt beam="2">  1       -2 0.14660683E+00 0.25766683E+04</pdfrwt>
<totfact> 0.26228764E+00</totfact>
</mgrwt>
</event>
<event>
 6    1  0.2003386E-005  0.1861114E+04  0.7818608E-02  0.8674458E-01
          2   -1    0    0  501    0  0.00000000000E+00  0.00000000000E+00  0.29860099398E+04  0.29860099398E+04  0.00000000000E+00 0. -1.
         -2   -1    0    0    0  501 -0.00000000000E+00 -0.00000000000E+00 -0.28999789357E+03  0.28999789357E+03  0.00000000000E+00 0.  1.
         23    2    1    2    0    0  0.71358334315E+03 -0.58765869289E+03  0.14970728696E+04  0.17620728691E+04  0.95549421312E+02 0.  0.
         13    1    3    3    0    0  0.55119727297E+03 -0.49077981665E+03  0.11404596493E+04  0.13584297825E+04  0.00000000000E+00 0. -1.
        -13    1    3    3    0    0  0.16238607018E+03 -0.96878876247E+02  0.35661322030E+03  0.40364308658E+03  0.00000000000E+00 0.  1.
         22    1    1    2    0    0 -0.71358334315E+03  0.58765869289E+03  0.11989391765E+04  0.15139349643E+04  0.00000000000E+00 0.  1.
<mgrwt>
<rscale>  0 0.18611143E+04</rscale>
<asrwt>0</asrwt>
<pdfrwt beam="1">  1        2 0.45938612E+00 0.18611143E+04</pdfrwt>
<pdfrwt beam="2">  1       -2 0.44615063E-01 0.18611143E+04</pdfrwt>
<totfact> 0.79782585E+00</totfact>
</mgrwt>
</event>
<event>
 6    1  0.2003386E-005  0.3985871E+04  0.7818608E-02  0.8007403E-01
         -1   -1    0    0    0  501 -0.00000000000E+00  0.00000000000E+00  0.89268333826E+03  0.89268333826E+03  0.00000000000E+00 0.  1.
          1   -1    0    0  501    0  0.00000000000E+00 -0.00000000000E+00 -0.44492728527E+04  0.44492728527E+04  0.00000000000E+00 0. -1.
         23    2    1    2    0    0  0.68209252603E+03  0.83967068470E+03 -0.40207772850E+04  0.41647699869E+04  0.91443949626E+02 0.  0.
         11    1    3    3    0    0  0.25243910416E+03  0.36537790132E+03 -0.15373001339E+04  0.16001619336E+04  0.00000000000E+00 0.  1.
        -11    1    3    3    0    0  0.42965342187E+03  0.47429278337E+03 -0.24834771511E+04  0.25646080533E+04  0.00000000000E+00 0. -1.
         22    1    1    2    0    0 -0.68209252603E+03 -0.83967068470E+03  0.46418777047E+03  0.11771862041E+04  0.00000000000E+00 0.  1.
<mgrwt>
<rscale>  0 0.39858709E+04</rscale>
<asrwt>0</asrwt>
<pdfrwt beam="1">  1        1 0.68450352E+00 0.39858709E+04</pdfrwt>
<pdfrwt beam="2">  1       -1 0.13733590E+00 0.39858709E+04</pdfrwt>
<totfact> 0.12459119E-02</totfact>
</mgrwt>
</event>
<event>
 6    1  0.2003386E-005  0.4737055E+04  0.7818608E-02  0.7870401E-01
         -2   -1    0    0    0  501 -0.00000000000E+00  0.00000000000E+00  0.19720379838E+04  0.19720379838E+04  0.00000000000E+00 0.  1.
          2   -1    0    0  501    0  0.00000000000E+00 -0.00000000000E+00 -0.28447340403E+04  0.28447340403E+04  0.00000000000E+00 0. -1.
         23    2    1    2    0    0  0.55803319396E+03  0.13780042638E+04  0.14370519869E+04  0.20699133053E+04  0.95529481584E+02 0.  0.
         11    1    3    3    0    0  0.41513759809E+03  0.11045367332E+04  0.11728053353E+04  0.16636745399E+04  0.00000000000E+00 0. -1.
        -11    1    3    3    0    0  0.14289559588E+03  0.27346753059E+03  0.26424665163E+03  0.40623876539E+03  0.00000000000E+00 0.  1.
         22    1    1    2    0    0 -0.55803319396E+03 -0.13780042638E+04 -0.23097480435E+04  0.27468587187E+04  0.00000000000E+00 0. -1.
<mgrwt>
<rscale>  0 0.47370554E+04</rscale>
<asrwt>0</asrwt>
<pdfrwt beam="1">  1        2 0.43765139E+00 0.47370554E+04</pdfrwt>
<pdfrwt beam="2">  1       -2 0.30339046E+00 0.47370554E+04</pdfrwt>
<totfact> 0.48909700E-02</totfact>
</mgrwt>
</event>
<event>
 6    1  0.2003386E-005  0.1780596E+04  0.7818608E-02  0.8716687E-01
          2   -1    0    0  501    0  0.00000000000E+00  0.00000000000E+00  0.12636290093E+04  0.12636290093E+04  0.00000000000E+00 0. -1.
         -2   -1    0    0    0  501 -0.00000000000E+00 -0.00000000000E+00 -0.62726526483E+03  0.62726526483E+03  0.00000000000E+00 0.  1.
         23    2    1    2    0    0 -0.58368727015E+01 -0.14460705988E+03  0.12493270128E+04  0.12610774444E+04  0.92482781833E+02 0.  0.
         11    1    3    3    0    0 -0.13309007213E+02 -0.13207340640E+03  0.75810058376E+03  0.76963433489E+03  0.00000000000E+00 0. -1.
        -11    1    3    3    0    0  0.74721345120E+01 -0.12533653484E+02  0.49122642903E+03  0.49144310947E+03  0.00000000000E+00 0.  1.
         22    1    1    2    0    0  0.58368727015E+01  0.14460705988E+03 -0.61296326828E+03  0.62981682981E+03  0.00000000000E+00 0.  1.
<mgrwt>
<rscale>  0 0.17805961E+04</rscale>
<asrwt>0</asrwt>
<pdfrwt beam="1">  1        2 0.19440446E+00 0.17805961E+04</pdfrwt>
<pdfrwt beam="2">  1       -2 0.96502348E-01 0.17805961E+04</pdfrwt>
<totfact> 0.14751144E+01</totfact>
</mgrwt>
</event>
<event>
 6    1  0.2003386E-005  0.1104798E+04  0.7818608E-02  0.9200528E-01
         -2   -1    0    0    0  501 -0.00000000000E+00  0.00000000000E+00  0.19688134952E+03  0.19688134952E+03  0.00000000000E+00 0.  1.
          2   -1    0    0  501    0  0.00000000000E+00 -0.00000000000E+00 -0.15498901613E+04  0.15498901613E+04  0.00000000000E+00 0. -1.
         23    2    1    2    0    0 -0.21453858036E+02 -0.40413217731E+03 -0.95627967610E+02  0.42586664215E+03  0.91840099880E+02 0.  0.
         13    1    3    3    0    0 -0.61002942325E+00 -0.24970453895E+03 -0.14354415969E+02  0.25011752870E+03  0.00000000000E+00 0. -1.
        -13    1    3    3    0    0 -0.20843828613E+02 -0.15442763837E+03 -0.81273551641E+02  0.17574911345E+03  0.00000000000E+00 0.  1.
         22    1    1    2    0    0  0.21453858036E+02  0.40413217731E+03 -0.12573808442E+04  0.13209048687E+04  0.00000000000E+00 0. -1.
<mgrwt>
<rscale>  0 0.11047977E+04</rscale>
<asrwt>0</asrwt>
<pdfrwt beam="1">  1        2 0.23844465E+00 0.11047977E+04</pdfrwt>
<pdfrwt beam="2">  1       -2 0.30289437E-01 0.11047977E+04</pdfrwt>
<totfact> 0.11887117E+02</totfact>
</mgrwt>
</event>
<event>
 6    1  0.2003386E-005  0.2755143E+04  0.7818608E-02  0.8317331E-01
          2   -1    0    0  501    0  0.00000000000E+00  0.00000000000E+00  0.18494140314E+04  0.18494140314E+04  0.00000000000E+00 0. -1.
         -2   -1    0    0    0  501 -0.00000000000E+00 -0.00000000000E+00 -0.10261108850E+04  0.10261108850E+04  0.00000000000E+00 0.  1.
         23    2    1    2    0    0 -0.69507873348E+01 -0.40843984577E+03 -0.95934096897E+03  0.10466751514E+04  0.91226951525E+02 0.  0.
         13    1    3    3    0    0  0.29380113982E+02 -0.31251207822E+03 -0.76575734608E+03  0.82759368243E+03  0.00000000000E+00 0. -1.
        -13    1    3    3    0    0 -0.36330901317E+02 -0.95927767550E+02 -0.19358362290E+03  0.21908146894E+03  0.00000000000E+00 0.  1.
         22    1    1    2    0    0  0.69507873348E+01  0.40843984577E+03  0.17826441154E+04  0.18288497651E+04  0.00000000000E+00 0. -1.
<mgrwt>
<rscale>  0 0.27551435E+04</rscale>
<asrwt>0</asrwt>
<pdfrwt beam="1">  1        2 0.28452524E+00 0.27551435E+04</pdfrwt>
<pdfrwt beam="2">  1       -2 0.15786321E+00 0.27551435E+04</pdfrwt>
<totfact> 0.18486677E+00</totfact>
</mgrwt>
</event>
<event>
 6    1  0.2003386E-005  0.1124539E+04  0.7818608E-02  0.9181599E-01
         -2   -1    0    0    0  501 -0.00000000000E+00  0.00000000000E+00  0.91510842626E+02  0.91510842626E+02  0.00000000000E+00 0.  1.
          2   -1    0    0  501    0  0.00000000000E+00 -0.00000000000E+00 -0.34547513595E+04  0.34547513595E+04  0.00000000000E+00 0. -1.
         23    2    1    2    0    0 -0.49536556601E+03  0.22059925881E+03 -0.12848742108E+04  0.13983195634E+04  0.10170932536E+03 0.  0.
         13    1    3    3    0    0 -0.27401505077E+03  0.67551339274E+02 -0.63131630197E+03  0.69152563555E+03  0.00000000000E+00 0.  1.
        -13    1    3    3    0    0 -0.22135051525E+03  0.15304791954E+03 -0.65355790885E+03  0.70679392789E+03  0.00000000000E+00 0. -1.
         22    1    1    2    0    0  0.49536556601E+03 -0.22059925881E+03 -0.20783663061E+04  0.21479426387E+04  0.00000000000E+00 0. -1.
<mgrwt>
<rscale>  0 0.11245394E+04</rscale>
<asrwt>0</asrwt>
<pdfrwt beam="1">  1        2 0.53150021E+00 0.11245394E+04</pdfrwt>
<pdfrwt beam="2">  1       -2 0.14078591E-01 0.11245394E+04</pdfrwt>
<totfact> 0.34867198E+01</totfact>
</mgrwt>
</event>
<event>
 6    1  0.2003386E-005  0.3463612E+04  0.7818608E-02  0.8122468E-01
          2   -1    0    0  501    0  0.00000000000E+00  0.00000000000E+00  0.23284661155E+04  0.23284661155E+04  0.00000000000E+00 0. -1.
         -2   -1    0    0    0  501 -0.00000000000E+00 -0.00000000000E+00 -0.12880373583E+04  0.12880373583E+04  0.00000000000E+00 0.  1.
         23    2    1    2    0    0  0.12994375575E+04  0.10472015659E+04  0.99898458627E+03  0.19471063656E+04  0.89910565711E+02 0.  0.
         13    1    3    3    0    0  0.17243692092E+03  0.14882270222E+03  0.17220239082E+03  0.28554570877E+03  0.00000000000E+00 0. -1.
        -13    1    3    3    0    0  0.11270006366E+04  0.89837886365E+03  0.82678219545E+03  0.16615606568E+04  0.00000000000E+00 0.  1.
         22    1    1    2    0    0 -0.12994375575E+04 -0.10472015659E+04  0.41444170925E+02  0.16693971082E+04  0.00000000000E+00 0.  1.
<mgrwt>
<rscale>  0 0.34636116E+04</rscale>
<asrwt>0</asrwt>
<pdfrwt beam="1">  1        2 0.35822556E+00 0.34636116E+04</pdfrwt>
<pdfrwt beam="2">  1       -2 0.19815959E+00 0.34636116E+04</pdfrwt>
<totfact> 0.49230240E-01</totfact>
</mgrwt>
</event>
<event>
 6    1  0.2003386E-005  0.3011051E+04  0.7818608E-02  0.8240582E-01
         -2   -1    0    0    0  501 -0.00000000000E+00  0.00000000000E+00  0.10750179867E+04  0.10750179867E+04  0.00000000000E+00 0.  1.
          2   -1    0    0  501    0  0.00000000000E+00 -0.00000000000E+00 -0.21084364544E+04  0.21084364544E+04  0.00000000000E+00 0. -1.
         23    2    1    2    0    0 -0.28111487673E+03 -0.90375658354E+03  0.71882510576E+03  0.11919326418E+04  0.90511622183E+02 0.  0.
         13    1    3    3    0    0 -0.95840108482E+02 -0.23495488643E+03  0.15128185820E+03  0.29542397613E+03  0.00000000000E+00 0.  1.
        -13    1    3    3    0    0 -0.18527476825E+03 -0.66880169711E+03  0.56754324755E+03  0.89650866568E+03  0.00000000000E+00 0. -1.
         22    1    1    2    0    0  0.28111487673E+03  0.90375658354E+03 -0.17522435735E+04  0.19915217993E+04  0.00000000000E+00 0. -1.
<mgrwt>
<rscale>  0 0.30110511E+04</rscale>
<asrwt>0</asrwt>
<pdfrwt beam="1">  1        2 0.32437483E+00 0.30110511E+04</pdfrwt>
<pdfrwt beam="2">  1       -2 0.16538738E+00 0.30110511E+04</pdfrwt>
<totfact> 0.11434914E+00</totfact>
</mgrwt>
</event>
<event>
 6    1  0.2003386E-005  0.2845417E+04  0.7818608E-02  0.8289305E-01
         -2   -1    0    0    0  501 -0.00000000000E+00  0.00000000000E+00  0.14377277185E+04  0.14377277185E+04  0.00000000000E+00 0.  1.
          2   -1    0    0  501    0  0.00000000000E+00 -0.00000000000E+00 -0.14078464985E+04  0.14078464985E+04  0.00000000000E+00 0. -1.
         23    2    1    2    0    0  0.91490224815E+03  0.37416724778E+03 -0.10063194362E+04  0.14135270624E+04  0.91283599693E+02 0.  0.
         11    1    3    3    0    0  0.62175513756E+03  0.21132352630E+03 -0.68987297215E+03  0.95245041947E+03  0.00000000000E+00 0.  1.
        -11    1    3    3    0    0  0.29314711059E+03  0.16284372148E+03 -0.31644646403E+03  0.46107664294E+03  0.00000000000E+00 0. -1.
         22    1    1    2    0    0 -0.91490224815E+03 -0.37416724778E+03  0.10362006562E+04  0.14320471546E+04  0.00000000000E+00 0.  1.
<mgrwt>
<rscale>  0 0.28454173E+04</rscale>
<asrwt>0</asrwt>
<pdfrwt beam="1">  1        2 0.21659177E+00 0.28454173E+04</pdfrwt>
<pdfrwt beam="2">  1       -2 0.22118888E+00 0.28454173E+04</pdfrwt>
<totfact> 0.12060968E+00</totfact>
</mgrwt>
</event>
<event>
 6    1  0.2003386E-005  0.4847862E+03  0.7818608E-02  0.1017828E+00
          2   -1    0    0  501    0  0.00000000000E+00  0.00000000000E+00  0.80985536751E+03  0.80985536751E+03  0.00000000000E+00 0. -1.
         -2   -1    0    0    0  501 -0.00000000000E+00 -0.00000000000E+00 -0.72549275850E+02  0.72549275850E+02  0.00000000000E+00 0.  1.
         23    2    1    2    0    0  0.58380052799E+02 -0.15398820374E+03  0.80118591968E+02  0.20489744251E+03  0.91887843115E+02 0.  0.
         13    1    3    3    0    0  0.12199558751E+02 -0.13969187495E+03  0.60803854561E+02  0.15283899335E+03  0.00000000000E+00 0.  1.
        -13    1    3    3    0    0  0.46180494048E+02 -0.14296328793E+02  0.19314737407E+02  0.52058449156E+02  0.00000000000E+00 0. -1.
         22    1    1    2    0    0 -0.58380052799E+02  0.15398820374E+03  0.65718749969E+03  0.67750720085E+03  0.00000000000E+00 0. -1.
<mgrwt>
<rscale>  0 0.48478622E+03</rscale>
<asrwt>0</asrwt>
<pdfrwt beam="1">  1        2 0.12459313E+00 0.48478622E+03</pdfrwt>
<pdfrwt beam="2">  1       -2 0.11161428E-01 0.48478622E+03</pdfrwt>
<totfact> 0.19467773E+03</totfact>
</mgrwt>
</event>
<event>
 6    1  0.2003386E-005  0.4129052E+04  0.7818608E-02  0.7979007E-01
          2   -1    0    0  501    0  0.00000000000E+00  0.00000000000E+00  0.44156115830E+04  0.44156115830E+04  0.00000000000E+00 0. -1.
         -2   -1    0    0    0  501 -0.00000000000E+00 -0.00000000000E+00 -0.96527227879E+03  0.96527227879E+03  0.00000000000E+00 0.  1.
         23    2    1    2    0    0  0.10109168015E+04  0.12485393810E+04  0.38369030302E+02  0.16096314816E+04  0.92940618541E+02 0.  0.
         13    1    3    3    0    0  0.94959584905E+03  0.11389341229E+04  0.48212155203E+02  0.14836534719E+04  0.00000000000E+00 0.  1.
        -13    1    3    3    0    0  0.61320952453E+02  0.10960525807E+03 -0.98431249005E+01  0.12597800965E+03  0.00000000000E+00 0. -1.
         22    1    1    2    0    0 -0.10109168015E+04 -0.12485393810E+04  0.34119702739E+04  0.37712523802E+04  0.00000000000E+00 0. -1.
<mgrwt>
<rscale>  0 0.41290519E+04</rscale>
<asrwt>0</asrwt>
<pdfrwt beam="1">  1        2 0.67932485E+00 0.41290519E+04</pdfrwt>
<pdfrwt beam="2">  1       -2 0.14850343E+00 0.41290519E+04</pdfrwt>
<totfact> 0.35398898E-02</totfact>
</mgrwt>
</event>
<event>
 6    1  0.2003386E-005  0.1720444E+04  0.7818608E-02  0.8749789E-01
          2   -1    0    0  501    0  0.00000000000E+00  0.00000000000E+00  0.19178600810E+04  0.19178600810E+04  0.00000000000E+00 0. -1.
         -2   -1    0    0    0  501 -0.00000000000E+00 -0.00000000000E+00 -0.38583736040E+03  0.38583736040E+03  0.00000000000E+00 0.  1.
         23    2    1    2    0    0  0.28358517151E+03  0.26229942329E+03  0.17937276651E+04  0.18371023119E+04  0.90908914954E+02 0.  0.
         11    1    3    3    0    0  0.19956331040E+03  0.16188555761E+03  0.13591957908E+04  0.13832735255E+04  0.00000000000E+00 0.  1.
        -11    1    3    3    0    0  0.84021861108E+02  0.10041386569E+03  0.43453187427E+03  0.45382878636E+03  0.00000000000E+00 0. -1.
         22    1    1    2    0    0 -0.28358517151E+03 -0.26229942329E+03 -0.26170494447E+03  0.46659512955E+03  0.00000000000E+00 0.  1.
<mgrwt>
<rscale>  0 0.17204442E+04</rscale>
<asrwt>0</asrwt>
<pdfrwt beam="1">  1        2 0.29505539E+00 0.17204442E+04</pdfrwt>
<pdfrwt beam="2">  1       -2 0.59359595E-01 0.17204442E+04</pdfrwt>
<totfact> 0.18680873E+01</totfact>
</mgrwt>
</event>
<event>
 6    1  0.2003386E-005  0.2610506E+04  0.7818608E-02  0.8364641E-01
         -2   -1    0    0    0  501 -0.00000000000E+00  0.00000000000E+00  0.21947942721E+04  0.21947942721E+04  0.00000000000E+00 0.  1.
          2   -1    0    0  501    0  0.00000000000E+00 -0.00000000000E+00 -0.77623934970E+03  0.77623934970E+03  0.00000000000E+00 0. -1.
         23    2    1    2    0    0 -0.52267303499E+03  0.10490150137E+04  0.13598123627E+04  0.17975472397E+04  0.92015307837E+02 0.  0.
         11    1    3    3    0    0 -0.21815558838E+03  0.34221244253E+03  0.48438058389E+03  0.63192227894E+03  0.00000000000E+00 0.  1.
        -11    1    3    3    0    0 -0.30451744660E+03  0.70680257121E+03  0.87543177878E+03  0.11656249608E+04  0.00000000000E+00 0. -1.
         22    1    1    2    0    0  0.52267303499E+03 -0.10490150137E+04  0.58742559724E+02  0.11734863821E+04  0.00000000000E+00 0. -1.
<mgrwt>
<rscale>  0 0.26105062E+04</rscale>
<asrwt>0</asrwt>
<pdfrwt beam="1">  1        2 0.11942144E+00 0.26105062E+04</pdfrwt>
<pdfrwt beam="2">  1       -2 0.33766066E+00 0.26105062E+04</pdfrwt>
<totfact> 0.58937686E-01</totfact>
</mgrwt>
</event>
<event>
 6    1  0.2003386E-005  0.4210295E+04  0.7818608E-02  0.7963417E-01
          2   -1    0    0  501    0  0.00000000000E+00  0.00000000000E+00  0.18229300606E+04  0.18229300606E+04  0.00000000000E+00 0. -1.
         -2   -1    0    0    0  501 -0.00000000000E+00 -0.00000000000E+00 -0.24310562933E+04  0.24310562933E+04  0.00000000000E+00 0.  1.
         23    2    1    2    0    0 -0.23978730522E+03  0.15438771962E+04  0.11198614110E+04  0.19243949637E+04  0.90286476758E+02 0.  0.
         11    1    3    3    0    0 -0.10875333782E+03  0.73247267979E+03  0.58594962052E+03  0.94428834205E+03  0.00000000000E+00 0. -1.
        -11    1    3    3    0    0 -0.13103396739E+03  0.81140451636E+03  0.53391179044E+03  0.98010662162E+03  0.00000000000E+00 0.  1.
         22    1    1    2    0    0  0.23978730522E+03 -0.15438771962E+04 -0.17279876437E+04  0.23295913902E+04  0.00000000000E+00 0.  1.
<mgrwt>
<rscale>  0 0.42102948E+04</rscale>
<asrwt>0</asrwt>
<pdfrwt beam="1">  1        2 0.28045078E+00 0.42102948E+04</pdfrwt>
<pdfrwt beam="2">  1       -2 0.37400866E+00 0.42102948E+04</pdfrwt>
<totfact> 0.71101980E-02</totfact>
</mgrwt>
</event>
<event>
 6    1  0.2003386E-005  0.2805049E+04  0.7818608E-02  0.8301703E-01
          2   -1    0    0  501    0  0.00000000000E+00  0.00000000000E+00  0.14855439796E+04  0.14855439796E+04  0.00000000000E+00 0. -1.
         -2   -1    0    0    0  501 -0.00000000000E+00 -0.00000000000E+00 -0.13241447010E+04  0.13241447010E+04  0.00000000000E+00 0.  1.
         23    2    1    2    0    0  0.19880813109E+03 -0.55509747918E+03  0.13535402621E+04  0.14797044668E+04  0.98975670504E+02 0.  0.
         13    1    3    3    0    0  0.27088626847E+02 -0.19789524543E+02  0.10982768071E+03  0.11483700813E+03  0.00000000000E+00 0. -1.
        -13    1    3    3    0    0  0.17171950424E+03 -0.53530795463E+03  0.12437125814E+04  0.13648674586E+04  0.00000000000E+00 0.  1.
         22    1    1    2    0    0 -0.19880813109E+03  0.55509747918E+03 -0.11921409835E+04  0.13299842138E+04  0.00000000000E+00 0.  1.
<mgrwt>
<rscale>  0 0.28050492E+04</rscale>
<asrwt>0</asrwt>
<pdfrwt beam="1">  1        2 0.22854523E+00 0.28050492E+04</pdfrwt>
<pdfrwt beam="2">  1       -2 0.20371457E+00 0.28050492E+04</pdfrwt>
<totfact> 0.14150472E+00</totfact>
</mgrwt>
</event>
<event>
 6    1  0.2003386E-005  0.3940183E+04  0.7818608E-02  0.8016723E-01
         -1   -1    0    0    0  501 -0.00000000000E+00  0.00000000000E+00  0.18420622671E+04  0.18420622671E+04  0.00000000000E+00 0.  1.
          1   -1    0    0  501    0  0.00000000000E+00 -0.00000000000E+00 -0.21070189705E+04  0.21070189705E+04  0.00000000000E+00 0. -1.
         23    2    1    2    0    0  0.10321094470E+04 -0.24857785866E+03  0.15295390203E+04  0.18640738600E+04  0.90779285737E+02 0.  0.
         11    1    3    3    0    0  0.79767158928E+03 -0.22925335442E+03  0.12099005882E+04  0.14672070400E+04  0.00000000000E+00 0. -1.
        -11    1    3    3    0    0  0.23443785772E+03 -0.19324504243E+02  0.31963843206E+03  0.39686682004E+03  0.00000000000E+00 0.  1.
         22    1    1    2    0    0 -0.10321094470E+04  0.24857785866E+03 -0.17944957236E+04  0.20850073776E+04  0.00000000000E+00 0. -1.
<mgrwt>
<rscale>  0 0.39401828E+04</rscale>
<asrwt>0</asrwt>
<pdfrwt beam="1">  1        1 0.32415676E+00 0.39401828E+04</pdfrwt>
<pdfrwt beam="2">  1       -1 0.28339420E+00 0.39401828E+04</pdfrwt>
<totfact> 0.83881096E-02</totfact>
</mgrwt>
</event>
<event>
 6    1  0.2003386E-005  0.4581405E+04  0.7818608E-02  0.7896538E-01
         -2   -1    0    0    0  501 -0.00000000000E+00  0.00000000000E+00  0.16644687849E+04  0.16644687849E+04  0.00000000000E+00 0.  1.
          2   -1    0    0  501    0  0.00000000000E+00 -0.00000000000E+00 -0.31525482734E+04  0.31525482734E+04  0.00000000000E+00 0. -1.
         23    2    1    2    0    0 -0.15385405464E+04  0.12854859134E+04 -0.19073385255E+04  0.27687594606E+04  0.92236939578E+02 0.  0.
         13    1    3    3    0    0 -0.11230632932E+04  0.88993961485E+03 -0.13879282080E+04  0.19948955835E+04  0.00000000000E+00 0.  1.
        -13    1    3    3    0    0 -0.41547725316E+03  0.39554629857E+03 -0.51941031755E+03  0.77386387704E+03  0.00000000000E+00 0. -1.
         22    1    1    2    0    0  0.15385405464E+04 -0.12854859134E+04  0.41925903696E+03  0.20482575977E+04  0.00000000000E+00 0.  1.
<mgrwt>
<rscale>  0 0.45814051E+04</rscale>
<asrwt>0</asrwt>
<pdfrwt beam="1">  1        2 0.48500742E+00 0.45814051E+04</pdfrwt>
<pdfrwt beam="2">  1       -2 0.25607212E+00 0.45814051E+04</pdfrwt>
<totfact> 0.61747305E-02</totfact>
</mgrwt>
</event>
<event>
 6    1  0.2003386E-005  0.2864646E+04  0.7818608E-02  0.8283475E-01
          2   -1    0    0  501    0  0.00000000000E+00  0.00000000000E+00  0.12865875557E+04  0.12865875557E+04  0.00000000000E+00 0. -1.
         -2   -1    0    0    0  501 -0.00000000000E+00 -0.00000000000E+00 -0.15945659993E+04  0.15945659993E+04  0.00000000000E+00 0.  1.
         23    2    1    2    0    0  0.13919457180E+04 -0.74265658568E+01  0.17958878274E+03  0.14062671744E+04  0.88131713797E+02 0.  0.
         11    1    3    3    0    0  0.11548898623E+04  0.13074046779E+02  0.17601925934E+03  0.11682997493E+04  0.00000000000E+00 0. -1.
        -11    1    3    3    0    0  0.23705585577E+03 -0.20500612635E+02  0.35695233935E+01  0.23796742502E+03  0.00000000000E+00 0.  1.
         22    1    1    2    0    0 -0.13919457180E+04  0.74265658568E+01 -0.48756722630E+03  0.14748863807E+04  0.00000000000E+00 0. -1.
<mgrwt>
<rscale>  0 0.28646457E+04</rscale>
<asrwt>0</asrwt>
<pdfrwt beam="1">  1        2 0.19793655E+00 0.28646457E+04</pdfrwt>
<pdfrwt beam="2">  1       -2 0.24531785E+00 0.28646457E+04</pdfrwt>
<totfact> 0.10005997E+00</totfact>
</mgrwt>
</event>
<event>
 6    1  0.2003386E-005  0.6556586E+04  0.7818608E-02  0.7624978E-01
         -2   -1    0    0    0  501 -0.00000000000E+00  0.00000000000E+00  0.41697496815E+04  0.41697496815E+04  0.00000000000E+00 0.  1.
          2   -1    0    0  501    0  0.00000000000E+00 -0.00000000000E+00 -0.25774217705E+04  0.25774217705E+04  0.00000000000E+00 0. -1.
         23    2    1    2    0    0  0.21813636661E+04 -0.24201271989E+04  0.42830778436E+03  0.32873584574E+04  0.88966099031E+02 0.  0.
         13    1    3    3    0    0  0.15499430446E+04 -0.16839763854E+04  0.26754835584E+03  0.23042747299E+04  0.00000000000E+00 0.  1.
        -13    1    3    3    0    0  0.63142062147E+03 -0.73615081355E+03  0.16075942852E+03  0.98308372755E+03  0.00000000000E+00 0. -1.
         22    1    1    2    0    0 -0.21813636661E+04  0.24201271989E+04  0.11640201267E+04  0.34598129946E+04  0.00000000000E+00 0.  1.
<mgrwt>
<rscale>  0 0.65565856E+04</rscale>
<asrwt>0</asrwt>
<pdfrwt beam="1">  1        2 0.39652643E+00 0.65565856E+04</pdfrwt>
<pdfrwt beam="2">  1       -2 0.64149995E+00 0.65565856E+04</pdfrwt>
<totfact> 0.74560270E-04</totfact>
</mgrwt>
</event>
<event>
 6    1  0.2003386E-005  0.3293473E+04  0.7818608E-02  0.8164558E-01
          2   -1    0    0  501    0  0.00000000000E+00  0.00000000000E+00  0.16952043836E+04  0.16952043836E+04  0.00000000000E+00 0. -1.
         -2   -1    0    0    0  501 -0.00000000000E+00 -0.00000000000E+00 -0.15996548099E+04  0.15996548099E+04  0.00000000000E+00 0.  1.
         23    2    1    2    0    0 -0.15370367124E+04 -0.56410425914E+03 -0.11564211982E+03  0.16440117136E+04  0.93305648566E+02 0.  0.
         13    1    3    3    0    0 -0.26041725805E+03 -0.60187989182E+02 -0.98141143131E+01  0.26746225747E+03  0.00000000000E+00 0. -1.
        -13    1    3    3    0    0 -0.12766194544E+04 -0.50391626995E+03 -0.10582800551E+03  0.13765494561E+04  0.00000000000E+00 0.  1.
         22    1    1    2    0    0  0.15370367124E+04  0.56410425914E+03  0.21119169356E+03  0.16508474799E+04  0.00000000000E+00 0.  1.
<mgrwt>
<rscale>  0 0.32934735E+04</rscale>
<asrwt>0</asrwt>
<pdfrwt beam="1">  1        2 0.26080067E+00 0.32934735E+04</pdfrwt>
<pdfrwt beam="2">  1       -2 0.24610074E+00 0.32934735E+04</pdfrwt>
<totfact> 0.56005105E-01</totfact>
</mgrwt>
</event>
<event>
 6    1  0.2003386E-005  0.2677647E+04  0.7818608E-02  0.8342295E-01
          2   -1    0    0  501    0  0.00000000000E+00  0.00000000000E+00  0.23007947727E+04  0.23007947727E+04  0.00000000000E+00 0. -1.
         -2   -1    0    0    0  501 -0.00000000000E+00 -0.00000000000E+00 -0.77905588690E+03  0.77905588690E+03  0.00000000000E+00 0.  1.
         23    2    1    2    0    0  0.87866732760E+03  0.45500624821E+03 -0.27280527378E+03  0.10305884267E+04  0.92751438591E+02 0.  0.
         11    1    3    3    0    0  0.18063860823E+03  0.13697463799E+03 -0.67086022579E+02  0.23641677745E+03  0.00000000000E+00 0. -1.
        -11    1    3    3    0    0  0.69802871937E+03  0.31803161022E+03 -0.20571925121E+03  0.79417164925E+03  0.00000000000E+00 0.  1.
         22    1    1    2    0    0 -0.87866732760E+03 -0.45500624821E+03  0.17945441596E+04  0.20492622329E+04  0.00000000000E+00 0. -1.
<mgrwt>
<rscale>  0 0.26776465E+04</rscale>
<asrwt>0</asrwt>
<pdfrwt beam="1">  1        2 0.35396842E+00 0.26776465E+04</pdfrwt>
<pdfrwt beam="2">  1       -2 0.11985475E+00 0.26776465E+04</pdfrwt>
<totfact> 0.21197215E+00</totfact>
</mgrwt>
</event>
<event>
 6    1  0.2003386E-005  0.1313600E+04  0.7818608E-02  0.9018849E-01
         -2   -1    0    0    0  501 -0.00000000000E+00  0.00000000000E+00  0.21324427663E+03  0.21324427663E+03  0.00000000000E+00 0.  1.
          2   -1    0    0  501    0  0.00000000000E+00 -0.00000000000E+00 -0.20229666988E+04  0.20229666988E+04  0.00000000000E+00 0. -1.
         23    2    1    2    0    0 -0.31928743857E+03 -0.60947750817E+01 -0.18802109622E+04  0.19091784862E+04  0.88247465764E+02 0.  0.
         13    1    3    3    0    0 -0.60208009955E+02  0.33840852623E+02 -0.41228522960E+03  0.41803028397E+03  0.00000000000E+00 0. -1.
        -13    1    3    3    0    0 -0.25907942861E+03 -0.39935627704E+02 -0.14679257326E+04  0.14911482023E+04  0.00000000000E+00 0.  1.
         22    1    1    2    0    0  0.31928743857E+03  0.60947750817E+01  0.70488540035E+02  0.32703248919E+03  0.00000000000E+00 0.  1.
<mgrwt>
<rscale>  0 0.13135997E+04</rscale>
<asrwt>0</asrwt>
<pdfrwt beam="1">  1        2 0.31122565E+00 0.13135997E+04</pdfrwt>
<pdfrwt beam="2">  1       -2 0.32806811E-01 0.13135997E+04</pdfrwt>
<totfact> 0.55106990E+01</totfact>
</mgrwt>
</event>
<event>
 6    1  0.2003386E-005  0.4546073E+04  0.7818608E-02  0.7902620E-01
         -2   -1    0    0    0  501 -0.00000000000E+00  0.00000000000E+00  0.25921737310E+04  0.25921737310E+04  0.00000000000E+00 0.  1.
          2   -1    0    0  501    0  0.00000000000E+00 -0.00000000000E+00 -0.19931900381E+04  0.19931900381E+04  0.00000000000E+00 0. -1.
         23    2    1    2    0    0  0.45824937264E+03 -0.55608145666E+03  0.24730705347E+04  0.25775239935E+04  0.91285230643E+02 0.  0.
         13    1    3    3    0    0  0.43252602461E+03 -0.54472816913E+03  0.23253219031E+04  0.24271237078E+04  0.00000000000E+00 0.  1.
        -13    1    3    3    0    0  0.25723348034E+02 -0.11353287532E+02  0.14774863164E+03  0.15040028565E+03  0.00000000000E+00 0. -1.
         22    1    1    2    0    0 -0.45824937264E+03  0.55608145666E+03 -0.18740868418E+04  0.20078397756E+04  0.00000000000E+00 0. -1.
<mgrwt>
<rscale>  0 0.45460730E+04</rscale>
<asrwt>0</asrwt>
<pdfrwt beam="1">  1        2 0.30664462E+00 0.45460730E+04</pdfrwt>
<pdfrwt beam="2">  1       -2 0.39879596E+00 0.45460730E+04</pdfrwt>
<totfact> 0.38461411E-02</totfact>
</mgrwt>
</event>
<event>
 6    1  0.2003386E-005  0.2792836E+04  0.7818608E-02  0.8305496E-01
          2   -1    0    0  501    0  0.00000000000E+00  0.00000000000E+00  0.13355108846E+04  0.13355108846E+04  0.00000000000E+00 0. -1.
         -2   -1    0    0    0  501 -0.00000000000E+00 -0.00000000000E+00 -0.14601031560E+04  0.14601031560E+04  0.00000000000E+00 0.  1.
         23    2    1    2    0    0 -0.56471836117E+03 -0.31091948695E+03 -0.13005720284E+04  0.14545300971E+04  0.92695454621E+02 0.  0.
         13    1    3    3    0    0 -0.53331188697E+03 -0.28261105925E+03 -0.12535974213E+04  0.13913292472E+04  0.00000000000E+00 0. -1.
        -13    1    3    3    0    0 -0.31406474209E+02 -0.28308427700E+02 -0.46974607157E+02  0.63200849825E+02  0.00000000000E+00 0.  1.
         22    1    1    2    0    0  0.56471836117E+03  0.31091948695E+03  0.11759797570E+04  0.13410839436E+04  0.00000000000E+00 0. -1.
<mgrwt>
<rscale>  0 0.27928363E+04</rscale>
<asrwt>0</asrwt>
<pdfrwt beam="1">  1        2 0.20546321E+00 0.27928363E+04</pdfrwt>
<pdfrwt beam="2">  1       -2 0.22463125E+00 0.27928363E+04</pdfrwt>
<totfact> 0.12681506E+00</totfact>
</mgrwt>
</event>
<event>
 6    1  0.2003386E-005  0.4617117E+03  0.7818608E-02  0.1024286E+00
          1   -1    0    0  501    0  0.00000000000E+00  0.00000000000E+00  0.59663279132E+03  0.59663279132E+03  0.00000000000E+00 0. -1.
         -1   -1    0    0    0  501 -0.00000000000E+00 -0.00000000000E+00 -0.89325347057E+02  0.89325347057E+02  0.00000000000E+00 0.  1.
         23    2    1    2    0    0 -0.10550723258E+03 -0.13160550345E+03  0.50258137168E+02  0.19877659749E+03  0.92382199018E+02 0.  0.
         11    1    3    3    0    0 -0.86423560857E+02 -0.73050095262E+02  0.71235226164E+02  0.13371539080E+03  0.00000000000E+00 0. -1.
        -11    1    3    3    0    0 -0.19083671720E+02 -0.58555408185E+02 -0.20977088996E+02  0.65061206697E+02  0.00000000000E+00 0.  1.
         22    1    1    2    0    0  0.10550723258E+03  0.13160550345E+03  0.45704930710E+03  0.48718154089E+03  0.00000000000E+00 0. -1.
<mgrwt>
<rscale>  0 0.46171173E+03</rscale>
<asrwt>0</asrwt>
<pdfrwt beam="1">  1        1 0.91789658E-01 0.46171173E+03</pdfrwt>
<pdfrwt beam="2">  1       -1 0.13742361E-01 0.46171173E+03</pdfrwt>
<totfact> 0.13128975E+03</totfact>
</mgrwt>
</event>
<event>
 6    1  0.2003386E-005  0.1429226E+04  0.7818608E-02  0.8932931E-01
         -2   -1    0    0    0  501 -0.00000000000E+00  0.00000000000E+00  0.46953173297E+03  0.46953173297E+03  0.00000000000E+00 0. -1.
          2   -1    0    0  501    0  0.00000000000E+00 -0.00000000000E+00 -0.10876193863E+04  0.10876193863E+04  0.00000000000E+00 0.  1.
         23    2    1    2    0    0 -0.28797845926E+03 -0.27899961735E+03  0.33035260254E+03  0.52743693638E+03  0.91019230764E+02 0.  0.
         13    1    3    3    0    0 -0.15443956747E+03 -0.92846187770E+02  0.17055177685E+03  0.24811268240E+03  0.00000000000E+00 0. -1.
        -13    1    3    3    0    0 -0.13353889179E+03 -0.18615342958E+03  0.15980082570E+03  0.27932425398E+03  0.00000000000E+00 0.  1.
         22    1    1    2    0    0  0.28797845926E+03  0.27899961735E+03 -0.94844025583E+03  0.10297141828E+04  0.00000000000E+00 0.  1.
<mgrwt>
<rscale>  0 0.14292261E+04</rscale>
<asrwt>0</asrwt>
<pdfrwt beam="1">  1        2 0.16732606E+00 0.14292261E+04</pdfrwt>
<pdfrwt beam="2">  1       -2 0.72235651E-01 0.14292261E+04</pdfrwt>
<totfact> 0.37373395E+01</totfact>
</mgrwt>
</event>
<event>
 6    1  0.2003386E-005  0.1878366E+04  0.7818608E-02  0.8665701E-01
          2   -1    0    0  501    0  0.00000000000E+00  0.00000000000E+00  0.18077261447E+04  0.18077261447E+04  0.00000000000E+00 0. -1.
         -2   -1    0    0    0  501 -0.00000000000E+00 -0.00000000000E+00 -0.48794133613E+03  0.48794133613E+03  0.00000000000E+00 0.  1.
         23    2    1    2    0    0  0.30797884386E+03  0.55259532481E+03 -0.18321187548E+03  0.66495855723E+03  0.91600929351E+02 0.  0.
         11    1    3    3    0    0  0.16148702576E+02  0.39499367404E+02 -0.37854189210E+02  0.57043143856E+02  0.00000000000E+00 0.  1.
        -11    1    3    3    0    0  0.29183014128E+03  0.51309595740E+03 -0.14535768627E+03  0.60791541337E+03  0.00000000000E+00 0. -1.
         22    1    1    2    0    0 -0.30797884386E+03 -0.55259532481E+03  0.15029966840E+04  0.16307089236E+04  0.00000000000E+00 0. -1.
<mgrwt>
<rscale>  0 0.18783656E+04</rscale>
<asrwt>0</asrwt>
<pdfrwt beam="1">  1        2 0.27811171E+00 0.18783656E+04</pdfrwt>
<pdfrwt beam="2">  1       -2 0.75067899E-01 0.18783656E+04</pdfrwt>
<totfact> 0.12772809E+01</totfact>
</mgrwt>
</event>
<event>
 6    1  0.2003386E-005  0.3210635E+04  0.7818608E-02  0.8186014E-01
          2   -1    0    0  501    0  0.00000000000E+00  0.00000000000E+00  0.24085861312E+04  0.24085861312E+04  0.00000000000E+00 0. -1.
         -2   -1    0    0    0  501 -0.00000000000E+00 -0.00000000000E+00 -0.10699407889E+04  0.10699407889E+04  0.00000000000E+00 0.  1.
         23    2    1    2    0    0 -0.71457302389E+03  0.89210540017E+03  0.18891988607E+04  0.22098363243E+04  0.88530181831E+02 0.  0.
         13    1    3    3    0    0 -0.45841281732E+03  0.50657750230E+03  0.11532242135E+04  0.13404063427E+04  0.00000000000E+00 0.  1.
        -13    1    3    3    0    0 -0.25616020657E+03  0.38552789787E+03  0.73597464726E+03  0.86942998158E+03  0.00000000000E+00 0. -1.
         22    1    1    2    0    0  0.71457302389E+03 -0.89210540017E+03 -0.55055351842E+03  0.12686905959E+04  0.00000000000E+00 0.  1.
<mgrwt>
<rscale>  0 0.32106352E+04</rscale>
<asrwt>0</asrwt>
<pdfrwt beam="1">  1        2 0.37055171E+00 0.32106352E+04</pdfrwt>
<pdfrwt beam="2">  1       -2 0.16460628E+00 0.32106352E+04</pdfrwt>
<totfact> 0.77058188E-01</totfact>
</mgrwt>
</event>
<event>
 6    1  0.2003386E-005  0.2183252E+04  0.7818608E-02  0.8525431E-01
         -2   -1    0    0    0  501 -0.00000000000E+00  0.00000000000E+00  0.64332989347E+03  0.64332989347E+03  0.00000000000E+00 0.  1.
          2   -1    0    0  501    0  0.00000000000E+00 -0.00000000000E+00 -0.18523114555E+04  0.18523114555E+04  0.00000000000E+00 0. -1.
         23    2    1    2    0    0 -0.33465146143E+03  0.55376878989E+03  0.39666366965E+03  0.76452954343E+03  0.92259864822E+02 0.  0.
         11    1    3    3    0    0 -0.34405926705E+02  0.12733738898E+03  0.86611471845E+02  0.15779773598E+03  0.00000000000E+00 0.  1.
        -11    1    3    3    0    0 -0.30024553473E+03  0.42643140090E+03  0.31005219781E+03  0.60673180745E+03  0.00000000000E+00 0. -1.
         22    1    1    2    0    0  0.33465146143E+03 -0.55376878989E+03 -0.16056452316E+04  0.17311118055E+04  0.00000000000E+00 0. -1.
<mgrwt>
<rscale>  0 0.21832520E+04</rscale>
<asrwt>0</asrwt>
<pdfrwt beam="1">  1        2 0.28497099E+00 0.21832520E+04</pdfrwt>
<pdfrwt beam="2">  1       -2 0.98973832E-01 0.21832520E+04</pdfrwt>
<totfact> 0.62524743E+00</totfact>
</mgrwt>
</event>
<event>
 6    1  0.2003386E-005  0.6400203E+03  0.7818608E-02  0.9825688E-01
         -2   -1    0    0    0  501 -0.00000000000E+00  0.00000000000E+00  0.19645353080E+03  0.19645353080E+03  0.00000000000E+00 0.  1.
          2   -1    0    0  501    0  0.00000000000E+00 -0.00000000000E+00 -0.52127593990E+03  0.52127593990E+03  0.00000000000E+00 0. -1.
         23    2    1    2    0    0  0.29234509264E+03 -0.11291464026E+03 -0.14846239852E+03  0.35812104129E+03  0.89410442696E+02 0.  0.
         13    1    3    3    0    0  0.11861556507E+03 -0.64893207693E+02 -0.19758324286E+02  0.13664249727E+03  0.00000000000E+00 0.  1.
        -13    1    3    3    0    0  0.17372952757E+03 -0.48021432563E+02 -0.12870407424E+03  0.22147854402E+03  0.00000000000E+00 0. -1.
         22    1    1    2    0    0 -0.29234509264E+03  0.11291464026E+03 -0.17636001058E+03  0.35960842941E+03  0.00000000000E+00 0.  1.
<mgrwt>
<rscale>  0 0.64002031E+03</rscale>
<asrwt>0</asrwt>
<pdfrwt beam="1">  1        2 0.80196297E-01 0.64002031E+03</pdfrwt>
<pdfrwt beam="2">  1       -2 0.30223621E-01 0.64002031E+03</pdfrwt>
<totfact> 0.59667973E+02</totfact>
</mgrwt>
</event>
<event>
 6    1  0.2003386E-005  0.3887811E+04  0.7818608E-02  0.8027569E-01
         -2   -1    0    0    0  501 -0.00000000000E+00  0.00000000000E+00  0.19897429956E+04  0.19897429956E+04  0.00000000000E+00 0.  1.
          2   -1    0    0  501    0  0.00000000000E+00 -0.00000000000E+00 -0.18991242824E+04  0.18991242824E+04  0.00000000000E+00 0. -1.
         23    2    1    2    0    0  0.38539421080E+03  0.15104959279E+04  0.12052356369E+04  0.19724911322E+04  0.89452110535E+02 0.  0.
         13    1    3    3    0    0  0.14784422627E+03  0.74883470303E+03  0.56947434279E+03  0.95231946048E+03  0.00000000000E+00 0.  1.
        -13    1    3    3    0    0  0.23754998453E+03  0.76166122486E+03  0.63576129413E+03  0.10201716717E+04  0.00000000000E+00 0. -1.
         22    1    1    2    0    0 -0.38539421080E+03 -0.15104959279E+04 -0.11146169237E+04  0.19163761459E+04  0.00000000000E+00 0. -1.
<mgrwt>
<rscale>  0 0.38878113E+04</rscale>
<asrwt>0</asrwt>
<pdfrwt beam="1">  1        2 0.29217297E+00 0.38878113E+04</pdfrwt>
<pdfrwt beam="2">  1       -2 0.30611431E+00 0.38878113E+04</pdfrwt>
<totfact> 0.17643202E-01</totfact>
</mgrwt>
</event>
<event>
 6    1  0.2003386E-005  0.1039301E+04  0.7818608E-02  0.9266460E-01
          2   -1    0    0  501    0  0.00000000000E+00  0.00000000000E+00  0.28942724943E+03  0.28942724943E+03  0.00000000000E+00 0.  1.
         -2   -1    0    0    0  501 -0.00000000000E+00 -0.00000000000E+00 -0.93300376877E+03  0.93300376877E+03  0.00000000000E+00 0. -1.
         23    2    1    2    0    0 -0.22781466556E+03 -0.46165319855E+03 -0.28922269032E+03  0.59745915187E+03  0.91019096767E+02 0.  0.
         11    1    3    3    0    0 -0.22300016131E+02 -0.11464947583E+02 -0.17339171264E+01  0.25134482512E+02  0.00000000000E+00 0. -1.
        -11    1    3    3    0    0 -0.20551464943E+03 -0.45018825097E+03 -0.28748877319E+03  0.57232466935E+03  0.00000000000E+00 0.  1.
         22    1    1    2    0    0  0.22781466556E+03  0.46165319855E+03 -0.35435382902E+03  0.62497186634E+03  0.00000000000E+00 0. -1.
<mgrwt>
<rscale>  0 0.10393011E+04</rscale>
<asrwt>0</asrwt>
<pdfrwt beam="1">  1        2 0.44527269E-01 0.10393011E+04</pdfrwt>
<pdfrwt beam="2">  1       -2 0.14353904E+00 0.10393011E+04</pdfrwt>
<totfact> 0.38275119E+01</totfact>
</mgrwt>
</event>
<event>
 6    1  0.2003386E-005  0.1801326E+04  0.7818608E-02  0.8705595E-01
          2   -1    0    0  501    0  0.00000000000E+00  0.00000000000E+00  0.91534709366E+03  0.91534709366E+03  0.00000000000E+00 0. -1.
         -2   -1    0    0    0  501 -0.00000000000E+00 -0.00000000000E+00 -0.88621406129E+03  0.88621406129E+03  0.00000000000E+00 0.  1.
         23    2    1    2    0    0 -0.29270561191E+03 -0.14775941799E+03 -0.82185885290E+03  0.88958713687E+03  0.91672673859E+02 0.  0.
         13    1    3    3    0    0 -0.74532471761E+02 -0.82239456078E+02 -0.31200210708E+03  0.33115514839E+03  0.00000000000E+00 0.  1.
        -13    1    3    3    0    0 -0.21817314015E+03 -0.65519961915E+02 -0.50985674583E+03  0.55843198848E+03  0.00000000000E+00 0. -1.
         22    1    1    2    0    0  0.29270561191E+03  0.14775941799E+03  0.85099188528E+03  0.91197401808E+03  0.00000000000E+00 0. -1.
<mgrwt>
<rscale>  0 0.18013256E+04</rscale>
<asrwt>0</asrwt>
<pdfrwt beam="1">  1        2 0.14082263E+00 0.18013256E+04</pdfrwt>
<pdfrwt beam="2">  1       -2 0.13634062E+00 0.18013256E+04</pdfrwt>
<totfact> 0.10394573E+01</totfact>
</mgrwt>
</event>
<event>
 6    1  0.2003386E-005  0.5344947E+04  0.7818608E-02  0.7777392E-01
         -2   -1    0    0    0  501 -0.00000000000E+00  0.00000000000E+00  0.15569641431E+04  0.15569641431E+04  0.00000000000E+00 0.  1.
          2   -1    0    0  501    0  0.00000000000E+00 -0.00000000000E+00 -0.45872060262E+04  0.45872060262E+04  0.00000000000E+00 0. -1.
         23    2    1    2    0    0  0.22221515180E+04 -0.82589415893E+03 -0.99254077512E+02  0.23744555850E+04  0.90163310206E+02 0.  0.
         11    1    3    3    0    0  0.17877671627E+04 -0.64052265424E+03 -0.10766019211E+03  0.19020965842E+04  0.00000000000E+00 0. -1.
        -11    1    3    3    0    0  0.43438435539E+03 -0.18537150468E+03  0.84061145998E+01  0.47235900088E+03  0.00000000000E+00 0.  1.
         22    1    1    2    0    0 -0.22221515180E+04  0.82589415893E+03 -0.29309878055E+04  0.37697145843E+04  0.00000000000E+00 0. -1.
<mgrwt>
<rscale>  0 0.53449473E+04</rscale>
<asrwt>0</asrwt>
<pdfrwt beam="1">  1        2 0.70572401E+00 0.53449473E+04</pdfrwt>
<pdfrwt beam="2">  1       -2 0.23953294E+00 0.53449473E+04</pdfrwt>
<totfact> 0.52582015E-03</totfact>
</mgrwt>
</event>
<event>
 6    1  0.2003386E-005  0.3694563E+04  0.7818608E-02  0.8069168E-01
          2   -1    0    0  501    0  0.00000000000E+00  0.00000000000E+00  0.28887091888E+04  0.28887091888E+04  0.00000000000E+00 0. -1.
         -2   -1    0    0    0  501 -0.00000000000E+00 -0.00000000000E+00 -0.11813059180E+04  0.11813059180E+04  0.00000000000E+00 0.  1.
         23    2    1    2    0    0  0.52855378585E+03  0.86885855718E+03 -0.84311041908E+03  0.13242175215E+04  0.91829017759E+02 0.  0.
         11    1    3    3    0    0  0.33306083572E+03  0.46371448932E+03 -0.48902762122E+03  0.75173709648E+03  0.00000000000E+00 0.  1.
        -11    1    3    3    0    0  0.19549295012E+03  0.40514406786E+03 -0.35408279785E+03  0.57248042500E+03  0.00000000000E+00 0. -1.
         22    1    1    2    0    0 -0.52855378585E+03 -0.86885855718E+03  0.25505136900E+04  0.27457975853E+04  0.00000000000E+00 0. -1.
<mgrwt>
<rscale>  0 0.36945632E+04</rscale>
<asrwt>0</asrwt>
<pdfrwt beam="1">  1        2 0.44441680E+00 0.36945632E+04</pdfrwt>
<pdfrwt beam="2">  1       -2 0.18173937E+00 0.36945632E+04</pdfrwt>
<totfact> 0.29108164E-01</totfact>
</mgrwt>
</event>
<event>
 6    1  0.2003386E-005  0.2617422E+04  0.7818608E-02  0.8362307E-01
          1   -1    0    0  501    0  0.00000000000E+00  0.00000000000E+00  0.29480264164E+04  0.29480264164E+04  0.00000000000E+00 0. -1.
         -1   -1    0    0    0  501 -0.00000000000E+00 -0.00000000000E+00 -0.58097303612E+03  0.58097303612E+03  0.00000000000E+00 0.  1.
         23    2    1    2    0    0 -0.11017704793E+04  0.69748470112E+03  0.10657145143E+04  0.16867546421E+04  0.94924704873E+02 0.  0.
         11    1    3    3    0    0 -0.48804537222E+03  0.26552699640E+03  0.49124580850E+03  0.74163017436E+03  0.00000000000E+00 0.  1.
        -11    1    3    3    0    0 -0.61372510703E+03  0.43195770472E+03  0.57446870579E+03  0.94512446778E+03  0.00000000000E+00 0. -1.
         22    1    1    2    0    0  0.11017704793E+04 -0.69748470112E+03  0.13013388660E+04  0.18422448104E+04  0.00000000000E+00 0.  1.
<mgrwt>
<rscale>  0 0.26174215E+04</rscale>
<asrwt>0</asrwt>
<pdfrwt beam="1">  1        1 0.45354252E+00 0.26174215E+04</pdfrwt>
<pdfrwt beam="2">  1       -1 0.89380469E-01 0.26174215E+04</pdfrwt>
<totfact> 0.70318342E-01</totfact>
</mgrwt>
</event>
<event>
 6    1  0.2003386E-005  0.4985495E+04  0.7818608E-02  0.7830749E-01
          3   -1    0    0  501    0  0.00000000000E+00  0.00000000000E+00  0.22082502020E+04  0.22082502020E+04  0.00000000000E+00 0. -1.
         -3   -1    0    0    0  501 -0.00000000000E+00 -0.00000000000E+00 -0.28138976949E+04  0.28138976949E+04  0.00000000000E+00 0.  1.
         23    2    1    2    0    0  0.18877773040E+03  0.49553893297E+03  0.21497318363E+04  0.22162057890E+04  0.95001396244E+02 0.  0.
         13    1    3    3    0    0  0.43366448316E+02  0.21269386020E+03  0.10007037135E+04  0.10239761956E+04  0.00000000000E+00 0.  1.
        -13    1    3    3    0    0  0.14541128209E+03  0.28284507276E+03  0.11490281229E+04  0.11922295934E+04  0.00000000000E+00 0. -1.
         22    1    1    2    0    0 -0.18877773040E+03 -0.49553893297E+03 -0.27553793292E+04  0.28059421080E+04  0.00000000000E+00 0.  1.
<mgrwt>
<rscale>  0 0.49854950E+04</rscale>
<asrwt>0</asrwt>
<pdfrwt beam="1">  1        3 0.33973080E+00 0.49854950E+04</pdfrwt>
<pdfrwt beam="2">  1       -3 0.43290733E+00 0.49854950E+04</pdfrwt>
<totfact> 0.30534260E-04</totfact>
</mgrwt>
</event>
<event>
 6    1  0.2003386E-005  0.1595157E+04  0.7818608E-02  0.8823529E-01
          2   -1    0    0  501    0  0.00000000000E+00  0.00000000000E+00  0.44624432807E+04  0.44624432807E+04  0.00000000000E+00 0. -1.
         -2   -1    0    0    0  501 -0.00000000000E+00 -0.00000000000E+00 -0.14255228773E+03  0.14255228773E+03  0.00000000000E+00 0.  1.
         23    2    1    2    0    0 -0.43196256767E+03 -0.66740992303E+03  0.21519831174E+04  0.22959151839E+04  0.90374381937E+02 0.  0.
         11    1    3    3    0    0 -0.30595826021E+03 -0.44779286380E+03  0.13481240314E+04  0.14531232948E+04  0.00000000000E+00 0.  1.
        -11    1    3    3    0    0 -0.12600430746E+03 -0.21961705923E+03  0.80385908595E+03  0.84279188906E+03  0.00000000000E+00 0. -1.
         22    1    1    2    0    0  0.43196256767E+03  0.66740992303E+03  0.21679078756E+04  0.23090803845E+04  0.00000000000E+00 0. -1.
<mgrwt>
<rscale>  0 0.15951570E+04</rscale>
<asrwt>0</asrwt>
<pdfrwt beam="1">  1        2 0.68652963E+00 0.15951570E+04</pdfrwt>
<pdfrwt beam="2">  1       -2 0.21931125E-01 0.15951570E+04</pdfrwt>
<totfact> 0.24025844E+00</totfact>
</mgrwt>
</event>
<event>
 6    1  0.2003386E-005  0.1654737E+04  0.7818608E-02  0.8787609E-01
         -2   -1    0    0    0  501 -0.00000000000E+00  0.00000000000E+00  0.69250007354E+03  0.69250007354E+03  0.00000000000E+00 0.  1.
          2   -1    0    0  501    0  0.00000000000E+00 -0.00000000000E+00 -0.98850372049E+03  0.98850372049E+03  0.00000000000E+00 0. -1.
         23    2    1    2    0    0  0.11779045364E+03  0.62873008293E+03 -0.67758556444E+03  0.93616765909E+03  0.90064313910E+02 0.  0.
         11    1    3    3    0    0  0.51735697779E+02  0.48167975858E+03 -0.52105269330E+03  0.71146881973E+03  0.00000000000E+00 0.  1.
        -11    1    3    3    0    0  0.66054755864E+02  0.14705032435E+03 -0.15653287114E+03  0.22469883936E+03  0.00000000000E+00 0. -1.
         22    1    1    2    0    0 -0.11779045364E+03 -0.62873008293E+03  0.38158191750E+03  0.74483613494E+03  0.00000000000E+00 0.  1.
<mgrwt>
<rscale>  0 0.16547373E+04</rscale>
<asrwt>0</asrwt>
<pdfrwt beam="1">  1        2 0.15207750E+00 0.16547373E+04</pdfrwt>
<pdfrwt beam="2">  1       -2 0.10653847E+00 0.16547373E+04</pdfrwt>
<totfact> 0.17369399E+01</totfact>
</mgrwt>
</event>
<event>
 6    1  0.2003386E-005  0.3533626E+04  0.7818608E-02  0.8105867E-01
          2   -1    0    0  501    0  0.00000000000E+00  0.00000000000E+00  0.19488582597E+04  0.19488582597E+04  0.00000000000E+00 0. -1.
         -2   -1    0    0    0  501 -0.00000000000E+00 -0.00000000000E+00 -0.16017727427E+04  0.16017727427E+04  0.00000000000E+00 0.  1.
         23    2    1    2    0    0 -0.69448541978E+03  0.15379857704E+04 -0.34826273313E+03  0.17254681557E+04  0.90792051869E+02 0.  0.
         13    1    3    3    0    0 -0.54301294738E+03  0.12071485891E+04 -0.23478508112E+03  0.13443194603E+04  0.00000000000E+00 0. -1.
        -13    1    3    3    0    0 -0.15147247240E+03  0.33083718132E+03 -0.11347765201E+03  0.38114869532E+03  0.00000000000E+00 0.  1.
         22    1    1    2    0    0  0.69448541978E+03 -0.15379857704E+04  0.69534825010E+03  0.18251628467E+04  0.00000000000E+00 0. -1.
<mgrwt>
<rscale>  0 0.35336259E+04</rscale>
<asrwt>0</asrwt>
<pdfrwt beam="1">  1        2 0.29982435E+00 0.35336259E+04</pdfrwt>
<pdfrwt beam="2">  1       -2 0.24642658E+00 0.35336259E+04</pdfrwt>
<totfact> 0.39520854E-01</totfact>
</mgrwt>
</event>
<event>
 6    1  0.2003386E-005  0.1977536E+04  0.7818608E-02  0.8617196E-01
         -2   -1    0    0    0  501 -0.00000000000E+00  0.00000000000E+00  0.34364303407E+03  0.34364303407E+03  0.00000000000E+00 0.  1.
          2   -1    0    0  501    0  0.00000000000E+00 -0.00000000000E+00 -0.28449934966E+04  0.28449934966E+04  0.00000000000E+00 0. -1.
         23    2    1    2    0    0  0.77099465755E+03 -0.20925397591E+02 -0.26124145295E+03  0.81946810926E+03  0.91707421356E+02 0.  0.
         11    1    3    3    0    0  0.46075512042E+03 -0.12723773026E+02 -0.10830790320E+03  0.47348471706E+03  0.00000000000E+00 0. -1.
        -11    1    3    3    0    0  0.31023953713E+03 -0.82016245650E+01 -0.15293354975E+03  0.34598339221E+03  0.00000000000E+00 0.  1.
         22    1    1    2    0    0 -0.77099465755E+03  0.20925397591E+02 -0.22401090096E+04  0.23691684214E+04  0.00000000000E+00 0. -1.
<mgrwt>
<rscale>  0 0.19775360E+04</rscale>
<asrwt>0</asrwt>
<pdfrwt beam="1">  1        2 0.43769130E+00 0.19775360E+04</pdfrwt>
<pdfrwt beam="2">  1       -2 0.52868160E-01 0.19775360E+04</pdfrwt>
<totfact> 0.68319896E+00</totfact>
</mgrwt>
</event>
<event>
 6    1  0.2003386E-005  0.2501972E+04  0.7818608E-02  0.8402283E-01
         -2   -1    0    0    0  501 -0.00000000000E+00  0.00000000000E+00  0.54488814901E+03  0.54488814901E+03  0.00000000000E+00 0.  1.
          2   -1    0    0  501    0  0.00000000000E+00 -0.00000000000E+00 -0.28720868616E+04  0.28720868616E+04  0.00000000000E+00 0. -1.
         23    2    1    2    0    0 -0.10649001981E+04  0.30570652917E+03 -0.37719154003E+03  0.11742095554E+04  0.95003727331E+02 0.  0.
         13    1    3    3    0    0 -0.69825475154E+03  0.24229973333E+03 -0.27168512384E+03  0.78745264323E+03  0.00000000000E+00 0.  1.
        -13    1    3    3    0    0 -0.36664544659E+03  0.63406795840E+02 -0.10550641619E+03  0.38675691218E+03  0.00000000000E+00 0. -1.
         22    1    1    2    0    0  0.10649001981E+04 -0.30570652917E+03 -0.19500071725E+04  0.22427654552E+04  0.00000000000E+00 0. -1.
<mgrwt>
<rscale>  0 0.25019721E+04</rscale>
<asrwt>0</asrwt>
<pdfrwt beam="1">  1        2 0.44185952E+00 0.25019721E+04</pdfrwt>
<pdfrwt beam="2">  1       -2 0.83828945E-01 0.25019721E+04</pdfrwt>
<totfact> 0.23176827E+00</totfact>
</mgrwt>
</event>
<event>
 6    1  0.2017261E-005  0.3500406E+04  0.7818608E-02  0.8113694E-01
          2   -1    0    0  501    0  0.00000000000E+00  0.00000000000E+00  0.26435212635E+04  0.26435212635E+04  0.00000000000E+00 0. -1.
         -2   -1    0    0    0  501 -0.00000000000E+00 -0.00000000000E+00 -0.11587611425E+04  0.11587611425E+04  0.00000000000E+00 0.  1.
         23    2    1    2    0    0  0.50010382367E+03  0.55413394744E+03  0.24608727344E+04  0.25734764408E+04  0.98580478248E+02 0.  0.
         11    1    3    3    0    0  0.60093048664E+02  0.94960043635E+02  0.48179008996E+03  0.49472242234E+03  0.00000000000E+00 0. -1.
        -11    1    3    3    0    0  0.44001077501E+03  0.45917390381E+03  0.19790826444E+04  0.20787540185E+04  0.00000000000E+00 0.  1.
         22    1    1    2    0    0 -0.50010382367E+03 -0.55413394744E+03 -0.97611261333E+03  0.12288059652E+04  0.00000000000E+00 0.  1.
<mgrwt>
<rscale>  0 0.35004055E+04</rscale>
<asrwt>0</asrwt>
<pdfrwt beam="1">  1        2 0.40669558E+00 0.35004055E+04</pdfrwt>
<pdfrwt beam="2">  1       -2 0.17827095E+00 0.35004055E+04</pdfrwt>
<totfact> 0.43927191E-01</totfact>
</mgrwt>
</event>
<event>
 6    1  0.2003386E-005  0.5179979E+04  0.7818608E-02  0.7801328E-01
         -1   -1    0    0    0  501 -0.00000000000E+00  0.00000000000E+00  0.18371193828E+04  0.18371193828E+04  0.00000000000E+00 0.  1.
          1   -1    0    0  501    0  0.00000000000E+00 -0.00000000000E+00 -0.36513934710E+04  0.36513934710E+04  0.00000000000E+00 0. -1.
         23    2    1    2    0    0  0.19134193663E+04 -0.10576410319E+04 -0.23770879500E+04  0.32309615992E+04  0.93741719166E+02 0.  0.
         13    1    3    3    0    0  0.11428012963E+04 -0.61175258526E+03 -0.14717796610E+04  0.19612168159E+04  0.00000000000E+00 0.  1.
        -13    1    3    3    0    0  0.77061807004E+03 -0.44588844664E+03 -0.90530828896E+03  0.12697447833E+04  0.00000000000E+00 0. -1.
         22    1    1    2    0    0 -0.19134193663E+04  0.10576410319E+04  0.56281386180E+03  0.22575512545E+04  0.00000000000E+00 0.  1.
<mgrwt>
<rscale>  0 0.51799790E+04</rscale>
<asrwt>0</asrwt>
<pdfrwt beam="1">  1        1 0.56175284E+00 0.51799790E+04</pdfrwt>
<pdfrwt beam="2">  1       -1 0.28263375E+00 0.51799790E+04</pdfrwt>
<totfact> 0.57486948E-03</totfact>
</mgrwt>
</event>
<event>
 6    1  0.2003386E-005  0.1489544E+04  0.7818608E-02  0.8891436E-01
          2   -1    0    0  501    0  0.00000000000E+00  0.00000000000E+00  0.31667408364E+04  0.31667408364E+04  0.00000000000E+00 0. -1.
         -2   -1    0    0    0  501 -0.00000000000E+00 -0.00000000000E+00 -0.17515970793E+03  0.17515970793E+03  0.00000000000E+00 0.  1.
         23    2    1    2    0    0  0.16561602489E+03 -0.71505796126E+03  0.12580781190E+04  0.14594103745E+04  0.91550707618E+02 0.  0.
         11    1    3    3    0    0  0.25001362218E+02 -0.22553079178E+03  0.32502245067E+03  0.39639475223E+03  0.00000000000E+00 0.  1.
        -11    1    3    3    0    0  0.14061466267E+03 -0.48952716948E+03  0.93305566835E+03  0.10630156223E+04  0.00000000000E+00 0. -1.
         22    1    1    2    0    0 -0.16561602489E+03  0.71505796126E+03  0.17335030095E+04  0.18824901698E+04  0.00000000000E+00 0. -1.
<mgrwt>
<rscale>  0 0.14895441E+04</rscale>
<asrwt>0</asrwt>
<pdfrwt beam="1">  1        2 0.48719086E+00 0.14895441E+04</pdfrwt>
<pdfrwt beam="2">  1       -2 0.26947650E-01 0.14895441E+04</pdfrwt>
<totfact> 0.16645952E+01</totfact>
</mgrwt>
</event>
<event>
 6    1  0.2003386E-005  0.2341619E+04  0.7818608E-02  0.8461690E-01
         -2   -1    0    0    0  501 -0.00000000000E+00  0.00000000000E+00  0.61795659034E+03  0.61795659034E+03  0.00000000000E+00 0.  1.
          2   -1    0    0  501    0  0.00000000000E+00 -0.00000000000E+00 -0.22182714627E+04  0.22182714627E+04  0.00000000000E+00 0. -1.
         23    2    1    2    0    0 -0.96470349116E+03 -0.35881118308E+03 -0.14727564651E+04  0.17990832039E+04  0.91052062139E+02 0.  0.
         13    1    3    3    0    0 -0.48774141716E+03 -0.13529563093E+03 -0.74656655452E+03  0.90197462164E+03  0.00000000000E+00 0.  1.
        -13    1    3    3    0    0 -0.47696207400E+03 -0.22351555215E+03 -0.72618991055E+03  0.89710858221E+03  0.00000000000E+00 0. -1.
         22    1    1    2    0    0  0.96470349116E+03  0.35881118308E+03 -0.12755840730E+03  0.10371448492E+04  0.00000000000E+00 0.  1.
<mgrwt>
<rscale>  0 0.23416195E+04</rscale>
<asrwt>0</asrwt>
<pdfrwt beam="1">  1        2 0.34127253E+00 0.23416195E+04</pdfrwt>
<pdfrwt beam="2">  1       -2 0.95070245E-01 0.23416195E+04</pdfrwt>
<totfact> 0.42387179E+00</totfact>
</mgrwt>
</event>
<event>
 6    1  0.2003386E-005  0.1574065E+04  0.7818608E-02  0.8836641E-01
         -2   -1    0    0    0  501 -0.00000000000E+00  0.00000000000E+00  0.24289343116E+04  0.24289343116E+04  0.00000000000E+00 0.  1.
          2   -1    0    0  501    0  0.00000000000E+00 -0.00000000000E+00 -0.25501721120E+03  0.25501721120E+03  0.00000000000E+00 0. -1.
         23    2    1    2    0    0  0.69482760319E+03  0.90294861005E+02  0.48881463203E+03  0.85898333432E+03  0.89297615184E+02 0.  0.
         13    1    3    3    0    0  0.30296646845E+03 -0.39133692249E+01  0.22259044276E+03  0.37596608979E+03  0.00000000000E+00 0. -1.
        -13    1    3    3    0    0  0.39186113474E+03  0.94208230230E+02  0.26622418926E+03  0.48301724453E+03  0.00000000000E+00 0.  1.
         22    1    1    2    0    0 -0.69482760319E+03 -0.90294861005E+02  0.16851024684E+04  0.18249681885E+04  0.00000000000E+00 0.  1.
<mgrwt>
<rscale>  0 0.15740649E+04</rscale>
<asrwt>0</asrwt>
<pdfrwt beam="1">  1        2 0.39233419E-01 0.15740649E+04</pdfrwt>
<pdfrwt beam="2">  1       -2 0.37368219E+00 0.15740649E+04</pdfrwt>
<totfact> 0.14007150E+00</totfact>
</mgrwt>
</event>
<event>
 6    1  0.2003386E-005  0.3288073E+04  0.7818608E-02  0.8165937E-01
         -2   -1    0    0    0  501 -0.00000000000E+00  0.00000000000E+00  0.65083971871E+03  0.65083971871E+03  0.00000000000E+00 0.  1.
          2   -1    0    0  501    0  0.00000000000E+00 -0.00000000000E+00 -0.41528754484E+04  0.41528754484E+04  0.00000000000E+00 0. -1.
         23    2    1    2    0    0 -0.19685203963E+03 -0.10335818820E+04 -0.35955070938E+04  0.37474106996E+04  0.91506597424E+02 0.  0.
         11    1    3    3    0    0 -0.10205787264E+03 -0.42592948041E+03 -0.13548967464E+04  0.14239300983E+04  0.00000000000E+00 0.  1.
        -11    1    3    3    0    0 -0.94794166995E+02 -0.60765240161E+03 -0.22406103474E+04  0.23234806012E+04  0.00000000000E+00 0. -1.
         22    1    1    2    0    0  0.19685203963E+03  0.10335818820E+04  0.93471364053E+02  0.10563044676E+04  0.00000000000E+00 0.  1.
<mgrwt>
<rscale>  0 0.32880732E+04</rscale>
<asrwt>0</asrwt>
<pdfrwt beam="1">  1        2 0.63890390E+00 0.32880732E+04</pdfrwt>
<pdfrwt beam="2">  1       -2 0.10012919E+00 0.32880732E+04</pdfrwt>
<totfact> 0.17535244E-01</totfact>
</mgrwt>
</event>
<event>
 6    1  0.2003386E-005  0.3282395E+04  0.7818608E-02  0.8167389E-01
          2   -1    0    0  501    0  0.00000000000E+00  0.00000000000E+00  0.13609526545E+04  0.13609526545E+04  0.00000000000E+00 0. -1.
         -2   -1    0    0    0  501 -0.00000000000E+00 -0.00000000000E+00 -0.19791500525E+04  0.19791500525E+04  0.00000000000E+00 0.  1.
         23    2    1    2    0    0  0.11862557642E+04 -0.10311551657E+04 -0.78419295534E+03  0.17595843620E+04  0.10341577342E+03 0.  0.
         11    1    3    3    0    0  0.88277095068E+03 -0.81299828036E+03 -0.56704891426E+03  0.13273263451E+04  0.00000000000E+00 0. -1.
        -11    1    3    3    0    0  0.30348481348E+03 -0.21815688532E+03 -0.21714404109E+03  0.43225801693E+03  0.00000000000E+00 0.  1.
         22    1    1    2    0    0 -0.11862557642E+04  0.10311551657E+04  0.16599555736E+03  0.15805183450E+04  0.00000000000E+00 0. -1.
<mgrwt>
<rscale>  0 0.32823952E+04</rscale>
<asrwt>0</asrwt>
<pdfrwt beam="1">  1        2 0.20937733E+00 0.32823952E+04</pdfrwt>
<pdfrwt beam="2">  1       -2 0.30448462E+00 0.32823952E+04</pdfrwt>
<totfact> 0.38019895E-01</totfact>
</mgrwt>
</event>
<event>
 6    1  0.2003386E-005  0.1175296E+04  0.7818608E-02  0.9134759E-01
         -2   -1    0    0    0  501 -0.00000000000E+00  0.00000000000E+00  0.86401417145E+03  0.86401417145E+03  0.00000000000E+00 0.  1.
          2   -1    0    0  501    0  0.00000000000E+00 -0.00000000000E+00 -0.39968121986E+03  0.39968121986E+03  0.00000000000E+00 0. -1.
         23    2    1    2    0    0  0.48378612972E+03  0.24788087442E+03  0.46351589167E+03  0.72010122762E+03  0.90580621406E+02 0.  0.
         13    1    3    3    0    0  0.17888487780E+03  0.98039391020E+02  0.11856175115E+03  0.23594154049E+03  0.00000000000E+00 0. -1.
        -13    1    3    3    0    0  0.30490125193E+03  0.14984148340E+03  0.34495414052E+03  0.48415968712E+03  0.00000000000E+00 0.  1.
         22    1    1    2    0    0 -0.48378612972E+03 -0.24788087442E+03  0.81705991851E+00  0.54359416369E+03  0.00000000000E+00 0. -1.
<mgrwt>
<rscale>  0 0.11752961E+04</rscale>
<asrwt>0</asrwt>
<pdfrwt beam="1">  1        2 0.61489419E-01 0.11752961E+04</pdfrwt>
<pdfrwt beam="2">  1       -2 0.13292526E+00 0.11752961E+04</pdfrwt>
<totfact> 0.32260408E+01</totfact>
</mgrwt>
</event>
<event>
 6    1  0.2003386E-005  0.2667396E+04  0.7818608E-02  0.8345662E-01
         -2   -1    0    0    0  501 -0.00000000000E+00  0.00000000000E+00  0.10706911195E+04  0.10706911195E+04  0.00000000000E+00 0.  1.
          2   -1    0    0  501    0  0.00000000000E+00 -0.00000000000E+00 -0.16613104941E+04  0.16613104941E+04  0.00000000000E+00 0. -1.
         23    2    1    2    0    0  0.53218087641E+03 -0.59924260571E+03 -0.13854831197E+04  0.16032338965E+04  0.92126359253E+02 0.  0.
         11    1    3    3    0    0  0.26486574197E+03 -0.36701808860E+03 -0.77331778279E+03  0.89603377827E+03  0.00000000000E+00 0.  1.
        -11    1    3    3    0    0  0.26731513444E+03 -0.23222451711E+03 -0.61216533696E+03  0.70720011823E+03  0.00000000000E+00 0. -1.
         22    1    1    2    0    0 -0.53218087641E+03  0.59924260571E+03  0.79486374520E+03  0.11287677171E+04  0.00000000000E+00 0.  1.
<mgrwt>
<rscale>  0 0.26673960E+04</rscale>
<asrwt>0</asrwt>
<pdfrwt beam="1">  1        2 0.25558623E+00 0.26673960E+04</pdfrwt>
<pdfrwt beam="2">  1       -2 0.16472171E+00 0.26673960E+04</pdfrwt>
<totfact> 0.21090030E+00</totfact>
</mgrwt>
</event>
<event>
 6    1  0.2003386E-005  0.1864613E+04  0.7818608E-02  0.8672674E-01
          2   -1    0    0  501    0  0.00000000000E+00  0.00000000000E+00  0.17303251338E+04  0.17303251338E+04  0.00000000000E+00 0. -1.
         -2   -1    0    0    0  501 -0.00000000000E+00 -0.00000000000E+00 -0.50233063279E+03  0.50233063279E+03  0.00000000000E+00 0.  1.
         23    2    1    2    0    0 -0.59117290707E+03  0.68791521400E+03  0.36877690487E+03  0.98326886686E+03  0.90047272322E+02 0.  0.
         11    1    3    3    0    0 -0.21309916836E+03  0.26899091709E+03  0.95113758915E+02  0.35610952833E+03  0.00000000000E+00 0.  1.
        -11    1    3    3    0    0 -0.37807373871E+03  0.41892429691E+03  0.27366314595E+03  0.62715933853E+03  0.00000000000E+00 0. -1.
         22    1    1    2    0    0  0.59117290707E+03 -0.68791521400E+03  0.85921759613E+03  0.12493868997E+04  0.00000000000E+00 0.  1.
<mgrwt>
<rscale>  0 0.18646129E+04</rscale>
<asrwt>0</asrwt>
<pdfrwt beam="1">  1        2 0.26620386E+00 0.18646129E+04</pdfrwt>
<pdfrwt beam="2">  1       -2 0.77281637E-01 0.18646129E+04</pdfrwt>
<totfact> 0.13232978E+01</totfact>
</mgrwt>
</event>
<event>
 6    1  0.2003386E-005  0.2510177E+04  0.7818608E-02  0.8399369E-01
          2   -1    0    0  501    0  0.00000000000E+00  0.00000000000E+00  0.37576285131E+04  0.37576285131E+04  0.00000000000E+00 0. -1.
         -2   -1    0    0    0  501 -0.00000000000E+00 -0.00000000000E+00 -0.41921296989E+03  0.41921296989E+03  0.00000000000E+00 0.  1.
         23    2    1    2    0    0 -0.31154276949E+03  0.60244527489E+03  0.34253776725E+04  0.34930567081E+04  0.90740070251E+02 0.  0.
         13    1    3    3    0    0 -0.22326186230E+03  0.38010207415E+03  0.20289355429E+04  0.20762713896E+04  0.00000000000E+00 0. -1.
        -13    1    3    3    0    0 -0.88280907186E+02  0.22234320074E+03  0.13964421296E+04  0.14167853185E+04  0.00000000000E+00 0.  1.
         22    1    1    2    0    0  0.31154276949E+03 -0.60244527489E+03 -0.86962129269E+02  0.68378477490E+03  0.00000000000E+00 0.  1.
<mgrwt>
<rscale>  0 0.25101766E+04</rscale>
<asrwt>0</asrwt>
<pdfrwt beam="1">  1        2 0.57809667E+00 0.25101766E+04</pdfrwt>
<pdfrwt beam="2">  1       -2 0.64494305E-01 0.25101766E+04</pdfrwt>
<totfact> 0.10483610E+00</totfact>
</mgrwt>
</event>
<event>
 6    1  0.2003386E-005  0.9878944E+03  0.7818608E-02  0.9321923E-01
         -1   -1    0    0    0  501 -0.00000000000E+00  0.00000000000E+00  0.12479854805E+03  0.12479854805E+03  0.00000000000E+00 0.  1.
          1   -1    0    0  501    0  0.00000000000E+00 -0.00000000000E+00 -0.19550215641E+04  0.19550215641E+04  0.00000000000E+00 0. -1.
         23    2    1    2    0    0 -0.37075704045E+03  0.31552559266E+03 -0.88273848524E+03  0.10145764223E+04  0.11454650001E+03 0.  0.
         13    1    3    3    0    0 -0.19377006321E+03  0.10594241888E+03 -0.32364071976E+03  0.39180856168E+03  0.00000000000E+00 0. -1.
        -13    1    3    3    0    0 -0.17698697724E+03  0.20958317378E+03 -0.55909776548E+03  0.62276786061E+03  0.00000000000E+00 0.  1.
         22    1    1    2    0    0  0.37075704045E+03 -0.31552559266E+03 -0.94748453079E+03  0.10652436898E+04  0.00000000000E+00 0.  1.
<mgrwt>
<rscale>  0 0.98789443E+03</rscale>
<asrwt>0</asrwt>
<pdfrwt beam="1">  1        1 0.30077251E+00 0.98789443E+03</pdfrwt>
<pdfrwt beam="2">  1       -1 0.19199779E-01 0.98789443E+03</pdfrwt>
<totfact> 0.70566267E+01</totfact>
</mgrwt>
</event>
<event>
 6    1  0.2003386E-005  0.1835261E+04  0.7818608E-02  0.8687769E-01
         -2   -1    0    0    0  501 -0.00000000000E+00  0.00000000000E+00  0.35271942520E+03  0.35271942520E+03  0.00000000000E+00 0. -1.
          2   -1    0    0  501    0  0.00000000000E+00 -0.00000000000E+00 -0.23872971068E+04  0.23872971068E+04  0.00000000000E+00 0.  1.
         23    2    1    2    0    0 -0.91213921382E+03  0.47067131375E+02 -0.92679983511E+03  0.13042641100E+04  0.89071173191E+02 0.  0.
         11    1    3    3    0    0 -0.71443423215E+03  0.11322934625E+02 -0.75995416554E+03  0.10431082468E+04  0.00000000000E+00 0. -1.
        -11    1    3    3    0    0 -0.19770498167E+03  0.35744196751E+02 -0.16684566958E+03  0.26115586311E+03  0.00000000000E+00 0.  1.
         22    1    1    2    0    0  0.91213921382E+03 -0.47067131375E+02 -0.11077778465E+04  0.14357524220E+04  0.00000000000E+00 0.  1.
<mgrwt>
<rscale>  0 0.18352614E+04</rscale>
<asrwt>0</asrwt>
<pdfrwt beam="1">  1        2 0.36727648E+00 0.18352614E+04</pdfrwt>
<pdfrwt beam="2">  1       -2 0.54264526E-01 0.18352614E+04</pdfrwt>
<totfact> 0.12176251E+01</totfact>
</mgrwt>
</event>
<event>
 6    1  0.2003386E-005  0.3358304E+04  0.7818608E-02  0.8148216E-01
         -2   -1    0    0    0  501 -0.00000000000E+00  0.00000000000E+00  0.16392627326E+04  0.16392627326E+04  0.00000000000E+00 0.  1.
          2   -1    0    0  501    0  0.00000000000E+00 -0.00000000000E+00 -0.17200123086E+04  0.17200123086E+04  0.00000000000E+00 0. -1.
         23    2    1    2    0    0  0.71075768173E+03 -0.17458848648E+03 -0.15507339344E+04  0.17171691871E+04  0.90756047592E+02 0.  0.
         13    1    3    3    0    0  0.17940426636E+03 -0.42608450275E+02 -0.48841724704E+03  0.52206587518E+03  0.00000000000E+00 0.  1.
        -13    1    3    3    0    0  0.53135341538E+03 -0.13198003620E+03 -0.10623166874E+04  0.11951033120E+04  0.00000000000E+00 0. -1.
         22    1    1    2    0    0 -0.71075768173E+03  0.17458848648E+03  0.14699843584E+04  0.16421058540E+04  0.00000000000E+00 0.  1.
<mgrwt>
<rscale>  0 0.33583044E+04</rscale>
<asrwt>0</asrwt>
<pdfrwt beam="1">  1        2 0.26461728E+00 0.33583044E+04</pdfrwt>
<pdfrwt beam="2">  1       -2 0.25219427E+00 0.33583044E+04</pdfrwt>
<totfact> 0.49499572E-01</totfact>
</mgrwt>
</event>
<event>
 6    1  0.2003386E-005  0.1520032E+04  0.7818608E-02  0.8871240E-01
          1   -1    0    0  501    0  0.00000000000E+00  0.00000000000E+00  0.32553952217E+03  0.32553952217E+03  0.00000000000E+00 0. -1.
         -1   -1    0    0    0  501 -0.00000000000E+00 -0.00000000000E+00 -0.17743590155E+04  0.17743590155E+04  0.00000000000E+00 0.  1.
         23    2    1    2    0    0  0.35062924651E+03  0.65329188066E+03 -0.51329947859E+03  0.90619470178E+03  0.89338306236E+02 0.  0.
         11    1    3    3    0    0  0.11996919482E+03  0.15668091681E+03 -0.16513252199E+03  0.25731355817E+03  0.00000000000E+00 0.  1.
        -11    1    3    3    0    0  0.23066005169E+03  0.49661096385E+03 -0.34816695660E+03  0.64888114361E+03  0.00000000000E+00 0. -1.
         22    1    1    2    0    0 -0.35062924651E+03 -0.65329188066E+03 -0.93552001476E+03  0.11937038359E+04  0.00000000000E+00 0. -1.
<mgrwt>
<rscale>  0 0.15200316E+04</rscale>
<asrwt>0</asrwt>
<pdfrwt beam="1">  1        1 0.50083003E-01 0.15200316E+04</pdfrwt>
<pdfrwt beam="2">  1       -1 0.27297831E+00 0.15200316E+04</pdfrwt>
<totfact> 0.37650899E+00</totfact>
</mgrwt>
</event>
<event>
 6    1  0.2003386E-005  0.2119026E+04  0.7818608E-02  0.8552908E-01
          2   -1    0    0  501    0  0.00000000000E+00  0.00000000000E+00  0.14763383652E+04  0.14763383652E+04  0.00000000000E+00 0. -1.
         -2   -1    0    0    0  501 -0.00000000000E+00 -0.00000000000E+00 -0.76037279266E+03  0.76037279266E+03  0.00000000000E+00 0.  1.
         23    2    1    2    0    0  0.49724519033E+03  0.72983370504E+03  0.97278278976E+03  0.13170019106E+04  0.90981647702E+02 0.  0.
         11    1    3    3    0    0  0.19000166211E+03  0.21374409405E+03  0.28233982933E+03  0.40187429449E+03  0.00000000000E+00 0. -1.
        -11    1    3    3    0    0  0.30724352821E+03  0.51608961099E+03  0.69044296043E+03  0.91512761613E+03  0.00000000000E+00 0.  1.
         22    1    1    2    0    0 -0.49724519033E+03 -0.72983370504E+03 -0.25681721725E+03  0.91970924720E+03  0.00000000000E+00 0.  1.
<mgrwt>
<rscale>  0 0.21190257E+04</rscale>
<asrwt>0</asrwt>
<pdfrwt beam="1">  1        2 0.22712898E+00 0.21190257E+04</pdfrwt>
<pdfrwt beam="2">  1       -2 0.11698043E+00 0.21190257E+04</pdfrwt>
<totfact> 0.68130739E+00</totfact>
</mgrwt>
</event>
<event>
 6    1  0.2003386E-005  0.3258387E+04  0.7818608E-02  0.8173565E-01
         -2   -1    0    0    0  501 -0.00000000000E+00  0.00000000000E+00  0.86456976139E+03  0.86456976139E+03  0.00000000000E+00 0. -1.
          2   -1    0    0  501    0  0.00000000000E+00 -0.00000000000E+00 -0.30700494989E+04  0.30700494989E+04  0.00000000000E+00 0.  1.
         23    2    1    2    0    0 -0.67282744541E+03 -0.93611422140E+03 -0.24913704825E+04  0.27468734437E+04  0.96851575020E+02 0.  0.
         13    1    3    3    0    0 -0.27208331671E+03 -0.34486559966E+03 -0.10519032615E+04  0.11399395092E+04  0.00000000000E+00 0. -1.
        -13    1    3    3    0    0 -0.40074412870E+03 -0.59124862174E+03 -0.14394672210E+04  0.16069339345E+04  0.00000000000E+00 0.  1.
         22    1    1    2    0    0  0.67282744541E+03  0.93611422140E+03  0.28589074502E+03  0.11877458166E+04  0.00000000000E+00 0. -1.
<mgrwt>
<rscale>  0 0.32583873E+04</rscale>
<asrwt>0</asrwt>
<pdfrwt beam="1">  1        2 0.47231531E+00 0.32583873E+04</pdfrwt>
<pdfrwt beam="2">  1       -2 0.13301073E+00 0.32583873E+04</pdfrwt>
<totfact> 0.53954377E-01</totfact>
</mgrwt>
</event>
<event>
 6    1  0.2003386E-005  0.2479499E+04  0.7818608E-02  0.8410326E-01
         -2   -1    0    0    0  501 -0.00000000000E+00  0.00000000000E+00  0.80897865245E+03  0.80897865245E+03  0.00000000000E+00 0.  1.
          2   -1    0    0  501    0  0.00000000000E+00 -0.00000000000E+00 -0.18998996936E+04  0.18998996936E+04  0.00000000000E+00 0. -1.
         23    2    1    2    0    0 -0.10589617843E+04  0.50521679417E+03 -0.11490758515E+03  0.11826914846E+04  0.94399814164E+02 0.  0.
         11    1    3    3    0    0 -0.54048669126E+03  0.22923757855E+03 -0.17749872697E+02  0.58735916510E+03  0.00000000000E+00 0. -1.
        -11    1    3    3    0    0 -0.51847509305E+03  0.27597921562E+03 -0.97157712449E+02  0.59533231951E+03  0.00000000000E+00 0.  1.
         22    1    1    2    0    0  0.10589617843E+04 -0.50521679417E+03 -0.97601345602E+03  0.15261868614E+04  0.00000000000E+00 0. -1.
<mgrwt>
<rscale>  0 0.24794986E+04</rscale>
<asrwt>0</asrwt>
<pdfrwt beam="1">  1        2 0.29229226E+00 0.24794986E+04</pdfrwt>
<pdfrwt beam="2">  1       -2 0.12445825E+00 0.24794986E+04</pdfrwt>
<totfact> 0.32890084E+00</totfact>
</mgrwt>
</event>
<event>
 6    1  0.2003386E-005  0.3052470E+04  0.7818608E-02  0.8228904E-01
         -2   -1    0    0    0  501 -0.00000000000E+00  0.00000000000E+00  0.14395840331E+04  0.14395840331E+04  0.00000000000E+00 0.  1.
          2   -1    0    0  501    0  0.00000000000E+00 -0.00000000000E+00 -0.16181020931E+04  0.16181020931E+04  0.00000000000E+00 0. -1.
         23    2    1    2    0    0 -0.76614843149E+03 -0.13184045114E+04 -0.87947479268E+02  0.15301466324E+04  0.91869922955E+02 0.  0.
         13    1    3    3    0    0 -0.46754311185E+03 -0.78338462954E+03 -0.87420676572E+01  0.91234010269E+03  0.00000000000E+00 0.  1.
        -13    1    3    3    0    0 -0.29860531964E+03 -0.53501988191E+03 -0.79205411611E+02  0.61780652973E+03  0.00000000000E+00 0. -1.
         22    1    1    2    0    0  0.76614843149E+03  0.13184045114E+04 -0.90570580784E+02  0.15275394938E+04  0.00000000000E+00 0.  1.
<mgrwt>
<rscale>  0 0.30524704E+04</rscale>
<asrwt>0</asrwt>
<pdfrwt beam="1">  1        2 0.24893878E+00 0.30524704E+04</pdfrwt>
<pdfrwt beam="2">  1       -2 0.22147447E+00 0.30524704E+04</pdfrwt>
<totfact> 0.89834054E-01</totfact>
</mgrwt>
</event>
<event>
 6    1  0.2003386E-005  0.1007906E+04  0.7818608E-02  0.9299915E-01
         -2   -1    0    0    0  501 -0.00000000000E+00  0.00000000000E+00  0.13877483475E+03  0.13877483475E+03  0.00000000000E+00 0.  1.
          2   -1    0    0  501    0  0.00000000000E+00 -0.00000000000E+00 -0.18300784189E+04  0.18300784189E+04  0.00000000000E+00 0. -1.
         23    2    1    2    0    0 -0.39480428516E+03  0.18188692096E+03 -0.13347620640E+04  0.14066476585E+04  0.90081031345E+02 0.  0.
         11    1    3    3    0    0 -0.11047335687E+03  0.96620771526E+02 -0.41688613807E+03  0.44196604868E+03  0.00000000000E+00 0. -1.
        -11    1    3    3    0    0 -0.28433092829E+03  0.85266149433E+02 -0.91787592590E+03  0.96468160984E+03  0.00000000000E+00 0.  1.
         22    1    1    2    0    0  0.39480428516E+03 -0.18188692096E+03 -0.35654152020E+03  0.56220559516E+03  0.00000000000E+00 0.  1.
<mgrwt>
<rscale>  0 0.10079064E+04</rscale>
<asrwt>0</asrwt>
<pdfrwt beam="1">  1        2 0.28155048E+00 0.10079064E+04</pdfrwt>
<pdfrwt beam="2">  1       -2 0.21349978E-01 0.10079064E+04</pdfrwt>
<totfact> 0.15806307E+02</totfact>
</mgrwt>
</event>
<event>
 6    1  0.2003386E-005  0.2242881E+04  0.7818608E-02  0.8500789E-01
          2   -1    0    0  501    0  0.00000000000E+00  0.00000000000E+00  0.90084517870E+03  0.90084517870E+03  0.00000000000E+00 0. -1.
         -2   -1    0    0    0  501 -0.00000000000E+00 -0.00000000000E+00 -0.13960547898E+04  0.13960547898E+04  0.00000000000E+00 0.  1.
         23    2    1    2    0    0 -0.34909386522E+03  0.99754189965E+03 -0.62642735013E+03  0.12319236949E+04  0.90930725101E+02 0.  0.
         11    1    3    3    0    0 -0.11348276134E+03  0.44088920979E+03 -0.29624830991E+03  0.54316175635E+03  0.00000000000E+00 0.  1.
        -11    1    3    3    0    0 -0.23561110387E+03  0.55665268985E+03 -0.33017904022E+03  0.68876193855E+03  0.00000000000E+00 0. -1.
         22    1    1    2    0    0  0.34909386522E+03 -0.99754189965E+03  0.13121773904E+03  0.10649762736E+04  0.00000000000E+00 0. -1.
<mgrwt>
<rscale>  0 0.22428814E+04</rscale>
<asrwt>0</asrwt>
<pdfrwt beam="1">  1        2 0.13859157E+00 0.22428814E+04</pdfrwt>
<pdfrwt beam="2">  1       -2 0.21477766E+00 0.22428814E+04</pdfrwt>
<totfact> 0.28449931E+00</totfact>
</mgrwt>
</event>
<event>
 6    1  0.2003386E-005  0.1612797E+04  0.7818608E-02  0.8812724E-01
         -2   -1    0    0    0  501 -0.00000000000E+00  0.00000000000E+00  0.88913327598E+03  0.88913327598E+03  0.00000000000E+00 0. -1.
          2   -1    0    0  501    0  0.00000000000E+00 -0.00000000000E+00 -0.73136258176E+03  0.73136258176E+03  0.00000000000E+00 0.  1.
         23    2    1    2    0    0 -0.20256065600E+03 -0.32156811395E+03  0.79065885536E+03  0.88226534104E+03  0.93882028028E+02 0.  0.
         11    1    3    3    0    0 -0.66960466249E+02 -0.19238151147E+03  0.43378143437E+03  0.47922925912E+03  0.00000000000E+00 0. -1.
        -11    1    3    3    0    0 -0.13560018975E+03 -0.12918660248E+03  0.35687742099E+03  0.40303608192E+03  0.00000000000E+00 0.  1.
         22    1    1    2    0    0  0.20256065600E+03  0.32156811395E+03 -0.63288816114E+03  0.73823051669E+03  0.00000000000E+00 0.  1.
<mgrwt>
<rscale>  0 0.16127973E+04</rscale>
<asrwt>0</asrwt>
<pdfrwt beam="1">  1        2 0.11251732E+00 0.16127973E+04</pdfrwt>
<pdfrwt beam="2">  1       -2 0.13678974E+00 0.16127973E+04</pdfrwt>
<totfact> 0.14150768E+01</totfact>
</mgrwt>
</event>
<event>
 6    1  0.2003386E-005  0.2068359E+04  0.7818608E-02  0.8575311E-01
          1   -1    0    0  501    0  0.00000000000E+00  0.00000000000E+00  0.17172081228E+04  0.17172081228E+04  0.00000000000E+00 0. -1.
         -1   -1    0    0    0  501 -0.00000000000E+00 -0.00000000000E+00 -0.62282910613E+03  0.62282910613E+03  0.00000000000E+00 0.  1.
         23    2    1    2    0    0 -0.60242040893E+03 -0.34853540618E+03 -0.31124796397E+03  0.77154289131E+03  0.11838859571E+03 0.  0.
         13    1    3    3    0    0 -0.37325996633E+03 -0.17729709306E+03 -0.23545469347E+03  0.47560085612E+03  0.00000000000E+00 0. -1.
        -13    1    3    3    0    0 -0.22916044261E+03 -0.17123831313E+03 -0.75793270501E+02  0.29594203519E+03  0.00000000000E+00 0.  1.
         22    1    1    2    0    0  0.60242040893E+03  0.34853540618E+03  0.14056269807E+04  0.15684943376E+04  0.00000000000E+00 0. -1.
<mgrwt>
<rscale>  0 0.20683590E+04</rscale>
<asrwt>0</asrwt>
<pdfrwt beam="1">  1        1 0.26418586E+00 0.20683590E+04</pdfrwt>
<pdfrwt beam="2">  1       -1 0.95819863E-01 0.20683590E+04</pdfrwt>
<totfact> 0.44923471E+00</totfact>
</mgrwt>
</event>
<event>
 6    1  0.2003386E-005  0.1471545E+04  0.7818608E-02  0.8903599E-01
         -2   -1    0    0    0  501 -0.00000000000E+00  0.00000000000E+00  0.17544742882E+03  0.17544742882E+03  0.00000000000E+00 0.  1.
          2   -1    0    0  501    0  0.00000000000E+00 -0.00000000000E+00 -0.30856027316E+04  0.30856027316E+04  0.00000000000E+00 0. -1.
         23    2    1    2    0    0  0.71215559803E+03 -0.58993247389E+02 -0.18210215038E+04  0.19584150499E+04  0.92867601307E+02 0.  0.
         13    1    3    3    0    0  0.26923958434E+03 -0.42152959183E+02 -0.58608222015E+03  0.64634293878E+03  0.00000000000E+00 0. -1.
        -13    1    3    3    0    0  0.44291601370E+03 -0.16840288206E+02 -0.12349392836E+04  0.13120721111E+04  0.00000000000E+00 0.  1.
         22    1    1    2    0    0 -0.71215559803E+03  0.58993247389E+02 -0.10891337991E+04  0.13026351106E+04  0.00000000000E+00 0.  1.
<mgrwt>
<rscale>  0 0.14715449E+04</rscale>
<asrwt>0</asrwt>
<pdfrwt beam="1">  1        2 0.47470813E+00 0.14715449E+04</pdfrwt>
<pdfrwt beam="2">  1       -2 0.26991911E-01 0.14715449E+04</pdfrwt>
<totfact> 0.18726697E+01</totfact>
</mgrwt>
</event>
<event>
 6    1  0.2003386E-005  0.2422827E+04  0.7818608E-02  0.8431006E-01
         -2   -1    0    0    0  501 -0.00000000000E+00  0.00000000000E+00  0.94301594716E+03  0.94301594716E+03  0.00000000000E+00 0.  1.
          2   -1    0    0  501    0  0.00000000000E+00 -0.00000000000E+00 -0.15562018449E+04  0.15562018449E+04  0.00000000000E+00 0. -1.
         23    2    1    2    0    0  0.33708335732E+02  0.58306398498E+03 -0.13998528548E+04  0.15194500829E+04  0.89669821734E+02 0.  0.
         13    1    3    3    0    0 -0.21249662396E+02  0.44097457796E+02 -0.10629588633E+03  0.11702542196E+03  0.00000000000E+00 0.  1.
        -13    1    3    3    0    0  0.54957998129E+02  0.53896652718E+03 -0.12935569685E+04  0.14024246610E+04  0.00000000000E+00 0. -1.
         22    1    1    2    0    0 -0.33708335732E+02 -0.58306398498E+03  0.78666695708E+03  0.97976770912E+03  0.00000000000E+00 0.  1.
<mgrwt>
<rscale>  0 0.24228274E+04</rscale>
<asrwt>0</asrwt>
<pdfrwt beam="1">  1        2 0.23941567E+00 0.24228274E+04</pdfrwt>
<pdfrwt beam="2">  1       -2 0.14507938E+00 0.24228274E+04</pdfrwt>
<totfact> 0.34663545E+00</totfact>
</mgrwt>
</event>
<event>
 6    1  0.2003386E-005  0.1048690E+04  0.7818608E-02  0.9256698E-01
         -2   -1    0    0    0  501 -0.00000000000E+00  0.00000000000E+00  0.17199275947E+03  0.17199275947E+03  0.00000000000E+00 0. -1.
          2   -1    0    0  501    0  0.00000000000E+00 -0.00000000000E+00 -0.15985422413E+04  0.15985422413E+04  0.00000000000E+00 0.  1.
         23    2    1    2    0    0  0.28021765126E+03 -0.15864940036E+03 -0.14086830348E+04  0.14480279865E+04  0.93303766925E+02 0.  0.
         11    1    3    3    0    0  0.15768160124E+03 -0.37875773926E+02 -0.74059083182E+03  0.75813774592E+03  0.00000000000E+00 0.  1.
        -11    1    3    3    0    0  0.12253605002E+03 -0.12077362643E+03 -0.66809220297E+03  0.68989024059E+03  0.00000000000E+00 0. -1.
         22    1    1    2    0    0 -0.28021765126E+03  0.15864940036E+03 -0.17866447049E+02  0.32250701425E+03  0.00000000000E+00 0. -1.
<mgrwt>
<rscale>  0 0.10486900E+04</rscale>
<asrwt>0</asrwt>
<pdfrwt beam="1">  1        2 0.24592957E+00 0.10486900E+04</pdfrwt>
<pdfrwt beam="2">  1       -2 0.26460425E-01 0.10486900E+04</pdfrwt>
<totfact> 0.14384971E+02</totfact>
</mgrwt>
</event>
<event>
 6    1  0.2003386E-005  0.1726087E+04  0.7818608E-02  0.8746624E-01
          2   -1    0    0  501    0  0.00000000000E+00  0.00000000000E+00  0.11938389073E+04  0.11938389073E+04  0.00000000000E+00 0. -1.
         -2   -1    0    0    0  501 -0.00000000000E+00 -0.00000000000E+00 -0.62390641958E+03  0.62390641958E+03  0.00000000000E+00 0.  1.
         23    2    1    2    0    0 -0.31675219131E+03 -0.12869803127E+03  0.11175614320E+04  0.11721505666E+04  0.89990347056E+02 0.  0.
         11    1    3    3    0    0 -0.26103411924E+03 -0.86901784150E+02  0.98105202237E+03  0.10188983277E+04  0.00000000000E+00 0. -1.
        -11    1    3    3    0    0 -0.55718072070E+02 -0.41796247124E+02  0.13650940962E+03  0.15325223896E+03  0.00000000000E+00 0.  1.
         22    1    1    2    0    0  0.31675219131E+03  0.12869803127E+03 -0.54762894424E+03  0.64559476030E+03  0.00000000000E+00 0.  1.
<mgrwt>
<rscale>  0 0.17260866E+04</rscale>
<asrwt>0</asrwt>
<pdfrwt beam="1">  1        2 0.18366752E+00 0.17260866E+04</pdfrwt>
<pdfrwt beam="2">  1       -2 0.95985603E-01 0.17260866E+04</pdfrwt>
<totfact> 0.16505532E+01</totfact>
</mgrwt>
</event>
<event>
 6    1  0.2003386E-005  0.3587005E+04  0.7818608E-02  0.8093475E-01
          2   -1    0    0  501    0  0.00000000000E+00  0.00000000000E+00  0.33818604592E+04  0.33818604592E+04  0.00000000000E+00 0. -1.
         -2   -1    0    0    0  501 -0.00000000000E+00 -0.00000000000E+00 -0.95114844589E+03  0.95114844589E+03  0.00000000000E+00 0.  1.
         23    2    1    2    0    0 -0.85801811047E+03 -0.87699481235E+03 -0.36210050341E+03  0.12825799627E+04  0.92626170688E+02 0.  0.
         13    1    3    3    0    0 -0.13531239027E+03 -0.10392825645E+03 -0.72634915194E+02  0.18543558546E+03  0.00000000000E+00 0. -1.
        -13    1    3    3    0    0 -0.72270572020E+03 -0.77306655590E+03 -0.28946558822E+03  0.10971443773E+04  0.00000000000E+00 0.  1.
         22    1    1    2    0    0  0.85801811047E+03  0.87699481235E+03  0.27928125167E+04  0.30504289424E+04  0.00000000000E+00 0. -1.
<mgrwt>
<rscale>  0 0.35870051E+04</rscale>
<asrwt>0</asrwt>
<pdfrwt beam="1">  1        2 0.52028622E+00 0.35870051E+04</pdfrwt>
<pdfrwt beam="2">  1       -2 0.14633053E+00 0.35870051E+04</pdfrwt>
<totfact> 0.25566918E-01</totfact>
</mgrwt>
</event>
<event>
 6    1  0.2003386E-005  0.4045235E+04  0.7818608E-02  0.7995483E-01
         -2   -1    0    0    0  501 -0.00000000000E+00  0.00000000000E+00  0.12294731372E+04  0.12294731372E+04  0.00000000000E+00 0.  1.
          2   -1    0    0  501    0  0.00000000000E+00 -0.00000000000E+00 -0.33274263057E+04  0.33274263057E+04  0.00000000000E+00 0. -1.
         23    2    1    2    0    0  0.10942493525E+04  0.12723713203E+04 -0.23192742059E+04  0.28641816802E+04  0.90517585071E+02 0.  0.
         13    1    3    3    0    0  0.54714651850E+03  0.56695270305E+03 -0.10856211237E+04  0.13414089252E+04  0.00000000000E+00 0. -1.
        -13    1    3    3    0    0  0.54710283404E+03  0.70541861726E+03 -0.12336530821E+04  0.15227727551E+04  0.00000000000E+00 0.  1.
         22    1    1    2    0    0 -0.10942493525E+04 -0.12723713203E+04  0.22132103739E+03  0.16927177626E+04  0.00000000000E+00 0.  1.
<mgrwt>
<rscale>  0 0.40452349E+04</rscale>
<asrwt>0</asrwt>
<pdfrwt beam="1">  1        2 0.51191173E+00 0.40452349E+04</pdfrwt>
<pdfrwt beam="2">  1       -2 0.18914972E+00 0.40452349E+04</pdfrwt>
<totfact> 0.13163173E-01</totfact>
</mgrwt>
</event>
<event>
 6    1  0.2003386E-005  0.1109895E+04  0.7818608E-02  0.9195601E-01
          2   -1    0    0  501    0  0.00000000000E+00  0.00000000000E+00  0.13075069558E+04  0.13075069558E+04  0.00000000000E+00 0. -1.
         -2   -1    0    0    0  501 -0.00000000000E+00 -0.00000000000E+00 -0.23553734427E+03  0.23553734427E+03  0.00000000000E+00 0.  1.
         23    2    1    2    0    0 -0.18937779238E+03  0.51028351643E+03  0.41909266499E+03  0.69304340436E+03  0.91745752479E+02 0.  0.
         13    1    3    3    0    0 -0.36090532141E+02  0.16615202089E+03  0.87750549071E+02  0.19133525398E+03  0.00000000000E+00 0.  1.
        -13    1    3    3    0    0 -0.15328726024E+03  0.34413149554E+03  0.33134211592E+03  0.50170815038E+03  0.00000000000E+00 0. -1.
         22    1    1    2    0    0  0.18937779238E+03 -0.51028351643E+03  0.65287694655E+03  0.85000089572E+03  0.00000000000E+00 0. -1.
<mgrwt>
<rscale>  0 0.11098950E+04</rscale>
<asrwt>0</asrwt>
<pdfrwt beam="1">  1        2 0.20115491E+00 0.11098950E+04</pdfrwt>
<pdfrwt beam="2">  1       -2 0.36236515E-01 0.11098950E+04</pdfrwt>
<totfact> 0.11627218E+02</totfact>
</mgrwt>
</event>
<event>
 6    1  0.2003386E-005  0.4433283E+04  0.7818608E-02  0.7922422E-01
         -2   -1    0    0    0  501 -0.00000000000E+00  0.00000000000E+00  0.17552141445E+04  0.17552141445E+04  0.00000000000E+00 0.  1.
          2   -1    0    0  501    0  0.00000000000E+00 -0.00000000000E+00 -0.27993732404E+04  0.27993732404E+04  0.00000000000E+00 0. -1.
         23    2    1    2    0    0 -0.10469662341E+04  0.76568964842E+03  0.13231640231E+04  0.18552101081E+04  0.92857849152E+02 0.  0.
         13    1    3    3    0    0 -0.34537176076E+03  0.30702582194E+03  0.46084906562E+03  0.65263187920E+03  0.00000000000E+00 0.  1.
        -13    1    3    3    0    0 -0.70159447329E+03  0.45866382648E+03  0.86231495747E+03  0.12025782289E+04  0.00000000000E+00 0. -1.
         22    1    1    2    0    0  0.10469662341E+04 -0.76568964842E+03 -0.23673231190E+04  0.26993772769E+04  0.00000000000E+00 0. -1.
<mgrwt>
<rscale>  0 0.44332830E+04</rscale>
<asrwt>0</asrwt>
<pdfrwt beam="1">  1        2 0.43067280E+00 0.44332830E+04</pdfrwt>
<pdfrwt beam="2">  1       -2 0.27003295E+00 0.44332830E+04</pdfrwt>
<totfact> 0.85394735E-02</totfact>
</mgrwt>
</event>
<event>
 6    1  0.2003386E-005  0.4948011E+04  0.7818608E-02  0.7836577E-01
         -2   -1    0    0    0  501 -0.00000000000E+00  0.00000000000E+00  0.16078527360E+04  0.16078527360E+04  0.00000000000E+00 0.  1.
          2   -1    0    0  501    0  0.00000000000E+00 -0.00000000000E+00 -0.38067558565E+04  0.38067558565E+04  0.00000000000E+00 0. -1.
         23    2    1    2    0    0 -0.20569575074E+04  0.13024749664E+04 -0.15755563323E+04  0.29014280491E+04  0.91606451819E+02 0.  0.
         13    1    3    3    0    0 -0.47204408570E+03  0.25959787007E+03 -0.37061796988E+03  0.65389169790E+03  0.00000000000E+00 0.  1.
        -13    1    3    3    0    0 -0.15849134217E+04  0.10428770964E+04 -0.12049383624E+04  0.22475363512E+04  0.00000000000E+00 0. -1.
         22    1    1    2    0    0  0.20569575074E+04 -0.13024749664E+04 -0.62334678817E+03  0.25131805434E+04  0.00000000000E+00 0.  1.
<mgrwt>
<rscale>  0 0.49480108E+04</rscale>
<asrwt>0</asrwt>
<pdfrwt beam="1">  1        2 0.58565474E+00 0.49480108E+04</pdfrwt>
<pdfrwt beam="2">  1       -2 0.24736196E+00 0.49480108E+04</pdfrwt>
<totfact> 0.23588288E-02</totfact>
</mgrwt>
</event>
<event>
 6    1  0.2003386E-005  0.2070150E+04  0.7818608E-02  0.8574508E-01
         -1   -1    0    0    0  501 -0.00000000000E+00  0.00000000000E+00  0.71758240591E+03  0.71758240591E+03  0.00000000000E+00 0.  1.
          1   -1    0    0  501    0  0.00000000000E+00 -0.00000000000E+00 -0.14930418147E+04  0.14930418147E+04  0.00000000000E+00 0. -1.
         23    2    1    2    0    0  0.74345739857E+03  0.62572447969E+02  0.37466326667E+03  0.83970249295E+03  0.89908278449E+02 0.  0.
         11    1    3    3    0    0  0.56036428840E+03  0.30043841325E+02  0.31942640998E+03  0.64571200973E+03  0.00000000000E+00 0. -1.
        -11    1    3    3    0    0  0.18309311017E+03  0.32528606644E+02  0.55236856697E+02  0.19399048322E+03  0.00000000000E+00 0.  1.
         22    1    1    2    0    0 -0.74345739857E+03 -0.62572447969E+02 -0.11501226754E+04  0.13709217276E+04  0.00000000000E+00 0. -1.
<mgrwt>
<rscale>  0 0.20701503E+04</rscale>
<asrwt>0</asrwt>
<pdfrwt beam="1">  1        1 0.22969874E+00 0.20701503E+04</pdfrwt>
<pdfrwt beam="2">  1       -1 0.11039729E+00 0.20701503E+04</pdfrwt>
<totfact> 0.46151382E+00</totfact>
</mgrwt>
</event>
<event>
 6    1  0.2003386E-005  0.1744789E+04  0.7818608E-02  0.8736224E-01
         -1   -1    0    0    0  501 -0.00000000000E+00  0.00000000000E+00  0.24547850425E+03  0.24547850425E+03  0.00000000000E+00 0.  1.
          1   -1    0    0  501    0  0.00000000000E+00 -0.00000000000E+00 -0.31003624218E+04  0.31003624218E+04  0.00000000000E+00 0. -1.
         23    2    1    2    0    0  0.79102283385E+03 -0.66730398459E+02 -0.74941204227E+03  0.10956894006E+04  0.93524241807E+02 0.  0.
         11    1    3    3    0    0  0.61383572519E+03 -0.42911937613E+02 -0.63032207730E+03  0.88087550371E+03  0.00000000000E+00 0. -1.
        -11    1    3    3    0    0  0.17718710866E+03 -0.23818460845E+02 -0.11908996496E+03  0.21481389691E+03  0.00000000000E+00 0.  1.
         22    1    1    2    0    0 -0.79102283385E+03  0.66730398459E+02 -0.21054718753E+04  0.22501515254E+04  0.00000000000E+00 0. -1.
<mgrwt>
<rscale>  0 0.17447892E+04</rscale>
<asrwt>0</asrwt>
<pdfrwt beam="1">  1        1 0.47697884E+00 0.17447892E+04</pdfrwt>
<pdfrwt beam="2">  1       -1 0.37765923E-01 0.17447892E+04</pdfrwt>
<totfact> 0.32479508E+00</totfact>
</mgrwt>
</event>
<event>
 6    1  0.2003386E-005  0.1437777E+04  0.7818608E-02  0.8926918E-01
          2   -1    0    0  501    0  0.00000000000E+00  0.00000000000E+00  0.80972290921E+03  0.80972290921E+03  0.00000000000E+00 0. -1.
         -2   -1    0    0    0  501 -0.00000000000E+00 -0.00000000000E+00 -0.63824421950E+03  0.63824421950E+03  0.00000000000E+00 0.  1.
         23    2    1    2    0    0  0.25969238196E+03 -0.78072322085E+02  0.75332674070E+03  0.80603054682E+03  0.92998082973E+02 0.  0.
         13    1    3    3    0    0  0.22059799670E+03 -0.34933357482E+02  0.52781426464E+03  0.57312451838E+03  0.00000000000E+00 0.  1.
        -13    1    3    3    0    0  0.39094385258E+02 -0.43138964603E+02  0.22551247606E+03  0.23290602844E+03  0.00000000000E+00 0. -1.
         22    1    1    2    0    0 -0.25969238196E+03  0.78072322085E+02 -0.58184805099E+03  0.64193658189E+03  0.00000000000E+00 0.  1.
<mgrwt>
<rscale>  0 0.14377774E+04</rscale>
<asrwt>0</asrwt>
<pdfrwt beam="1">  1        2 0.12457275E+00 0.14377774E+04</pdfrwt>
<pdfrwt beam="2">  1       -2 0.98191419E-01 0.14377774E+04</pdfrwt>
<totfact> 0.28380123E+01</totfact>
</mgrwt>
</event>
<event>
 6    1  0.2003386E-005  0.2975148E+04  0.7818608E-02  0.8250863E-01
          2   -1    0    0  501    0  0.00000000000E+00  0.00000000000E+00  0.10188306201E+04  0.10188306201E+04  0.00000000000E+00 0. -1.
         -2   -1    0    0    0  501 -0.00000000000E+00 -0.00000000000E+00 -0.21719772606E+04  0.21719772606E+04  0.00000000000E+00 0.  1.
         23    2    1    2    0    0 -0.79116621943E+03 -0.18450757969E+03  0.75706712166E+03  0.11150179947E+04  0.10063532193E+03 0.  0.
         13    1    3    3    0    0 -0.53489678057E+03 -0.14292407654E+03  0.57284927095E+03  0.79667944918E+03  0.00000000000E+00 0. -1.
        -13    1    3    3    0    0 -0.25626943886E+03 -0.41583503152E+02  0.18421785071E+03  0.31833854549E+03  0.00000000000E+00 0.  1.
         22    1    1    2    0    0  0.79116621943E+03  0.18450757969E+03 -0.19102137621E+04  0.20757898860E+04  0.00000000000E+00 0.  1.
<mgrwt>
<rscale>  0 0.29751484E+04</rscale>
<asrwt>0</asrwt>
<pdfrwt beam="1">  1        2 0.15674317E+00 0.29751484E+04</pdfrwt>
<pdfrwt beam="2">  1       -2 0.33415035E+00 0.29751484E+04</pdfrwt>
<totfact> 0.41094763E-01</totfact>
</mgrwt>
</event>
<event>
 6    1  0.2003386E-005  0.1851717E+04  0.7818608E-02  0.8679271E-01
          2   -1    0    0  501    0  0.00000000000E+00  0.00000000000E+00  0.29339687542E+04  0.29339687542E+04  0.00000000000E+00 0.  1.
         -2   -1    0    0    0  501 -0.00000000000E+00 -0.00000000000E+00 -0.29216858775E+03  0.29216858775E+03  0.00000000000E+00 0. -1.
         23    2    1    2    0    0  0.49719725930E+03 -0.93044406701E+02 -0.22011185347E+02  0.51472566273E+03  0.92712670795E+02 0.  0.
         11    1    3    3    0    0  0.35543287799E+02 -0.23106630608E+02 -0.22090635552E+02  0.47804161584E+02  0.00000000000E+00 0. -1.
        -11    1    3    3    0    0  0.46165397150E+03 -0.69937776094E+02  0.79450204506E-01  0.46692150115E+03  0.00000000000E+00 0.  1.
         22    1    1    2    0    0 -0.49719725930E+03  0.93044406701E+02  0.26638113518E+04  0.27114116792E+04  0.00000000000E+00 0.  1.
<mgrwt>
<rscale>  0 0.18517165E+04</rscale>
<asrwt>0</asrwt>
<pdfrwt beam="1">  1        2 0.45137979E+00 0.18517165E+04</pdfrwt>
<pdfrwt beam="2">  1       -2 0.44949015E-01 0.18517165E+04</pdfrwt>
<totfact> 0.84731935E+00</totfact>
</mgrwt>
</event>
<event>
 6    1  0.2003386E-005  0.5051219E+04  0.7818608E-02  0.7820654E-01
          2   -1    0    0  501    0  0.00000000000E+00  0.00000000000E+00  0.25748753764E+04  0.25748753764E+04  0.00000000000E+00 0. -1.
         -2   -1    0    0    0  501 -0.00000000000E+00 -0.00000000000E+00 -0.24772864881E+04  0.24772864881E+04  0.00000000000E+00 0.  1.
         23    2    1    2    0    0 -0.88434277700E+03 -0.10892265582E+04  0.21482542500E+04  0.25674677046E+04  0.91746659823E+02 0.  0.
         13    1    3    3    0    0 -0.42324161062E+03 -0.53314372599E+03  0.95974701248E+03  0.11766435405E+04  0.00000000000E+00 0.  1.
        -13    1    3    3    0    0 -0.46110116638E+03 -0.55608283220E+03  0.11885072375E+04  0.13908241641E+04  0.00000000000E+00 0. -1.
         22    1    1    2    0    0  0.88434277700E+03  0.10892265582E+04 -0.20506653617E+04  0.24846941598E+04  0.00000000000E+00 0.  1.
<mgrwt>
<rscale>  0 0.50512193E+04</rscale>
<asrwt>0</asrwt>
<pdfrwt beam="1">  1        2 0.39613468E+00 0.50512193E+04</pdfrwt>
<pdfrwt beam="2">  1       -2 0.38112099E+00 0.50512193E+04</pdfrwt>
<totfact> 0.22485976E-02</totfact>
</mgrwt>
</event>
<event>
 6    1  0.2003386E-005  0.2006114E+04  0.7818608E-02  0.8603768E-01
          2   -1    0    0  501    0  0.00000000000E+00  0.00000000000E+00  0.11040598762E+04  0.11040598762E+04  0.00000000000E+00 0. -1.
         -2   -1    0    0    0  501 -0.00000000000E+00 -0.00000000000E+00 -0.91129381116E+03  0.91129381116E+03  0.00000000000E+00 0.  1.
         23    2    1    2    0    0  0.14677308150E+03  0.18004607001E+03  0.10747594522E+04  0.11032839204E+04  0.90380330082E+02 0.  0.
         13    1    3    3    0    0  0.10918368311E+03  0.64386657559E+02  0.59485681730E+03  0.60821160085E+03  0.00000000000E+00 0.  1.
        -13    1    3    3    0    0  0.37589398389E+02  0.11565941245E+03  0.47990263494E+03  0.49507231955E+03  0.00000000000E+00 0. -1.
         22    1    1    2    0    0 -0.14677308150E+03 -0.18004607001E+03 -0.88199338719E+03  0.91206976697E+03  0.00000000000E+00 0.  1.
<mgrwt>
<rscale>  0 0.20061136E+04</rscale>
<asrwt>0</asrwt>
<pdfrwt beam="1">  1        2 0.16985536E+00 0.20061136E+04</pdfrwt>
<pdfrwt beam="2">  1       -2 0.14019905E+00 0.20061136E+04</pdfrwt>
<totfact> 0.71978851E+00</totfact>
</mgrwt>
</event>
<event>
 6    1  0.2003386E-005  0.2099059E+04  0.7818608E-02  0.8561658E-01
          2   -1    0    0  501    0  0.00000000000E+00  0.00000000000E+00  0.87642028952E+03  0.87642028952E+03  0.00000000000E+00 0. -1.
         -2   -1    0    0    0  501 -0.00000000000E+00 -0.00000000000E+00 -0.12568311892E+04  0.12568311892E+04  0.00000000000E+00 0.  1.
         23    2    1    2    0    0 -0.66008134264E+03  0.63179655309E+03  0.33024551889E+03  0.97570804167E+03  0.89832157052E+02 0.  0.
         11    1    3    3    0    0 -0.58728544417E+03  0.53957544256E+03  0.31394494249E+03  0.85709233929E+03  0.00000000000E+00 0. -1.
        -11    1    3    3    0    0 -0.72795898469E+02  0.92221110531E+02  0.16300576394E+02  0.11861570238E+03  0.00000000000E+00 0.  1.
         22    1    1    2    0    0  0.66008134264E+03 -0.63179655309E+03 -0.71065641857E+03  0.11575434370E+04  0.00000000000E+00 0.  1.
<mgrwt>
<rscale>  0 0.20990592E+04</rscale>
<asrwt>0</asrwt>
<pdfrwt beam="1">  1        2 0.13483389E+00 0.20990592E+04</pdfrwt>
<pdfrwt beam="2">  1       -2 0.19335864E+00 0.20990592E+04</pdfrwt>
<totfact> 0.41257565E+00</totfact>
</mgrwt>
</event>
<event>
 6    1  0.2003386E-005  0.1210383E+04  0.7818608E-02  0.9103816E-01
          2   -1    0    0  501    0  0.00000000000E+00  0.00000000000E+00  0.25988905002E+04  0.25988905002E+04  0.00000000000E+00 0. -1.
         -2   -1    0    0    0  501 -0.00000000000E+00 -0.00000000000E+00 -0.14092821496E+03  0.14092821496E+03  0.00000000000E+00 0.  1.
         23    2    1    2    0    0  0.30316753929E+03 -0.50020225341E+03  0.15564915461E+04  0.16652200251E+04  0.90437534646E+02 0.  0.
         11    1    3    3    0    0  0.15326337625E+03 -0.25476410585E+03  0.91805111787E+03  0.96499340265E+03  0.00000000000E+00 0.  1.
        -11    1    3    3    0    0  0.14990416304E+03 -0.24543814756E+03  0.63844042821E+03  0.70022662242E+03  0.00000000000E+00 0. -1.
         22    1    1    2    0    0 -0.30316753929E+03  0.50020225341E+03  0.90147073917E+03  0.10745986901E+04  0.00000000000E+00 0.  1.
<mgrwt>
<rscale>  0 0.12103834E+04</rscale>
<asrwt>0</asrwt>
<pdfrwt beam="1">  1        2 0.39982927E+00 0.12103834E+04</pdfrwt>
<pdfrwt beam="2">  1       -2 0.21681266E-01 0.12103834E+04</pdfrwt>
<totfact> 0.56114050E+01</totfact>
</mgrwt>
</event>
<event>
 6    1  0.2003386E-005  0.2533948E+04  0.7818608E-02  0.8390990E-01
         -2   -1    0    0    0  501 -0.00000000000E+00  0.00000000000E+00  0.41766101323E+03  0.41766101323E+03  0.00000000000E+00 0.  1.
          2   -1    0    0  501    0  0.00000000000E+00 -0.00000000000E+00 -0.38433631151E+04  0.38433631151E+04  0.00000000000E+00 0. -1.
         23    2    1    2    0    0 -0.84419012249E+03  0.40077956364E+03 -0.31495870225E+04  0.32865905705E+04  0.92184294841E+02 0.  0.
         13    1    3    3    0    0 -0.31465536582E+03  0.19784498757E+03 -0.12096453289E+04  0.12654613626E+04  0.00000000000E+00 0. -1.
        -13    1    3    3    0    0 -0.52953475667E+03  0.20293457607E+03 -0.19399416936E+04  0.20211292080E+04  0.00000000000E+00 0.  1.
         22    1    1    2    0    0  0.84419012249E+03 -0.40077956364E+03 -0.27611507934E+03  0.97443355781E+03  0.00000000000E+00 0.  1.
<mgrwt>
<rscale>  0 0.25339479E+04</rscale>
<asrwt>0</asrwt>
<pdfrwt beam="1">  1        2 0.59128666E+00 0.25339479E+04</pdfrwt>
<pdfrwt beam="2">  1       -2 0.64255538E-01 0.25339479E+04</pdfrwt>
<totfact> 0.90767221E-01</totfact>
</mgrwt>
</event>
<event>
 6    1  0.2395689E-005  0.3044771E+04  0.7818608E-02  0.8231061E-01
         -2   -1    0    0    0  501 -0.00000000000E+00  0.00000000000E+00  0.13823596538E+04  0.13823596538E+04  0.00000000000E+00 0.  1.
          2   -1    0    0  501    0  0.00000000000E+00 -0.00000000000E+00 -0.16765947936E+04  0.16765947936E+04  0.00000000000E+00 0. -1.
         23    2    1    2    0    0 -0.25720200878E+03  0.10612345874E+04 -0.12106558970E+04  0.16334023694E+04  0.99718988361E+02 0.  0.
         13    1    3    3    0    0 -0.15849846586E+03  0.45858121562E+03 -0.50882896341E+03  0.70308278958E+03  0.00000000000E+00 0.  1.
        -13    1    3    3    0    0 -0.98703542915E+02  0.60265337178E+03 -0.70182693355E+03  0.93031957980E+03  0.00000000000E+00 0. -1.
         22    1    1    2    0    0  0.25720200878E+03 -0.10612345874E+04  0.91642075720E+03  0.14255520780E+04  0.00000000000E+00 0.  1.
<mgrwt>
<rscale>  0 0.30447706E+04</rscale>
<asrwt>0</asrwt>
<pdfrwt beam="1">  1        2 0.25793766E+00 0.30447706E+04</pdfrwt>
<pdfrwt beam="2">  1       -2 0.21267072E+00 0.30447706E+04</pdfrwt>
<totfact> 0.94876485E-01</totfact>
</mgrwt>
</event>
<event>
 6    1  0.2003386E-005  0.1999724E+04  0.7818608E-02  0.8606750E-01
         -2   -1    0    0    0  501 -0.00000000000E+00  0.00000000000E+00  0.17086520526E+04  0.17086520526E+04  0.00000000000E+00 0.  1.
          2   -1    0    0  501    0  0.00000000000E+00 -0.00000000000E+00 -0.58509497591E+03  0.58509497591E+03  0.00000000000E+00 0. -1.
         23    2    1    2    0    0 -0.41876827859E+03 -0.70179711930E+01  0.16017645593E+04  0.16580595900E+04  0.89976538664E+02 0.  0.
         13    1    3    3    0    0 -0.32541440190E+03  0.29096991876E+02  0.11627404907E+04  0.12077692729E+04  0.00000000000E+00 0.  1.
        -13    1    3    3    0    0 -0.93353876688E+02 -0.36114963069E+02  0.43902406857E+03  0.45029031705E+03  0.00000000000E+00 0. -1.
         22    1    1    2    0    0  0.41876827859E+03  0.70179711930E+01 -0.47820748260E+03  0.63568743851E+03  0.00000000000E+00 0. -1.
<mgrwt>
<rscale>  0 0.19997237E+04</rscale>
<asrwt>0</asrwt>
<pdfrwt beam="1">  1        2 0.90014612E-01 0.19997237E+04</pdfrwt>
<pdfrwt beam="2">  1       -2 0.26286954E+00 0.19997237E+04</pdfrwt>
<totfact> 0.25454142E+00</totfact>
</mgrwt>
</event>
<event>
 6    1  0.2112737E-005  0.3482591E+04  0.7818608E-02  0.8117928E-01
          2   -1    0    0  501    0  0.00000000000E+00  0.00000000000E+00  0.17956096045E+04  0.17956096045E+04  0.00000000000E+00 0. -1.
         -2   -1    0    0    0  501 -0.00000000000E+00 -0.00000000000E+00 -0.16886241538E+04  0.16886241538E+04  0.00000000000E+00 0.  1.
         23    2    1    2    0    0 -0.71946161806E+03 -0.11995178170E+04  0.10890580660E+04  0.17751595542E+04  0.93144826102E+02 0.  0.
         11    1    3    3    0    0 -0.18558856411E+03 -0.23697468404E+03  0.24464488253E+03  0.38788043848E+03  0.00000000000E+00 0. -1.
        -11    1    3    3    0    0 -0.53387305395E+03 -0.96254313292E+03  0.84441318352E+03  0.13872791157E+04  0.00000000000E+00 0.  1.
         22    1    1    2    0    0  0.71946161806E+03  0.11995178170E+04 -0.98207261543E+03  0.17090742041E+04  0.00000000000E+00 0.  1.
<mgrwt>
<rscale>  0 0.34825908E+04</rscale>
<asrwt>0</asrwt>
<pdfrwt beam="1">  1        2 0.27624763E+00 0.34825908E+04</pdfrwt>
<pdfrwt beam="2">  1       -2 0.25978833E+00 0.34825908E+04</pdfrwt>
<totfact> 0.39959063E-01</totfact>
</mgrwt>
</event>
<event>
 6    1  0.2003386E-005  0.1472674E+04  0.7818608E-02  0.8902830E-01
         -2   -1    0    0    0  501 -0.00000000000E+00  0.00000000000E+00  0.32713317520E+03  0.32713317520E+03  0.00000000000E+00 0.  1.
          2   -1    0    0  501    0  0.00000000000E+00 -0.00000000000E+00 -0.16574061405E+04  0.16574061405E+04  0.00000000000E+00 0. -1.
         23    2    1    2    0    0  0.19610684643E+03 -0.24035831522E+03 -0.15636357236E+04  0.15963535459E+04  0.84604683341E+02 0.  0.
         13    1    3    3    0    0  0.88192233803E+02 -0.16692628842E+03 -0.83043495890E+03  0.85162461028E+03  0.00000000000E+00 0. -1.
        -13    1    3    3    0    0  0.10791461262E+03 -0.73432026791E+02 -0.73320076470E+03  0.74472893561E+03  0.00000000000E+00 0.  1.
         22    1    1    2    0    0 -0.19610684643E+03  0.24035831522E+03  0.23336275831E+03  0.38818576980E+03  0.00000000000E+00 0.  1.
<mgrwt>
<rscale>  0 0.14726745E+04</rscale>
<asrwt>0</asrwt>
<pdfrwt beam="1">  1        2 0.25498556E+00 0.14726745E+04</pdfrwt>
<pdfrwt beam="2">  1       -2 0.50328181E-01 0.14726745E+04</pdfrwt>
<totfact> 0.37438623E+01</totfact>
</mgrwt>
</event>
<event>
 6    1  0.2003386E-005  0.2695697E+04  0.7818608E-02  0.8336402E-01
          2   -1    0    0  501    0  0.00000000000E+00  0.00000000000E+00  0.25256422063E+04  0.25256422063E+04  0.00000000000E+00 0. -1.
         -2   -1    0    0    0  501 -0.00000000000E+00 -0.00000000000E+00 -0.71930057098E+03  0.71930057098E+03  0.00000000000E+00 0.  1.
         23    2    1    2    0    0 -0.22485850058E+03  0.10946742590E+04  0.35882271186E+00  0.11211614801E+04  0.90165720517E+02 0.  0.
         13    1    3    3    0    0 -0.20517036965E+03  0.85170066336E+03  0.22797211561E+02  0.87636100632E+03  0.00000000000E+00 0. -1.
        -13    1    3    3    0    0 -0.19688130931E+02  0.24297359566E+03 -0.22438388849E+02  0.24480047382E+03  0.00000000000E+00 0.  1.
         22    1    1    2    0    0  0.22485850058E+03 -0.10946742590E+04  0.18059828126E+04  0.21237812971E+04  0.00000000000E+00 0. -1.
<mgrwt>
<rscale>  0 0.26956972E+04</rscale>
<asrwt>0</asrwt>
<pdfrwt beam="1">  1        2 0.38856033E+00 0.26956972E+04</pdfrwt>
<pdfrwt beam="2">  1       -2 0.11066163E+00 0.26956972E+04</pdfrwt>
<totfact> 0.19110426E+00</totfact>
</mgrwt>
</event>
<event>
 6    1  0.2003386E-005  0.4820082E+04  0.7818608E-02  0.7856877E-01
          2   -1    0    0  501    0  0.00000000000E+00  0.00000000000E+00  0.25443521274E+04  0.25443521274E+04  0.00000000000E+00 0. -1.
         -2   -1    0    0    0  501 -0.00000000000E+00 -0.00000000000E+00 -0.22828196871E+04  0.22828196871E+04  0.00000000000E+00 0.  1.
         23    2    1    2    0    0 -0.20747161506E+04 -0.12237368605E+04  0.82583895824E+02  0.24118040184E+04  0.89440004204E+02 0.  0.
         11    1    3    3    0    0 -0.10695530217E+04 -0.58006651228E+03  0.32421524949E+02  0.12171573358E+04  0.00000000000E+00 0. -1.
        -11    1    3    3    0    0 -0.10051631289E+04 -0.64367034823E+03  0.50162370875E+02  0.11946466826E+04  0.00000000000E+00 0.  1.
         22    1    1    2    0    0  0.20747161506E+04  0.12237368605E+04  0.17894854448E+03  0.24153677962E+04  0.00000000000E+00 0. -1.
<mgrwt>
<rscale>  0 0.48200818E+04</rscale>
<asrwt>0</asrwt>
<pdfrwt beam="1">  1        2 0.39143879E+00 0.48200818E+04</pdfrwt>
<pdfrwt beam="2">  1       -2 0.35120303E+00 0.48200818E+04</pdfrwt>
<totfact> 0.37038304E-02</totfact>
</mgrwt>
</event>
<event>
 6    1  0.2003386E-005  0.3637644E+04  0.7818608E-02  0.8081923E-01
         -2   -1    0    0    0  501 -0.00000000000E+00  0.00000000000E+00  0.10037019718E+04  0.10037019718E+04  0.00000000000E+00 0.  1.
          2   -1    0    0  501    0  0.00000000000E+00 -0.00000000000E+00 -0.32959123504E+04  0.32959123504E+04  0.00000000000E+00 0. -1.
         23    2    1    2    0    0 -0.12789913601E+04  0.83360935095E+03  0.19309191432E+02  0.15294435383E+04  0.90006904084E+02 0.  0.
         11    1    3    3    0    0 -0.63764350036E+03  0.36696016625E+03 -0.97398978962E+01  0.73576073745E+03  0.00000000000E+00 0.  1.
        -11    1    3    3    0    0 -0.64134785972E+03  0.46664918470E+03  0.29049089329E+02  0.79368280083E+03  0.00000000000E+00 0. -1.
         22    1    1    2    0    0  0.12789913601E+04 -0.83360935095E+03 -0.23115195701E+04  0.27701707839E+04  0.00000000000E+00 0. -1.
<mgrwt>
<rscale>  0 0.36376441E+04</rscale>
<asrwt>0</asrwt>
<pdfrwt beam="1">  1        2 0.50706344E+00 0.36376441E+04</pdfrwt>
<pdfrwt beam="2">  1       -2 0.15441569E+00 0.36376441E+04</pdfrwt>
<totfact> 0.25225128E-01</totfact>
</mgrwt>
</event>
<event>
 6    1  0.2003386E-005  0.1322014E+04  0.7818608E-02  0.9012287E-01
          2   -1    0    0  501    0  0.00000000000E+00  0.00000000000E+00  0.15566468544E+04  0.15566468544E+04  0.00000000000E+00 0. -1.
         -2   -1    0    0    0  501 -0.00000000000E+00 -0.00000000000E+00 -0.28068696436E+03  0.28068696436E+03  0.00000000000E+00 0.  1.
         23    2    1    2    0    0 -0.44781356537E+03 -0.44125869738E+03  0.37225568866E+03  0.73645802606E+03  0.92465664225E+02 0.  0.
         11    1    3    3    0    0 -0.59471542715E+02 -0.49451802465E+02  0.13783837220E+02  0.78564236955E+02  0.00000000000E+00 0. -1.
        -11    1    3    3    0    0 -0.38834202266E+03 -0.39180689492E+03  0.35847185144E+03  0.65789378910E+03  0.00000000000E+00 0.  1.
         22    1    1    2    0    0  0.44781356537E+03  0.44125869738E+03  0.90370420140E+03  0.11008757927E+04  0.00000000000E+00 0. -1.
<mgrwt>
<rscale>  0 0.13220143E+04</rscale>
<asrwt>0</asrwt>
<pdfrwt beam="1">  1        2 0.23948413E+00 0.13220143E+04</pdfrwt>
<pdfrwt beam="2">  1       -2 0.43182611E-01 0.13220143E+04</pdfrwt>
<totfact> 0.58673152E+01</totfact>
</mgrwt>
</event>
<event>
 6    1  0.2003386E-005  0.2212289E+04  0.7818608E-02  0.8513330E-01
          2   -1    0    0  501    0  0.00000000000E+00  0.00000000000E+00  0.47058473882E+04  0.47058473882E+04  0.00000000000E+00 0. -1.
         -2   -1    0    0    0  501 -0.00000000000E+00 -0.00000000000E+00 -0.26000754079E+03  0.26000754079E+03  0.00000000000E+00 0.  1.
         23    2    1    2    0    0  0.63208001985E+03  0.67605558026E+03  0.35788470272E+04  0.36976858356E+04  0.90322731319E+02 0.  0.
         13    1    3    3    0    0  0.32146371489E+03  0.31194230032E+03  0.15734151345E+04  0.16359346271E+04  0.00000000000E+00 0.  1.
        -13    1    3    3    0    0  0.31061630496E+03  0.36411327994E+03  0.20054318927E+04  0.20617512085E+04  0.00000000000E+00 0. -1.
         22    1    1    2    0    0 -0.63208001985E+03 -0.67605558026E+03  0.86699282027E+03  0.12681690934E+04  0.00000000000E+00 0.  1.
<mgrwt>
<rscale>  0 0.22122891E+04</rscale>
<asrwt>0</asrwt>
<pdfrwt beam="1">  1        2 0.72397646E+00 0.22122891E+04</pdfrwt>
<pdfrwt beam="2">  1       -2 0.40001163E-01 0.22122891E+04</pdfrwt>
<totfact> 0.41404871E-01</totfact>
</mgrwt>
</event>
<event>
 6    1  0.2003386E-005  0.4215138E+04  0.7818608E-02  0.7962499E-01
          2   -1    0    0  501    0  0.00000000000E+00  0.00000000000E+00  0.34910592447E+04  0.34910592447E+04  0.00000000000E+00 0. -1.
         -2   -1    0    0    0  501 -0.00000000000E+00 -0.00000000000E+00 -0.12723496764E+04  0.12723496764E+04  0.00000000000E+00 0.  1.
         23    2    1    2    0    0 -0.35093358201E+03  0.11195197342E+04 -0.86761783998E+03  0.14616070364E+04  0.83997609750E+02 0.  0.
         13    1    3    3    0    0 -0.19446670675E+03  0.48158596459E+03 -0.38813131643E+03  0.64837354983E+03  0.00000000000E+00 0.  1.
        -13    1    3    3    0    0 -0.15646687526E+03  0.63793376961E+03 -0.47948652355E+03  0.81323348660E+03  0.00000000000E+00 0. -1.
         22    1    1    2    0    0  0.35093358201E+03 -0.11195197342E+04  0.30863274083E+04  0.33018018846E+04  0.00000000000E+00 0. -1.
<mgrwt>
<rscale>  0 0.42151385E+04</rscale>
<asrwt>0</asrwt>
<pdfrwt beam="1">  1        2 0.53708603E+00 0.42151385E+04</pdfrwt>
<pdfrwt beam="2">  1       -2 0.19574611E+00 0.42151385E+04</pdfrwt>
<totfact> 0.90567503E-02</totfact>
</mgrwt>
</event>
<event>
 6    1  0.2003386E-005  0.2853631E+04  0.7818608E-02  0.8286809E-01
          2   -1    0    0  501    0  0.00000000000E+00  0.00000000000E+00  0.13391410483E+04  0.13391410483E+04  0.00000000000E+00 0. -1.
         -2   -1    0    0    0  501 -0.00000000000E+00 -0.00000000000E+00 -0.15202297355E+04  0.15202297355E+04  0.00000000000E+00 0.  1.
         23    2    1    2    0    0  0.39481748551E+03  0.10778446224E+04 -0.93732070879E+03  0.14847738438E+04  0.91396824043E+02 0.  0.
         13    1    3    3    0    0  0.41114753325E+02  0.18999492982E+03 -0.18674448459E+03  0.26955889676E+03  0.00000000000E+00 0. -1.
        -13    1    3    3    0    0  0.35370273218E+03  0.88784969254E+03 -0.75057622420E+03  0.12152149471E+04  0.00000000000E+00 0.  1.
         22    1    1    2    0    0 -0.39481748551E+03 -0.10778446224E+04  0.75623202155E+03  0.13745969399E+04  0.00000000000E+00 0. -1.
<mgrwt>
<rscale>  0 0.28536307E+04</rscale>
<asrwt>0</asrwt>
<pdfrwt beam="1">  1        2 0.20602170E+00 0.28536307E+04</pdfrwt>
<pdfrwt beam="2">  1       -2 0.23388150E+00 0.28536307E+04</pdfrwt>
<totfact> 0.10988834E+00</totfact>
</mgrwt>
</event>
<event>
 6    1  0.2003386E-005  0.2743676E+04  0.7818608E-02  0.8320971E-01
         -2   -1    0    0    0  501 -0.00000000000E+00  0.00000000000E+00  0.74537647531E+03  0.74537647531E+03  0.00000000000E+00 0.  1.
          2   -1    0    0  501    0  0.00000000000E+00 -0.00000000000E+00 -0.25248177346E+04  0.25248177346E+04  0.00000000000E+00 0. -1.
         23    2    1    2    0    0  0.10382528726E+04 -0.17088248972E+03 -0.19370288311E+04  0.22062375870E+04  0.90739986862E+02 0.  0.
         13    1    3    3    0    0  0.19496048386E+03 -0.57602727036E+02 -0.42893714215E+03  0.47467329432E+03  0.00000000000E+00 0. -1.
        -13    1    3    3    0    0  0.84329238872E+03 -0.11327976268E+03 -0.15080916889E+04  0.17315642927E+04  0.00000000000E+00 0.  1.
         22    1    1    2    0    0 -0.10382528726E+04  0.17088248972E+03  0.15758757175E+03  0.10639566229E+04  0.00000000000E+00 0.  1.
<mgrwt>
<rscale>  0 0.27436762E+04</rscale>
<asrwt>0</asrwt>
<pdfrwt beam="1">  1        2 0.38843350E+00 0.27436762E+04</pdfrwt>
<pdfrwt beam="2">  1       -2 0.11467330E+00 0.27436762E+04</pdfrwt>
<totfact> 0.17474339E+00</totfact>
</mgrwt>
</event>
<event>
 6    1  0.2003386E-005  0.2145517E+04  0.7818608E-02  0.8541454E-01
         -2   -1    0    0    0  501 -0.00000000000E+00  0.00000000000E+00  0.80532873851E+03  0.80532873851E+03  0.00000000000E+00 0.  1.
          2   -1    0    0  501    0  0.00000000000E+00 -0.00000000000E+00 -0.14289949840E+04  0.14289949840E+04  0.00000000000E+00 0. -1.
         23    2    1    2    0    0 -0.51451165560E+03 -0.97724121456E+02  0.66046127758E+03  0.84750875894E+03  0.88259558282E+02 0.  0.
         13    1    3    3    0    0 -0.18080843950E+03 -0.27867711219E+02  0.16686608949E+03  0.24761379797E+03  0.00000000000E+00 0. -1.
        -13    1    3    3    0    0 -0.33370321609E+03 -0.69856410237E+02  0.49359518809E+03  0.59989496097E+03  0.00000000000E+00 0.  1.
         22    1    1    2    0    0  0.51451165560E+03  0.97724121456E+02 -0.12841275230E+04  0.13868149635E+04  0.00000000000E+00 0. -1.
<mgrwt>
<rscale>  0 0.21455169E+04</rscale>
<asrwt>0</asrwt>
<pdfrwt beam="1">  1        2 0.21984538E+00 0.21455169E+04</pdfrwt>
<pdfrwt beam="2">  1       -2 0.12389673E+00 0.21455169E+04</pdfrwt>
<totfact> 0.62708301E+00</totfact>
</mgrwt>
</event>
<event>
 6    1  0.2003386E-005  0.1393783E+04  0.7818608E-02  0.8958331E-01
          1   -1    0    0  501    0  0.00000000000E+00  0.00000000000E+00  0.12222655754E+04  0.12222655754E+04  0.00000000000E+00 0. -1.
         -1   -1    0    0    0  501 -0.00000000000E+00 -0.00000000000E+00 -0.39734250462E+03  0.39734250462E+03  0.00000000000E+00 0.  1.
         23    2    1    2    0    0  0.57569726086E+03 -0.27362876348E+03  0.95403322682E+02  0.65084644823E+03  0.90549814061E+02 0.  0.
         13    1    3    3    0    0  0.36448956593E+03 -0.21784347156E+03  0.48201903675E+02  0.42735447265E+03  0.00000000000E+00 0. -1.
        -13    1    3    3    0    0  0.21120769494E+03 -0.55785291917E+02  0.47201419007E+02  0.22349197558E+03  0.00000000000E+00 0.  1.
         22    1    1    2    0    0 -0.57569726086E+03  0.27362876348E+03  0.72951974808E+03  0.96876163178E+03  0.00000000000E+00 0. -1.
<mgrwt>
<rscale>  0 0.13937834E+04</rscale>
<asrwt>0</asrwt>
<pdfrwt beam="1">  1        1 0.18804086E+00 0.13937834E+04</pdfrwt>
<pdfrwt beam="2">  1       -1 0.61129617E-01 0.13937834E+04</pdfrwt>
<totfact> 0.27251483E+01</totfact>
</mgrwt>
</event>
<event>
 6    1  0.2003386E-005  0.2456689E+04  0.7818608E-02  0.8418580E-01
         -2   -1    0    0    0  501 -0.00000000000E+00  0.00000000000E+00  0.59233660639E+03  0.59233660639E+03  0.00000000000E+00 0.  1.
          2   -1    0    0  501    0  0.00000000000E+00 -0.00000000000E+00 -0.25472508857E+04  0.25472508857E+04  0.00000000000E+00 0. -1.
         23    2    1    2    0    0 -0.34088552300E+03 -0.76074576735E+03  0.17034485475E+03  0.85668069390E+03  0.99736550098E+02 0.  0.
         11    1    3    3    0    0 -0.19833799308E+03 -0.47330798005E+03  0.15240269525E+03  0.53533632886E+03  0.00000000000E+00 0. -1.
        -11    1    3    3    0    0 -0.14254752992E+03 -0.28743778731E+03  0.17942159501E+02  0.32134436504E+03  0.00000000000E+00 0.  1.
         22    1    1    2    0    0  0.34088552300E+03  0.76074576735E+03 -0.21252591340E+04  0.22829067982E+04  0.00000000000E+00 0. -1.
<mgrwt>
<rscale>  0 0.24566888E+04</rscale>
<asrwt>0</asrwt>
<pdfrwt beam="1">  1        2 0.39188475E+00 0.24566888E+04</pdfrwt>
<pdfrwt beam="2">  1       -2 0.91128709E-01 0.24566888E+04</pdfrwt>
<totfact> 0.30025902E+00</totfact>
</mgrwt>
</event>
<event>
 6    1  0.2003386E-005  0.4423416E+04  0.7818608E-02  0.7924183E-01
         -2   -1    0    0    0  501 -0.00000000000E+00  0.00000000000E+00  0.17983675034E+04  0.17983675034E+04  0.00000000000E+00 0. -1.
          2   -1    0    0  501    0  0.00000000000E+00 -0.00000000000E+00 -0.27200513001E+04  0.27200513001E+04  0.00000000000E+00 0.  1.
         23    2    1    2    0    0 -0.14790419030E+03  0.11754255060E+04  0.14455262630E+04  0.18713101475E+04  0.93566668277E+02 0.  0.
         11    1    3    3    0    0 -0.15529875667E+03  0.97498018087E+03  0.11800465171E+04  0.15385752628E+04  0.00000000000E+00 0. -1.
        -11    1    3    3    0    0  0.73945663707E+01  0.20044532516E+03  0.26547974590E+03  0.33273488466E+03  0.00000000000E+00 0.  1.
         22    1    1    2    0    0  0.14790419030E+03 -0.11754255060E+04 -0.23672100597E+04  0.26471086560E+04  0.00000000000E+00 0. -1.
<mgrwt>
<rscale>  0 0.44234158E+04</rscale>
<asrwt>0</asrwt>
<pdfrwt beam="1">  1        2 0.41846943E+00 0.44234158E+04</pdfrwt>
<pdfrwt beam="2">  1       -2 0.27667192E+00 0.44234158E+04</pdfrwt>
<totfact> 0.86899367E-02</totfact>
</mgrwt>
</event>
<event>
 6    1  0.2003386E-005  0.3501655E+04  0.7818608E-02  0.8113398E-01
         -2   -1    0    0    0  501 -0.00000000000E+00  0.00000000000E+00  0.20955483803E+04  0.20955483803E+04  0.00000000000E+00 0.  1.
          2   -1    0    0  501    0  0.00000000000E+00 -0.00000000000E+00 -0.14628139228E+04  0.14628139228E+04  0.00000000000E+00 0. -1.
         23    2    1    2    0    0 -0.12519009978E+04 -0.14561698145E+03 -0.91734183892E+03  0.15605642807E+04  0.73378547102E+02 0.  0.
         11    1    3    3    0    0 -0.94576164449E+03 -0.78473564943E+02 -0.69546330677E+03  0.11765595606E+04  0.00000000000E+00 0. -1.
        -11    1    3    3    0    0 -0.30613935335E+03 -0.67143416508E+02 -0.22187853214E+03  0.38400472012E+03  0.00000000000E+00 0.  1.
         22    1    1    2    0    0  0.12519009978E+04  0.14561698145E+03  0.15500762964E+04  0.19977980224E+04  0.00000000000E+00 0.  1.
<mgrwt>
<rscale>  0 0.35016552E+04</rscale>
<asrwt>0</asrwt>
<pdfrwt beam="1">  1        2 0.22504829E+00 0.35016552E+04</pdfrwt>
<pdfrwt beam="2">  1       -2 0.32239206E+00 0.35016552E+04</pdfrwt>
<totfact> 0.25329502E-01</totfact>
</mgrwt>
</event>
<event>
 6    1  0.2003386E-005  0.1541049E+04  0.7818608E-02  0.8857606E-01
         -2   -1    0    0    0  501 -0.00000000000E+00  0.00000000000E+00  0.28192346659E+03  0.28192346659E+03  0.00000000000E+00 0.  1.
          2   -1    0    0  501    0  0.00000000000E+00 -0.00000000000E+00 -0.21059183658E+04  0.21059183658E+04  0.00000000000E+00 0. -1.
         23    2    1    2    0    0  0.63424941603E+03  0.24581512856E+03 -0.36325762027E+03  0.77649121962E+03  0.91022614272E+02 0.  0.
         11    1    3    3    0    0  0.58070740429E+02 -0.41204508531E+01 -0.29507704484E+02  0.65267860645E+02  0.00000000000E+00 0.  1.
        -11    1    3    3    0    0  0.57617867560E+03  0.24993557941E+03 -0.33374991578E+03  0.71122335898E+03  0.00000000000E+00 0. -1.
         22    1    1    2    0    0 -0.63424941603E+03 -0.24581512856E+03 -0.14607372789E+04  0.16113506128E+04  0.00000000000E+00 0. -1.
<mgrwt>
<rscale>  0 0.15410487E+04</rscale>
<asrwt>0</asrwt>
<pdfrwt beam="1">  1        2 0.32398744E+00 0.15410487E+04</pdfrwt>
<pdfrwt beam="2">  1       -2 0.43372842E-01 0.15410487E+04</pdfrwt>
<totfact> 0.28328094E+01</totfact>
</mgrwt>
</event>
<event>
 6    1  0.2374773E-005  0.2256886E+04  0.7818608E-02  0.8495117E-01
          2   -1    0    0  501    0  0.00000000000E+00  0.00000000000E+00  0.82961594369E+03  0.82961594369E+03  0.00000000000E+00 0. -1.
         -2   -1    0    0    0  501 -0.00000000000E+00 -0.00000000000E+00 -0.15349066811E+04  0.15349066811E+04  0.00000000000E+00 0.  1.
         23    2    1    2    0    0  0.57600573825E+02  0.50073625810E+03 -0.14088272562E+04  0.14990642148E+04  0.91349089053E+02 0.  0.
         13    1    3    3    0    0  0.74920086306E+02  0.28563428030E+03 -0.76379874569E+03  0.81889467292E+03  0.00000000000E+00 0. -1.
        -13    1    3    3    0    0 -0.17319512482E+02  0.21510197779E+03 -0.64502851047E+03  0.68016954186E+03  0.00000000000E+00 0.  1.
         22    1    1    2    0    0 -0.57600573825E+02 -0.50073625810E+03  0.70353651873E+03  0.86545841002E+03  0.00000000000E+00 0. -1.
<mgrwt>
<rscale>  0 0.22568855E+04</rscale>
<asrwt>0</asrwt>
<pdfrwt beam="1">  1        2 0.12763322E+00 0.22568855E+04</pdfrwt>
<pdfrwt beam="2">  1       -2 0.23613949E+00 0.22568855E+04</pdfrwt>
<totfact> 0.23356174E+00</totfact>
</mgrwt>
</event>
<event>
 6    1  0.2003386E-005  0.1581641E+04  0.7818608E-02  0.8831907E-01
         -2   -1    0    0    0  501 -0.00000000000E+00  0.00000000000E+00  0.43702585699E+03  0.43702585699E+03  0.00000000000E+00 0.  1.
          2   -1    0    0  501    0  0.00000000000E+00 -0.00000000000E+00 -0.14310300356E+04  0.14310300356E+04  0.00000000000E+00 0. -1.
         23    2    1    2    0    0  0.58302791139E+03  0.78603445003E+02  0.11846081314E+03  0.60961304332E+03  0.10721497707E+03 0.  0.
         11    1    3    3    0    0  0.14434523892E+03 -0.19814387983E+02  0.43185971684E+01  0.14576284935E+03  0.00000000000E+00 0. -1.
        -11    1    3    3    0    0  0.43868267247E+03  0.98417832986E+02  0.11414221597E+03  0.46385019397E+03  0.00000000000E+00 0.  1.
         22    1    1    2    0    0 -0.58302791139E+03 -0.78603445003E+02 -0.11124649917E+04  0.12584428493E+04  0.00000000000E+00 0. -1.
<mgrwt>
<rscale>  0 0.15816411E+04</rscale>
<asrwt>0</asrwt>
<pdfrwt beam="1">  1        2 0.22015847E+00 0.15816411E+04</pdfrwt>
<pdfrwt beam="2">  1       -2 0.67234748E-01 0.15816411E+04</pdfrwt>
<totfact> 0.27069995E+01</totfact>
</mgrwt>
</event>
<event>
 6    1  0.2003386E-005  0.2303955E+04  0.7818608E-02  0.8476363E-01
          2   -1    0    0  501    0  0.00000000000E+00  0.00000000000E+00  0.84632241130E+03  0.84632241130E+03  0.00000000000E+00 0. -1.
         -2   -1    0    0    0  501 -0.00000000000E+00 -0.00000000000E+00 -0.15680216258E+04  0.15680216258E+04  0.00000000000E+00 0.  1.
         23    2    1    2    0    0  0.81666593290E+03 -0.79262544227E+03 -0.18796579477E+03  0.11573358028E+04  0.94322228288E+02 0.  0.
         13    1    3    3    0    0  0.60049208891E+03 -0.60110752205E+03 -0.17944566526E+03  0.86840183595E+03  0.00000000000E+00 0.  1.
        -13    1    3    3    0    0  0.21617384399E+03 -0.19151792022E+03 -0.85201295095E+01  0.28893396685E+03  0.00000000000E+00 0. -1.
         22    1    1    2    0    0 -0.81666593290E+03  0.79262544227E+03 -0.53373341970E+03  0.12570082343E+04  0.00000000000E+00 0. -1.
<mgrwt>
<rscale>  0 0.23039547E+04</rscale>
<asrwt>0</asrwt>
<pdfrwt beam="1">  1        2 0.13020345E+00 0.23039547E+04</pdfrwt>
<pdfrwt beam="2">  1       -2 0.24123409E+00 0.23039547E+04</pdfrwt>
<totfact> 0.21056084E+00</totfact>
</mgrwt>
</event>
<event>
 6    1  0.2003386E-005  0.5885085E+04  0.7818608E-02  0.7704815E-01
         -2   -1    0    0    0  501 -0.00000000000E+00  0.00000000000E+00  0.23608174101E+04  0.23608174101E+04  0.00000000000E+00 0.  1.
          2   -1    0    0  501    0  0.00000000000E+00 -0.00000000000E+00 -0.36676089663E+04  0.36676089663E+04  0.00000000000E+00 0. -1.
         23    2    1    2    0    0 -0.81490898952E+02  0.18116494479E+04  0.17192875771E+04  0.25005559975E+04  0.90089038396E+02 0.  0.
         11    1    3    3    0    0 -0.63553876786E+01  0.86134813853E+03  0.85920508268E+03  0.12166323935E+04  0.00000000000E+00 0.  1.
        -11    1    3    3    0    0 -0.75135511273E+02  0.95030130937E+03  0.86008249446E+03  0.12839236040E+04  0.00000000000E+00 0. -1.
         22    1    1    2    0    0  0.81490898952E+02 -0.18116494479E+04 -0.30260791334E+04  0.35278703789E+04  0.00000000000E+00 0. -1.
<mgrwt>
<rscale>  0 0.58850846E+04</rscale>
<asrwt>0</asrwt>
<pdfrwt beam="1">  1        2 0.56424753E+00 0.58850846E+04</pdfrwt>
<pdfrwt beam="2">  1       -2 0.36320268E+00 0.58850846E+04</pdfrwt>
<totfact> 0.53584073E-03</totfact>
</mgrwt>
</event>
<event>
 6    1  0.2003386E-005  0.2838544E+04  0.7818608E-02  0.8291401E-01
          1   -1    0    0  501    0  0.00000000000E+00  0.00000000000E+00  0.89437228572E+03  0.89437228572E+03  0.00000000000E+00 0. -1.
         -1   -1    0    0    0  501 -0.00000000000E+00 -0.00000000000E+00 -0.22522309419E+04  0.22522309419E+04  0.00000000000E+00 0.  1.
         23    2    1    2    0    0 -0.11771331531E+04 -0.53392878514E+03 -0.33338094644E+02  0.12959068382E+04  0.86837187069E+02 0.  0.
         13    1    3    3    0    0 -0.70668548596E+03 -0.27667245045E+03 -0.42600391697E+01  0.75892698518E+03  0.00000000000E+00 0. -1.
        -13    1    3    3    0    0 -0.47044766715E+03 -0.25725633470E+03 -0.29078055474E+02  0.53697985304E+03  0.00000000000E+00 0.  1.
         22    1    1    2    0    0  0.11771331531E+04  0.53392878514E+03 -0.13245205615E+04  0.18506963893E+04  0.00000000000E+00 0.  1.
<mgrwt>
<rscale>  0 0.28385439E+04</rscale>
<asrwt>0</asrwt>
<pdfrwt beam="1">  1        1 0.13759574E+00 0.28385439E+04</pdfrwt>
<pdfrwt beam="2">  1       -1 0.34649706E+00 0.28385439E+04</pdfrwt>
<totfact> 0.26007828E-01</totfact>
</mgrwt>
</event>
<event>
 6    1  0.2003386E-005  0.4135507E+04  0.7818608E-02  0.7977755E-01
         -2   -1    0    0    0  501 -0.00000000000E+00  0.00000000000E+00  0.36485178392E+04  0.36485178392E+04  0.00000000000E+00 0. -1.
          2   -1    0    0  501    0  0.00000000000E+00 -0.00000000000E+00 -0.11718743986E+04  0.11718743986E+04  0.00000000000E+00 0.  1.
         23    2    1    2    0    0  0.56615897882E+02  0.61541348196E+03  0.35377258066E+04  0.35924529473E+04  0.90968026571E+02 0.  0.
         13    1    3    3    0    0 -0.14497408189E+02  0.30874975303E+03  0.16629623659E+04  0.16914432935E+04  0.00000000000E+00 0. -1.
        -13    1    3    3    0    0  0.71113306071E+02  0.30666372893E+03  0.18747634407E+04  0.19010096537E+04  0.00000000000E+00 0.  1.
         22    1    1    2    0    0 -0.56615897882E+02 -0.61541348196E+03 -0.10610823661E+04  0.12279392905E+04  0.00000000000E+00 0.  1.
<mgrwt>
<rscale>  0 0.41355071E+04</rscale>
<asrwt>0</asrwt>
<pdfrwt beam="1">  1        2 0.18028837E+00 0.41355071E+04</pdfrwt>
<pdfrwt beam="2">  1       -2 0.56131043E+00 0.41355071E+04</pdfrwt>
<totfact> 0.11537454E-02</totfact>
</mgrwt>
</event>
<event>
 6    1  0.2003386E-005  0.4827035E+04  0.7818608E-02  0.7855757E-01
          2   -1    0    0  501    0  0.00000000000E+00  0.00000000000E+00  0.27145497882E+04  0.27145497882E+04  0.00000000000E+00 0. -1.
         -2   -1    0    0    0  501 -0.00000000000E+00 -0.00000000000E+00 -0.21458688502E+04  0.21458688502E+04  0.00000000000E+00 0.  1.
         23    2    1    2    0    0 -0.19390796725E+04 -0.14323190604E+04  0.38604509546E+03  0.24427909339E+04  0.81417837324E+02 0.  0.
         13    1    3    3    0    0 -0.20436703022E+03 -0.17566341873E+03  0.59627238913E+02  0.27600530310E+03  0.00000000000E+00 0.  1.
        -13    1    3    3    0    0 -0.17347126422E+04 -0.12566556417E+04  0.32641785654E+03  0.21667856308E+04  0.00000000000E+00 0. -1.
         22    1    1    2    0    0  0.19390796725E+04  0.14323190604E+04  0.18263584256E+03  0.24176277046E+04  0.00000000000E+00 0. -1.
<mgrwt>
<rscale>  0 0.48270355E+04</rscale>
<asrwt>0</asrwt>
<pdfrwt beam="1">  1        2 0.41762305E+00 0.48270355E+04</pdfrwt>
<pdfrwt beam="2">  1       -2 0.33013367E+00 0.48270355E+04</pdfrwt>
<totfact> 0.39800981E-02</totfact>
</mgrwt>
</event>
<event>
 6    1  0.2003386E-005  0.1040266E+04  0.7818608E-02  0.9265452E-01
         -2   -1    0    0    0  501 -0.00000000000E+00  0.00000000000E+00  0.83246271024E+02  0.83246271024E+02  0.00000000000E+00 0.  1.
          2   -1    0    0  501    0  0.00000000000E+00 -0.00000000000E+00 -0.32498569413E+04  0.32498569413E+04  0.00000000000E+00 0. -1.
         23    2    1    2    0    0  0.16554537326E+03  0.28800465347E+03 -0.28610463937E+04  0.28817480549E+04  0.92376587370E+02 0.  0.
         13    1    3    3    0    0  0.98432028489E+02  0.24692609389E+03 -0.22557716172E+04  0.22713799658E+04  0.00000000000E+00 0.  1.
        -13    1    3    3    0    0  0.67113344770E+02  0.41078559579E+02 -0.60527477646E+03  0.61036808905E+03  0.00000000000E+00 0. -1.
         22    1    1    2    0    0 -0.16554537326E+03 -0.28800465347E+03 -0.30556427657E+03  0.45135515744E+03  0.00000000000E+00 0.  1.
<mgrwt>
<rscale>  0 0.10402663E+04</rscale>
<asrwt>0</asrwt>
<pdfrwt beam="1">  1        2 0.49997790E+00 0.10402663E+04</pdfrwt>
<pdfrwt beam="2">  1       -2 0.12807121E-01 0.10402663E+04</pdfrwt>
<totfact> 0.56452871E+01</totfact>
</mgrwt>
</event>
<event>
 6    1  0.2003386E-005  0.3359023E+04  0.7818608E-02  0.8148037E-01
         -2   -1    0    0    0  501 -0.00000000000E+00  0.00000000000E+00  0.75555083748E+03  0.75555083748E+03  0.00000000000E+00 0.  1.
          2   -1    0    0  501    0  0.00000000000E+00 -0.00000000000E+00 -0.37333816486E+04  0.37333816486E+04  0.00000000000E+00 0. -1.
         23    2    1    2    0    0 -0.21787569187E+03  0.13886641630E+04 -0.27154160883E+04  0.30589956129E+04  0.90064712046E+02 0.  0.
         13    1    3    3    0    0 -0.10544569628E+02  0.29242804710E+03 -0.58770750462E+03  0.65652529400E+03  0.00000000000E+00 0. -1.
        -13    1    3    3    0    0 -0.20733112224E+03  0.10962361159E+04 -0.21277085837E+04  0.24024703189E+04  0.00000000000E+00 0.  1.
         22    1    1    2    0    0  0.21787569187E+03 -0.13886641630E+04 -0.26241472282E+03  0.14299368732E+04  0.00000000000E+00 0.  1.
<mgrwt>
<rscale>  0 0.33590234E+04</rscale>
<asrwt>0</asrwt>
<pdfrwt beam="1">  1        2 0.57436641E+00 0.33590234E+04</pdfrwt>
<pdfrwt beam="2">  1       -2 0.11623859E+00 0.33590234E+04</pdfrwt>
<totfact> 0.26273276E-01</totfact>
</mgrwt>
</event>
<event>
 6    1  0.2003386E-005  0.1831273E+04  0.7818608E-02  0.8689844E-01
          2   -1    0    0  501    0  0.00000000000E+00  0.00000000000E+00  0.48096725381E+03  0.48096725381E+03  0.00000000000E+00 0. -1.
         -2   -1    0    0    0  501 -0.00000000000E+00 -0.00000000000E+00 -0.17431328840E+04  0.17431328840E+04  0.00000000000E+00 0.  1.
         23    2    1    2    0    0  0.48010268261E+03 -0.66962601977E+03 -0.15392492515E+03  0.84312401474E+03  0.90926505716E+02 0.  0.
         11    1    3    3    0    0  0.30949020610E+03 -0.35505707668E+03 -0.81409518189E+02  0.47799291316E+03  0.00000000000E+00 0.  1.
        -11    1    3    3    0    0  0.17061247651E+03 -0.31456894309E+03 -0.72515406960E+02  0.36513110158E+03  0.00000000000E+00 0. -1.
         22    1    1    2    0    0 -0.48010268261E+03  0.66962601977E+03 -0.11082407051E+04  0.13809761231E+04  0.00000000000E+00 0.  1.
<mgrwt>
<rscale>  0 0.18312726E+04</rscale>
<asrwt>0</asrwt>
<pdfrwt beam="1">  1        2 0.73994962E-01 0.18312726E+04</pdfrwt>
<pdfrwt beam="2">  1       -2 0.26817429E+00 0.18312726E+04</pdfrwt>
<totfact> 0.30179409E+00</totfact>
</mgrwt>
</event>
<event>
 6    1  0.2003386E-005  0.1113068E+04  0.7818608E-02  0.9192548E-01
         -2   -1    0    0    0  501 -0.00000000000E+00  0.00000000000E+00  0.37861133880E+03  0.37861133880E+03  0.00000000000E+00 0.  1.
          2   -1    0    0  501    0  0.00000000000E+00 -0.00000000000E+00 -0.81806893926E+03  0.81806893926E+03  0.00000000000E+00 0. -1.
         23    2    1    2    0    0 -0.14691772916E+03  0.50176297396E+03 -0.29280373247E+02  0.53215318387E+03  0.94756370091E+02 0.  0.
         11    1    3    3    0    0 -0.46898432582E+02  0.17765540270E+03  0.34680653702E+02  0.18698570220E+03  0.00000000000E+00 0.  1.
        -11    1    3    3    0    0 -0.10001929658E+03  0.32410757126E+03 -0.63961026948E+02  0.34516748167E+03  0.00000000000E+00 0. -1.
         22    1    1    2    0    0  0.14691772916E+03 -0.50176297396E+03 -0.41017722722E+03  0.66452709418E+03  0.00000000000E+00 0.  1.
<mgrwt>
<rscale>  0 0.11130681E+04</rscale>
<asrwt>0</asrwt>
<pdfrwt beam="1">  1        2 0.12585676E+00 0.11130681E+04</pdfrwt>
<pdfrwt beam="2">  1       -2 0.58247899E-01 0.11130681E+04</pdfrwt>
<totfact> 0.91470524E+01</totfact>
</mgrwt>
</event>
<event>
 6    1  0.2003386E-005  0.7919011E+03  0.7818608E-02  0.9571815E-01
          2   -1    0    0  501    0  0.00000000000E+00  0.00000000000E+00  0.12613214278E+04  0.12613214278E+04  0.00000000000E+00 0. -1.
         -2   -1    0    0    0  501 -0.00000000000E+00 -0.00000000000E+00 -0.12429569536E+03  0.12429569536E+03  0.00000000000E+00 0.  1.
         23    2    1    2    0    0  0.38226536868E+03 -0.79888252363E+02  0.57459593038E+03  0.70090095774E+03  0.92696949166E+02 0.  0.
         13    1    3    3    0    0  0.24051057916E+03 -0.55080348228E+01  0.36532433606E+03  0.43742147598E+03  0.00000000000E+00 0.  1.
        -13    1    3    3    0    0  0.14175478952E+03 -0.74380217541E+02  0.20927159433E+03  0.26347948176E+03  0.00000000000E+00 0. -1.
         22    1    1    2    0    0 -0.38226536868E+03  0.79888252363E+02  0.56242980211E+03  0.68471616547E+03  0.00000000000E+00 0.  1.
<mgrwt>
<rscale>  0 0.79190106E+03</rscale>
<asrwt>0</asrwt>
<pdfrwt beam="1">  1        2 0.19404944E+00 0.79190106E+03</pdfrwt>
<pdfrwt beam="2">  1       -2 0.19122416E-01 0.79190106E+03</pdfrwt>
<totfact> 0.40485055E+02</totfact>
</mgrwt>
</event>
<event>
 6    1  0.2003386E-005  0.1433997E+04  0.7818608E-02  0.8929571E-01
          2   -1    0    0  501    0  0.00000000000E+00  0.00000000000E+00  0.25344428184E+04  0.25344428184E+04  0.00000000000E+00 0. -1.
         -2   -1    0    0    0  501 -0.00000000000E+00 -0.00000000000E+00 -0.20284016985E+03  0.20284016985E+03  0.00000000000E+00 0.  1.
         23    2    1    2    0    0  0.31763724023E+03  0.25627015928E+03  0.52014642566E+02  0.42144851923E+03  0.91353819841E+02 0.  0.
         13    1    3    3    0    0  0.12914242451E+03  0.15825118656E+03  0.43395894058E+02  0.20881668391E+03  0.00000000000E+00 0. -1.
        -13    1    3    3    0    0  0.18849481572E+03  0.98018972717E+02  0.86187485080E+01  0.21263183532E+03  0.00000000000E+00 0.  1.
         22    1    1    2    0    0 -0.31763724023E+03 -0.25627015928E+03  0.22795880059E+04  0.23158344690E+04  0.00000000000E+00 0. -1.
<mgrwt>
<rscale>  0 0.14339969E+04</rscale>
<asrwt>0</asrwt>
<pdfrwt beam="1">  1        2 0.38991426E+00 0.14339969E+04</pdfrwt>
<pdfrwt beam="2">  1       -2 0.31206182E-01 0.14339969E+04</pdfrwt>
<totfact> 0.30852096E+01</totfact>
</mgrwt>
</event>
<event>
 6    1  0.2003386E-005  0.2478458E+04  0.7818608E-02  0.8410700E-01
          2   -1    0    0  501    0  0.00000000000E+00  0.00000000000E+00  0.20621657716E+04  0.20621657716E+04  0.00000000000E+00 0. -1.
         -2   -1    0    0    0  501 -0.00000000000E+00 -0.00000000000E+00 -0.74469680726E+03  0.74469680726E+03  0.00000000000E+00 0.  1.
         23    2    1    2    0    0 -0.75924731284E+03 -0.55581166706E+03  0.15699734842E+04  0.18326235816E+04  0.91155687679E+02 0.  0.
         11    1    3    3    0    0 -0.43876687227E+03 -0.27118492893E+03  0.89754181951E+03  0.10351999573E+04  0.00000000000E+00 0.  1.
        -11    1    3    3    0    0 -0.32048044057E+03 -0.28462673814E+03  0.67243166468E+03  0.79742362425E+03  0.00000000000E+00 0. -1.
         22    1    1    2    0    0  0.75924731284E+03  0.55581166706E+03 -0.25250451984E+03  0.97423899729E+03  0.00000000000E+00 0.  1.
<mgrwt>
<rscale>  0 0.24784578E+04</rscale>
<asrwt>0</asrwt>
<pdfrwt beam="1">  1        2 0.31725627E+00 0.24784578E+04</pdfrwt>
<pdfrwt beam="2">  1       -2 0.11456874E+00 0.24784578E+04</pdfrwt>
<totfact> 0.32797742E+00</totfact>
</mgrwt>
</event>
<event>
 6    1  0.2003386E-005  0.3529788E+04  0.7818608E-02  0.8106767E-01
         -1   -1    0    0    0  501 -0.00000000000E+00  0.00000000000E+00  0.15438729989E+04  0.15438729989E+04  0.00000000000E+00 0.  1.
          1   -1    0    0  501    0  0.00000000000E+00 -0.00000000000E+00 -0.20175561088E+04  0.20175561088E+04  0.00000000000E+00 0. -1.
         23    2    1    2    0    0 -0.43467108183E+03 -0.50118951244E+03 -0.18858154225E+04  0.20012215751E+04  0.91967973524E+02 0.  0.
         11    1    3    3    0    0 -0.15974909019E+03 -0.21276383047E+03 -0.88048692495E+03  0.91980728655E+03  0.00000000000E+00 0.  1.
        -11    1    3    3    0    0 -0.27492199164E+03 -0.28842568197E+03 -0.10053284975E+04  0.10814142885E+04  0.00000000000E+00 0. -1.
         22    1    1    2    0    0  0.43467108183E+03  0.50118951244E+03  0.14121323125E+04  0.15602075326E+04  0.00000000000E+00 0.  1.
<mgrwt>
<rscale>  0 0.35297878E+04</rscale>
<asrwt>0</asrwt>
<pdfrwt beam="1">  1        1 0.31039324E+00 0.35297878E+04</pdfrwt>
<pdfrwt beam="2">  1       -1 0.23751893E+00 0.35297878E+04</pdfrwt>
<totfact> 0.19864026E-01</totfact>
</mgrwt>
</event>
<event>
 6    1  0.2003386E-005  0.8728093E+03  0.7818608E-02  0.9460224E-01
         -1   -1    0    0    0  501 -0.00000000000E+00  0.00000000000E+00  0.12988083193E+03  0.12988083193E+03  0.00000000000E+00 0.  1.
          1   -1    0    0  501    0  0.00000000000E+00 -0.00000000000E+00 -0.14663366510E+04  0.14663366510E+04  0.00000000000E+00 0. -1.
         23    2    1    2    0    0  0.39729856810E+03  0.16862703319E+03 -0.67041618672E+03  0.80256137326E+03  0.91464014213E+02 0.  0.
         13    1    3    3    0    0  0.22935444636E+03  0.63642242692E+02 -0.42586257198E+03  0.48786548078E+03  0.00000000000E+00 0. -1.
        -13    1    3    3    0    0  0.16794412174E+03  0.10498479050E+03 -0.24455361473E+03  0.31469589248E+03  0.00000000000E+00 0.  1.
         22    1    1    2    0    0 -0.39729856810E+03 -0.16862703319E+03 -0.66603963231E+03  0.79365610963E+03  0.00000000000E+00 0. -1.
<mgrwt>
<rscale>  0 0.87280931E+03</rscale>
<asrwt>0</asrwt>
<pdfrwt beam="1">  1        1 0.22559026E+00 0.87280931E+03</pdfrwt>
<pdfrwt beam="2">  1       -1 0.19981666E-01 0.87280931E+03</pdfrwt>
<totfact> 0.14285289E+02</totfact>
</mgrwt>
</event>
<event>
 6    1  0.2003386E-005  0.2721204E+04  0.7818608E-02  0.8328158E-01
         -2   -1    0    0    0  501 -0.00000000000E+00  0.00000000000E+00  0.14916113328E+04  0.14916113328E+04  0.00000000000E+00 0.  1.
          2   -1    0    0  501    0  0.00000000000E+00 -0.00000000000E+00 -0.12410991392E+04  0.12410991392E+04  0.00000000000E+00 0. -1.
         23    2    1    2    0    0 -0.70827050291E+03 -0.42635513825E+03 -0.95782135709E+03  0.12686422431E+04  0.92766264236E+02 0.  0.
         11    1    3    3    0    0 -0.37451811903E+03 -0.22202715124E+03 -0.43361957524E+03  0.61448011636E+03  0.00000000000E+00 0.  1.
        -11    1    3    3    0    0 -0.33375238388E+03 -0.20432798701E+03 -0.52420178185E+03  0.65416212678E+03  0.00000000000E+00 0. -1.
         22    1    1    2    0    0  0.70827050291E+03  0.42635513825E+03  0.12083335507E+04  0.14640682289E+04  0.00000000000E+00 0.  1.
<mgrwt>
<rscale>  0 0.27212038E+04</rscale>
<asrwt>0</asrwt>
<pdfrwt beam="1">  1        2 0.19093833E+00 0.27212038E+04</pdfrwt>
<pdfrwt beam="2">  1       -2 0.22947867E+00 0.27212038E+04</pdfrwt>
<totfact> 0.13506834E+00</totfact>
</mgrwt>
</event>
<event>
 6    1  0.2003386E-005  0.1981620E+04  0.7818608E-02  0.8615262E-01
          1   -1    0    0  501    0  0.00000000000E+00  0.00000000000E+00  0.12956363320E+04  0.12956363320E+04  0.00000000000E+00 0. -1.
         -1   -1    0    0    0  501 -0.00000000000E+00 -0.00000000000E+00 -0.75770065700E+03  0.75770065700E+03  0.00000000000E+00 0.  1.
         23    2    1    2    0    0 -0.21515758981E+03 -0.76291290088E+03  0.88173153975E+03  0.11893205080E+04  0.93294586625E+02 0.  0.
         13    1    3    3    0    0 -0.21135590855E+02 -0.21333461650E+03  0.26322463693E+03  0.33947839590E+03  0.00000000000E+00 0. -1.
        -13    1    3    3    0    0 -0.19402199895E+03 -0.54957828438E+03  0.61850690282E+03  0.84984211214E+03  0.00000000000E+00 0.  1.
         22    1    1    2    0    0  0.21515758981E+03  0.76291290088E+03 -0.34379586473E+03  0.86401648097E+03  0.00000000000E+00 0.  1.
<mgrwt>
<rscale>  0 0.19816200E+04</rscale>
<asrwt>0</asrwt>
<pdfrwt beam="1">  1        1 0.19932867E+00 0.19816200E+04</pdfrwt>
<pdfrwt beam="2">  1       -1 0.11656933E+00 0.19816200E+04</pdfrwt>
<totfact> 0.56242144E+00</totfact>
</mgrwt>
</event>
<event>
 6    1  0.2003386E-005  0.6369460E+03  0.7818608E-02  0.9831587E-01
         -2   -1    0    0    0  501 -0.00000000000E+00  0.00000000000E+00  0.11362325975E+03  0.11362325975E+03  0.00000000000E+00 0.  1.
          2   -1    0    0  501    0  0.00000000000E+00 -0.00000000000E+00 -0.89264328769E+03  0.89264328769E+03  0.00000000000E+00 0. -1.
         23    2    1    2    0    0  0.15181217372E+03  0.17545326757E+03 -0.69346345453E+02  0.25962907128E+03  0.93635216855E+02 0.  0.
         11    1    3    3    0    0  0.54731833789E+02  0.89554780472E+02 -0.76388845537E+02  0.12981097048E+03  0.00000000000E+00 0. -1.
        -11    1    3    3    0    0  0.97080339936E+02  0.85898487097E+02  0.70425000840E+01  0.12981810080E+03  0.00000000000E+00 0.  1.
         22    1    1    2    0    0 -0.15181217372E+03 -0.17545326757E+03 -0.70967368248E+03  0.74663747615E+03  0.00000000000E+00 0. -1.
<mgrwt>
<rscale>  0 0.63694596E+03</rscale>
<asrwt>0</asrwt>
<pdfrwt beam="1">  1        2 0.13732974E+00 0.63694596E+03</pdfrwt>
<pdfrwt beam="2">  1       -2 0.17480501E-01 0.63694596E+03</pdfrwt>
<totfact> 0.80530489E+02</totfact>
</mgrwt>
</event>
<event>
 6    1  0.2003386E-005  0.2076053E+04  0.7818608E-02  0.8571866E-01
         -2   -1    0    0    0  501 -0.00000000000E+00  0.00000000000E+00  0.12413336807E+04  0.12413336807E+04  0.00000000000E+00 0.  1.
          2   -1    0    0  501    0  0.00000000000E+00 -0.00000000000E+00 -0.86801696981E+03  0.86801696981E+03  0.00000000000E+00 0. -1.
         23    2    1    2    0    0 -0.12730972668E+02 -0.97083910912E+03 -0.18016077341E+03  0.99175144727E+03  0.91773500610E+02 0.  0.
         11    1    3    3    0    0 -0.29617293750E+02 -0.63357411529E+03 -0.78572366905E+02  0.63911419989E+03  0.00000000000E+00 0.  1.
        -11    1    3    3    0    0  0.16886321082E+02 -0.33726499383E+03 -0.10158840650E+03  0.35263724738E+03  0.00000000000E+00 0. -1.
         22    1    1    2    0    0  0.12730972668E+02  0.97083910912E+03  0.55347748428E+03  0.11175992032E+04  0.00000000000E+00 0.  1.
<mgrwt>
<rscale>  0 0.20760527E+04</rscale>
<asrwt>0</asrwt>
<pdfrwt beam="1">  1        2 0.13354107E+00 0.20760527E+04</pdfrwt>
<pdfrwt beam="2">  1       -2 0.19097441E+00 0.20760527E+04</pdfrwt>
<totfact> 0.43456430E+00</totfact>
</mgrwt>
</event>
<event>
 6    1  0.2003386E-005  0.7352875E+03  0.7818608E-02  0.9658719E-01
         -2   -1    0    0    0  501 -0.00000000000E+00  0.00000000000E+00  0.23753707552E+03  0.23753707552E+03  0.00000000000E+00 0.  1.
          2   -1    0    0  501    0  0.00000000000E+00 -0.00000000000E+00 -0.56901407089E+03  0.56901407089E+03  0.00000000000E+00 0. -1.
         23    2    1    2    0    0 -0.14574628326E+03  0.75541687340E+02 -0.52225668704E+03  0.55486599316E+03  0.90419564271E+02 0.  0.
         13    1    3    3    0    0 -0.16813790488E+02  0.27661584674E+02 -0.22520274054E+03  0.22751734256E+03  0.00000000000E+00 0.  1.
        -13    1    3    3    0    0 -0.12893249277E+03  0.47880102666E+02 -0.29705394650E+03  0.32734865061E+03  0.00000000000E+00 0. -1.
         22    1    1    2    0    0  0.14574628326E+03 -0.75541687340E+02  0.19077969167E+03  0.25168515325E+03  0.00000000000E+00 0.  1.
<mgrwt>
<rscale>  0 0.73528753E+03</rscale>
<asrwt>0</asrwt>
<pdfrwt beam="1">  1        2 0.87540626E-01 0.73528753E+03</pdfrwt>
<pdfrwt beam="2">  1       -2 0.36544165E-01 0.73528753E+03</pdfrwt>
<totfact> 0.37530503E+02</totfact>
</mgrwt>
</event>
<event>
 6    1  0.2003386E-005  0.1532616E+04  0.7818608E-02  0.8863049E-01
          2   -1    0    0  501    0  0.00000000000E+00  0.00000000000E+00  0.53044051913E+03  0.53044051913E+03  0.00000000000E+00 0. -1.
         -2   -1    0    0    0  501 -0.00000000000E+00 -0.00000000000E+00 -0.11070569020E+04  0.11070569020E+04  0.00000000000E+00 0.  1.
         23    2    1    2    0    0 -0.28744348909E+03 -0.43938760981E+03 -0.88183013767E+03  0.10301748815E+04  0.89166494494E+02 0.  0.
         13    1    3    3    0    0 -0.14339745705E+03 -0.15262644974E+03 -0.39521219194E+03  0.44726987436E+03  0.00000000000E+00 0. -1.
        -13    1    3    3    0    0 -0.14404603204E+03 -0.28676116008E+03 -0.48661794573E+03  0.58290500717E+03  0.00000000000E+00 0.  1.
         22    1    1    2    0    0  0.28744348909E+03  0.43938760981E+03  0.30521375475E+03  0.60732253965E+03  0.00000000000E+00 0. -1.
<mgrwt>
<rscale>  0 0.15326159E+04</rscale>
<asrwt>0</asrwt>
<pdfrwt beam="1">  1        2 0.81606234E-01 0.15326159E+04</pdfrwt>
<pdfrwt beam="2">  1       -2 0.17031645E+00 0.15326159E+04</pdfrwt>
<totfact> 0.11730803E+01</totfact>
</mgrwt>
</event>
<event>
 6    1  0.2003386E-005  0.2572396E+04  0.7818608E-02  0.8377638E-01
          2   -1    0    0  501    0  0.00000000000E+00  0.00000000000E+00  0.14926432648E+04  0.14926432648E+04  0.00000000000E+00 0. -1.
         -2   -1    0    0    0  501 -0.00000000000E+00 -0.00000000000E+00 -0.11083062206E+04  0.11083062206E+04  0.00000000000E+00 0.  1.
         23    2    1    2    0    0 -0.94672433398E+03 -0.34348232036E+02 -0.68441654672E+03  0.11727684731E+04  0.97432625698E+02 0.  0.
         11    1    3    3    0    0 -0.76827279954E+03 -0.43147240808E+02 -0.59667974596E+03  0.97372044147E+03  0.00000000000E+00 0. -1.
        -11    1    3    3    0    0 -0.17845153444E+03  0.87990087720E+01 -0.87736800761E+02  0.19904803166E+03  0.00000000000E+00 0.  1.
         22    1    1    2    0    0  0.94672433398E+03  0.34348232036E+02  0.10687535909E+04  0.14281810122E+04  0.00000000000E+00 0. -1.
<mgrwt>
<rscale>  0 0.25723964E+04</rscale>
<asrwt>0</asrwt>
<pdfrwt beam="1">  1        2 0.22963742E+00 0.25723964E+04</pdfrwt>
<pdfrwt beam="2">  1       -2 0.17050865E+00 0.25723964E+04</pdfrwt>
<totfact> 0.24019660E+00</totfact>
</mgrwt>
</event>
<event>
 6    1  0.2003386E-005  0.9286997E+03  0.7818608E-02  0.9390400E-01
         -2   -1    0    0    0  501 -0.00000000000E+00  0.00000000000E+00  0.34913681188E+03  0.34913681188E+03  0.00000000000E+00 0.  1.
          2   -1    0    0  501    0  0.00000000000E+00 -0.00000000000E+00 -0.61758245351E+03  0.61758245351E+03  0.00000000000E+00 0. -1.
         23    2    1    2    0    0 -0.70325938278E+02 -0.25506297681E+03  0.25634438301E+03  0.37900553432E+03  0.89049944479E+02 0.  0.
         13    1    3    3    0    0 -0.41030304725E+02 -0.60319699803E+02  0.29730525759E+02  0.78777257200E+02  0.00000000000E+00 0. -1.
        -13    1    3    3    0    0 -0.29295633554E+02 -0.19474327700E+03  0.22661385725E+03  0.30022827712E+03  0.00000000000E+00 0.  1.
         22    1    1    2    0    0  0.70325938278E+02  0.25506297681E+03 -0.52479002464E+03  0.58771373107E+03  0.00000000000E+00 0. -1.
<mgrwt>
<rscale>  0 0.92869967E+03</rscale>
<asrwt>0</asrwt>
<pdfrwt beam="1">  1        2 0.95012685E-01 0.92869967E+03</pdfrwt>
<pdfrwt beam="2">  1       -2 0.53713356E-01 0.92869967E+03</pdfrwt>
<totfact> 0.15672472E+02</totfact>
</mgrwt>
</event>
<event>
 6    1  0.2003386E-005  0.2313828E+04  0.7818608E-02  0.8472489E-01
         -1   -1    0    0    0  501 -0.00000000000E+00  0.00000000000E+00  0.10188139493E+04  0.10188139493E+04  0.00000000000E+00 0.  1.
          1   -1    0    0  501    0  0.00000000000E+00 -0.00000000000E+00 -0.13137333776E+04  0.13137333776E+04  0.00000000000E+00 0. -1.
         23    2    1    2    0    0 -0.11463204236E+04 -0.32496252079E+02 -0.79539734019E+01  0.11504070255E+04  0.90920507481E+02 0.  0.
         13    1    3    3    0    0 -0.57472809816E+03 -0.44824814402E+02 -0.39394277121E+02  0.57781792969E+03  0.00000000000E+00 0. -1.
        -13    1    3    3    0    0 -0.57159232545E+03  0.12328562322E+02  0.31440303719E+02  0.57258909582E+03  0.00000000000E+00 0.  1.
         22    1    1    2    0    0  0.11463204236E+04  0.32496252079E+02 -0.28696545494E+03  0.11821403014E+04  0.00000000000E+00 0. -1.
<mgrwt>
<rscale>  0 0.23138279E+04</rscale>
<asrwt>0</asrwt>
<pdfrwt beam="1">  1        1 0.20211283E+00 0.23138279E+04</pdfrwt>
<pdfrwt beam="2">  1       -1 0.15674061E+00 0.23138279E+04</pdfrwt>
<totfact> 0.24708065E+00</totfact>
</mgrwt>
</event>
<event>
 6    1  0.2003386E-005  0.2882925E+04  0.7818608E-02  0.8277976E-01
          2   -1    0    0  501    0  0.00000000000E+00  0.00000000000E+00  0.11331225242E+04  0.11331225242E+04  0.00000000000E+00 0. -1.
         -2   -1    0    0    0  501 -0.00000000000E+00 -0.00000000000E+00 -0.18337061613E+04  0.18337061613E+04  0.00000000000E+00 0.  1.
         23    2    1    2    0    0  0.40948175736E+02 -0.40500936528E+03 -0.17720273404E+04  0.18206607447E+04  0.94949001257E+02 0.  0.
         11    1    3    3    0    0  0.12793928269E+02 -0.19994158601E+03 -0.10765354652E+04  0.10950200593E+04  0.00000000000E+00 0. -1.
        -11    1    3    3    0    0  0.28154247467E+02 -0.20506777927E+03 -0.69549187520E+03  0.72564068534E+03  0.00000000000E+00 0.  1.
         22    1    1    2    0    0 -0.40948175736E+02  0.40500936528E+03  0.10714437034E+04  0.11461679408E+04  0.00000000000E+00 0. -1.
<mgrwt>
<rscale>  0 0.28829247E+04</rscale>
<asrwt>0</asrwt>
<pdfrwt beam="1">  1        2 0.17432654E+00 0.28829247E+04</pdfrwt>
<pdfrwt beam="2">  1       -2 0.28210864E+00 0.28829247E+04</pdfrwt>
<totfact> 0.73453768E-01</totfact>
</mgrwt>
</event>
<event>
 6    1  0.2003386E-005  0.7533938E+03  0.7818608E-02  0.9630041E-01
          2   -1    0    0  501    0  0.00000000000E+00  0.00000000000E+00  0.21282625115E+03  0.21282625115E+03  0.00000000000E+00 0. -1.
         -2   -1    0    0    0  501 -0.00000000000E+00 -0.00000000000E+00 -0.66674365392E+03  0.66674365392E+03  0.00000000000E+00 0.  1.
         23    2    1    2    0    0  0.21790820100E+03 -0.19962861622E+03  0.32060496103E+02  0.31079043403E+03  0.90704189534E+02 0.  0.
         13    1    3    3    0    0  0.15188526083E+03 -0.17221895847E+03  0.54233043701E+02  0.23594432636E+03  0.00000000000E+00 0. -1.
        -13    1    3    3    0    0  0.66022940170E+02 -0.27409657758E+02 -0.22172547598E+02  0.74846107675E+02  0.00000000000E+00 0.  1.
         22    1    1    2    0    0 -0.21790820100E+03  0.19962861622E+03 -0.48597789887E+03  0.56877947103E+03  0.00000000000E+00 0.  1.
<mgrwt>
<rscale>  0 0.75339379E+03</rscale>
<asrwt>0</asrwt>
<pdfrwt beam="1">  1        2 0.32742501E-01 0.75339379E+03</pdfrwt>
<pdfrwt beam="2">  1       -2 0.10257595E+00 0.75339379E+03</pdfrwt>
<totfact> 0.12644388E+02</totfact>
</mgrwt>
</event>
<event>
 6    1  0.2003386E-005  0.2285060E+04  0.7818608E-02  0.8483835E-01
          2   -1    0    0  501    0  0.00000000000E+00  0.00000000000E+00  0.62564159122E+03  0.62564159122E+03  0.00000000000E+00 0.  1.
         -2   -1    0    0    0  501 -0.00000000000E+00 -0.00000000000E+00 -0.20864569976E+04  0.20864569976E+04  0.00000000000E+00 0. -1.
         23    2    1    2    0    0  0.54653383294E+03  0.45336971389E+02  0.45551984486E+03  0.71883607056E+03  0.92045074585E+02 0.  0.
         13    1    3    3    0    0  0.36968175044E+03  0.91440598104E+01  0.25592365201E+03  0.44971671761E+03  0.00000000000E+00 0. -1.
        -13    1    3    3    0    0  0.17685208250E+03  0.36192911578E+02  0.19959619285E+03  0.26911935295E+03  0.00000000000E+00 0.  1.
         22    1    1    2    0    0 -0.54653383294E+03 -0.45336971389E+02 -0.19163352513E+04  0.19932625183E+04  0.00000000000E+00 0. -1.
<mgrwt>
<rscale>  0 0.22850595E+04</rscale>
<asrwt>0</asrwt>
<pdfrwt beam="1">  1        2 0.96252554E-01 0.22850595E+04</pdfrwt>
<pdfrwt beam="2">  1       -2 0.32099338E+00 0.22850595E+04</pdfrwt>
<totfact> 0.10107050E+00</totfact>
</mgrwt>
</event>
<event>
 6    1  0.2003386E-005  0.1924045E+04  0.7818608E-02  0.8642979E-01
         -2   -1    0    0    0  501 -0.00000000000E+00  0.00000000000E+00  0.26408848132E+04  0.26408848132E+04  0.00000000000E+00 0.  1.
          2   -1    0    0  501    0  0.00000000000E+00 -0.00000000000E+00 -0.35044592501E+03  0.35044592501E+03  0.00000000000E+00 0. -1.
         23    2    1    2    0    0  0.47072022002E+03  0.32213467961E+03 -0.52433925401E+02  0.58002376937E+03  0.91268719464E+02 0.  0.
         11    1    3    3    0    0  0.29952459299E+03  0.25633638590E+03 -0.37051864859E+02  0.39597495531E+03  0.00000000000E+00 0. -1.
        -11    1    3    3    0    0  0.17119562703E+03  0.65798293713E+02 -0.15382060542E+02  0.18404881406E+03  0.00000000000E+00 0.  1.
         22    1    1    2    0    0 -0.47072022002E+03 -0.32213467961E+03  0.23428728136E+04  0.24113069688E+04  0.00000000000E+00 0.  1.
<mgrwt>
<rscale>  0 0.19240450E+04</rscale>
<asrwt>0</asrwt>
<pdfrwt beam="1">  1        2 0.53914759E-01 0.19240450E+04</pdfrwt>
<pdfrwt beam="2">  1       -2 0.40628996E+00 0.19240450E+04</pdfrwt>
<totfact> 0.58431657E-01</totfact>
</mgrwt>
</event>
<event>
 6    1  0.2003386E-005  0.1288578E+04  0.7818608E-02  0.9038672E-01
         -2   -1    0    0    0  501 -0.00000000000E+00  0.00000000000E+00  0.51645566337E+03  0.51645566337E+03  0.00000000000E+00 0. -1.
          2   -1    0    0  501    0  0.00000000000E+00 -0.00000000000E+00 -0.80376401906E+03  0.80376401906E+03  0.00000000000E+00 0.  1.
         23    2    1    2    0    0  0.15963410763E+03 -0.41358944705E+03 -0.61886467559E+03  0.76662337437E+03  0.90435791618E+02 0.  0.
         13    1    3    3    0    0  0.72102231691E+02 -0.19665042253E+03 -0.21675930629E+03  0.30142116276E+03  0.00000000000E+00 0.  1.
        -13    1    3    3    0    0  0.87531875940E+02 -0.21693902452E+03 -0.40210536931E+03  0.46520221161E+03  0.00000000000E+00 0. -1.
         22    1    1    2    0    0 -0.15963410763E+03  0.41358944705E+03  0.33155631991E+03  0.55359630806E+03  0.00000000000E+00 0. -1.
<mgrwt>
<rscale>  0 0.12885783E+04</rscale>
<asrwt>0</asrwt>
<pdfrwt beam="1">  1        2 0.12365600E+00 0.12885783E+04</pdfrwt>
<pdfrwt beam="2">  1       -2 0.79454718E-01 0.12885783E+04</pdfrwt>
<totfact> 0.47155174E+01</totfact>
</mgrwt>
</event>
<event>
 6    1  0.2003386E-005  0.2179848E+04  0.7818608E-02  0.8526863E-01
         -2   -1    0    0    0  501 -0.00000000000E+00  0.00000000000E+00  0.69977194274E+03  0.69977194274E+03  0.00000000000E+00 0.  1.
          2   -1    0    0  501    0  0.00000000000E+00 -0.00000000000E+00 -0.16976022560E+04  0.16976022560E+04  0.00000000000E+00 0. -1.
         23    2    1    2    0    0 -0.62351092771E+03 -0.86554367394E+03 -0.26206623979E+03  0.11015036418E+04  0.81852491685E+02 0.  0.
         11    1    3    3    0    0 -0.25414759860E+03 -0.38521158520E+03 -0.76470056234E+02  0.46778909430E+03  0.00000000000E+00 0. -1.
        -11    1    3    3    0    0 -0.36936332910E+03 -0.48033208874E+03 -0.18559618356E+03  0.63371454750E+03  0.00000000000E+00 0.  1.
         22    1    1    2    0    0  0.62351092771E+03  0.86554367394E+03 -0.73576407343E+03  0.12958705569E+04  0.00000000000E+00 0.  1.
<mgrwt>
<rscale>  0 0.21798481E+04</rscale>
<asrwt>0</asrwt>
<pdfrwt beam="1">  1        2 0.26116957E+00 0.21798481E+04</pdfrwt>
<pdfrwt beam="2">  1       -2 0.10765722E+00 0.21798481E+04</pdfrwt>
<totfact> 0.62341462E+00</totfact>
</mgrwt>
</event>
<event>
 6    1  0.2003386E-005  0.1704593E+04  0.7818608E-02  0.8758749E-01
          2   -1    0    0  501    0  0.00000000000E+00  0.00000000000E+00  0.17194579428E+04  0.17194579428E+04  0.00000000000E+00 0. -1.
         -2   -1    0    0    0  501 -0.00000000000E+00 -0.00000000000E+00 -0.42246403027E+03  0.42246403027E+03  0.00000000000E+00 0.  1.
         23    2    1    2    0    0 -0.68559228765E+03 -0.23075284758E+03  0.12109580896E+04  0.14134401103E+04  0.90054366566E+02 0.  0.
         11    1    3    3    0    0 -0.34480208371E+03 -0.77959081852E+02  0.64105611116E+03  0.73206491039E+03  0.00000000000E+00 0.  1.
        -11    1    3    3    0    0 -0.34079020394E+03 -0.15279376573E+03  0.56990197846E+03  0.68137519988E+03  0.00000000000E+00 0. -1.
         22    1    1    2    0    0  0.68559228765E+03  0.23075284758E+03  0.86035822870E+02  0.72848186276E+03  0.00000000000E+00 0.  1.
<mgrwt>
<rscale>  0 0.17045928E+04</rscale>
<asrwt>0</asrwt>
<pdfrwt beam="1">  1        2 0.26453199E+00 0.17045928E+04</pdfrwt>
<pdfrwt beam="2">  1       -2 0.64994467E-01 0.17045928E+04</pdfrwt>
<totfact> 0.19865298E+01</totfact>
</mgrwt>
</event>
<event>
 6    1  0.2003386E-005  0.2261528E+04  0.7818608E-02  0.8493246E-01
         -2   -1    0    0    0  501 -0.00000000000E+00  0.00000000000E+00  0.16064314870E+04  0.16064314870E+04  0.00000000000E+00 0.  1.
          2   -1    0    0  501    0  0.00000000000E+00 -0.00000000000E+00 -0.79594252266E+03  0.79594252266E+03  0.00000000000E+00 0. -1.
         23    2    1    2    0    0 -0.55317057816E+03  0.87065206893E+03 -0.81944375530E+02  0.10383835479E+04  0.86560950487E+02 0.  0.
         13    1    3    3    0    0 -0.25533355029E+03  0.48176897681E+03 -0.48861491931E+02  0.54743402736E+03  0.00000000000E+00 0.  1.
        -13    1    3    3    0    0 -0.29783702787E+03  0.38888309212E+03 -0.33082883599E+02  0.49094952051E+03  0.00000000000E+00 0. -1.
         22    1    1    2    0    0  0.55317057816E+03 -0.87065206893E+03  0.89243333983E+03  0.13639904617E+04  0.00000000000E+00 0.  1.
<mgrwt>
<rscale>  0 0.22615279E+04</rscale>
<asrwt>0</asrwt>
<pdfrwt beam="1">  1        2 0.12245270E+00 0.22615279E+04</pdfrwt>
<pdfrwt beam="2">  1       -2 0.24714330E+00 0.22615279E+04</pdfrwt>
<totfact> 0.21102224E+00</totfact>
</mgrwt>
</event>
<event>
 6    1  0.2003386E-005  0.3259225E+04  0.7818608E-02  0.8173349E-01
          2   -1    0    0  501    0  0.00000000000E+00  0.00000000000E+00  0.42501612843E+04  0.42501612843E+04  0.00000000000E+00 0. -1.
         -2   -1    0    0    0  501 -0.00000000000E+00 -0.00000000000E+00 -0.62483186186E+03  0.62483186186E+03  0.00000000000E+00 0.  1.
         23    2    1    2    0    0  0.12407614380E+04 -0.67358704314E+03  0.60009436575E+03  0.15365420683E+04  0.87406115987E+02 0.  0.
         13    1    3    3    0    0  0.50273972122E+03 -0.22737098846E+03  0.25007270880E+03  0.60578969402E+03  0.00000000000E+00 0.  1.
        -13    1    3    3    0    0  0.73802171682E+03 -0.44621605468E+03  0.35002165695E+03  0.93075237431E+03  0.00000000000E+00 0. -1.
         22    1    1    2    0    0 -0.12407614380E+04  0.67358704314E+03  0.30252350567E+04  0.33384510778E+04  0.00000000000E+00 0. -1.
<mgrwt>
<rscale>  0 0.32592246E+04</rscale>
<asrwt>0</asrwt>
<pdfrwt beam="1">  1        2 0.65387095E+00 0.32592246E+04</pdfrwt>
<pdfrwt beam="2">  1       -2 0.96127982E-01 0.32592246E+04</pdfrwt>
<totfact> 0.15925710E-01</totfact>
</mgrwt>
</event>
<event>
 6    1  0.2003386E-005  0.1980603E+04  0.7818608E-02  0.8615743E-01
         -2   -1    0    0    0  501 -0.00000000000E+00  0.00000000000E+00  0.13910753327E+04  0.13910753327E+04  0.00000000000E+00 0.  1.
          2   -1    0    0  501    0  0.00000000000E+00 -0.00000000000E+00 -0.70499230228E+03  0.70499230228E+03  0.00000000000E+00 0. -1.
         23    2    1    2    0    0  0.30460981870E+03  0.93993029324E+03  0.36210197232E+03  0.10562504280E+04  0.91055096261E+02 0.  0.
         13    1    3    3    0    0  0.98815993825E+02  0.33827089216E+03  0.17466791583E+03  0.39332007060E+03  0.00000000000E+00 0.  1.
        -13    1    3    3    0    0  0.20579382488E+03  0.60165940109E+03  0.18743405649E+03  0.66293035743E+03  0.00000000000E+00 0. -1.
         22    1    1    2    0    0 -0.30460981870E+03 -0.93993029324E+03  0.32398105807E+03  0.10398172069E+04  0.00000000000E+00 0.  1.
<mgrwt>
<rscale>  0 0.19806033E+04</rscale>
<asrwt>0</asrwt>
<pdfrwt beam="1">  1        2 0.10846035E+00 0.19806033E+04</pdfrwt>
<pdfrwt beam="2">  1       -2 0.21401159E+00 0.19806033E+04</pdfrwt>
<totfact> 0.40748782E+00</totfact>
</mgrwt>
</event>
<event>
 6    1  0.2003386E-005  0.1549045E+04  0.7818608E-02  0.8852478E-01
         -1   -1    0    0    0  501 -0.00000000000E+00  0.00000000000E+00  0.54217980434E+03  0.54217980434E+03  0.00000000000E+00 0.  1.
          1   -1    0    0  501    0  0.00000000000E+00 -0.00000000000E+00 -0.11064315610E+04  0.11064315610E+04  0.00000000000E+00 0. -1.
         23    2    1    2    0    0  0.49530330068E+03 -0.34777386663E+03 -0.79303306591E+03  0.10016083441E+04  0.89698435876E+02 0.  0.
         13    1    3    3    0    0  0.27656980372E+03 -0.22318167662E+03 -0.40213663777E+03  0.53667009657E+03  0.00000000000E+00 0.  1.
        -13    1    3    3    0    0  0.21873349695E+03 -0.12459219001E+03 -0.39089642813E+03  0.46493824755E+03  0.00000000000E+00 0. -1.
         22    1    1    2    0    0 -0.49530330068E+03  0.34777386663E+03  0.22878130927E+03  0.64700302120E+03  0.00000000000E+00 0.  1.
<mgrwt>
<rscale>  0 0.15490447E+04</rscale>
<asrwt>0</asrwt>
<pdfrwt beam="1">  1        1 0.17022024E+00 0.15490447E+04</pdfrwt>
<pdfrwt beam="2">  1       -1 0.83412278E-01 0.15490447E+04</pdfrwt>
<totfact> 0.17231704E+01</totfact>
</mgrwt>
</event>
<event>
 6    1  0.2003386E-005  0.1327266E+04  0.7818608E-02  0.9008218E-01
          1   -1    0    0  501    0  0.00000000000E+00  0.00000000000E+00  0.18049577428E+04  0.18049577428E+04  0.00000000000E+00 0. -1.
         -1   -1    0    0    0  501 -0.00000000000E+00 -0.00000000000E+00 -0.24399958916E+03  0.24399958916E+03  0.00000000000E+00 0.  1.
         23    2    1    2    0    0 -0.39074038314E+03 -0.34917929129E+03  0.16358873678E+03  0.55656143553E+03  0.91624954240E+02 0.  0.
         13    1    3    3    0    0 -0.22490404253E+03 -0.23658783326E+03  0.63622942682E+02  0.33257106012E+03  0.00000000000E+00 0. -1.
        -13    1    3    3    0    0 -0.16583634062E+03 -0.11259145802E+03  0.99965794098E+02  0.22399037542E+03  0.00000000000E+00 0.  1.
         22    1    1    2    0    0  0.39074038314E+03  0.34917929129E+03  0.13973694169E+04  0.14923958965E+04  0.00000000000E+00 0. -1.
<mgrwt>
<rscale>  0 0.13272663E+04</rscale>
<asrwt>0</asrwt>
<pdfrwt beam="1">  1        1 0.27768580E+00 0.13272663E+04</pdfrwt>
<pdfrwt beam="2">  1       -1 0.37538399E-01 0.13272663E+04</pdfrwt>
<totfact> 0.27119599E+01</totfact>
</mgrwt>
</event>
<event>
 6    1  0.2003386E-005  0.8951069E+03  0.7818608E-02  0.9431719E-01
          2   -1    0    0  501    0  0.00000000000E+00  0.00000000000E+00  0.76075107427E+03  0.76075107427E+03  0.00000000000E+00 0. -1.
         -2   -1    0    0    0  501 -0.00000000000E+00 -0.00000000000E+00 -0.26329778748E+03  0.26329778748E+03  0.00000000000E+00 0.  1.
         23    2    1    2    0    0 -0.81344467625E+02  0.47246838628E+02  0.74641590433E+03  0.75790684871E+03  0.91852615109E+02 0.  0.
         13    1    3    3    0    0  0.28909178529E+01  0.31858432085E+02  0.82385867527E+02  0.88378437807E+02  0.00000000000E+00 0. -1.
        -13    1    3    3    0    0 -0.84235385477E+02  0.15388406543E+02  0.66403003680E+03  0.66952841090E+03  0.00000000000E+00 0.  1.
         22    1    1    2    0    0  0.81344467625E+02 -0.47246838628E+02 -0.24896261754E+03  0.26614201304E+03  0.00000000000E+00 0.  1.
<mgrwt>
<rscale>  0 0.89510686E+03</rscale>
<asrwt>0</asrwt>
<pdfrwt beam="1">  1        2 0.11703863E+00 0.89510686E+03</pdfrwt>
<pdfrwt beam="2">  1       -2 0.40507352E-01 0.89510686E+03</pdfrwt>
<totfact> 0.21292921E+02</totfact>
</mgrwt>
</event>
<event>
 6    1  0.2003386E-005  0.3373124E+04  0.7818608E-02  0.8144534E-01
          2   -1    0    0  501    0  0.00000000000E+00  0.00000000000E+00  0.11948519348E+04  0.11948519348E+04  0.00000000000E+00 0. -1.
         -2   -1    0    0    0  501 -0.00000000000E+00 -0.00000000000E+00 -0.23806229493E+04  0.23806229493E+04  0.00000000000E+00 0.  1.
         23    2    1    2    0    0 -0.29795914744E+03  0.51842652328E+03  0.10767503057E+04  0.12352722351E+04  0.94660235877E+02 0.  0.
         13    1    3    3    0    0 -0.25985547188E+03  0.44777895612E+03  0.85602229404E+03  0.10004024329E+04  0.00000000000E+00 0. -1.
        -13    1    3    3    0    0 -0.38103675561E+02  0.70647567161E+02  0.22072801171E+03  0.23486980221E+03  0.00000000000E+00 0.  1.
         22    1    1    2    0    0  0.29795914744E+03 -0.51842652328E+03 -0.22625213202E+04  0.23402026489E+04  0.00000000000E+00 0.  1.
<mgrwt>
<rscale>  0 0.33731243E+04</rscale>
<asrwt>0</asrwt>
<pdfrwt beam="1">  1        2 0.18382338E+00 0.33731243E+04</pdfrwt>
<pdfrwt beam="2">  1       -2 0.36624968E+00 0.33731243E+04</pdfrwt>
<totfact> 0.19420456E-01</totfact>
</mgrwt>
</event>
<event>
 6    1  0.2003386E-005  0.3679455E+04  0.7818608E-02  0.8072530E-01
         -2   -1    0    0    0  501 -0.00000000000E+00  0.00000000000E+00  0.20923829166E+04  0.20923829166E+04  0.00000000000E+00 0.  1.
          2   -1    0    0  501    0  0.00000000000E+00 -0.00000000000E+00 -0.16175805230E+04  0.16175805230E+04  0.00000000000E+00 0. -1.
         23    2    1    2    0    0  0.80657421675E+03  0.15682932092E+04 -0.28672294161E+03  0.17890192984E+04  0.90963990441E+02 0.  0.
         11    1    3    3    0    0  0.33552303894E+03  0.55648115964E+03 -0.10541530771E+03  0.65830037049E+03  0.00000000000E+00 0.  1.
        -11    1    3    3    0    0  0.47105117782E+03  0.10118120496E+04 -0.18130763390E+03  0.11307189279E+04  0.00000000000E+00 0. -1.
         22    1    1    2    0    0 -0.80657421675E+03 -0.15682932092E+04  0.76152533523E+03  0.19209441412E+04  0.00000000000E+00 0.  1.
<mgrwt>
<rscale>  0 0.36794553E+04</rscale>
<asrwt>0</asrwt>
<pdfrwt beam="1">  1        2 0.24885854E+00 0.36794553E+04</pdfrwt>
<pdfrwt beam="2">  1       -2 0.32190507E+00 0.36794553E+04</pdfrwt>
<totfact> 0.20568617E-01</totfact>
</mgrwt>
</event>
<event>
 6    1  0.2003386E-005  0.2106342E+04  0.7818608E-02  0.8558455E-01
         -2   -1    0    0    0  501 -0.00000000000E+00  0.00000000000E+00  0.65016555699E+03  0.65016555699E+03  0.00000000000E+00 0.  1.
          2   -1    0    0  501    0  0.00000000000E+00 -0.00000000000E+00 -0.17059790763E+04  0.17059790763E+04  0.00000000000E+00 0. -1.
         23    2    1    2    0    0 -0.68991436842E+03 -0.72412497674E+03 -0.16700632939E+03  0.10181173396E+04  0.91285187819E+02 0.  0.
         11    1    3    3    0    0 -0.36423909392E+03 -0.42070864786E+03 -0.55412484807E+02  0.55922842148E+03  0.00000000000E+00 0. -1.
        -11    1    3    3    0    0 -0.32567527450E+03 -0.30341632888E+03 -0.11159384458E+03  0.45888891815E+03  0.00000000000E+00 0.  1.
         22    1    1    2    0    0  0.68991436842E+03  0.72412497674E+03 -0.88880718990E+03  0.13380272936E+04  0.00000000000E+00 0. -1.
<mgrwt>
<rscale>  0 0.21063417E+04</rscale>
<asrwt>0</asrwt>
<pdfrwt beam="1">  1        2 0.26245831E+00 0.21063417E+04</pdfrwt>
<pdfrwt beam="2">  1       -2 0.10002547E+00 0.21063417E+04</pdfrwt>
<totfact> 0.74001879E+00</totfact>
</mgrwt>
</event>
<event>
 6    1  0.2003386E-005  0.1977525E+04  0.7818608E-02  0.8617201E-01
         -2   -1    0    0    0  501 -0.00000000000E+00  0.00000000000E+00  0.56340550801E+03  0.56340550801E+03  0.00000000000E+00 0. -1.
          2   -1    0    0  501    0  0.00000000000E+00 -0.00000000000E+00 -0.17352528607E+04  0.17352528607E+04  0.00000000000E+00 0.  1.
         23    2    1    2    0    0 -0.73349884297E+03 -0.58055406863E+03 -0.22323757458E+03  0.96639559793E+03  0.94983460381E+02 0.  0.
         11    1    3    3    0    0 -0.21263818616E+03 -0.20899835634E+03 -0.39687296638E+02  0.30078296607E+03  0.00000000000E+00 0. -1.
        -11    1    3    3    0    0 -0.52086065682E+03 -0.37155571229E+03 -0.18355027794E+03  0.66561263186E+03  0.00000000000E+00 0.  1.
         22    1    1    2    0    0  0.73349884297E+03  0.58055406863E+03 -0.94860977809E+03  0.13322627708E+04  0.00000000000E+00 0.  1.
<mgrwt>
<rscale>  0 0.19775247E+04</rscale>
<asrwt>0</asrwt>
<pdfrwt beam="1">  1        2 0.26696198E+00 0.19775247E+04</pdfrwt>
<pdfrwt beam="2">  1       -2 0.86677771E-01 0.19775247E+04</pdfrwt>
<totfact> 0.10053040E+01</totfact>
</mgrwt>
</event>
<event>
 6    1  0.2003386E-005  0.5933859E+04  0.7818608E-02  0.7698657E-01
          1   -1    0    0  501    0  0.00000000000E+00  0.00000000000E+00  0.22582141828E+04  0.22582141828E+04  0.00000000000E+00 0. -1.
         -1   -1    0    0    0  501 -0.00000000000E+00 -0.00000000000E+00 -0.38980677574E+04  0.38980677574E+04  0.00000000000E+00 0.  1.
         23    2    1    2    0    0  0.15181276136E+04  0.13299763149E+04  0.14350766146E+04  0.24781378270E+04  0.90408796127E+02 0.  0.
         11    1    3    3    0    0  0.11231679106E+04  0.93013273411E+03  0.10347618106E+04  0.17881233356E+04  0.00000000000E+00 0.  1.
        -11    1    3    3    0    0  0.39495970296E+03  0.39984358078E+03  0.40031480398E+03  0.69001449140E+03  0.00000000000E+00 0. -1.
         22    1    1    2    0    0 -0.15181276136E+04 -0.13299763149E+04 -0.30749301892E+04  0.36781441133E+04  0.00000000000E+00 0.  1.
<mgrwt>
<rscale>  0 0.59338594E+04</rscale>
<asrwt>0</asrwt>
<pdfrwt beam="1">  1        1 0.34741757E+00 0.59338594E+04</pdfrwt>
<pdfrwt beam="2">  1       -1 0.59970273E+00 0.59338594E+04</pdfrwt>
<totfact> 0.60214692E-04</totfact>
</mgrwt>
</event>
<event>
 6    1  0.2003386E-005  0.2319769E+04  0.7818608E-02  0.8470167E-01
          2   -1    0    0  501    0  0.00000000000E+00  0.00000000000E+00  0.21087888525E+04  0.21087888525E+04  0.00000000000E+00 0. -1.
         -2   -1    0    0    0  501 -0.00000000000E+00 -0.00000000000E+00 -0.63796418624E+03  0.63796418624E+03  0.00000000000E+00 0.  1.
         23    2    1    2    0    0 -0.49509088284E+02  0.11527424445E+04  0.61853268465E+03  0.13122956797E+04  0.90944904739E+02 0.  0.
         11    1    3    3    0    0 -0.34972988595E+02  0.21193210276E+03  0.14289558369E+03  0.25798735230E+03  0.00000000000E+00 0. -1.
        -11    1    3    3    0    0 -0.14536099689E+02  0.94081034173E+03  0.47563710097E+03  0.10543083274E+04  0.00000000000E+00 0.  1.
         22    1    1    2    0    0  0.49509088284E+02 -0.11527424445E+04  0.85229198161E+03  0.14344573591E+04  0.00000000000E+00 0. -1.
<mgrwt>
<rscale>  0 0.23197688E+04</rscale>
<asrwt>0</asrwt>
<pdfrwt beam="1">  1        2 0.32442905E+00 0.23197688E+04</pdfrwt>
<pdfrwt beam="2">  1       -2 0.98148337E-01 0.23197688E+04</pdfrwt>
<totfact> 0.45394292E+00</totfact>
</mgrwt>
</event>
<event>
 6    1  0.2003386E-005  0.1045754E+04  0.7818608E-02  0.9259739E-01
          2   -1    0    0  501    0  0.00000000000E+00  0.00000000000E+00  0.84541562054E+03  0.84541562054E+03  0.00000000000E+00 0. -1.
         -2   -1    0    0    0  501 -0.00000000000E+00 -0.00000000000E+00 -0.32339135105E+03  0.32339135105E+03  0.00000000000E+00 0.  1.
         23    2    1    2    0    0  0.29732513513E+03 -0.35081859494E+03  0.53210696411E+03  0.70883133824E+03  0.88476676496E+02 0.  0.
         11    1    3    3    0    0  0.18782256390E+03 -0.27568431358E+03  0.35074509218E+03  0.48404677042E+03  0.00000000000E+00 0. -1.
        -11    1    3    3    0    0  0.10950257123E+03 -0.75134281357E+02  0.18136187193E+03  0.22478456782E+03  0.00000000000E+00 0.  1.
         22    1    1    2    0    0 -0.29732513513E+03  0.35081859494E+03 -0.10082694619E+02  0.45997563334E+03  0.00000000000E+00 0.  1.
<mgrwt>
<rscale>  0 0.10457535E+04</rscale>
<asrwt>0</asrwt>
<pdfrwt beam="1">  1        2 0.13006394E+00 0.10457535E+04</pdfrwt>
<pdfrwt beam="2">  1       -2 0.49752516E-01 0.10457535E+04</pdfrwt>
<totfact> 0.12172588E+02</totfact>
</mgrwt>
</event>
<event>
 6    1  0.2003386E-005  0.1170103E+04  0.7818608E-02  0.9139435E-01
          2   -1    0    0  501    0  0.00000000000E+00  0.00000000000E+00  0.23895470095E+04  0.23895470095E+04  0.00000000000E+00 0. -1.
         -2   -1    0    0    0  501 -0.00000000000E+00 -0.00000000000E+00 -0.14324282580E+03  0.14324282580E+03  0.00000000000E+00 0.  1.
         23    2    1    2    0    0 -0.30858436295E+03 -0.29674380644E+03  0.19820059475E+04  0.20296648475E+04  0.88941674219E+02 0.  0.
         11    1    3    3    0    0 -0.25258772633E+03 -0.18987866258E+03  0.14810700373E+04  0.15144051378E+04  0.00000000000E+00 0. -1.
        -11    1    3    3    0    0 -0.55996636620E+02 -0.10686514387E+03  0.50093591024E+03  0.51525970972E+03  0.00000000000E+00 0.  1.
         22    1    1    2    0    0  0.30858436295E+03  0.29674380644E+03  0.26429823618E+03  0.50312498782E+03  0.00000000000E+00 0.  1.
<mgrwt>
<rscale>  0 0.11701034E+04</rscale>
<asrwt>0</asrwt>
<pdfrwt beam="1">  1        2 0.36762259E+00 0.11701034E+04</pdfrwt>
<pdfrwt beam="2">  1       -2 0.22037360E-01 0.11701034E+04</pdfrwt>
<totfact> 0.72130235E+01</totfact>
</mgrwt>
</event>
<event>
 6    1  0.2003386E-005  0.2166499E+04  0.7818608E-02  0.8532503E-01
          2   -1    0    0  501    0  0.00000000000E+00  0.00000000000E+00  0.28092736751E+04  0.28092736751E+04  0.00000000000E+00 0. -1.
         -2   -1    0    0    0  501 -0.00000000000E+00 -0.00000000000E+00 -0.41769839151E+03  0.41769839151E+03  0.00000000000E+00 0.  1.
         23    2    1    2    0    0 -0.30345761441E+03  0.96508871318E+03  0.62870557816E+03  0.11944385868E+04  0.89051028347E+02 0.  0.
         11    1    3    3    0    0 -0.14521847079E+03  0.32063368866E+03  0.21711985816E+03  0.41356426269E+03  0.00000000000E+00 0.  1.
        -11    1    3    3    0    0 -0.15823914362E+03  0.64445502452E+03  0.41158572000E+03  0.78087432415E+03  0.00000000000E+00 0. -1.
         22    1    1    2    0    0  0.30345761441E+03 -0.96508871318E+03  0.17628697054E+04  0.20325334797E+04  0.00000000000E+00 0. -1.
<mgrwt>
<rscale>  0 0.21664986E+04</rscale>
<asrwt>0</asrwt>
<pdfrwt beam="1">  1        2 0.43219594E+00 0.21664986E+04</pdfrwt>
<pdfrwt beam="2">  1       -2 0.64261293E-01 0.21664986E+04</pdfrwt>
<totfact> 0.46850042E+00</totfact>
</mgrwt>
</event>
<event>
 6    1  0.2003386E-005  0.2654790E+04  0.7818608E-02  0.8349825E-01
          2   -1    0    0  501    0  0.00000000000E+00  0.00000000000E+00  0.18090430755E+04  0.18090430755E+04  0.00000000000E+00 0. -1.
         -2   -1    0    0    0  501 -0.00000000000E+00 -0.00000000000E+00 -0.97398312328E+03  0.97398312328E+03  0.00000000000E+00 0.  1.
         23    2    1    2    0    0 -0.19973119283E+03 -0.85533892593E+03 -0.62268557998E+03  0.10811098482E+04  0.97795423426E+02 0.  0.
         13    1    3    3    0    0 -0.56336385378E+02 -0.45604620797E+03 -0.32532639490E+03  0.56301793518E+03  0.00000000000E+00 0.  1.
        -13    1    3    3    0    0 -0.14339480745E+03 -0.39929271796E+03 -0.29735918507E+03  0.51809191305E+03  0.00000000000E+00 0. -1.
         22    1    1    2    0    0  0.19973119283E+03  0.85533892593E+03  0.14577455322E+04  0.17019163506E+04  0.00000000000E+00 0. -1.
<mgrwt>
<rscale>  0 0.26547900E+04</rscale>
<asrwt>0</asrwt>
<pdfrwt beam="1">  1        2 0.27831432E+00 0.26547900E+04</pdfrwt>
<pdfrwt beam="2">  1       -2 0.14984356E+00 0.26547900E+04</pdfrwt>
<totfact> 0.22569514E+00</totfact>
</mgrwt>
</event>
<event>
 6    1  0.2003386E-005  0.2886861E+04  0.7818608E-02  0.8276797E-01
          2   -1    0    0  501    0  0.00000000000E+00  0.00000000000E+00  0.37622267790E+04  0.37622267790E+04  0.00000000000E+00 0.  1.
         -2   -1    0    0    0  501 -0.00000000000E+00 -0.00000000000E+00 -0.55379216358E+03  0.55379216358E+03  0.00000000000E+00 0. -1.
         23    2    1    2    0    0 -0.13671474616E+04  0.45746707612E+03  0.15615708835E+04  0.21272913535E+04  0.92176847298E+02 0.  0.
         11    1    3    3    0    0 -0.80657389073E+03  0.24242620542E+03  0.85647757846E+03  0.12012017935E+04  0.00000000000E+00 0. -1.
        -11    1    3    3    0    0 -0.56057357087E+03  0.21504087070E+03  0.70509330501E+03  0.92608956003E+03  0.00000000000E+00 0.  1.
         22    1    1    2    0    0  0.13671474616E+04 -0.45746707612E+03  0.16468637320E+04  0.21887275891E+04  0.00000000000E+00 0. -1.
<mgrwt>
<rscale>  0 0.28868611E+04</rscale>
<asrwt>0</asrwt>
<pdfrwt beam="1">  1        2 0.57880410E+00 0.28868611E+04</pdfrwt>
<pdfrwt beam="2">  1       -2 0.85198797E-01 0.28868611E+04</pdfrwt>
<totfact> 0.54303931E-01</totfact>
</mgrwt>
</event>
<event>
 6    1  0.2003386E-005  0.1835872E+04  0.7818608E-02  0.8687452E-01
          2   -1    0    0  501    0  0.00000000000E+00  0.00000000000E+00  0.46757070767E+03  0.46757070767E+03  0.00000000000E+00 0. -1.
         -2   -1    0    0    0  501 -0.00000000000E+00 -0.00000000000E+00 -0.18020941209E+04  0.18020941209E+04  0.00000000000E+00 0.  1.
         23    2    1    2    0    0  0.38021399093E+03 -0.32372882237E+03  0.27984176593E+03  0.57983112048E+03  0.92356293690E+02 0.  0.
         11    1    3    3    0    0  0.12362796307E+03 -0.16248302399E+03  0.12673280781E+03  0.24030358073E+03  0.00000000000E+00 0.  1.
        -11    1    3    3    0    0  0.25658602786E+03 -0.16124579838E+03  0.15310895811E+03  0.33952753974E+03  0.00000000000E+00 0. -1.
         22    1    1    2    0    0 -0.38021399093E+03  0.32372882237E+03 -0.16143651791E+04  0.16898337080E+04  0.00000000000E+00 0.  1.
<mgrwt>
<rscale>  0 0.18358719E+04</rscale>
<asrwt>0</asrwt>
<pdfrwt beam="1">  1        2 0.71933955E-01 0.18358719E+04</pdfrwt>
<pdfrwt beam="2">  1       -2 0.27724525E+00 0.18358719E+04</pdfrwt>
<totfact> 0.27444817E+00</totfact>
</mgrwt>
</event>
<event>
 6    1  0.2003386E-005  0.4658108E+04  0.7818608E-02  0.7883527E-01
         -2   -1    0    0    0  501 -0.00000000000E+00  0.00000000000E+00  0.21194949497E+04  0.21194949497E+04  0.00000000000E+00 0.  1.
          2   -1    0    0  501    0  0.00000000000E+00 -0.00000000000E+00 -0.25593328401E+04  0.25593328401E+04  0.00000000000E+00 0. -1.
         23    2    1    2    0    0  0.78275525666E+03  0.30107573437E+03 -0.24015077294E+04  0.25454030908E+04  0.92114768719E+02 0.  0.
         11    1    3    3    0    0  0.19438774749E+03  0.54501482471E+02 -0.47870136019E+03  0.51953055753E+03  0.00000000000E+00 0.  1.
        -11    1    3    3    0    0  0.58836750916E+03  0.24657425190E+03 -0.19228063692E+04  0.20258725332E+04  0.00000000000E+00 0. -1.
         22    1    1    2    0    0 -0.78275525666E+03 -0.30107573437E+03  0.19616698389E+04  0.21334246991E+04  0.00000000000E+00 0.  1.
<mgrwt>
<rscale>  0 0.46581082E+04</rscale>
<asrwt>0</asrwt>
<pdfrwt beam="1">  1        2 0.39374351E+00 0.46581082E+04</pdfrwt>
<pdfrwt beam="2">  1       -2 0.32607615E+00 0.46581082E+04</pdfrwt>
<totfact> 0.52807319E-02</totfact>
</mgrwt>
</event>
<event>
 6    1  0.2003386E-005  0.2376493E+04  0.7818608E-02  0.8448357E-01
          2   -1    0    0  501    0  0.00000000000E+00  0.00000000000E+00  0.24007170483E+04  0.24007170483E+04  0.00000000000E+00 0. -1.
         -2   -1    0    0    0  501 -0.00000000000E+00 -0.00000000000E+00 -0.58812836524E+03  0.58812836524E+03  0.00000000000E+00 0.  1.
         23    2    1    2    0    0  0.20434687158E+03 -0.43126104816E+03 -0.45849411010E+03  0.66816430899E+03  0.92102981642E+02 0.  0.
         13    1    3    3    0    0  0.28412120838E+02 -0.70088316919E+02 -0.12471748927E+03  0.14585634340E+03  0.00000000000E+00 0. -1.
        -13    1    3    3    0    0  0.17593475074E+03 -0.36117273124E+03 -0.33377662083E+03  0.52230796560E+03  0.00000000000E+00 0.  1.
         22    1    1    2    0    0 -0.20434687158E+03  0.43126104816E+03  0.22710827932E+04  0.23206811046E+04  0.00000000000E+00 0. -1.
<mgrwt>
<rscale>  0 0.23764930E+04</rscale>
<asrwt>0</asrwt>
<pdfrwt beam="1">  1        2 0.36934108E+00 0.23764930E+04</pdfrwt>
<pdfrwt beam="2">  1       -2 0.90481288E-01 0.23764930E+04</pdfrwt>
<totfact> 0.37348592E+00</totfact>
</mgrwt>
</event>
<event>
 6    1  0.2003386E-005  0.4328702E+03  0.7818608E-02  0.1032957E+00
         -3   -1    0    0    0  501 -0.00000000000E+00  0.00000000000E+00  0.83278192378E+02  0.83278192378E+02  0.00000000000E+00 0.  1.
          3   -1    0    0  501    0  0.00000000000E+00 -0.00000000000E+00 -0.56250197129E+03  0.56250197129E+03  0.00000000000E+00 0. -1.
         23    2    1    2    0    0  0.68040111043E+02  0.72469909494E+02 -0.52084611342E+03  0.53801299231E+03  0.91082169149E+02 0.  0.
         11    1    3    3    0    0  0.46626544523E+01  0.69066508558E+02 -0.31895654563E+03  0.32638198625E+03  0.00000000000E+00 0. -1.
        -11    1    3    3    0    0  0.63377456591E+02  0.34034009360E+01 -0.20188956779E+03  0.21163100606E+03  0.00000000000E+00 0.  1.
         22    1    1    2    0    0 -0.68040111043E+02 -0.72469909494E+02  0.41622334507E+02  0.10776717136E+03  0.00000000000E+00 0.  1.
<mgrwt>
<rscale>  0 0.43287018E+03</rscale>
<asrwt>0</asrwt>
<pdfrwt beam="1">  1        3 0.86538761E-01 0.43287018E+03</pdfrwt>
<pdfrwt beam="2">  1       -3 0.12812030E-01 0.43287018E+03</pdfrwt>
<totfact> 0.15892292E+02</totfact>
</mgrwt>
</event>
<event>
 6    1  0.2003386E-005  0.7205310E+03  0.7818608E-02  0.9682752E-01
         -2   -1    0    0    0  501 -0.00000000000E+00  0.00000000000E+00  0.96498587208E+03  0.96498587208E+03  0.00000000000E+00 0.  1.
          2   -1    0    0  501    0  0.00000000000E+00 -0.00000000000E+00 -0.13450067165E+03  0.13450067165E+03  0.00000000000E+00 0. -1.
         23    2    1    2    0    0 -0.27409766712E+03  0.36311873075E+02  0.76015725706E+03  0.81419002628E+03  0.92834585091E+02 0.  0.
         13    1    3    3    0    0 -0.41086893306E+02  0.41622226671E+02  0.14391282959E+03  0.15534299171E+03  0.00000000000E+00 0. -1.
        -13    1    3    3    0    0 -0.23301077382E+03 -0.53103535956E+01  0.61624442747E+03  0.65884703457E+03  0.00000000000E+00 0.  1.
         22    1    1    2    0    0  0.27409766712E+03 -0.36311873075E+02  0.70327943374E+02  0.28529651745E+03  0.00000000000E+00 0. -1.
<mgrwt>
<rscale>  0 0.72053105E+03</rscale>
<asrwt>0</asrwt>
<pdfrwt beam="1">  1        2 0.20692412E-01 0.72053105E+03</pdfrwt>
<pdfrwt beam="2">  1       -2 0.14845936E+00 0.72053105E+03</pdfrwt>
<totfact> 0.85085164E+01</totfact>
</mgrwt>
</event>
<event>
 6    1  0.2003386E-005  0.4369050E+04  0.7818608E-02  0.7933972E-01
          2   -1    0    0  501    0  0.00000000000E+00  0.00000000000E+00  0.15482774970E+04  0.15482774970E+04  0.00000000000E+00 0. -1.
         -2   -1    0    0    0  501 -0.00000000000E+00 -0.00000000000E+00 -0.30822314606E+04  0.30822314606E+04  0.00000000000E+00 0.  1.
         23    2    1    2    0    0  0.14673614631E+03 -0.11375771083E+04  0.12019184000E+04  0.16639266203E+04  0.91819297431E+02 0.  0.
         11    1    3    3    0    0 -0.40224455390E+01 -0.97031954685E+02  0.75112929992E+02  0.12277350101E+03  0.00000000000E+00 0.  1.
        -11    1    3    3    0    0  0.15075859185E+03 -0.10405451536E+04  0.11268054701E+04  0.15411531193E+04  0.00000000000E+00 0. -1.
         22    1    1    2    0    0 -0.14673614631E+03  0.11375771083E+04 -0.27358723636E+04  0.29665823373E+04  0.00000000000E+00 0.  1.
<mgrwt>
<rscale>  0 0.43690501E+04</rscale>
<asrwt>0</asrwt>
<pdfrwt beam="1">  1        2 0.23819654E+00 0.43690501E+04</pdfrwt>
<pdfrwt beam="2">  1       -2 0.47418945E+00 0.43690501E+04</pdfrwt>
<totfact> 0.22026893E-02</totfact>
</mgrwt>
</event>
<event>
 6    1  0.2003386E-005  0.5797213E+03  0.7818608E-02  0.9948395E-01
          2   -1    0    0  501    0  0.00000000000E+00  0.00000000000E+00  0.14181852936E+04  0.14181852936E+04  0.00000000000E+00 0. -1.
         -2   -1    0    0    0  501 -0.00000000000E+00 -0.00000000000E+00 -0.59244161038E+02  0.59244161038E+02  0.00000000000E+00 0.  1.
         23    2    1    2    0    0  0.18819312135E+03  0.76121454913E+02  0.11974410891E+04  0.12180197577E+04  0.92172889250E+02 0.  0.
         13    1    3    3    0    0  0.93776705455E+02  0.14306561832E+02  0.33315607999E+03  0.34639821280E+03  0.00000000000E+00 0. -1.
        -13    1    3    3    0    0  0.94416415896E+02  0.61814893082E+02  0.86428500910E+03  0.87162154491E+03  0.00000000000E+00 0.  1.
         22    1    1    2    0    0 -0.18819312135E+03 -0.76121454913E+02  0.16150004350E+03  0.25940969695E+03  0.00000000000E+00 0.  1.
<mgrwt>
<rscale>  0 0.57972131E+03</rscale>
<asrwt>0</asrwt>
<pdfrwt beam="1">  1        2 0.21818233E+00 0.57972131E+03</pdfrwt>
<pdfrwt beam="2">  1       -2 0.91144874E-02 0.57972131E+03</pdfrwt>
<totfact> 0.11463405E+03</totfact>
</mgrwt>
</event>
<event>
 6    1  0.2003386E-005  0.1146226E+04  0.7818608E-02  0.9161273E-01
         -2   -1    0    0    0  501 -0.00000000000E+00  0.00000000000E+00  0.40827180030E+03  0.40827180030E+03  0.00000000000E+00 0.  1.
          2   -1    0    0  501    0  0.00000000000E+00 -0.00000000000E+00 -0.80450890567E+03  0.80450890567E+03  0.00000000000E+00 0. -1.
         23    2    1    2    0    0  0.33505278621E+03 -0.35197569801E+02  0.28646811627E+03  0.45147547275E+03  0.90922397625E+02 0.  0.
         11    1    3    3    0    0  0.16652187958E+03 -0.23229401010E+02  0.84555390918E+02  0.18819871303E+03  0.00000000000E+00 0. -1.
        -11    1    3    3    0    0  0.16853090663E+03 -0.11968168791E+02  0.20191272535E+03  0.26327675972E+03  0.00000000000E+00 0.  1.
         22    1    1    2    0    0 -0.33505278621E+03  0.35197569801E+02 -0.68270522164E+03  0.76130523322E+03  0.00000000000E+00 0. -1.
<mgrwt>
<rscale>  0 0.11462256E+04</rscale>
<asrwt>0</asrwt>
<pdfrwt beam="1">  1        2 0.12377060E+00 0.11462256E+04</pdfrwt>
<pdfrwt beam="2">  1       -2 0.62811046E-01 0.11462256E+04</pdfrwt>
<totfact> 0.79564483E+01</totfact>
</mgrwt>
</event>
<event>
 6    1  0.2003386E-005  0.2124877E+04  0.7818608E-02  0.8550363E-01
         -1   -1    0    0    0  501 -0.00000000000E+00  0.00000000000E+00  0.48172816678E+03  0.48172816678E+03  0.00000000000E+00 0.  1.
          1   -1    0    0  501    0  0.00000000000E+00 -0.00000000000E+00 -0.23431799056E+04  0.23431799056E+04  0.00000000000E+00 0. -1.
         23    2    1    2    0    0 -0.10188475615E+04 -0.26019091764E+03 -0.75177922013E+03  0.12961429610E+04  0.95209832835E+02 0.  0.
         13    1    3    3    0    0 -0.71417423169E+03 -0.22205706285E+03 -0.55697617114E+03  0.93251092626E+03  0.00000000000E+00 0. -1.
        -13    1    3    3    0    0 -0.30467332979E+03 -0.38133854796E+02 -0.19480304900E+03  0.36363203471E+03  0.00000000000E+00 0.  1.
         22    1    1    2    0    0  0.10188475615E+04  0.26019091764E+03 -0.11096725186E+04  0.15287651114E+04  0.00000000000E+00 0.  1.
<mgrwt>
<rscale>  0 0.21248772E+04</rscale>
<asrwt>0</asrwt>
<pdfrwt beam="1">  1        1 0.36048922E+00 0.21248772E+04</pdfrwt>
<pdfrwt beam="2">  1       -1 0.74112026E-01 0.21248772E+04</pdfrwt>
<totfact> 0.29242855E+00</totfact>
</mgrwt>
</event>
<event>
 6    1  0.2003386E-005  0.2590523E+04  0.7818608E-02  0.8371428E-01
         -2   -1    0    0    0  501 -0.00000000000E+00  0.00000000000E+00  0.33695954506E+04  0.33695954506E+04  0.00000000000E+00 0.  1.
          2   -1    0    0  501    0  0.00000000000E+00 -0.00000000000E+00 -0.49789419663E+03  0.49789419663E+03  0.00000000000E+00 0. -1.
         23    2    1    2    0    0 -0.40104478128E+03  0.11828567755E+04  0.19406533342E+04  0.23096586882E+04  0.91656012534E+02 0.  0.
         13    1    3    3    0    0 -0.27119744644E+03  0.69109383309E+03  0.12036490757E+04  0.14141887564E+04  0.00000000000E+00 0. -1.
        -13    1    3    3    0    0 -0.12984733484E+03  0.49176294239E+03  0.73700425849E+03  0.89546993188E+03  0.00000000000E+00 0.  1.
         22    1    1    2    0    0  0.40104478128E+03 -0.11828567755E+04  0.93104791972E+03  0.15578309590E+04  0.00000000000E+00 0. -1.
<mgrwt>
<rscale>  0 0.25905227E+04</rscale>
<asrwt>0</asrwt>
<pdfrwt beam="1">  1        2 0.76599109E-01 0.25905227E+04</pdfrwt>
<pdfrwt beam="2">  1       -2 0.51839929E+00 0.25905227E+04</pdfrwt>
<totfact> 0.69511576E-02</totfact>
</mgrwt>
</event>
<event>
 6    1  0.2003386E-005  0.3331616E+04  0.7818608E-02  0.8154897E-01
         -2   -1    0    0    0  501 -0.00000000000E+00  0.00000000000E+00  0.89928081562E+03  0.89928081562E+03  0.00000000000E+00 0.  1.
          2   -1    0    0  501    0  0.00000000000E+00 -0.00000000000E+00 -0.30857052626E+04  0.30857052626E+04  0.00000000000E+00 0. -1.
         23    2    1    2    0    0  0.14687767139E+04 -0.48054947523E+02 -0.15906041709E+03  0.14810253711E+04  0.92312621931E+02 0.  0.
         11    1    3    3    0    0  0.13425845730E+04 -0.65325088724E+02 -0.13048978271E+03  0.13504918683E+04  0.00000000000E+00 0. -1.
        -11    1    3    3    0    0  0.12619214089E+03  0.17270141202E+02 -0.28570634374E+02  0.13053350278E+03  0.00000000000E+00 0.  1.
         22    1    1    2    0    0 -0.14687767139E+04  0.48054947523E+02 -0.20273640299E+04  0.25039607072E+04  0.00000000000E+00 0. -1.
<mgrwt>
<rscale>  0 0.33316156E+04</rscale>
<asrwt>0</asrwt>
<pdfrwt beam="1">  1        2 0.47472389E+00 0.33316156E+04</pdfrwt>
<pdfrwt beam="2">  1       -2 0.13835089E+00 0.33316156E+04</pdfrwt>
<totfact> 0.47379165E-01</totfact>
</mgrwt>
</event>
<event>
 6    1  0.2003386E-005  0.2225670E+04  0.7818608E-02  0.8507819E-01
          2   -1    0    0  501    0  0.00000000000E+00  0.00000000000E+00  0.19768243208E+04  0.19768243208E+04  0.00000000000E+00 0. -1.
         -2   -1    0    0    0  501 -0.00000000000E+00 -0.00000000000E+00 -0.62646038371E+03  0.62646038371E+03  0.00000000000E+00 0.  1.
         23    2    1    2    0    0 -0.18739575770E+03  0.30999960346E+03  0.19051880748E+04  0.19406786769E+04  0.72630588538E+02 0.  0.
         11    1    3    3    0    0 -0.34917342332E+01  0.47457176168E+02  0.19611876309E+03  0.20180917970E+03  0.00000000000E+00 0. -1.
        -11    1    3    3    0    0 -0.18390402347E+03  0.26254242729E+03  0.17090693117E+04  0.17388694972E+04  0.00000000000E+00 0.  1.
         22    1    1    2    0    0  0.18739575770E+03 -0.30999960346E+03 -0.55482413767E+03  0.66260602766E+03  0.00000000000E+00 0.  1.
<mgrwt>
<rscale>  0 0.22256703E+04</rscale>
<asrwt>0</asrwt>
<pdfrwt beam="1">  1        2 0.30412682E+00 0.22256703E+04</pdfrwt>
<pdfrwt beam="2">  1       -2 0.96378521E-01 0.22256703E+04</pdfrwt>
<totfact> 0.56562567E+00</totfact>
</mgrwt>
</event>
<event>
 6    1  0.2003386E-005  0.2170331E+04  0.7818608E-02  0.8530879E-01
         -2   -1    0    0    0  501 -0.00000000000E+00  0.00000000000E+00  0.45608395167E+03  0.45608395167E+03  0.00000000000E+00 0.  1.
          2   -1    0    0  501    0  0.00000000000E+00 -0.00000000000E+00 -0.25819458502E+04  0.25819458502E+04  0.00000000000E+00 0. -1.
         23    2    1    2    0    0  0.47496387145E+03  0.89066354313E+03 -0.16147607705E+04  0.19066162660E+04  0.94132955318E+02 0.  0.
         11    1    3    3    0    0  0.25479714610E+03  0.54729072942E+03 -0.90166159681E+03  0.10851001628E+04  0.00000000000E+00 0.  1.
        -11    1    3    3    0    0  0.22016672535E+03  0.34337281370E+03 -0.71309917373E+03  0.82151610314E+03  0.00000000000E+00 0. -1.
         22    1    1    2    0    0 -0.47496387145E+03 -0.89066354313E+03 -0.51110112800E+03  0.11314135359E+04  0.00000000000E+00 0. -1.
<mgrwt>
<rscale>  0 0.21703309E+04</rscale>
<asrwt>0</asrwt>
<pdfrwt beam="1">  1        2 0.39722244E+00 0.21703309E+04</pdfrwt>
<pdfrwt beam="2">  1       -2 0.70166761E-01 0.21703309E+04</pdfrwt>
<totfact> 0.52854266E+00</totfact>
</mgrwt>
</event>
<event>
 6    1  0.2003386E-005  0.1644392E+04  0.7818608E-02  0.8793731E-01
         -2   -1    0    0    0  501 -0.00000000000E+00  0.00000000000E+00  0.39065179420E+03  0.39065179420E+03  0.00000000000E+00 0.  1.
          2   -1    0    0  501    0  0.00000000000E+00 -0.00000000000E+00 -0.17304579249E+04  0.17304579249E+04  0.00000000000E+00 0. -1.
         23    2    1    2    0    0  0.43127815161E+03  0.40738493227E+03 -0.14010474672E+04  0.15246922240E+04  0.98939605187E+02 0.  0.
         13    1    3    3    0    0  0.23282145901E+03  0.15952947652E+03 -0.60223210039E+03  0.66508570004E+03  0.00000000000E+00 0. -1.
        -13    1    3    3    0    0  0.19845669260E+03  0.24785545575E+03 -0.79881536682E+03  0.85960652397E+03  0.00000000000E+00 0.  1.
         22    1    1    2    0    0 -0.43127815161E+03 -0.40738493227E+03  0.61241336554E+02  0.59641749505E+03  0.00000000000E+00 0.  1.
<mgrwt>
<rscale>  0 0.16443923E+04</rscale>
<asrwt>0</asrwt>
<pdfrwt beam="1">  1        2 0.26622430E+00 0.16443923E+04</pdfrwt>
<pdfrwt beam="2">  1       -2 0.60100275E-01 0.16443923E+04</pdfrwt>
<totfact> 0.23259577E+01</totfact>
</mgrwt>
</event>
<event>
 6    1  0.2798186E-005  0.3355371E+04  0.7818608E-02  0.8148947E-01
          2   -1    0    0  501    0  0.00000000000E+00  0.00000000000E+00  0.11597855225E+04  0.11597855225E+04  0.00000000000E+00 0. -1.
         -2   -1    0    0    0  501 -0.00000000000E+00 -0.00000000000E+00 -0.24268527851E+04  0.24268527851E+04  0.00000000000E+00 0.  1.
         23    2    1    2    0    0 -0.14443987542E+04 -0.81332626367E+02 -0.15395369751E+04  0.21145165390E+04  0.90018547519E+02 0.  0.
         11    1    3    3    0    0 -0.78600520959E+03 -0.87619760806E+02 -0.85702724271E+03  0.11661805635E+04  0.00000000000E+00 0.  1.
        -11    1    3    3    0    0 -0.65839354458E+03  0.62871344386E+01 -0.68250973234E+03  0.94833597546E+03  0.00000000000E+00 0. -1.
         22    1    1    2    0    0  0.14443987542E+04  0.81332626367E+02  0.27246971247E+03  0.14721217685E+04  0.00000000000E+00 0. -1.
<mgrwt>
<rscale>  0 0.33553711E+04</rscale>
<asrwt>0</asrwt>
<pdfrwt beam="1">  1        2 0.17842854E+00 0.33553711E+04</pdfrwt>
<pdfrwt beam="2">  1       -2 0.37336196E+00 0.33553711E+04</pdfrwt>
<totfact> 0.18383985E-01</totfact>
</mgrwt>
</event>
<event>
 6    1  0.2003386E-005  0.2401943E+04  0.7818608E-02  0.8438776E-01
         -2   -1    0    0    0  501 -0.00000000000E+00  0.00000000000E+00  0.10798767528E+04  0.10798767528E+04  0.00000000000E+00 0.  1.
          2   -1    0    0  501    0  0.00000000000E+00 -0.00000000000E+00 -0.13356456936E+04  0.13356456936E+04  0.00000000000E+00 0. -1.
         23    2    1    2    0    0  0.92045509174E+03 -0.42246778301E+03  0.51807423600E+03  0.11409441374E+04  0.87384249239E+02 0.  0.
         13    1    3    3    0    0  0.26033610567E+03 -0.80656905105E+02  0.12133798418E+03  0.29833425995E+03  0.00000000000E+00 0. -1.
        -13    1    3    3    0    0  0.66011898607E+03 -0.34181087791E+03  0.39673625182E+03  0.84260987743E+03  0.00000000000E+00 0.  1.
         22    1    1    2    0    0 -0.92045509174E+03  0.42246778301E+03 -0.77384317684E+03  0.12745783091E+04  0.00000000000E+00 0. -1.
<mgrwt>
<rscale>  0 0.24019432E+04</rscale>
<asrwt>0</asrwt>
<pdfrwt beam="1">  1        2 0.20548395E+00 0.24019432E+04</pdfrwt>
<pdfrwt beam="2">  1       -2 0.16613489E+00 0.24019432E+04</pdfrwt>
<totfact> 0.32195274E+00</totfact>
</mgrwt>
</event>
<event>
 6    1  0.2003386E-005  0.1735782E+04  0.7818608E-02  0.8741216E-01
          2   -1    0    0  501    0  0.00000000000E+00  0.00000000000E+00  0.11374892489E+04  0.11374892489E+04  0.00000000000E+00 0. -1.
         -2   -1    0    0    0  501 -0.00000000000E+00 -0.00000000000E+00 -0.66219075130E+03  0.66219075130E+03  0.00000000000E+00 0.  1.
         23    2    1    2    0    0 -0.54184252617E+03 -0.34329218979E+03 -0.36412794912E+03  0.74323330954E+03  0.91453476399E+02 0.  0.
         11    1    3    3    0    0 -0.81311634410E+02 -0.17053964880E+02 -0.37463574750E+02  0.91136924688E+02  0.00000000000E+00 0.  1.
        -11    1    3    3    0    0 -0.46053089176E+03 -0.32623822491E+03 -0.32666437437E+03  0.65209638486E+03  0.00000000000E+00 0. -1.
         22    1    1    2    0    0  0.54184252617E+03  0.34329218979E+03  0.83942644671E+03  0.10564466906E+04  0.00000000000E+00 0. -1.
<mgrwt>
<rscale>  0 0.17357821E+04</rscale>
<asrwt>0</asrwt>
<pdfrwt beam="1">  1        2 0.17499835E+00 0.17357821E+04</pdfrwt>
<pdfrwt beam="2">  1       -2 0.10187550E+00 0.17357821E+04</pdfrwt>
<totfact> 0.15495859E+01</totfact>
</mgrwt>
</event>
<event>
 6    1  0.2003386E-005  0.2380891E+04  0.7818608E-02  0.8446693E-01
         -2   -1    0    0    0  501 -0.00000000000E+00  0.00000000000E+00  0.54448319510E+03  0.54448319510E+03  0.00000000000E+00 0.  1.
          2   -1    0    0  501    0  0.00000000000E+00 -0.00000000000E+00 -0.26027620614E+04  0.26027620614E+04  0.00000000000E+00 0. -1.
         23    2    1    2    0    0  0.10488595052E+04  0.29908020258E+03 -0.40576738000E+03  0.11672580238E+04  0.91043386476E+02 0.  0.
         13    1    3    3    0    0  0.75368267051E+03  0.18776692281E+03 -0.25411915148E+03  0.81723346009E+03  0.00000000000E+00 0. -1.
        -13    1    3    3    0    0  0.29517683471E+03  0.11131327976E+03 -0.15164822852E+03  0.35002456373E+03  0.00000000000E+00 0.  1.
         22    1    1    2    0    0 -0.10488595052E+04 -0.29908020258E+03 -0.16525114863E+04  0.19799872327E+04  0.00000000000E+00 0.  1.
<mgrwt>
<rscale>  0 0.23808908E+04</rscale>
<asrwt>0</asrwt>
<pdfrwt beam="1">  1        2 0.40042494E+00 0.23808908E+04</pdfrwt>
<pdfrwt beam="2">  1       -2 0.83766643E-01 0.23808908E+04</pdfrwt>
<totfact> 0.34013346E+00</totfact>
</mgrwt>
</event>
<event>
 6    1  0.2003386E-005  0.2063419E+04  0.7818608E-02  0.8577531E-01
         -2   -1    0    0    0  501 -0.00000000000E+00  0.00000000000E+00  0.11059561471E+04  0.11059561471E+04  0.00000000000E+00 0.  1.
          2   -1    0    0  501    0  0.00000000000E+00 -0.00000000000E+00 -0.96244761390E+03  0.96244761390E+03  0.00000000000E+00 0. -1.
         23    2    1    2    0    0  0.54784125210E+03  0.77687355726E+03  0.46867612345E+03  0.10637164847E+04  0.90404035209E+02 0.  0.
         11    1    3    3    0    0  0.22573149635E+03  0.34046011442E+03  0.15349983186E+03  0.43638285523E+03  0.00000000000E+00 0. -1.
        -11    1    3    3    0    0  0.32210975575E+03  0.43641344284E+03  0.31517629159E+03  0.62733362943E+03  0.00000000000E+00 0.  1.
         22    1    1    2    0    0 -0.54784125210E+03 -0.77687355726E+03 -0.32516759025E+03  0.10046872763E+04  0.00000000000E+00 0. -1.
<mgrwt>
<rscale>  0 0.20634194E+04</rscale>
<asrwt>0</asrwt>
<pdfrwt beam="1">  1        2 0.14806886E+00 0.20634194E+04</pdfrwt>
<pdfrwt beam="2">  1       -2 0.17014710E+00 0.20634194E+04</pdfrwt>
<totfact> 0.52347846E+00</totfact>
</mgrwt>
</event>
<event>
 6    1  0.2003386E-005  0.2166020E+04  0.7818608E-02  0.8532706E-01
          1   -1    0    0  501    0  0.00000000000E+00  0.00000000000E+00  0.21913549985E+04  0.21913549985E+04  0.00000000000E+00 0. -1.
         -1   -1    0    0    0  501 -0.00000000000E+00 -0.00000000000E+00 -0.53524432332E+03  0.53524432332E+03  0.00000000000E+00 0.  1.
         23    2    1    2    0    0  0.64028799428E+03 -0.42838112665E+03 -0.12496406559E+03  0.78605652728E+03  0.93753619143E+02 0.  0.
         11    1    3    3    0    0  0.35047960647E+03 -0.27908903514E+03 -0.10035670593E+03  0.45912755582E+03  0.00000000000E+00 0. -1.
        -11    1    3    3    0    0  0.28980838781E+03 -0.14929209151E+03 -0.24607359664E+02  0.32692897146E+03  0.00000000000E+00 0.  1.
         22    1    1    2    0    0 -0.64028799428E+03  0.42838112665E+03  0.17810747408E+04  0.19405427946E+04  0.00000000000E+00 0. -1.
<mgrwt>
<rscale>  0 0.21660197E+04</rscale>
<asrwt>0</asrwt>
<pdfrwt beam="1">  1        1 0.33713153E+00 0.21660197E+04</pdfrwt>
<pdfrwt beam="2">  1       -1 0.82345282E-01 0.21660197E+04</pdfrwt>
<totfact> 0.29605532E+00</totfact>
</mgrwt>
</event>
<event>
 6    1  0.2003386E-005  0.1309191E+04  0.7818608E-02  0.9022308E-01
          2   -1    0    0  501    0  0.00000000000E+00  0.00000000000E+00  0.56273039359E+03  0.56273039359E+03  0.00000000000E+00 0. -1.
         -2   -1    0    0    0  501 -0.00000000000E+00 -0.00000000000E+00 -0.76145792168E+03  0.76145792168E+03  0.00000000000E+00 0.  1.
         23    2    1    2    0    0  0.47482022347E+03 -0.38667348639E+03 -0.32418202088E+03  0.69912075135E+03  0.93301728866E+02 0.  0.
         13    1    3    3    0    0  0.33441218675E+03 -0.23703725632E+03 -0.25417981493E+03  0.48231270960E+03  0.00000000000E+00 0. -1.
        -13    1    3    3    0    0  0.14040803672E+03 -0.14963623008E+03 -0.70002205953E+02  0.21680804175E+03  0.00000000000E+00 0.  1.
         22    1    1    2    0    0 -0.47482022347E+03  0.38667348639E+03  0.12545449279E+03  0.62506756392E+03  0.00000000000E+00 0. -1.
<mgrwt>
<rscale>  0 0.13091914E+04</rscale>
<asrwt>0</asrwt>
<pdfrwt beam="1">  1        2 0.86573907E-01 0.13091914E+04</pdfrwt>
<pdfrwt beam="2">  1       -2 0.11714737E+00 0.13091914E+04</pdfrwt>
<totfact> 0.29567686E+01</totfact>
</mgrwt>
</event>
<event>
 6    1  0.2003386E-005  0.3320385E+04  0.7818608E-02  0.8157728E-01
         -2   -1    0    0    0  501 -0.00000000000E+00  0.00000000000E+00  0.25568492185E+04  0.25568492185E+04  0.00000000000E+00 0.  1.
          2   -1    0    0  501    0  0.00000000000E+00 -0.00000000000E+00 -0.10779824537E+04  0.10779824537E+04  0.00000000000E+00 0. -1.
         23    2    1    2    0    0  0.16316228294E+04 -0.26619294672E+03  0.58927111628E+03  0.17574845652E+04  0.91977204865E+02 0.  0.
         13    1    3    3    0    0  0.68296352762E+03 -0.15702922369E+03  0.25603953805E+03  0.74609222097E+03  0.00000000000E+00 0.  1.
        -13    1    3    3    0    0  0.94865930176E+03 -0.10916372303E+03  0.33323157823E+03  0.10113923442E+04  0.00000000000E+00 0. -1.
         22    1    1    2    0    0 -0.16316228294E+04  0.26619294672E+03  0.88959564856E+03  0.18773471070E+04  0.00000000000E+00 0. -1.
<mgrwt>
<rscale>  0 0.33203847E+04</rscale>
<asrwt>0</asrwt>
<pdfrwt beam="1">  1        2 0.16584345E+00 0.33203847E+04</pdfrwt>
<pdfrwt beam="2">  1       -2 0.39336142E+00 0.33203847E+04</pdfrwt>
<totfact> 0.15361755E-01</totfact>
</mgrwt>
</event>
<event>
 6    1  0.2003386E-005  0.2932328E+04  0.7818608E-02  0.8263323E-01
          2   -1    0    0  501    0  0.00000000000E+00  0.00000000000E+00  0.24427515425E+04  0.24427515425E+04  0.00000000000E+00 0. -1.
         -2   -1    0    0    0  501 -0.00000000000E+00 -0.00000000000E+00 -0.88000622346E+03  0.88000622346E+03  0.00000000000E+00 0.  1.
         23    2    1    2    0    0  0.90494848229E+03 -0.48813931490E+03 -0.39997599555E+03  0.11070216118E+04  0.91127962423E+02 0.  0.
         13    1    3    3    0    0  0.43540796166E+03 -0.22213615838E+03 -0.14286753548E+03  0.50925013366E+03  0.00000000000E+00 0. -1.
        -13    1    3    3    0    0  0.46954052062E+03 -0.26600315652E+03 -0.25710846006E+03  0.59777147809E+03  0.00000000000E+00 0.  1.
         22    1    1    2    0    0 -0.90494848229E+03  0.48813931490E+03  0.19627213146E+04  0.22157361542E+04  0.00000000000E+00 0. -1.
<mgrwt>
<rscale>  0 0.29323278E+04</rscale>
<asrwt>0</asrwt>
<pdfrwt beam="1">  1        2 0.37580793E+00 0.29323278E+04</pdfrwt>
<pdfrwt beam="2">  1       -2 0.13538557E+00 0.29323278E+04</pdfrwt>
<totfact> 0.12662634E+00</totfact>
</mgrwt>
</event>
<event>
 6    1  0.2003386E-005  0.1595707E+04  0.7818608E-02  0.8823190E-01
         -2   -1    0    0    0  501 -0.00000000000E+00  0.00000000000E+00  0.83503958625E+03  0.83503958625E+03  0.00000000000E+00 0.  1.
          2   -1    0    0  501    0  0.00000000000E+00 -0.00000000000E+00 -0.76232332290E+03  0.76232332290E+03  0.00000000000E+00 0. -1.
         23    2    1    2    0    0 -0.65845910259E+03 -0.38432354035E+03 -0.18956337389E+03  0.79109770367E+03  0.92888807590E+02 0.  0.
         11    1    3    3    0    0 -0.31540355251E+03 -0.14317247586E+03 -0.11650851632E+03  0.36544766131E+03  0.00000000000E+00 0. -1.
        -11    1    3    3    0    0 -0.34305555008E+03 -0.24115106449E+03 -0.73054857564E+02  0.42565004236E+03  0.00000000000E+00 0.  1.
         22    1    1    2    0    0  0.65845910259E+03  0.38432354035E+03  0.26227963724E+03  0.80626520548E+03  0.00000000000E+00 0. -1.
<mgrwt>
<rscale>  0 0.15957069E+04</rscale>
<asrwt>0</asrwt>
<pdfrwt beam="1">  1        2 0.11728051E+00 0.15957069E+04</pdfrwt>
<pdfrwt beam="2">  1       -2 0.12846763E+00 0.15957069E+04</pdfrwt>
<totfact> 0.15756904E+01</totfact>
</mgrwt>
</event>
<event>
 6    1  0.2003386E-005  0.2317356E+04  0.7818608E-02  0.8471109E-01
         -2   -1    0    0    0  501 -0.00000000000E+00  0.00000000000E+00  0.57342032983E+03  0.57342032983E+03  0.00000000000E+00 0.  1.
          2   -1    0    0  501    0  0.00000000000E+00 -0.00000000000E+00 -0.23412747999E+04  0.23412747999E+04  0.00000000000E+00 0. -1.
         23    2    1    2    0    0  0.18479187547E+03  0.10630327309E+04 -0.36022506771E+03  0.11411091694E+04  0.90451163949E+02 0.  0.
         13    1    3    3    0    0  0.18115626427E+03  0.82580629802E+03 -0.28634014429E+03  0.89261655382E+03  0.00000000000E+00 0. -1.
        -13    1    3    3    0    0  0.36356111992E+01  0.23722643284E+03 -0.73884923426E+02  0.24849261562E+03  0.00000000000E+00 0.  1.
         22    1    1    2    0    0 -0.18479187547E+03 -0.10630327309E+04 -0.14076294023E+04  0.17735859603E+04  0.00000000000E+00 0. -1.
<mgrwt>
<rscale>  0 0.23173559E+04</rscale>
<asrwt>0</asrwt>
<pdfrwt beam="1">  1        2 0.36019613E+00 0.23173559E+04</pdfrwt>
<pdfrwt beam="2">  1       -2 0.88218511E-01 0.23173559E+04</pdfrwt>
<totfact> 0.43025168E+00</totfact>
</mgrwt>
</event>
<event>
 6    1  0.2003386E-005  0.2103489E+04  0.7818608E-02  0.8559708E-01
          1   -1    0    0  501    0  0.00000000000E+00  0.00000000000E+00  0.80302135249E+03  0.80302135249E+03  0.00000000000E+00 0. -1.
         -1   -1    0    0    0  501 -0.00000000000E+00 -0.00000000000E+00 -0.13775058716E+04  0.13775058716E+04  0.00000000000E+00 0.  1.
         23    2    1    2    0    0  0.54929717319E+02  0.91764265692E+03  0.23625013400E+03  0.95481273962E+03  0.10376859969E+03 0.  0.
         11    1    3    3    0    0  0.34155649651E+02  0.38102102016E+03  0.47032756846E+02  0.38542924957E+03  0.00000000000E+00 0.  1.
        -11    1    3    3    0    0  0.20774067668E+02  0.53662163677E+03  0.18921737715E+03  0.56938349006E+03  0.00000000000E+00 0. -1.
         22    1    1    2    0    0 -0.54929717319E+02 -0.91764265692E+03 -0.81073465306E+03  0.12257144844E+04  0.00000000000E+00 0.  1.
<mgrwt>
<rscale>  0 0.21034891E+04</rscale>
<asrwt>0</asrwt>
<pdfrwt beam="1">  1        1 0.12354175E+00 0.21034891E+04</pdfrwt>
<pdfrwt beam="2">  1       -1 0.21192398E+00 0.21034891E+04</pdfrwt>
<totfact> 0.25202453E+00</totfact>
</mgrwt>
</event>
<event>
 6    1  0.2003386E-005  0.2551089E+04  0.7818608E-02  0.8385007E-01
         -2   -1    0    0    0  501 -0.00000000000E+00  0.00000000000E+00  0.20720491390E+04  0.20720491390E+04  0.00000000000E+00 0.  1.
          2   -1    0    0  501    0  0.00000000000E+00 -0.00000000000E+00 -0.78521984730E+03  0.78521984730E+03  0.00000000000E+00 0. -1.
         23    2    1    2    0    0  0.10052338489E+04  0.20796216681E+03 -0.20079463423E+03  0.10498486426E+04  0.90112893521E+02 0.  0.
         11    1    3    3    0    0  0.37081586910E+03  0.12093731924E+03 -0.70073368077E+02  0.39628338456E+03  0.00000000000E+00 0.  1.
        -11    1    3    3    0    0  0.63441797975E+03  0.87024847571E+02 -0.13072126615E+03  0.65356525807E+03  0.00000000000E+00 0. -1.
         22    1    1    2    0    0 -0.10052338489E+04 -0.20796216681E+03  0.14876239259E+04  0.18074203436E+04  0.00000000000E+00 0.  1.
<mgrwt>
<rscale>  0 0.25510893E+04</rscale>
<asrwt>0</asrwt>
<pdfrwt beam="1">  1        2 0.12080305E+00 0.25510893E+04</pdfrwt>
<pdfrwt beam="2">  1       -2 0.31877679E+00 0.25510893E+04</pdfrwt>
<totfact> 0.76425957E-01</totfact>
</mgrwt>
</event>
<event>
 6    1  0.2319603E-005  0.3208711E+04  0.7818608E-02  0.8186520E-01
          2   -1    0    0  501    0  0.00000000000E+00  0.00000000000E+00  0.14022011567E+04  0.14022011567E+04  0.00000000000E+00 0. -1.
         -2   -1    0    0    0  501 -0.00000000000E+00 -0.00000000000E+00 -0.18356543992E+04  0.18356543992E+04  0.00000000000E+00 0.  1.
         23    2    1    2    0    0 -0.15702160621E+04 -0.67167911977E+02 -0.53595193470E+03  0.16628647648E+04  0.88231171553E+02 0.  0.
         11    1    3    3    0    0 -0.11731632404E+04 -0.11738035856E+02 -0.40043817893E+03  0.12396775812E+04  0.00000000000E+00 0. -1.
        -11    1    3    3    0    0 -0.39705282168E+03 -0.55429876121E+02 -0.13551375577E+03  0.42318718361E+03  0.00000000000E+00 0.  1.
         22    1    1    2    0    0  0.15702160621E+04  0.67167911977E+02  0.10249869224E+03  0.15749907911E+04  0.00000000000E+00 0.  1.
<mgrwt>
<rscale>  0 0.32087111E+04</rscale>
<asrwt>0</asrwt>
<pdfrwt beam="1">  1        2 0.21572326E+00 0.32087111E+04</pdfrwt>
<pdfrwt beam="2">  1       -2 0.28240837E+00 0.32087111E+04</pdfrwt>
<totfact> 0.49426076E-01</totfact>
</mgrwt>
</event>
<event>
 6    1  0.2003386E-005  0.2873964E+04  0.7818608E-02  0.8280666E-01
          1   -1    0    0  501    0  0.00000000000E+00  0.00000000000E+00  0.19157389400E+04  0.19157389400E+04  0.00000000000E+00 0. -1.
         -1   -1    0    0    0  501 -0.00000000000E+00 -0.00000000000E+00 -0.10778700527E+04  0.10778700527E+04  0.00000000000E+00 0.  1.
         23    2    1    2    0    0  0.16939667254E+03  0.99271995050E+03  0.14848810549E+04  0.17966073729E+04  0.93478191977E+02 0.  0.
         11    1    3    3    0    0  0.35207235686E+02  0.10460259109E+03  0.20785878157E+03  0.23534341840E+03  0.00000000000E+00 0. -1.
        -11    1    3    3    0    0  0.13418943686E+03  0.88811735942E+03  0.12770222733E+04  0.15612639545E+04  0.00000000000E+00 0.  1.
         22    1    1    2    0    0 -0.16939667254E+03 -0.99271995050E+03 -0.64701216755E+03  0.11970016198E+04  0.00000000000E+00 0.  1.
<mgrwt>
<rscale>  0 0.28739643E+04</rscale>
<asrwt>0</asrwt>
<pdfrwt beam="1">  1        1 0.29472907E+00 0.28739643E+04</pdfrwt>
<pdfrwt beam="2">  1       -1 0.16582616E+00 0.28739643E+04</pdfrwt>
<totfact> 0.77265095E-01</totfact>
</mgrwt>
</event>
<event>
 6    1  0.2003386E-005  0.3410037E+04  0.7818608E-02  0.8135447E-01
          2   -1    0    0  501    0  0.00000000000E+00  0.00000000000E+00  0.18764036142E+04  0.18764036142E+04  0.00000000000E+00 0. -1.
         -2   -1    0    0    0  501 -0.00000000000E+00 -0.00000000000E+00 -0.15492872299E+04  0.15492872299E+04  0.00000000000E+00 0.  1.
         23    2    1    2    0    0 -0.15977746623E+04  0.26646547601E+03  0.69463184855E+03  0.17646805076E+04  0.87727803110E+02 0.  0.
         11    1    3    3    0    0 -0.11171611849E+03  0.41232569948E+02  0.56222160806E+02  0.13168730888E+03  0.00000000000E+00 0. -1.
        -11    1    3    3    0    0 -0.14860585438E+04  0.22523290606E+03  0.63840968774E+03  0.16329931987E+04  0.00000000000E+00 0.  1.
         22    1    1    2    0    0  0.15977746623E+04 -0.26646547601E+03 -0.36751546427E+03  0.16610103365E+04  0.00000000000E+00 0. -1.
<mgrwt>
<rscale>  0 0.34100370E+04</rscale>
<asrwt>0</asrwt>
<pdfrwt beam="1">  1        2 0.28867748E+00 0.34100370E+04</pdfrwt>
<pdfrwt beam="2">  1       -2 0.23835188E+00 0.34100370E+04</pdfrwt>
<totfact> 0.49132188E-01</totfact>
</mgrwt>
</event>
<event>
 6    1  0.2003386E-005  0.4535394E+04  0.7818608E-02  0.7904469E-01
         -2   -1    0    0    0  501 -0.00000000000E+00  0.00000000000E+00  0.21296828374E+04  0.21296828374E+04  0.00000000000E+00 0. -1.
          2   -1    0    0  501    0  0.00000000000E+00 -0.00000000000E+00 -0.24146555950E+04  0.24146555950E+04  0.00000000000E+00 0.  1.
         23    2    1    2    0    0 -0.14550151456E+04 -0.73753274828E+03  0.14344802361E+04  0.21742029454E+04  0.91658449745E+02 0.  0.
         13    1    3    3    0    0 -0.44126416744E+03 -0.26931604467E+03  0.47079806403E+03  0.69921099425E+03  0.00000000000E+00 0. -1.
        -13    1    3    3    0    0 -0.10137509782E+04 -0.46821670360E+03  0.96368217205E+03  0.14749919512E+04  0.00000000000E+00 0.  1.
         22    1    1    2    0    0  0.14550151456E+04  0.73753274828E+03 -0.17194529937E+04  0.23701354869E+04  0.00000000000E+00 0.  1.
<mgrwt>
<rscale>  0 0.45353944E+04</rscale>
<asrwt>0</asrwt>
<pdfrwt beam="1">  1        2 0.37148548E+00 0.45353944E+04</pdfrwt>
<pdfrwt beam="2">  1       -2 0.32764351E+00 0.45353944E+04</pdfrwt>
<totfact> 0.63253933E-02</totfact>
</mgrwt>
</event>
<event>
 6    1  0.2003386E-005  0.3994251E+04  0.7818608E-02  0.8005707E-01
         -2   -1    0    0    0  501 -0.00000000000E+00  0.00000000000E+00  0.26355675432E+04  0.26355675432E+04  0.00000000000E+00 0.  1.
          2   -1    0    0  501    0  0.00000000000E+00 -0.00000000000E+00 -0.15133399347E+04  0.15133399347E+04  0.00000000000E+00 0. -1.
         23    2    1    2    0    0 -0.42485027855E+03  0.19131462394E+04  0.95586294211E+03  0.21821071589E+04  0.85389674213E+02 0.  0.
         11    1    3    3    0    0 -0.22097002753E+03  0.11850579476E+04  0.59354293254E+03  0.13436827397E+04  0.00000000000E+00 0. -1.
        -11    1    3    3    0    0 -0.20388025102E+03  0.72808829184E+03  0.36232000957E+03  0.83842441925E+03  0.00000000000E+00 0.  1.
         22    1    1    2    0    0  0.42485027855E+03 -0.19131462394E+04  0.16636466631E+03  0.19668003190E+04  0.00000000000E+00 0. -1.
<mgrwt>
<rscale>  0 0.39942507E+04</rscale>
<asrwt>0</asrwt>
<pdfrwt beam="1">  1        2 0.23282153E+00 0.39942507E+04</pdfrwt>
<pdfrwt beam="2">  1       -2 0.40547193E+00 0.39942507E+04</pdfrwt>
<totfact> 0.67259078E-02</totfact>
</mgrwt>
</event>
<event>
 6    1  0.2003386E-005  0.1970246E+04  0.7818608E-02  0.8620659E-01
         -2   -1    0    0    0  501 -0.00000000000E+00  0.00000000000E+00  0.43473394787E+03  0.43473394787E+03  0.00000000000E+00 0.  1.
          2   -1    0    0  501    0  0.00000000000E+00 -0.00000000000E+00 -0.22323253201E+04  0.22323253201E+04  0.00000000000E+00 0. -1.
         23    2    1    2    0    0 -0.12373973429E+03 -0.85186109416E+03 -0.15433043880E+04  0.17694843597E+04  0.91146145359E+02 0.  0.
         13    1    3    3    0    0 -0.11846589737E+03 -0.51126627317E+03 -0.95273161883E+03  0.10877154538E+04  0.00000000000E+00 0.  1.
        -13    1    3    3    0    0 -0.52738369286E+01 -0.34059482099E+03 -0.59057276915E+03  0.68176890594E+03  0.00000000000E+00 0. -1.
         22    1    1    2    0    0  0.12373973429E+03  0.85186109416E+03 -0.25428698429E+03  0.89757490828E+03  0.00000000000E+00 0.  1.
<mgrwt>
<rscale>  0 0.19702463E+04</rscale>
<asrwt>0</asrwt>
<pdfrwt beam="1">  1        2 0.34343467E+00 0.19702463E+04</pdfrwt>
<pdfrwt beam="2">  1       -2 0.66882145E-01 0.19702463E+04</pdfrwt>
<totfact> 0.94666963E+00</totfact>
</mgrwt>
</event>
<event>
 6    1  0.2003386E-005  0.3683048E+03  0.7818608E-02  0.1055343E+00
         -2   -1    0    0    0  501 -0.00000000000E+00  0.00000000000E+00  0.52389977790E+02  0.52389977790E+02  0.00000000000E+00 0.  1.
          2   -1    0    0  501    0  0.00000000000E+00 -0.00000000000E+00 -0.64730134733E+03  0.64730134733E+03  0.00000000000E+00 0. -1.
         23    2    1    2    0    0  0.28677564108E+02 -0.13905152385E+03 -0.12763820143E+03  0.21132471836E+03  0.90602964396E+02 0.  0.
         13    1    3    3    0    0 -0.10109477187E+02 -0.93259835062E+02 -0.11768004790E+03  0.15049316277E+03  0.00000000000E+00 0.  1.
        -13    1    3    3    0    0  0.38787041295E+02 -0.45791688785E+02 -0.99581535297E+01  0.60831555593E+02  0.00000000000E+00 0. -1.
         22    1    1    2    0    0 -0.28677564108E+02  0.13905152385E+03 -0.46727316810E+03  0.48836660676E+03  0.00000000000E+00 0. -1.
<mgrwt>
<rscale>  0 0.36830478E+03</rscale>
<asrwt>0</asrwt>
<pdfrwt beam="1">  1        2 0.99584827E-01 0.36830478E+03</pdfrwt>
<pdfrwt beam="2">  1       -2 0.80599963E-02 0.36830478E+03</pdfrwt>
<totfact> 0.43303389E+03</totfact>
</mgrwt>
</event>
<event>
 6    1  0.2003386E-005  0.2142370E+04  0.7818608E-02  0.8542805E-01
          2   -1    0    0  501    0  0.00000000000E+00  0.00000000000E+00  0.23198516379E+04  0.23198516379E+04  0.00000000000E+00 0. -1.
         -2   -1    0    0    0  501 -0.00000000000E+00 -0.00000000000E+00 -0.49461657478E+03  0.49461657478E+03  0.00000000000E+00 0.  1.
         23    2    1    2    0    0 -0.86901771511E+03  0.39895700077E+03  0.28506410241E+03  0.10016016798E+04  0.87097100756E+02 0.  0.
         11    1    3    3    0    0 -0.26647399296E+03  0.16387579465E+03  0.10915730144E+03  0.33132911350E+03  0.00000000000E+00 0.  1.
        -11    1    3    3    0    0 -0.60254372215E+03  0.23508120612E+03  0.17590680097E+03  0.67027256635E+03  0.00000000000E+00 0. -1.
         22    1    1    2    0    0  0.86901771511E+03 -0.39895700077E+03  0.15401709608E+04  0.18128665329E+04  0.00000000000E+00 0. -1.
<mgrwt>
<rscale>  0 0.21423698E+04</rscale>
<asrwt>0</asrwt>
<pdfrwt beam="1">  1        2 0.35690025E+00 0.21423698E+04</pdfrwt>
<pdfrwt beam="2">  1       -2 0.76094859E-01 0.21423698E+04</pdfrwt>
<totfact> 0.62724241E+00</totfact>
</mgrwt>
</event>
<event>
 6    1  0.2003386E-005  0.2024365E+04  0.7818608E-02  0.8595313E-01
          2   -1    0    0  501    0  0.00000000000E+00  0.00000000000E+00  0.51142336816E+03  0.51142336816E+03  0.00000000000E+00 0. -1.
         -2   -1    0    0    0  501 -0.00000000000E+00 -0.00000000000E+00 -0.20032582344E+04  0.20032582344E+04  0.00000000000E+00 0.  1.
         23    2    1    2    0    0 -0.98528663936E+03 -0.81287867355E+02 -0.48710401129E+03  0.11051137362E+04  0.81293129789E+02 0.  0.
         11    1    3    3    0    0 -0.19925788080E+03 -0.15648021150E+02 -0.63021927994E+02  0.20957177061E+03  0.00000000000E+00 0.  1.
        -11    1    3    3    0    0 -0.78602875856E+03 -0.65639846205E+02 -0.42408208329E+03  0.89554196555E+03  0.00000000000E+00 0. -1.
         22    1    1    2    0    0  0.98528663936E+03  0.81287867355E+02 -0.10047308549E+04  0.14095678664E+04  0.00000000000E+00 0.  1.
<mgrwt>
<rscale>  0 0.20243647E+04</rscale>
<asrwt>0</asrwt>
<pdfrwt beam="1">  1        2 0.78680518E-01 0.20243647E+04</pdfrwt>
<pdfrwt beam="2">  1       -2 0.30819357E+00 0.20243647E+04</pdfrwt>
<totfact> 0.15762661E+00</totfact>
</mgrwt>
</event>
<event>
 6    1  0.2003386E-005  0.9827875E+03  0.7818608E-02  0.9327627E-01
         -2   -1    0    0    0  501 -0.00000000000E+00  0.00000000000E+00  0.48811416210E+03  0.48811416210E+03  0.00000000000E+00 0. -1.
          2   -1    0    0  501    0  0.00000000000E+00 -0.00000000000E+00 -0.49469541446E+03  0.49469541446E+03  0.00000000000E+00 0.  1.
         23    2    1    2    0    0 -0.20300369194E+03 -0.79248471469E+02  0.43246502073E+03  0.49265404096E+03  0.90505197361E+02 0.  0.
         13    1    3    3    0    0 -0.18118059276E+03 -0.95615475767E+02  0.40542471780E+03  0.45424434857E+03  0.00000000000E+00 0.  1.
        -13    1    3    3    0    0 -0.21823099177E+02  0.16367004298E+02  0.27040302925E+02  0.38409692392E+02  0.00000000000E+00 0. -1.
         22    1    1    2    0    0  0.20300369194E+03  0.79248471469E+02 -0.43904627309E+03  0.49015553560E+03  0.00000000000E+00 0.  1.
<mgrwt>
<rscale>  0 0.98278754E+03</rscale>
<asrwt>0</asrwt>
<pdfrwt beam="1">  1        2 0.76106987E-01 0.98278754E+03</pdfrwt>
<pdfrwt beam="2">  1       -2 0.75094487E-01 0.98278754E+03</pdfrwt>
<totfact> 0.99288747E+01</totfact>
</mgrwt>
</event>
<event>
 6    1  0.2003386E-005  0.2642736E+04  0.7818608E-02  0.8353828E-01
         -2   -1    0    0    0  501 -0.00000000000E+00  0.00000000000E+00  0.43578239762E+03  0.43578239762E+03  0.00000000000E+00 0.  1.
          2   -1    0    0  501    0  0.00000000000E+00 -0.00000000000E+00 -0.40066188746E+04  0.40066188746E+04  0.00000000000E+00 0. -1.
         23    2    1    2    0    0 -0.47300515076E+02  0.71912010309E+03 -0.36461753153E+04  0.37178000012E+04  0.89840736034E+02 0.  0.
         13    1    3    3    0    0  0.50413849644E+01  0.45715702633E+03 -0.21682910174E+04  0.22159656808E+04  0.00000000000E+00 0. -1.
        -13    1    3    3    0    0 -0.52341900041E+02  0.26196307676E+03 -0.14778842978E+04  0.15018343204E+04  0.00000000000E+00 0.  1.
         22    1    1    2    0    0  0.47300515076E+02 -0.71912010309E+03  0.75338838296E+02  0.72460127101E+03  0.00000000000E+00 0.  1.
<mgrwt>
<rscale>  0 0.26427364E+04</rscale>
<asrwt>0</asrwt>
<pdfrwt beam="1">  1        2 0.61640290E+00 0.26427364E+04</pdfrwt>
<pdfrwt beam="2">  1       -2 0.67043446E-01 0.26427364E+04</pdfrwt>
<totfact> 0.60943707E-01</totfact>
</mgrwt>
</event>
<event>
 6    1  0.2003386E-005  0.6398274E+03  0.7818608E-02  0.9826057E-01
         -2   -1    0    0    0  501 -0.00000000000E+00  0.00000000000E+00  0.12210027829E+03  0.12210027829E+03  0.00000000000E+00 0.  1.
          2   -1    0    0  501    0  0.00000000000E+00 -0.00000000000E+00 -0.83820272838E+03  0.83820272838E+03  0.00000000000E+00 0. -1.
         23    2    1    2    0    0 -0.77545750130E+02  0.17499396399E+03  0.61594044596E+01  0.21310931201E+03  0.93495506865E+02 0.  0.
         11    1    3    3    0    0  0.18624426196E+02  0.48817839113E+02 -0.11442240637E+02  0.53488087810E+02  0.00000000000E+00 0. -1.
        -11    1    3    3    0    0 -0.96170176325E+02  0.12617612488E+03  0.17601645097E+02  0.15962122420E+03  0.00000000000E+00 0.  1.
         22    1    1    2    0    0  0.77545750130E+02 -0.17499396399E+03 -0.72226185455E+03  0.74719369466E+03  0.00000000000E+00 0. -1.
<mgrwt>
<rscale>  0 0.63982743E+03</rscale>
<asrwt>0</asrwt>
<pdfrwt beam="1">  1        2 0.12895426E+00 0.63982743E+03</pdfrwt>
<pdfrwt beam="2">  1       -2 0.18784658E-01 0.63982743E+03</pdfrwt>
<totfact> 0.77500733E+02</totfact>
</mgrwt>
</event>
<event>
 6    1  0.2003386E-005  0.1581209E+04  0.7818608E-02  0.8832176E-01
          2   -1    0    0  501    0  0.00000000000E+00  0.00000000000E+00  0.61307895013E+03  0.61307895013E+03  0.00000000000E+00 0. -1.
         -2   -1    0    0    0  501 -0.00000000000E+00 -0.00000000000E+00 -0.10195349832E+04  0.10195349832E+04  0.00000000000E+00 0.  1.
         23    2    1    2    0    0 -0.20827813822E+03  0.65388246061E+03  0.19599925415E+03  0.71943573153E+03  0.90719397112E+02 0.  0.
         11    1    3    3    0    0 -0.78460312757E+02  0.13371816055E+03  0.27470634337E+02  0.15745222415E+03  0.00000000000E+00 0.  1.
        -11    1    3    3    0    0 -0.12981782546E+03  0.52016430006E+03  0.16852861982E+03  0.56198350737E+03  0.00000000000E+00 0. -1.
         22    1    1    2    0    0  0.20827813822E+03 -0.65388246061E+03 -0.60245528726E+03  0.91317820183E+03  0.00000000000E+00 0.  1.
<mgrwt>
<rscale>  0 0.15812090E+04</rscale>
<asrwt>0</asrwt>
<pdfrwt beam="1">  1        2 0.94319840E-01 0.15812090E+04</pdfrwt>
<pdfrwt beam="2">  1       -2 0.15685153E+00 0.15812090E+04</pdfrwt>
<totfact> 0.12325148E+01</totfact>
</mgrwt>
</event>
<event>
 6    1  0.2003386E-005  0.5550645E+04  0.7818608E-02  0.7748759E-01
         -2   -1    0    0    0  501 -0.00000000000E+00  0.00000000000E+00  0.29811653362E+04  0.29811653362E+04  0.00000000000E+00 0.  1.
          2   -1    0    0  501    0  0.00000000000E+00 -0.00000000000E+00 -0.25836924241E+04  0.25836924241E+04  0.00000000000E+00 0. -1.
         23    2    1    2    0    0  0.74973786221E+03 -0.22358747187E+03  0.28675815584E+04  0.29738087557E+04  0.91740403612E+02 0.  0.
         13    1    3    3    0    0  0.35889948257E+03 -0.12813983197E+03  0.12399999791E+04  0.12972388382E+04  0.00000000000E+00 0. -1.
        -13    1    3    3    0    0  0.39083837964E+03 -0.95447639898E+02  0.16275815793E+04  0.16765699175E+04  0.00000000000E+00 0.  1.
         22    1    1    2    0    0 -0.74973786221E+03  0.22358747187E+03 -0.24701086463E+04  0.25910490046E+04  0.00000000000E+00 0. -1.
<mgrwt>
<rscale>  0 0.55506448E+04</rscale>
<asrwt>0</asrwt>
<pdfrwt beam="1">  1        2 0.39749114E+00 0.55506448E+04</pdfrwt>
<pdfrwt beam="2">  1       -2 0.45864082E+00 0.55506448E+04</pdfrwt>
<totfact> 0.66318478E-03</totfact>
</mgrwt>
</event>
<event>
 6    1  0.2003386E-005  0.5033609E+04  0.7818608E-02  0.7823344E-01
         -2   -1    0    0    0  501 -0.00000000000E+00  0.00000000000E+00  0.14458584101E+04  0.14458584101E+04  0.00000000000E+00 0.  1.
          2   -1    0    0  501    0  0.00000000000E+00 -0.00000000000E+00 -0.43809988876E+04  0.43809988876E+04  0.00000000000E+00 0. -1.
         23    2    1    2    0    0 -0.21408723600E+04 -0.59422269235E+03 -0.28345143605E+04  0.36027708144E+04  0.95135751817E+02 0.  0.
         11    1    3    3    0    0 -0.12329859098E+04 -0.36758193234E+03 -0.15757182502E+04  0.20342710573E+04  0.00000000000E+00 0. -1.
        -11    1    3    3    0    0 -0.90788645020E+03 -0.22664076001E+03 -0.12587961103E+04  0.15684997571E+04  0.00000000000E+00 0.  1.
         22    1    1    2    0    0  0.21408723600E+04  0.59422269235E+03 -0.10062611698E+03  0.22240864833E+04  0.00000000000E+00 0.  1.
<mgrwt>
<rscale>  0 0.50336087E+04</rscale>
<asrwt>0</asrwt>
<pdfrwt beam="1">  1        2 0.67399982E+00 0.50336087E+04</pdfrwt>
<pdfrwt beam="2">  1       -2 0.22243976E+00 0.50336087E+04</pdfrwt>
<totfact> 0.10981117E-02</totfact>
</mgrwt>
</event>
<event>
 6    1  0.2003386E-005  0.1850431E+04  0.7818608E-02  0.8679931E-01
          2   -1    0    0  501    0  0.00000000000E+00  0.00000000000E+00  0.47132712998E+03  0.47132712998E+03  0.00000000000E+00 0. -1.
         -2   -1    0    0    0  501 -0.00000000000E+00 -0.00000000000E+00 -0.18161983950E+04  0.18161983950E+04  0.00000000000E+00 0.  1.
         23    2    1    2    0    0 -0.77229108648E+03 -0.50391504368E+03 -0.72344538046E+03  0.11755300108E+04  0.90186996509E+02 0.  0.
         11    1    3    3    0    0 -0.71289449260E+03 -0.44285170305E+03 -0.63235309749E+03  0.10508123659E+04  0.00000000000E+00 0. -1.
        -11    1    3    3    0    0 -0.59396593887E+02 -0.61063340631E+02 -0.91092282970E+02  0.12471764491E+03  0.00000000000E+00 0.  1.
         22    1    1    2    0    0  0.77229108648E+03  0.50391504368E+03 -0.62142588455E+03  0.11119955142E+04  0.00000000000E+00 0.  1.
<mgrwt>
<rscale>  0 0.18504308E+04</rscale>
<asrwt>0</asrwt>
<pdfrwt beam="1">  1        2 0.72511867E-01 0.18504308E+04</pdfrwt>
<pdfrwt beam="2">  1       -2 0.27941513E+00 0.18504308E+04</pdfrwt>
<totfact> 0.26346844E+00</totfact>
</mgrwt>
</event>
<event>
 6    1  0.2003386E-005  0.2302314E+04  0.7818608E-02  0.8477009E-01
          2   -1    0    0  501    0  0.00000000000E+00  0.00000000000E+00  0.25795537005E+04  0.25795537005E+04  0.00000000000E+00 0. -1.
         -2   -1    0    0    0  501 -0.00000000000E+00 -0.00000000000E+00 -0.51371755157E+03  0.51371755157E+03  0.00000000000E+00 0.  1.
         23    2    1    2    0    0 -0.29925783446E+03  0.64350139711E+03  0.22492512582E+04  0.23602702958E+04  0.89974148289E+02 0.  0.
         11    1    3    3    0    0 -0.16361860775E+03  0.36301457265E+03  0.11132210177E+04  0.11822908538E+04  0.00000000000E+00 0.  1.
        -11    1    3    3    0    0 -0.13563922671E+03  0.28048682446E+03  0.11360302405E+04  0.11779794420E+04  0.00000000000E+00 0. -1.
         22    1    1    2    0    0  0.29925783446E+03 -0.64350139711E+03 -0.18341510925E+03  0.73300095625E+03  0.00000000000E+00 0.  1.
<mgrwt>
<rscale>  0 0.23023136E+04</rscale>
<asrwt>0</asrwt>
<pdfrwt beam="1">  1        2 0.39685441E+00 0.23023136E+04</pdfrwt>
<pdfrwt beam="2">  1       -2 0.79033471E-01 0.23023136E+04</pdfrwt>
<totfact> 0.40286883E+00</totfact>
</mgrwt>
</event>
<event>
 6    1  0.2003386E-005  0.4020113E+04  0.7818608E-02  0.8000501E-01
          2   -1    0    0  501    0  0.00000000000E+00  0.00000000000E+00  0.26917484690E+04  0.26917484690E+04  0.00000000000E+00 0. -1.
         -2   -1    0    0    0  501 -0.00000000000E+00 -0.00000000000E+00 -0.15010047749E+04  0.15010047749E+04  0.00000000000E+00 0.  1.
         23    2    1    2    0    0 -0.80503349376E+03  0.89431846685E+03 -0.10823427641E+04  0.16208266329E+04  0.87912847722E+02 0.  0.
         13    1    3    3    0    0 -0.24378961308E+03  0.21749664577E+03 -0.27210934941E+03  0.42518427111E+03  0.00000000000E+00 0. -1.
        -13    1    3    3    0    0 -0.56124388068E+03  0.67682182108E+03 -0.81023341465E+03  0.11956423618E+04  0.00000000000E+00 0.  1.
         22    1    1    2    0    0  0.80503349376E+03 -0.89431846685E+03  0.22730864581E+04  0.25719266110E+04  0.00000000000E+00 0. -1.
<mgrwt>
<rscale>  0 0.40201131E+04</rscale>
<asrwt>0</asrwt>
<pdfrwt beam="1">  1        2 0.41411515E+00 0.40201131E+04</pdfrwt>
<pdfrwt beam="2">  1       -2 0.23092381E+00 0.40201131E+04</pdfrwt>
<totfact> 0.17843674E-01</totfact>
</mgrwt>
</event>
<event>
 6    1  0.2003386E-005  0.8139518E+03  0.7818608E-02  0.9540039E-01
         -2   -1    0    0    0  501 -0.00000000000E+00  0.00000000000E+00  0.70709482698E+03  0.70709482698E+03  0.00000000000E+00 0.  1.
          2   -1    0    0  501    0  0.00000000000E+00 -0.00000000000E+00 -0.23423926490E+03  0.23423926490E+03  0.00000000000E+00 0. -1.
         23    2    1    2    0    0 -0.16194404075E+03  0.35575845596E+03  0.13722094161E+03  0.42612486276E+03  0.99814129865E+02 0.  0.
         13    1    3    3    0    0 -0.21229354632E+02  0.73881026657E+02 -0.11520701200E+02  0.77729133239E+02  0.00000000000E+00 0. -1.
        -13    1    3    3    0    0 -0.14071468612E+03  0.28187742930E+03  0.14874164281E+03  0.34839572952E+03  0.00000000000E+00 0.  1.
         22    1    1    2    0    0  0.16194404075E+03 -0.35575845596E+03  0.33563462047E+03  0.51520922913E+03  0.00000000000E+00 0.  1.
<mgrwt>
<rscale>  0 0.81395177E+03</rscale>
<asrwt>0</asrwt>
<pdfrwt beam="1">  1        2 0.36036810E-01 0.81395177E+03</pdfrwt>
<pdfrwt beam="2">  1       -2 0.10878382E+00 0.81395177E+03</pdfrwt>
<totfact> 0.98355467E+01</totfact>
</mgrwt>
</event>
<event>
 6    1  0.2003386E-005  0.3359813E+04  0.7818608E-02  0.8147840E-01
         -2   -1    0    0    0  501 -0.00000000000E+00  0.00000000000E+00  0.14543228152E+04  0.14543228152E+04  0.00000000000E+00 0.  1.
          2   -1    0    0  501    0  0.00000000000E+00 -0.00000000000E+00 -0.19404812724E+04  0.19404812724E+04  0.00000000000E+00 0. -1.
         23    2    1    2    0    0 -0.15814974400E+04  0.51913806084E+03 -0.46297252608E+03  0.17301191124E+04  0.91269404777E+02 0.  0.
         13    1    3    3    0    0 -0.40058960112E+03  0.17188854048E+03 -0.10905692356E+03  0.44934520299E+03  0.00000000000E+00 0.  1.
        -13    1    3    3    0    0 -0.11809078389E+04  0.34724952037E+03 -0.35391560253E+03  0.12807739095E+04  0.00000000000E+00 0. -1.
         22    1    1    2    0    0  0.15814974400E+04 -0.51913806084E+03 -0.23185931210E+02  0.16646849752E+04  0.00000000000E+00 0. -1.
<mgrwt>
<rscale>  0 0.33598132E+04</rscale>
<asrwt>0</asrwt>
<pdfrwt beam="1">  1        2 0.29853558E+00 0.33598132E+04</pdfrwt>
<pdfrwt beam="2">  1       -2 0.22374197E+00 0.33598132E+04</pdfrwt>
<totfact> 0.56094954E-01</totfact>
</mgrwt>
</event>
<event>
 6    1  0.2003386E-005  0.2114875E+04  0.7818608E-02  0.8554719E-01
          1   -1    0    0  501    0  0.00000000000E+00  0.00000000000E+00  0.18989080823E+04  0.18989080823E+04  0.00000000000E+00 0. -1.
         -1   -1    0    0    0  501 -0.00000000000E+00 -0.00000000000E+00 -0.58885113013E+03  0.58885113013E+03  0.00000000000E+00 0.  1.
         23    2    1    2    0    0  0.24826339476E+03  0.35186024425E+03  0.17897214989E+04  0.18431520282E+04  0.93091409889E+02 0.  0.
         11    1    3    3    0    0  0.67064723059E+02  0.55023350606E+02  0.24931170044E+03  0.26397266935E+03  0.00000000000E+00 0. -1.
        -11    1    3    3    0    0  0.18119867170E+03  0.29683689365E+03  0.15404097985E+04  0.15791793588E+04  0.00000000000E+00 0.  1.
         22    1    1    2    0    0 -0.24826339476E+03 -0.35186024425E+03 -0.47966454671E+03  0.64460718429E+03  0.00000000000E+00 0.  1.
<mgrwt>
<rscale>  0 0.21148751E+04</rscale>
<asrwt>0</asrwt>
<pdfrwt beam="1">  1        1 0.29213970E+00 0.21148751E+04</pdfrwt>
<pdfrwt beam="2">  1       -1 0.90592483E-01 0.21148751E+04</pdfrwt>
<totfact> 0.38158277E+00</totfact>
</mgrwt>
</event>
<event>
 6    1  0.2003386E-005  0.1523997E+04  0.7818608E-02  0.8868650E-01
         -2   -1    0    0    0  501 -0.00000000000E+00  0.00000000000E+00  0.30463909174E+03  0.30463909174E+03  0.00000000000E+00 0.  1.
          2   -1    0    0  501    0  0.00000000000E+00 -0.00000000000E+00 -0.19059977146E+04  0.19059977146E+04  0.00000000000E+00 0. -1.
         23    2    1    2    0    0 -0.48592192644E+03 -0.30903974852E+03 -0.15213525604E+04  0.16292362089E+04  0.90946832436E+02 0.  0.
         13    1    3    3    0    0 -0.36043543754E+03 -0.18549479244E+03 -0.11134819364E+04  0.11849742805E+04  0.00000000000E+00 0.  1.
        -13    1    3    3    0    0 -0.12548648890E+03 -0.12354495608E+03 -0.40787062400E+03  0.44426192836E+03  0.00000000000E+00 0. -1.
         22    1    1    2    0    0  0.48592192644E+03  0.30903974852E+03 -0.80006062450E+02  0.58140059751E+03  0.00000000000E+00 0.  1.
<mgrwt>
<rscale>  0 0.15239966E+04</rscale>
<asrwt>0</asrwt>
<pdfrwt beam="1">  1        2 0.29323042E+00 0.15239966E+04</pdfrwt>
<pdfrwt beam="2">  1       -2 0.46867553E-01 0.15239966E+04</pdfrwt>
<totfact> 0.31367393E+01</totfact>
</mgrwt>
</event>
<event>
 6    1  0.2329523E-005  0.2791307E+04  0.7818608E-02  0.8305972E-01
         -2   -1    0    0    0  501 -0.00000000000E+00  0.00000000000E+00  0.13581853745E+04  0.13581853745E+04  0.00000000000E+00 0.  1.
          2   -1    0    0  501    0  0.00000000000E+00 -0.00000000000E+00 -0.14341548883E+04  0.14341548883E+04  0.00000000000E+00 0. -1.
         23    2    1    2    0    0 -0.42250917659E+03  0.98748145433E+03  0.85120234365E+03  0.13734388285E+04  0.90305918621E+02 0.  0.
         13    1    3    3    0    0 -0.20575908453E+03  0.36937258504E+03  0.32837991838E+03  0.53535621622E+03  0.00000000000E+00 0.  1.
        -13    1    3    3    0    0 -0.21675009206E+03  0.61810886929E+03  0.52282242527E+03  0.83808261231E+03  0.00000000000E+00 0. -1.
         22    1    1    2    0    0  0.42250917659E+03 -0.98748145433E+03 -0.92717185742E+03  0.14189014343E+04  0.00000000000E+00 0. -1.
<mgrwt>
<rscale>  0 0.27913066E+04</rscale>
<asrwt>0</asrwt>
<pdfrwt beam="1">  1        2 0.22063921E+00 0.27913066E+04</pdfrwt>
<pdfrwt beam="2">  1       -2 0.20895160E+00 0.27913066E+04</pdfrwt>
<totfact> 0.14012013E+00</totfact>
</mgrwt>
</event>
<event>
 6    1  0.2003386E-005  0.2624367E+04  0.7818608E-02  0.8359971E-01
          2   -1    0    0  501    0  0.00000000000E+00  0.00000000000E+00  0.10109035974E+04  0.10109035974E+04  0.00000000000E+00 0. -1.
         -2   -1    0    0    0  501 -0.00000000000E+00 -0.00000000000E+00 -0.17032537070E+04  0.17032537070E+04  0.00000000000E+00 0.  1.
         23    2    1    2    0    0  0.72813346336E+03  0.82276672695E+03 -0.10856031048E+04  0.15472077145E+04  0.90521727244E+02 0.  0.
         13    1    3    3    0    0  0.46324885997E+03  0.49781388681E+03 -0.72775661068E+03  0.99601599212E+03  0.00000000000E+00 0.  1.
        -13    1    3    3    0    0  0.26488460338E+03  0.32495284014E+03 -0.35784649410E+03  0.55119172233E+03  0.00000000000E+00 0. -1.
         22    1    1    2    0    0 -0.72813346336E+03 -0.82276672695E+03  0.39325299515E+03  0.11669495900E+04  0.00000000000E+00 0. -1.
<mgrwt>
<rscale>  0 0.26243668E+04</rscale>
<asrwt>0</asrwt>
<pdfrwt beam="1">  1        2 0.15552363E+00 0.26243668E+04</pdfrwt>
<pdfrwt beam="2">  1       -2 0.26203903E+00 0.26243668E+04</pdfrwt>
<totfact> 0.11861270E+00</totfact>
</mgrwt>
</event>
<event>
 6    1  0.2003386E-005  0.3300028E+04  0.7818608E-02  0.8162888E-01
         -2   -1    0    0    0  501 -0.00000000000E+00  0.00000000000E+00  0.21069167447E+04  0.21069167447E+04  0.00000000000E+00 0.  1.
          2   -1    0    0  501    0  0.00000000000E+00 -0.00000000000E+00 -0.12921941547E+04  0.12921941547E+04  0.00000000000E+00 0. -1.
         23    2    1    2    0    0 -0.42860013267E+02 -0.16253631970E+04  0.12561923869E+03  0.16331817016E+04  0.88655369388E+02 0.  0.
         11    1    3    3    0    0  0.24204251110E+02 -0.42385965896E+03  0.49052981335E+02  0.42737460295E+03  0.00000000000E+00 0.  1.
        -11    1    3    3    0    0 -0.67064264377E+02 -0.12015035380E+04  0.76566257352E+02  0.12058070987E+04  0.00000000000E+00 0. -1.
         22    1    1    2    0    0  0.42860013267E+02  0.16253631970E+04  0.68910335131E+03  0.17659291978E+04  0.00000000000E+00 0.  1.
<mgrwt>
<rscale>  0 0.33000276E+04</rscale>
<asrwt>0</asrwt>
<pdfrwt beam="1">  1        2 0.19879910E+00 0.33000276E+04</pdfrwt>
<pdfrwt beam="2">  1       -2 0.32414104E+00 0.33000276E+04</pdfrwt>
<totfact> 0.31486977E-01</totfact>
</mgrwt>
</event>
<event>
 6    1  0.2003386E-005  0.2826708E+04  0.7818608E-02  0.8295024E-01
         -2   -1    0    0    0  501 -0.00000000000E+00  0.00000000000E+00  0.36427927746E+04  0.36427927746E+04  0.00000000000E+00 0.  1.
          2   -1    0    0  501    0  0.00000000000E+00 -0.00000000000E+00 -0.54836219537E+03  0.54836219537E+03  0.00000000000E+00 0. -1.
         23    2    1    2    0    0  0.27302616410E+03  0.12501117808E+04  0.66419911706E+03  0.14446394120E+04  0.92194428658E+02 0.  0.
         11    1    3    3    0    0  0.16528667650E+03  0.90859300739E+03  0.50728713635E+03  0.10536608454E+04  0.00000000000E+00 0. -1.
        -11    1    3    3    0    0  0.10773948760E+03  0.34151877341E+03  0.15691198072E+03  0.39097856651E+03  0.00000000000E+00 0.  1.
         22    1    1    2    0    0 -0.27302616410E+03 -0.12501117808E+04  0.24302314622E+04  0.27465155580E+04  0.00000000000E+00 0. -1.
<mgrwt>
<rscale>  0 0.28267082E+04</rscale>
<asrwt>0</asrwt>
<pdfrwt beam="1">  1        2 0.84363417E-01 0.28267082E+04</pdfrwt>
<pdfrwt beam="2">  1       -2 0.56042964E+00 0.28267082E+04</pdfrwt>
<totfact> 0.35934699E-02</totfact>
</mgrwt>
</event>
<event>
 6    1  0.2003386E-005  0.1700997E+04  0.7818608E-02  0.8760796E-01
         -2   -1    0    0    0  501 -0.00000000000E+00  0.00000000000E+00  0.42277551130E+03  0.42277551130E+03  0.00000000000E+00 0.  1.
          2   -1    0    0  501    0  0.00000000000E+00 -0.00000000000E+00 -0.17109494792E+04  0.17109494792E+04  0.00000000000E+00 0. -1.
         23    2    1    2    0    0 -0.39664425357E+03 -0.23384516186E+03  0.24864008062E+03  0.52941590454E+03  0.80306205715E+02 0.  0.
         11    1    3    3    0    0 -0.27974106199E+03 -0.18341130482E+03  0.14224503007E+03  0.36349472772E+03  0.00000000000E+00 0.  1.
        -11    1    3    3    0    0 -0.11690319157E+03 -0.50433857039E+02  0.10639505054E+03  0.16592117682E+03  0.00000000000E+00 0. -1.
         22    1    1    2    0    0  0.39664425357E+03  0.23384516186E+03 -0.15368140485E+04  0.16043090860E+04  0.00000000000E+00 0. -1.
<mgrwt>
<rscale>  0 0.17009968E+04</rscale>
<asrwt>0</asrwt>
<pdfrwt beam="1">  1        2 0.26322300E+00 0.17009968E+04</pdfrwt>
<pdfrwt beam="2">  1       -2 0.65042385E-01 0.17009968E+04</pdfrwt>
<totfact> 0.20056814E+01</totfact>
</mgrwt>
</event>
<event>
 6    1  0.2003386E-005  0.5283302E+04  0.7818608E-02  0.7786232E-01
         -2   -1    0    0    0  501 -0.00000000000E+00  0.00000000000E+00  0.22704017799E+04  0.22704017799E+04  0.00000000000E+00 0.  1.
          2   -1    0    0  501    0  0.00000000000E+00 -0.00000000000E+00 -0.30736055853E+04  0.30736055853E+04  0.00000000000E+00 0. -1.
         23    2    1    2    0    0  0.75428667596E+03  0.25305974613E+04 -0.39768399584E+03  0.26724313853E+04  0.10423554011E+03 0.  0.
         13    1    3    3    0    0  0.36706743371E+03  0.13842110333E+04 -0.18704794141E+03  0.14442179953E+04  0.00000000000E+00 0. -1.
        -13    1    3    3    0    0  0.38721924225E+03  0.11463864280E+04 -0.21063605443E+03  0.12282133900E+04  0.00000000000E+00 0.  1.
         22    1    1    2    0    0 -0.75428667596E+03 -0.25305974613E+04 -0.40551980962E+03  0.26715759799E+04  0.00000000000E+00 0. -1.
<mgrwt>
<rscale>  0 0.52833018E+04</rscale>
<asrwt>0</asrwt>
<pdfrwt beam="1">  1        2 0.47286240E+00 0.52833018E+04</pdfrwt>
<pdfrwt beam="2">  1       -2 0.34929258E+00 0.52833018E+04</pdfrwt>
<totfact> 0.17495843E-02</totfact>
</mgrwt>
</event>
<event>
 6    1  0.2003386E-005  0.7660690E+03  0.7818608E-02  0.9610472E-01
          2   -1    0    0  501    0  0.00000000000E+00  0.00000000000E+00  0.76791681718E+03  0.76791681718E+03  0.00000000000E+00 0. -1.
         -2   -1    0    0    0  501 -0.00000000000E+00 -0.00000000000E+00 -0.19105643166E+03  0.19105643166E+03  0.00000000000E+00 0.  1.
         23    2    1    2    0    0 -0.19571142685E+03 -0.32245975267E+03  0.29668774066E+03  0.48910096233E+03  0.94408056898E+02 0.  0.
         13    1    3    3    0    0 -0.88726165319E+02 -0.12838379298E+03  0.18141281854E+03  0.23930177902E+03  0.00000000000E+00 0. -1.
        -13    1    3    3    0    0 -0.10698526153E+03 -0.19407595969E+03  0.11527492212E+03  0.24979918332E+03  0.00000000000E+00 0.  1.
         22    1    1    2    0    0  0.19571142685E+03  0.32245975267E+03  0.28017264486E+03  0.46987228650E+03  0.00000000000E+00 0.  1.
<mgrwt>
<rscale>  0 0.76606905E+03</rscale>
<asrwt>0</asrwt>
<pdfrwt beam="1">  1        2 0.11814105E+00 0.76606905E+03</pdfrwt>
<pdfrwt beam="2">  1       -2 0.29393298E-01 0.76606905E+03</pdfrwt>
<totfact> 0.38927716E+02</totfact>
</mgrwt>
</event>
<event>
 6    1  0.2003386E-005  0.1785609E+04  0.7818608E-02  0.8713990E-01
         -2   -1    0    0    0  501 -0.00000000000E+00  0.00000000000E+00  0.45975846938E+03  0.45975846938E+03  0.00000000000E+00 0.  1.
          2   -1    0    0  501    0  0.00000000000E+00 -0.00000000000E+00 -0.17337365409E+04  0.17337365409E+04  0.00000000000E+00 0. -1.
         23    2    1    2    0    0  0.45656424419E+03  0.25570624570E+03 -0.15237223089E+04  0.16136598809E+04  0.91279479733E+02 0.  0.
         13    1    3    3    0    0  0.71532859733E+02  0.76201666527E+02 -0.35789999037E+03  0.37284855787E+03  0.00000000000E+00 0.  1.
        -13    1    3    3    0    0  0.38503138445E+03  0.17950457917E+03 -0.11658223186E+04  0.12408113231E+04  0.00000000000E+00 0. -1.
         22    1    1    2    0    0 -0.45656424419E+03 -0.25570624570E+03  0.24974423738E+03  0.57983512938E+03  0.00000000000E+00 0.  1.
<mgrwt>
<rscale>  0 0.17856092E+04</rscale>
<asrwt>0</asrwt>
<pdfrwt beam="1">  1        2 0.26672870E+00 0.17856092E+04</pdfrwt>
<pdfrwt beam="2">  1       -2 0.70732071E-01 0.17856092E+04</pdfrwt>
<totfact> 0.16128267E+01</totfact>
</mgrwt>
</event>
<event>
 6    1  0.2003386E-005  0.2314771E+04  0.7818608E-02  0.8472120E-01
         -2   -1    0    0    0  501 -0.00000000000E+00  0.00000000000E+00  0.66165344983E+03  0.66165344983E+03  0.00000000000E+00 0.  1.
          2   -1    0    0  501    0  0.00000000000E+00 -0.00000000000E+00 -0.20245357905E+04  0.20245357905E+04  0.00000000000E+00 0. -1.
         23    2    1    2    0    0 -0.92057498320E+03 -0.42944335555E+03 -0.43086194078E+02  0.10207338180E+04  0.90339425118E+02 0.  0.
         13    1    3    3    0    0 -0.70927680669E+03 -0.34502590289E+03 -0.68848371600E+02  0.79174273628E+03  0.00000000000E+00 0.  1.
        -13    1    3    3    0    0 -0.21129817650E+03 -0.84417452661E+02  0.25762177522E+02  0.22899108170E+03  0.00000000000E+00 0. -1.
         22    1    1    2    0    0  0.92057498320E+03  0.42944335555E+03 -0.13197961466E+04  0.16654554224E+04  0.00000000000E+00 0. -1.
<mgrwt>
<rscale>  0 0.23147709E+04</rscale>
<asrwt>0</asrwt>
<pdfrwt beam="1">  1        2 0.31146704E+00 0.23147709E+04</pdfrwt>
<pdfrwt beam="2">  1       -2 0.10179284E+00 0.23147709E+04</pdfrwt>
<totfact> 0.46415633E+00</totfact>
</mgrwt>
</event>
<event>
 6    1  0.2003386E-005  0.1992770E+04  0.7818608E-02  0.8610008E-01
          2   -1    0    0  501    0  0.00000000000E+00  0.00000000000E+00  0.30455272781E+04  0.30455272781E+04  0.00000000000E+00 0. -1.
         -2   -1    0    0    0  501 -0.00000000000E+00 -0.00000000000E+00 -0.32598072540E+03  0.32598072540E+03  0.00000000000E+00 0.  1.
         23    2    1    2    0    0 -0.28823210358E+03 -0.88725828544E+03  0.19444440051E+04  0.21586234377E+04  0.92128422916E+02 0.  0.
         11    1    3    3    0    0 -0.13985943043E+03 -0.31153533251E+03  0.76727432589E+03  0.83983618335E+03  0.00000000000E+00 0. -1.
        -11    1    3    3    0    0 -0.14837267315E+03 -0.57572295293E+03  0.11771696792E+04  0.13187872544E+04  0.00000000000E+00 0.  1.
         22    1    1    2    0    0  0.28823210358E+03  0.88725828544E+03  0.77510254765E+03  0.12128845658E+04  0.00000000000E+00 0.  1.
<mgrwt>
<rscale>  0 0.19927701E+04</rscale>
<asrwt>0</asrwt>
<pdfrwt beam="1">  1        2 0.46854264E+00 0.19927701E+04</pdfrwt>
<pdfrwt beam="2">  1       -2 0.50150883E-01 0.19927701E+04</pdfrwt>
<totfact> 0.57137163E+00</totfact>
</mgrwt>
</event>
<event>
 6    1  0.2003386E-005  0.2222374E+04  0.7818608E-02  0.8509173E-01
          2   -1    0    0  501    0  0.00000000000E+00  0.00000000000E+00  0.29797853567E+04  0.29797853567E+04  0.00000000000E+00 0. -1.
         -2   -1    0    0    0  501 -0.00000000000E+00 -0.00000000000E+00 -0.41437096405E+03  0.41437096405E+03  0.00000000000E+00 0.  1.
         23    2    1    2    0    0 -0.77960960803E+03  0.52781361551E+03  0.21808611156E+04  0.23771707867E+04  0.91691818830E+02 0.  0.
         13    1    3    3    0    0 -0.51310249652E+03  0.38194109719E+03  0.15566940349E+04  0.16829882626E+04  0.00000000000E+00 0.  1.
        -13    1    3    3    0    0 -0.26650711151E+03  0.14587251832E+03  0.62416708074E+03  0.69418252410E+03  0.00000000000E+00 0. -1.
         22    1    1    2    0    0  0.77960960803E+03 -0.52781361551E+03  0.38455327700E+03  0.10169855341E+04  0.00000000000E+00 0.  1.
<mgrwt>
<rscale>  0 0.22223740E+04</rscale>
<asrwt>0</asrwt>
<pdfrwt beam="1">  1        2 0.45842850E+00 0.22223740E+04</pdfrwt>
<pdfrwt beam="2">  1       -2 0.63749381E-01 0.22223740E+04</pdfrwt>
<totfact> 0.37267263E+00</totfact>
</mgrwt>
</event>
<event>
 6    1  0.2003386E-005  0.1352856E+04  0.7818608E-02  0.8988669E-01
         -2   -1    0    0    0  501 -0.00000000000E+00  0.00000000000E+00  0.14316836182E+03  0.14316836182E+03  0.00000000000E+00 0.  1.
          2   -1    0    0  501    0  0.00000000000E+00 -0.00000000000E+00 -0.31959192348E+04  0.31959192348E+04  0.00000000000E+00 0. -1.
         23    2    1    2    0    0 -0.11473513159E+03  0.46876500727E+03 -0.37622763412E+03  0.61940352846E+03  0.95962054660E+02 0.  0.
         13    1    3    3    0    0 -0.69284711650E+02  0.25562981556E+03 -0.26527619148E+03  0.37485788192E+03  0.00000000000E+00 0. -1.
        -13    1    3    3    0    0 -0.45450419941E+02  0.21313519171E+03 -0.11095144263E+03  0.24454564654E+03  0.00000000000E+00 0.  1.
         22    1    1    2    0    0  0.11473513159E+03 -0.46876500727E+03 -0.26765232389E+04  0.27196840682E+04  0.00000000000E+00 0. -1.
<mgrwt>
<rscale>  0 0.13528555E+04</rscale>
<asrwt>0</asrwt>
<pdfrwt beam="1">  1        2 0.49167988E+00 0.13528555E+04</pdfrwt>
<pdfrwt beam="2">  1       -2 0.22025902E-01 0.13528555E+04</pdfrwt>
<totfact> 0.23263715E+01</totfact>
</mgrwt>
</event>
<event>
 6    1  0.2003386E-005  0.1447592E+04  0.7818608E-02  0.8920072E-01
          2   -1    0    0  501    0  0.00000000000E+00  0.00000000000E+00  0.15106465612E+04  0.15106465612E+04  0.00000000000E+00 0. -1.
         -2   -1    0    0    0  501 -0.00000000000E+00 -0.00000000000E+00 -0.34679220651E+03  0.34679220651E+03  0.00000000000E+00 0.  1.
         23    2    1    2    0    0 -0.26522800695E+03 -0.64157192181E+03  0.83388397643E+03  0.10887770235E+04  0.90069385505E+02 0.  0.
         11    1    3    3    0    0 -0.14691440639E+03 -0.24856804874E+03  0.37153341101E+03  0.47053904530E+03  0.00000000000E+00 0. -1.
        -11    1    3    3    0    0 -0.11831360056E+03 -0.39300387307E+03  0.46235056542E+03  0.61823797819E+03  0.00000000000E+00 0.  1.
         22    1    1    2    0    0  0.26522800695E+03  0.64157192181E+03  0.32997037830E+03  0.76866174425E+03  0.00000000000E+00 0.  1.
<mgrwt>
<rscale>  0 0.14475917E+04</rscale>
<asrwt>0</asrwt>
<pdfrwt beam="1">  1        2 0.23240716E+00 0.14475917E+04</pdfrwt>
<pdfrwt beam="2">  1       -2 0.53352648E-01 0.14475917E+04</pdfrwt>
<totfact> 0.40204317E+01</totfact>
</mgrwt>
</event>
<event>
 6    1  0.2003386E-005  0.4153649E+04  0.7818608E-02  0.7974248E-01
         -2   -1    0    0    0  501 -0.00000000000E+00  0.00000000000E+00  0.13373122732E+04  0.13373122732E+04  0.00000000000E+00 0.  1.
          2   -1    0    0  501    0  0.00000000000E+00 -0.00000000000E+00 -0.32252743583E+04  0.32252743583E+04  0.00000000000E+00 0. -1.
         23    2    1    2    0    0  0.34902824738E+03 -0.12255804231E+04  0.85552861839E+03  0.15375892214E+04  0.91560395105E+02 0.  0.
         13    1    3    3    0    0  0.16004241167E+03 -0.50751050999E+03  0.40878060564E+03  0.67103060648E+03  0.00000000000E+00 0.  1.
        -13    1    3    3    0    0  0.18898583571E+03 -0.71806991313E+03  0.44674801275E+03  0.86655861494E+03  0.00000000000E+00 0. -1.
         22    1    1    2    0    0 -0.34902824738E+03  0.12255804231E+04 -0.27434907035E+04  0.30249974101E+04  0.00000000000E+00 0. -1.
<mgrwt>
<rscale>  0 0.41536485E+04</rscale>
<asrwt>0</asrwt>
<pdfrwt beam="1">  1        2 0.49619605E+00 0.41536485E+04</pdfrwt>
<pdfrwt beam="2">  1       -2 0.20574035E+00 0.41536485E+04</pdfrwt>
<totfact> 0.11853527E-01</totfact>
</mgrwt>
</event>
<event>
 6    1  0.2003386E-005  0.1377317E+04  0.7818608E-02  0.8970403E-01
          1   -1    0    0  501    0  0.00000000000E+00  0.00000000000E+00  0.16021173569E+04  0.16021173569E+04  0.00000000000E+00 0. -1.
         -1   -1    0    0    0  501 -0.00000000000E+00 -0.00000000000E+00 -0.29601491943E+03  0.29601491943E+03  0.00000000000E+00 0.  1.
         23    2    1    2    0    0  0.36270677085E+03  0.41138237285E+03  0.12228726105E+04  0.13434081445E+04  0.92392440253E+02 0.  0.
         11    1    3    3    0    0  0.95424309006E+02  0.13965167142E+03  0.47087813737E+03  0.50033449644E+03  0.00000000000E+00 0.  1.
        -11    1    3    3    0    0  0.26728246184E+03  0.27173070143E+03  0.75199447313E+03  0.84307364811E+03  0.00000000000E+00 0. -1.
         22    1    1    2    0    0 -0.36270677085E+03 -0.41138237285E+03  0.83229827001E+02  0.55472413181E+03  0.00000000000E+00 0.  1.
<mgrwt>
<rscale>  0 0.13773172E+04</rscale>
<asrwt>0</asrwt>
<pdfrwt beam="1">  1        1 0.24647959E+00 0.13773172E+04</pdfrwt>
<pdfrwt beam="2">  1       -1 0.45540758E-01 0.13773172E+04</pdfrwt>
<totfact> 0.26015933E+01</totfact>
</mgrwt>
</event>
<event>
 6    1  0.2003386E-005  0.2234937E+04  0.7818608E-02  0.8504026E-01
          2   -1    0    0  501    0  0.00000000000E+00  0.00000000000E+00  0.12159867011E+04  0.12159867011E+04  0.00000000000E+00 0. -1.
         -2   -1    0    0    0  501 -0.00000000000E+00 -0.00000000000E+00 -0.10269319820E+04  0.10269319820E+04  0.00000000000E+00 0.  1.
         23    2    1    2    0    0  0.72513527042E+03 -0.76508499859E+03 -0.27421778084E+03  0.10914858259E+04  0.70496108060E+02 0.  0.
         11    1    3    3    0    0  0.49797330516E+03 -0.50152812988E+03 -0.15384905580E+03  0.72331003703E+03  0.00000000000E+00 0.  1.
        -11    1    3    3    0    0  0.22716196526E+03 -0.26355686872E+03 -0.12036872505E+03  0.36817578883E+03  0.00000000000E+00 0. -1.
         22    1    1    2    0    0 -0.72513527042E+03  0.76508499859E+03  0.46327250002E+03  0.11514328572E+04  0.00000000000E+00 0.  1.
<mgrwt>
<rscale>  0 0.22349368E+04</rscale>
<asrwt>0</asrwt>
<pdfrwt beam="1">  1        2 0.18707488E+00 0.22349368E+04</pdfrwt>
<pdfrwt beam="2">  1       -2 0.15798954E+00 0.22349368E+04</pdfrwt>
<totfact> 0.44030679E+00</totfact>
</mgrwt>
</event>
<event>
 6    1  0.2003386E-005  0.2264911E+04  0.7818608E-02  0.8491886E-01
         -1   -1    0    0    0  501 -0.00000000000E+00  0.00000000000E+00  0.10090425059E+04  0.10090425059E+04  0.00000000000E+00 0.  1.
          1   -1    0    0  501    0  0.00000000000E+00 -0.00000000000E+00 -0.12709625396E+04  0.12709625396E+04  0.00000000000E+00 0. -1.
         23    2    1    2    0    0  0.19254615075E+03  0.10248531958E+04  0.30873186697E+03  0.10912907465E+04  0.90565084905E+02 0.  0.
         13    1    3    3    0    0  0.15248459230E+03  0.94558294855E+03  0.28654181058E+03  0.99974240317E+03  0.00000000000E+00 0.  1.
        -13    1    3    3    0    0  0.40061558446E+02  0.79270247225E+02  0.22190056387E+02  0.91548343310E+02  0.00000000000E+00 0. -1.
         22    1    1    2    0    0 -0.19254615075E+03 -0.10248531958E+04 -0.57065190067E+03  0.11887142991E+04  0.00000000000E+00 0. -1.
<mgrwt>
<rscale>  0 0.22649108E+04</rscale>
<asrwt>0</asrwt>
<pdfrwt beam="1">  1        1 0.19553270E+00 0.22649108E+04</pdfrwt>
<pdfrwt beam="2">  1       -1 0.15523731E+00 0.22649108E+04</pdfrwt>
<totfact> 0.27345142E+00</totfact>
</mgrwt>
</event>
<event>
 6    1  0.2003386E-005  0.2190138E+04  0.7818608E-02  0.8522544E-01
          2   -1    0    0  501    0  0.00000000000E+00  0.00000000000E+00  0.12748162996E+04  0.12748162996E+04  0.00000000000E+00 0. -1.
         -2   -1    0    0    0  501 -0.00000000000E+00 -0.00000000000E+00 -0.94066566388E+03  0.94066566388E+03  0.00000000000E+00 0.  1.
         23    2    1    2    0    0  0.80375886353E+03  0.14374013001E+02  0.91690416425E+03  0.12225889190E+04  0.88178769542E+02 0.  0.
         13    1    3    3    0    0  0.49304555138E+03  0.48359788131E+02  0.53669764433E+03  0.73039506178E+03  0.00000000000E+00 0. -1.
        -13    1    3    3    0    0  0.31071331215E+03 -0.33985775130E+02  0.38020651992E+03  0.49219385718E+03  0.00000000000E+00 0.  1.
         22    1    1    2    0    0 -0.80375886353E+03 -0.14374013001E+02 -0.58275352849E+03  0.99289304455E+03  0.00000000000E+00 0.  1.
<mgrwt>
<rscale>  0 0.21901378E+04</rscale>
<asrwt>0</asrwt>
<pdfrwt beam="1">  1        2 0.19612559E+00 0.21901378E+04</pdfrwt>
<pdfrwt beam="2">  1       -2 0.14471779E+00 0.21901378E+04</pdfrwt>
<totfact> 0.51534915E+00</totfact>
</mgrwt>
</event>
<event>
 6    1  0.2003386E-005  0.3455598E+04  0.7818608E-02  0.8124394E-01
          2   -1    0    0  501    0  0.00000000000E+00  0.00000000000E+00  0.36481954237E+04  0.36481954237E+04  0.00000000000E+00 0.  1.
         -2   -1    0    0    0  501 -0.00000000000E+00 -0.00000000000E+00 -0.81829214967E+03  0.81829214967E+03  0.00000000000E+00 0. -1.
         23    2    1    2    0    0  0.92151496722E+03 -0.79808849218E+03  0.29963364986E+04  0.32361075124E+04  0.90688165050E+02 0.  0.
         11    1    3    3    0    0  0.52798171147E+03 -0.42210054636E+03  0.15628917853E+04  0.17028107034E+04  0.00000000000E+00 0. -1.
        -11    1    3    3    0    0  0.39353325576E+03 -0.37598794582E+03  0.14334447132E+04  0.15332968091E+04  0.00000000000E+00 0.  1.
         22    1    1    2    0    0 -0.92151496722E+03  0.79808849218E+03 -0.16643322452E+03  0.12303800610E+04  0.00000000000E+00 0. -1.
<mgrwt>
<rscale>  0 0.34555982E+04</rscale>
<asrwt>0</asrwt>
<pdfrwt beam="1">  1        2 0.56126083E+00 0.34555982E+04</pdfrwt>
<pdfrwt beam="2">  1       -2 0.12589110E+00 0.34555982E+04</pdfrwt>
<totfact> 0.24700892E-01</totfact>
</mgrwt>
</event>
<event>
 6    1  0.2003386E-005  0.2190530E+04  0.7818608E-02  0.8522380E-01
         -2   -1    0    0    0  501 -0.00000000000E+00  0.00000000000E+00  0.39788594806E+03  0.39788594806E+03  0.00000000000E+00 0.  1.
          2   -1    0    0  501    0  0.00000000000E+00 -0.00000000000E+00 -0.30149467984E+04  0.30149467984E+04  0.00000000000E+00 0. -1.
         23    2    1    2    0    0 -0.86424599755E+03  0.45894969180E+03 -0.55225125821E+03  0.11278831593E+04  0.97892824354E+02 0.  0.
         13    1    3    3    0    0 -0.60208671152E+03  0.30021193892E+03 -0.33034857423E+03  0.74951037149E+03  0.00000000000E+00 0.  1.
        -13    1    3    3    0    0 -0.26215928602E+03  0.15873775288E+03 -0.22190268398E+03  0.37837278786E+03  0.00000000000E+00 0. -1.
         22    1    1    2    0    0  0.86424599755E+03 -0.45894969180E+03 -0.20648095921E+04  0.22849495871E+04  0.00000000000E+00 0. -1.
<mgrwt>
<rscale>  0 0.21905296E+04</rscale>
<asrwt>0</asrwt>
<pdfrwt beam="1">  1        2 0.46383800E+00 0.21905296E+04</pdfrwt>
<pdfrwt beam="2">  1       -2 0.61213219E-01 0.21905296E+04</pdfrwt>
<totfact> 0.38741415E+00</totfact>
</mgrwt>
</event>
<event>
 6    1  0.2003386E-005  0.1348464E+04  0.7818608E-02  0.8991992E-01
          2   -1    0    0  501    0  0.00000000000E+00  0.00000000000E+00  0.27343093975E+04  0.27343093975E+04  0.00000000000E+00 0.  1.
         -2   -1    0    0    0  501 -0.00000000000E+00 -0.00000000000E+00 -0.16625348745E+03  0.16625348745E+03  0.00000000000E+00 0. -1.
         23    2    1    2    0    0 -0.34843272219E+03  0.54186108249E+03  0.88372755477E+03  0.10972379550E+04  0.89095141425E+02 0.  0.
         11    1    3    3    0    0 -0.14030452732E+03  0.17397221094E+03  0.24834815206E+03  0.33410850812E+03  0.00000000000E+00 0.  1.
        -11    1    3    3    0    0 -0.20812819487E+03  0.36788887155E+03  0.63537940272E+03  0.76312944689E+03  0.00000000000E+00 0. -1.
         22    1    1    2    0    0  0.34843272219E+03 -0.54186108249E+03  0.16843283553E+04  0.18033249300E+04  0.00000000000E+00 0.  1.
<mgrwt>
<rscale>  0 0.13484635E+04</rscale>
<asrwt>0</asrwt>
<pdfrwt beam="1">  1        2 0.42066295E+00 0.13484635E+04</pdfrwt>
<pdfrwt beam="2">  1       -2 0.25577462E-01 0.13484635E+04</pdfrwt>
<totfact> 0.34284288E+01</totfact>
</mgrwt>
</event>
<event>
 6    1  0.2003386E-005  0.2619126E+04  0.7818608E-02  0.8361733E-01
          2   -1    0    0  501    0  0.00000000000E+00  0.00000000000E+00  0.12777996884E+04  0.12777996884E+04  0.00000000000E+00 0. -1.
         -2   -1    0    0    0  501 -0.00000000000E+00 -0.00000000000E+00 -0.13421160979E+04  0.13421160979E+04  0.00000000000E+00 0.  1.
         23    2    1    2    0    0 -0.43868306481E+03 -0.39590337668E+03  0.11352933406E+04  0.12826626809E+04  0.84559262358E+02 0.  0.
         11    1    3    3    0    0 -0.52275879920E+02 -0.79608648213E+02  0.14306892982E+03  0.17186920367E+03  0.00000000000E+00 0. -1.
        -11    1    3    3    0    0 -0.38640718489E+03 -0.31629472847E+03  0.99222441078E+03  0.11107934773E+04  0.00000000000E+00 0.  1.
         22    1    1    2    0    0  0.43868306481E+03  0.39590337668E+03 -0.11996097501E+04  0.13372531053E+04  0.00000000000E+00 0.  1.
<mgrwt>
<rscale>  0 0.26191262E+04</rscale>
<asrwt>0</asrwt>
<pdfrwt beam="1">  1        2 0.19658457E+00 0.26191262E+04</pdfrwt>
<pdfrwt beam="2">  1       -2 0.20647940E+00 0.26191262E+04</pdfrwt>
<totfact> 0.18152210E+00</totfact>
</mgrwt>
</event>
<event>
 6    1  0.2003386E-005  0.3424183E+04  0.7818608E-02  0.8131996E-01
         -2   -1    0    0    0  501 -0.00000000000E+00  0.00000000000E+00  0.89949732202E+03  0.89949732202E+03  0.00000000000E+00 0.  1.
          2   -1    0    0  501    0  0.00000000000E+00 -0.00000000000E+00 -0.32587733638E+04  0.32587733638E+04  0.00000000000E+00 0. -1.
         23    2    1    2    0    0 -0.64202716441E+03 -0.57514734544E+03 -0.29752009583E+04  0.30988572388E+04  0.90011640337E+02 0.  0.
         13    1    3    3    0    0 -0.46985964901E+03 -0.37218665744E+03 -0.19868409059E+04  0.20752898070E+04  0.00000000000E+00 0. -1.
        -13    1    3    3    0    0 -0.17216751540E+03 -0.20296068800E+03 -0.98836005247E+03  0.10235674319E+04  0.00000000000E+00 0.  1.
         22    1    1    2    0    0  0.64202716441E+03  0.57514734544E+03  0.61592491656E+03  0.10594134470E+04  0.00000000000E+00 0.  1.
<mgrwt>
<rscale>  0 0.34241834E+04</rscale>
<asrwt>0</asrwt>
<pdfrwt beam="1">  1        2 0.50134975E+00 0.34241834E+04</pdfrwt>
<pdfrwt beam="2">  1       -2 0.13838420E+00 0.34241834E+04</pdfrwt>
<totfact> 0.36268000E-01</totfact>
</mgrwt>
</event>
<event>
 6    1  0.2003386E-005  0.2310276E+04  0.7818608E-02  0.8473880E-01
         -2   -1    0    0    0  501 -0.00000000000E+00  0.00000000000E+00  0.29023931585E+04  0.29023931585E+04  0.00000000000E+00 0.  1.
          2   -1    0    0  501    0  0.00000000000E+00 -0.00000000000E+00 -0.45973932281E+03  0.45973932281E+03  0.00000000000E+00 0. -1.
         23    2    1    2    0    0 -0.13601739256E+03  0.55315846134E+03  0.26825394026E+04  0.27440466461E+04  0.96381195891E+02 0.  0.
         11    1    3    3    0    0 -0.64037759062E+02  0.23910568237E+03  0.13960096444E+04  0.14177853467E+04  0.00000000000E+00 0. -1.
        -11    1    3    3    0    0 -0.71979633499E+02  0.31405277898E+03  0.12865297582E+04  0.13262612994E+04  0.00000000000E+00 0.  1.
         22    1    1    2    0    0  0.13601739256E+03 -0.55315846134E+03 -0.23988556694E+03  0.61808583519E+03  0.00000000000E+00 0. -1.
<mgrwt>
<rscale>  0 0.23102764E+04</rscale>
<asrwt>0</asrwt>
<pdfrwt beam="1">  1        2 0.70729128E-01 0.23102764E+04</pdfrwt>
<pdfrwt beam="2">  1       -2 0.44652201E+00 0.23102764E+04</pdfrwt>
<totfact> 0.22494630E-01</totfact>
</mgrwt>
</event>
<event>
 6    1  0.2003386E-005  0.7316243E+03  0.7818608E-02  0.9664628E-01
          2   -1    0    0  501    0  0.00000000000E+00  0.00000000000E+00  0.94998468907E+03  0.94998468907E+03  0.00000000000E+00 0. -1.
         -2   -1    0    0    0  501 -0.00000000000E+00 -0.00000000000E+00 -0.14086389307E+03  0.14086389307E+03  0.00000000000E+00 0.  1.
         23    2    1    2    0    0 -0.10632767627E+03 -0.59113859071E+02  0.91626830897E+03  0.92873561964E+03  0.90566075855E+02 0.  0.
         11    1    3    3    0    0 -0.31709595682E+02 -0.20517617589E+02  0.82367811207E+02  0.90614167837E+02  0.00000000000E+00 0.  1.
        -11    1    3    3    0    0 -0.74618080587E+02 -0.38596241482E+02  0.83390049776E+03  0.83812145181E+03  0.00000000000E+00 0. -1.
         22    1    1    2    0    0  0.10632767627E+03  0.59113859071E+02 -0.10714751296E+03  0.16211296250E+03  0.00000000000E+00 0.  1.
<mgrwt>
<rscale>  0 0.73162433E+03</rscale>
<asrwt>0</asrwt>
<pdfrwt beam="1">  1        2 0.14615149E+00 0.73162433E+03</pdfrwt>
<pdfrwt beam="2">  1       -2 0.21671369E-01 0.73162433E+03</pdfrwt>
<totfact> 0.50589863E+02</totfact>
</mgrwt>
</event>
<event>
 6    1  0.2003386E-005  0.1532072E+04  0.7818608E-02  0.8863401E-01
          2   -1    0    0  501    0  0.00000000000E+00  0.00000000000E+00  0.13933927125E+04  0.13933927125E+04  0.00000000000E+00 0. -1.
         -2   -1    0    0    0  501 -0.00000000000E+00 -0.00000000000E+00 -0.42113856752E+03  0.42113856752E+03  0.00000000000E+00 0.  1.
         23    2    1    2    0    0 -0.43593926363E+03  0.14958216325E+03  0.12085870164E+04  0.12965823528E+04  0.89584353523E+02 0.  0.
         11    1    3    3    0    0 -0.24097546370E+03  0.37974388206E+02  0.66951784954E+03  0.71257657772E+03  0.00000000000E+00 0. -1.
        -11    1    3    3    0    0 -0.19496379993E+03  0.11160777504E+03  0.53906916683E+03  0.58400577511E+03  0.00000000000E+00 0.  1.
         22    1    1    2    0    0  0.43593926363E+03 -0.14958216325E+03 -0.23633287135E+03  0.51794892723E+03  0.00000000000E+00 0.  1.
<mgrwt>
<rscale>  0 0.15320723E+04</rscale>
<asrwt>0</asrwt>
<pdfrwt beam="1">  1        2 0.21436811E+00 0.15320723E+04</pdfrwt>
<pdfrwt beam="2">  1       -2 0.64790549E-01 0.15320723E+04</pdfrwt>
<totfact> 0.30929056E+01</totfact>
</mgrwt>
</event>
<event>
 6    1  0.2003386E-005  0.3598551E+04  0.7818608E-02  0.8090824E-01
          2   -1    0    0  501    0  0.00000000000E+00  0.00000000000E+00  0.27596594468E+04  0.27596594468E+04  0.00000000000E+00 0. -1.
         -2   -1    0    0    0  501 -0.00000000000E+00 -0.00000000000E+00 -0.11731131309E+04  0.11731131309E+04  0.00000000000E+00 0.  1.
         23    2    1    2    0    0  0.93987660621E+03 -0.12207317233E+04  0.18070983101E+04  0.23764316262E+04  0.90934022642E+02 0.  0.
         11    1    3    3    0    0  0.24263950647E+03 -0.25808672492E+03  0.39086723558E+03  0.52750344410E+03  0.00000000000E+00 0.  1.
        -11    1    3    3    0    0  0.69723709973E+03 -0.96264499836E+03  0.14162310745E+04  0.18489281821E+04  0.00000000000E+00 0. -1.
         22    1    1    2    0    0 -0.93987660621E+03  0.12207317233E+04 -0.22055199424E+03  0.15563409515E+04  0.00000000000E+00 0.  1.
<mgrwt>
<rscale>  0 0.35985512E+04</rscale>
<asrwt>0</asrwt>
<pdfrwt beam="1">  1        2 0.42456299E+00 0.35985512E+04</pdfrwt>
<pdfrwt beam="2">  1       -2 0.18047894E+00 0.35985512E+04</pdfrwt>
<totfact> 0.35863111E-01</totfact>
</mgrwt>
</event>
<event>
 6    1  0.2003386E-005  0.3658280E+04  0.7818608E-02  0.8077271E-01
          2   -1    0    0  501    0  0.00000000000E+00  0.00000000000E+00  0.16669129752E+04  0.16669129752E+04  0.00000000000E+00 0. -1.
         -2   -1    0    0    0  501 -0.00000000000E+00 -0.00000000000E+00 -0.20071554033E+04  0.20071554033E+04  0.00000000000E+00 0.  1.
         23    2    1    2    0    0 -0.14278733447E+04 -0.11137458678E+04 -0.42112988521E+03  0.18613922003E+04  0.90434488492E+02 0.  0.
         11    1    3    3    0    0 -0.10592310641E+04 -0.84050418435E+03 -0.35289122418E+03  0.13974798558E+04  0.00000000000E+00 0. -1.
        -11    1    3    3    0    0 -0.36864228056E+03 -0.27324168340E+03 -0.68238661024E+02  0.46391234455E+03  0.00000000000E+00 0.  1.
         22    1    1    2    0    0  0.14278733447E+04  0.11137458678E+04  0.80887457113E+02  0.18126761782E+04  0.00000000000E+00 0.  1.
<mgrwt>
<rscale>  0 0.36582801E+04</rscale>
<asrwt>0</asrwt>
<pdfrwt beam="1">  1        2 0.25644815E+00 0.36582801E+04</pdfrwt>
<pdfrwt beam="2">  1       -2 0.30879314E+00 0.36582801E+04</pdfrwt>
<totfact> 0.23295933E-01</totfact>
</mgrwt>
</event>
<event>
 6    1  0.2003386E-005  0.4852436E+03  0.7818608E-02  0.1017704E+00
          2   -1    0    0  501    0  0.00000000000E+00  0.00000000000E+00  0.21029861730E+04  0.21029861730E+04  0.00000000000E+00 0. -1.
         -2   -1    0    0    0  501 -0.00000000000E+00 -0.00000000000E+00 -0.27991304570E+02  0.27991304570E+02  0.00000000000E+00 0.  1.
         23    2    1    2    0    0 -0.14938277638E+03 -0.92220885620E+02  0.17583906500E+04  0.17689579522E+04  0.80340855400E+02 0.  0.
         13    1    3    3    0    0 -0.16447532275E+02  0.14017438436E+02  0.27221579142E+03  0.27307223769E+03  0.00000000000E+00 0.  1.
        -13    1    3    3    0    0 -0.13293524410E+03 -0.10623832406E+03  0.14861748585E+04  0.14958857145E+04  0.00000000000E+00 0. -1.
         22    1    1    2    0    0  0.14938277638E+03  0.92220885620E+02  0.31660421851E+03  0.36201952544E+03  0.00000000000E+00 0.  1.
<mgrwt>
<rscale>  0 0.48524355E+03</rscale>
<asrwt>0</asrwt>
<pdfrwt beam="1">  1        2 0.32353621E+00 0.48524355E+03</pdfrwt>
<pdfrwt beam="2">  1       -2 0.43063562E-02 0.48524355E+03</pdfrwt>
<totfact> 0.15858868E+03</totfact>
</mgrwt>
</event>
<event>
 6    1  0.2003386E-005  0.2790335E+04  0.7818608E-02  0.8306275E-01
          2   -1    0    0  501    0  0.00000000000E+00  0.00000000000E+00  0.19944062778E+04  0.19944062778E+04  0.00000000000E+00 0. -1.
         -2   -1    0    0    0  501 -0.00000000000E+00 -0.00000000000E+00 -0.97597611068E+03  0.97597611068E+03  0.00000000000E+00 0.  1.
         23    2    1    2    0    0  0.48950692609E+03  0.19405878492E+02 -0.87945562157E+03  0.10102895117E+04  0.85141577748E+02 0.  0.
         13    1    3    3    0    0  0.16473854122E+03 -0.32431815672E+02 -0.31794052601E+03  0.35955081381E+03  0.00000000000E+00 0. -1.
        -13    1    3    3    0    0  0.32476838487E+03  0.51837694164E+02 -0.56151509556E+03  0.65073869786E+03  0.00000000000E+00 0.  1.
         22    1    1    2    0    0 -0.48950692609E+03 -0.19405878492E+02  0.18978857887E+04  0.19600928768E+04  0.00000000000E+00 0. -1.
<mgrwt>
<rscale>  0 0.27903354E+04</rscale>
<asrwt>0</asrwt>
<pdfrwt beam="1">  1        2 0.30683173E+00 0.27903354E+04</pdfrwt>
<pdfrwt beam="2">  1       -2 0.15015017E+00 0.27903354E+04</pdfrwt>
<totfact> 0.17512802E+00</totfact>
</mgrwt>
</event>
<event>
 6    1  0.2003386E-005  0.1699026E+04  0.7818608E-02  0.8761920E-01
          4   -1    0    0  501    0  0.00000000000E+00  0.00000000000E+00  0.24328533355E+04  0.24328533355E+04  0.00000000000E+00 0. -1.
         -4   -1    0    0    0  501 -0.00000000000E+00 -0.00000000000E+00 -0.29663611778E+03  0.29663611778E+03  0.00000000000E+00 0.  1.
         23    2    1    2    0    0 -0.55124366790E+03 -0.97592164869E+02  0.20924457216E+04  0.21679649606E+04  0.91373740577E+02 0.  0.
         13    1    3    3    0    0 -0.15044696957E+03 -0.68226472945E+02  0.63309881383E+03  0.65429599596E+03  0.00000000000E+00 0. -1.
        -13    1    3    3    0    0 -0.40079669834E+03 -0.29365691925E+02  0.14593469078E+04  0.15136689646E+04  0.00000000000E+00 0.  1.
         22    1    1    2    0    0  0.55124366790E+03  0.97592164869E+02  0.43771496152E+02  0.56152449272E+03  0.00000000000E+00 0.  1.
<mgrwt>
<rscale>  0 0.16990258E+04</rscale>
<asrwt>0</asrwt>
<pdfrwt beam="1">  1        4 0.37428512E+00 0.16990258E+04</pdfrwt>
<pdfrwt beam="2">  1       -4 0.45636327E-01 0.16990258E+04</pdfrwt>
<totfact> 0.91665126E-02</totfact>
</mgrwt>
</event>
<event>
 6    1  0.2003386E-005  0.1219800E+04  0.7818608E-02  0.9095700E-01
         -2   -1    0    0    0  501 -0.00000000000E+00  0.00000000000E+00  0.11316482820E+03  0.11316482820E+03  0.00000000000E+00 0.  1.
          2   -1    0    0  501    0  0.00000000000E+00 -0.00000000000E+00 -0.32870462531E+04  0.32870462531E+04  0.00000000000E+00 0. -1.
         23    2    1    2    0    0 -0.47858151693E+03  0.37092682353E+03 -0.15014898699E+04  0.16215822583E+04  0.91816198500E+02 0.  0.
         13    1    3    3    0    0 -0.22472476236E+03  0.21157767156E+03 -0.85459554704E+03  0.90862526871E+03  0.00000000000E+00 0.  1.
        -13    1    3    3    0    0 -0.25385675457E+03  0.15934915197E+03 -0.64689432283E+03  0.71295698957E+03  0.00000000000E+00 0. -1.
         22    1    1    2    0    0  0.47858151693E+03 -0.37092682353E+03 -0.16723915551E+04  0.17786288230E+04  0.00000000000E+00 0.  1.
<mgrwt>
<rscale>  0 0.12198000E+04</rscale>
<asrwt>0</asrwt>
<pdfrwt beam="1">  1        2 0.50569932E+00 0.12198000E+04</pdfrwt>
<pdfrwt beam="2">  1       -2 0.17409977E-01 0.12198000E+04</pdfrwt>
<totfact> 0.31081669E+01</totfact>
</mgrwt>
</event>
<event>
 6    1  0.2003386E-005  0.3052138E+04  0.7818608E-02  0.8228997E-01
          1   -1    0    0  501    0  0.00000000000E+00  0.00000000000E+00  0.13787223833E+04  0.13787223833E+04  0.00000000000E+00 0. -1.
         -1   -1    0    0    0  501 -0.00000000000E+00 -0.00000000000E+00 -0.16891629677E+04  0.16891629677E+04  0.00000000000E+00 0.  1.
         23    2    1    2    0    0 -0.10124569897E+04  0.10150345545E+04 -0.67708554361E+03  0.15880904905E+04  0.90676733494E+02 0.  0.
         13    1    3    3    0    0 -0.46754302890E+03  0.50631877572E+03 -0.36587944216E+03  0.78027107643E+03  0.00000000000E+00 0. -1.
        -13    1    3    3    0    0 -0.54491396077E+03  0.50871577881E+03 -0.31120610145E+03  0.80781941412E+03  0.00000000000E+00 0.  1.
         22    1    1    2    0    0  0.10124569897E+04 -0.10150345545E+04  0.36664495928E+03  0.14797948604E+04  0.00000000000E+00 0. -1.
<mgrwt>
<rscale>  0 0.30521381E+04</rscale>
<asrwt>0</asrwt>
<pdfrwt beam="1">  1        1 0.21211114E+00 0.30521381E+04</pdfrwt>
<pdfrwt beam="2">  1       -1 0.25987123E+00 0.30521381E+04</pdfrwt>
<totfact> 0.40506179E-01</totfact>
</mgrwt>
</event>
<event>
 6    1  0.2003386E-005  0.2096592E+04  0.7818608E-02  0.8562746E-01
          2   -1    0    0  501    0  0.00000000000E+00  0.00000000000E+00  0.14095477121E+04  0.14095477121E+04  0.00000000000E+00 0. -1.
         -2   -1    0    0    0  501 -0.00000000000E+00 -0.00000000000E+00 -0.77962923724E+03  0.77962923724E+03  0.00000000000E+00 0.  1.
         23    2    1    2    0    0 -0.71420159881E+03  0.14756682248E+03  0.10974064276E+04  0.13229178213E+04  0.11811352098E+03 0.  0.
         11    1    3    3    0    0 -0.32442836347E+03  0.84243587912E+02  0.60588027913E+03  0.69241725698E+03  0.00000000000E+00 0. -1.
        -11    1    3    3    0    0 -0.38977323535E+03  0.63323234563E+02  0.49152614847E+03  0.63050056436E+03  0.00000000000E+00 0.  1.
         22    1    1    2    0    0  0.71420159881E+03 -0.14756682248E+03 -0.46748795276E+03  0.86625912799E+03  0.00000000000E+00 0.  1.
<mgrwt>
<rscale>  0 0.20965921E+04</rscale>
<asrwt>0</asrwt>
<pdfrwt beam="1">  1        2 0.21685349E+00 0.20965921E+04</pdfrwt>
<pdfrwt beam="2">  1       -2 0.11994296E+00 0.20965921E+04</pdfrwt>
<totfact> 0.70040057E+00</totfact>
</mgrwt>
</event>
<event>
 6    1  0.2807265E-005  0.2877366E+04  0.7818608E-02  0.8279644E-01
          2   -1    0    0  501    0  0.00000000000E+00  0.00000000000E+00  0.16192968483E+04  0.16192968483E+04  0.00000000000E+00 0. -1.
         -2   -1    0    0    0  501 -0.00000000000E+00 -0.00000000000E+00 -0.12782147801E+04  0.12782147801E+04  0.00000000000E+00 0.  1.
         23    2    1    2    0    0 -0.53573553194E+03 -0.56987661223E+03 -0.10435072846E+04  0.13072727818E+04  0.91009667761E+02 0.  0.
         11    1    3    3    0    0 -0.31881398988E+03 -0.35935183392E+03 -0.70895452281E+03  0.85638345155E+03  0.00000000000E+00 0. -1.
        -11    1    3    3    0    0 -0.21692154206E+03 -0.21052477832E+03 -0.33455276182E+03  0.45088933025E+03  0.00000000000E+00 0.  1.
         22    1    1    2    0    0  0.53573553194E+03  0.56987661223E+03  0.13845893528E+04  0.15902388466E+04  0.00000000000E+00 0. -1.
<mgrwt>
<rscale>  0 0.28773663E+04</rscale>
<asrwt>0</asrwt>
<pdfrwt beam="1">  1        2 0.24912259E+00 0.28773663E+04</pdfrwt>
<pdfrwt beam="2">  1       -2 0.19664843E+00 0.28773663E+04</pdfrwt>
<totfact> 0.13164900E+00</totfact>
</mgrwt>
</event>
<event>
 6    1  0.2003386E-005  0.4047478E+04  0.7818608E-02  0.7995037E-01
          2   -1    0    0  501    0  0.00000000000E+00  0.00000000000E+00  0.40871735727E+04  0.40871735727E+04  0.00000000000E+00 0. -1.
         -2   -1    0    0    0  501 -0.00000000000E+00 -0.00000000000E+00 -0.10020420299E+04  0.10020420299E+04  0.00000000000E+00 0.  1.
         23    2    1    2    0    0  0.16727932552E+04 -0.57576426681E+03  0.27763399846E+04  0.32933609336E+04  0.91764718220E+02 0.  0.
         11    1    3    3    0    0  0.60984969150E+03 -0.20735584315E+03  0.10938539700E+04  0.12694209702E+04  0.00000000000E+00 0. -1.
        -11    1    3    3    0    0  0.10629435637E+04 -0.36840842365E+03  0.16824860146E+04  0.20239399634E+04  0.00000000000E+00 0.  1.
         22    1    1    2    0    0 -0.16727932552E+04  0.57576426681E+03  0.30879155821E+03  0.17958546689E+04  0.00000000000E+00 0.  1.
<mgrwt>
<rscale>  0 0.40474781E+04</rscale>
<asrwt>0</asrwt>
<pdfrwt beam="1">  1        2 0.62879592E+00 0.40474781E+04</pdfrwt>
<pdfrwt beam="2">  1       -2 0.15416032E+00 0.40474781E+04</pdfrwt>
<totfact> 0.63231739E-02</totfact>
</mgrwt>
</event>
<event>
 6    1  0.2003386E-005  0.1857869E+04  0.7818608E-02  0.8676117E-01
         -2   -1    0    0    0  501 -0.00000000000E+00  0.00000000000E+00  0.29493165911E+03  0.29493165911E+03  0.00000000000E+00 0.  1.
          2   -1    0    0  501    0  0.00000000000E+00 -0.00000000000E+00 -0.29258269014E+04  0.29258269014E+04  0.00000000000E+00 0. -1.
         23    2    1    2    0    0  0.77589777837E+03  0.26777197792E+03 -0.57337176335E+03  0.10055560729E+04  0.93105542988E+02 0.  0.
         13    1    3    3    0    0  0.46865925548E+03  0.18751202039E+03 -0.30482724128E+03  0.58967949139E+03  0.00000000000E+00 0.  1.
        -13    1    3    3    0    0  0.30723852289E+03  0.80259957528E+02 -0.26854452207E+03  0.41587658153E+03  0.00000000000E+00 0. -1.
         22    1    1    2    0    0 -0.77589777837E+03 -0.26777197792E+03 -0.20575234789E+04  0.22152024876E+04  0.00000000000E+00 0. -1.
<mgrwt>
<rscale>  0 0.18578687E+04</rscale>
<asrwt>0</asrwt>
<pdfrwt beam="1">  1        2 0.45012722E+00 0.18578687E+04</pdfrwt>
<pdfrwt beam="2">  1       -2 0.45374101E-01 0.18578687E+04</pdfrwt>
<totfact> 0.84070702E+00</totfact>
</mgrwt>
</event>
<event>
 6    1  0.2003386E-005  0.1998457E+04  0.7818608E-02  0.8607343E-01
         -2   -1    0    0    0  501 -0.00000000000E+00  0.00000000000E+00  0.11046379317E+04  0.11046379317E+04  0.00000000000E+00 0.  1.
          2   -1    0    0  501    0  0.00000000000E+00 -0.00000000000E+00 -0.90387734677E+03  0.90387734677E+03  0.00000000000E+00 0. -1.
         23    2    1    2    0    0  0.44492053697E+03  0.40910338966E+03 -0.69671889613E+03  0.92648510951E+03  0.87393193547E+02 0.  0.
         11    1    3    3    0    0  0.15285309241E+03  0.19893328398E+03 -0.28549811882E+03  0.38006275164E+03  0.00000000000E+00 0.  1.
        -11    1    3    3    0    0  0.29206744456E+03  0.21017010568E+03 -0.41122077731E+03  0.54642235787E+03  0.00000000000E+00 0. -1.
         22    1    1    2    0    0 -0.44492053697E+03 -0.40910338966E+03  0.89747948109E+03  0.10820301690E+04  0.00000000000E+00 0.  1.
<mgrwt>
<rscale>  0 0.19984566E+04</rscale>
<asrwt>0</asrwt>
<pdfrwt beam="1">  1        2 0.13905805E+00 0.19984566E+04</pdfrwt>
<pdfrwt beam="2">  1       -2 0.16994430E+00 0.19984566E+04</pdfrwt>
<totfact> 0.57752137E+00</totfact>
</mgrwt>
</event>
<event>
 6    1  0.2003386E-005  0.1650825E+04  0.7818608E-02  0.8789918E-01
          1   -1    0    0  501    0  0.00000000000E+00  0.00000000000E+00  0.29045595618E+04  0.29045595618E+04  0.00000000000E+00 0. -1.
         -1   -1    0    0    0  501 -0.00000000000E+00 -0.00000000000E+00 -0.23456430311E+03  0.23456430311E+03  0.00000000000E+00 0.  1.
         23    2    1    2    0    0  0.62531282578E+03  0.27523404952E+03  0.46763287510E+03  0.83322491206E+03  0.93879370031E+02 0.  0.
         11    1    3    3    0    0  0.16418945203E+02  0.22773708282E+02  0.66095102441E+01  0.28842835786E+02  0.00000000000E+00 0. -1.
        -11    1    3    3    0    0  0.60889388057E+03  0.25246034123E+03  0.46102336485E+03  0.80438207628E+03  0.00000000000E+00 0.  1.
         22    1    1    2    0    0 -0.62531282578E+03 -0.27523404952E+03  0.22023623836E+04  0.23058989529E+04  0.00000000000E+00 0. -1.
<mgrwt>
<rscale>  0 0.16508252E+04</rscale>
<asrwt>0</asrwt>
<pdfrwt beam="1">  1        1 0.44685529E+00 0.16508252E+04</pdfrwt>
<pdfrwt beam="2">  1       -1 0.36086818E-01 0.16508252E+04</pdfrwt>
<totfact> 0.49394274E+00</totfact>
</mgrwt>
</event>
<event>
 6    1  0.2003386E-005  0.2703480E+04  0.7818608E-02  0.8333877E-01
          2   -1    0    0  501    0  0.00000000000E+00  0.00000000000E+00  0.13493500425E+04  0.13493500425E+04  0.00000000000E+00 0. -1.
         -2   -1    0    0    0  501 -0.00000000000E+00 -0.00000000000E+00 -0.13541344133E+04  0.13541344133E+04  0.00000000000E+00 0.  1.
         23    2    1    2    0    0 -0.11905565341E+04 -0.20245247127E+03  0.60169994246E+03  0.13521017985E+04  0.87889639228E+02 0.  0.
         13    1    3    3    0    0 -0.39715026855E+03 -0.25763647441E+02  0.20082464052E+03  0.44578317328E+03  0.00000000000E+00 0.  1.
        -13    1    3    3    0    0 -0.79340626556E+03 -0.17668882382E+03  0.40087530194E+03  0.90631862521E+03  0.00000000000E+00 0. -1.
         22    1    1    2    0    0  0.11905565341E+04  0.20245247127E+03 -0.60648431328E+03  0.13513826572E+04  0.00000000000E+00 0.  1.
<mgrwt>
<rscale>  0 0.27034802E+04</rscale>
<asrwt>0</asrwt>
<pdfrwt beam="1">  1        2 0.20759232E+00 0.27034802E+04</pdfrwt>
<pdfrwt beam="2">  1       -2 0.20832837E+00 0.27034802E+04</pdfrwt>
<totfact> 0.15933142E+00</totfact>
</mgrwt>
</event>
<event>
 6    1  0.2003386E-005  0.7964951E+03  0.7818608E-02  0.9565104E-01
          2   -1    0    0  501    0  0.00000000000E+00  0.00000000000E+00  0.19130513378E+04  0.19130513378E+04  0.00000000000E+00 0. -1.
         -2   -1    0    0    0  501 -0.00000000000E+00 -0.00000000000E+00 -0.82904790887E+02  0.82904790887E+02  0.00000000000E+00 0.  1.
         23    2    1    2    0    0 -0.23961260063E+03  0.23674982551E+03  0.14335413651E+04  0.14756097551E+04  0.94438475417E+02 0.  0.
         11    1    3    3    0    0 -0.19393988739E+03  0.14230760191E+03  0.88396380376E+03  0.91610924013E+03  0.00000000000E+00 0. -1.
        -11    1    3    3    0    0 -0.45672713245E+02  0.94442223609E+02  0.54957756129E+03  0.55950051493E+03  0.00000000000E+00 0.  1.
         22    1    1    2    0    0  0.23961260063E+03 -0.23674982551E+03  0.39660518184E+03  0.52034637360E+03  0.00000000000E+00 0. -1.
<mgrwt>
<rscale>  0 0.79649513E+03</rscale>
<asrwt>0</asrwt>
<pdfrwt beam="1">  1        2 0.29431556E+00 0.79649513E+03</pdfrwt>
<pdfrwt beam="2">  1       -2 0.12754585E-01 0.79649513E+03</pdfrwt>
<totfact> 0.34967444E+02</totfact>
</mgrwt>
</event>
<event>
 6    1  0.2003386E-005  0.2065995E+04  0.7818608E-02  0.8576373E-01
         -2   -1    0    0    0  501 -0.00000000000E+00  0.00000000000E+00  0.12633856284E+04  0.12633856284E+04  0.00000000000E+00 0.  1.
          2   -1    0    0  501    0  0.00000000000E+00 -0.00000000000E+00 -0.84462220095E+03  0.84462220095E+03  0.00000000000E+00 0. -1.
         23    2    1    2    0    0 -0.31124256727E+03 -0.34433583373E+03 -0.72951870092E+03  0.86946394703E+03  0.91273863301E+02 0.  0.
         11    1    3    3    0    0 -0.81371204476E+02 -0.79096890180E+02 -0.25620361442E+03  0.28021042628E+03  0.00000000000E+00 0. -1.
        -11    1    3    3    0    0 -0.22987136279E+03 -0.26523894355E+03 -0.47331508650E+03  0.58925352075E+03  0.00000000000E+00 0.  1.
         22    1    1    2    0    0  0.31124256727E+03  0.34433583373E+03  0.11482821284E+04  0.12385438823E+04  0.00000000000E+00 0.  1.
<mgrwt>
<rscale>  0 0.20659947E+04</rscale>
<asrwt>0</asrwt>
<pdfrwt beam="1">  1        2 0.12994188E+00 0.20659947E+04</pdfrwt>
<pdfrwt beam="2">  1       -2 0.19436702E+00 0.20659947E+04</pdfrwt>
<totfact> 0.42855022E+00</totfact>
</mgrwt>
</event>
<event>
 6    1  0.2003386E-005  0.7298918E+03  0.7818608E-02  0.9667436E-01
         -2   -1    0    0    0  501 -0.00000000000E+00  0.00000000000E+00  0.19828161687E+03  0.19828161687E+03  0.00000000000E+00 0.  1.
          2   -1    0    0  501    0  0.00000000000E+00 -0.00000000000E+00 -0.67169877261E+03  0.67169877261E+03  0.00000000000E+00 0. -1.
         23    2    1    2    0    0  0.25909137250E+03 -0.22063207558E+03 -0.37724089372E+03  0.51634678607E+03  0.92176241598E+02 0.  0.
         11    1    3    3    0    0  0.11076867166E+03 -0.88355568787E+02 -0.22542579040E+03  0.26625775507E+03  0.00000000000E+00 0.  1.
        -11    1    3    3    0    0  0.14832270083E+03 -0.13227650679E+03 -0.15181510333E+03  0.25008903101E+03  0.00000000000E+00 0. -1.
         22    1    1    2    0    0 -0.25909137250E+03  0.22063207558E+03 -0.96176262021E+02  0.35363360340E+03  0.00000000000E+00 0. -1.
<mgrwt>
<rscale>  0 0.72989182E+03</rscale>
<asrwt>0</asrwt>
<pdfrwt beam="1">  1        2 0.10333827E+00 0.72989182E+03</pdfrwt>
<pdfrwt beam="2">  1       -2 0.30504865E-01 0.72989182E+03</pdfrwt>
<totfact> 0.43146762E+02</totfact>
</mgrwt>
</event>
<event>
 6    1  0.2003386E-005  0.2725485E+04  0.7818608E-02  0.8326783E-01
          2   -1    0    0  501    0  0.00000000000E+00  0.00000000000E+00  0.13300932511E+04  0.13300932511E+04  0.00000000000E+00 0. -1.
         -2   -1    0    0    0  501 -0.00000000000E+00 -0.00000000000E+00 -0.13961927473E+04  0.13961927473E+04  0.00000000000E+00 0.  1.
         23    2    1    2    0    0  0.13046626682E+04 -0.31390775176E+03  0.19562983545E+03  0.13591045922E+04  0.90617357698E+02 0.  0.
         11    1    3    3    0    0  0.10837349840E+04 -0.28739035221E+03  0.14136814966E+03  0.11300706543E+04  0.00000000000E+00 0. -1.
        -11    1    3    3    0    0  0.22092768422E+03 -0.26517399544E+02  0.54261685794E+02  0.22903393783E+03  0.00000000000E+00 0.  1.
         22    1    1    2    0    0 -0.13046626682E+04  0.31390775176E+03 -0.26172933169E+03  0.13671814062E+04  0.00000000000E+00 0.  1.
<mgrwt>
<rscale>  0 0.27254846E+04</rscale>
<asrwt>0</asrwt>
<pdfrwt beam="1">  1        2 0.20462973E+00 0.27254846E+04</pdfrwt>
<pdfrwt beam="2">  1       -2 0.21479888E+00 0.27254846E+04</pdfrwt>
<totfact> 0.14827901E+00</totfact>
</mgrwt>
</event>
<event>
 6    1  0.2003386E-005  0.2143129E+04  0.7818608E-02  0.8542479E-01
         -2   -1    0    0    0  501 -0.00000000000E+00  0.00000000000E+00  0.47214487254E+03  0.47214487254E+03  0.00000000000E+00 0.  1.
          2   -1    0    0  501    0  0.00000000000E+00 -0.00000000000E+00 -0.24319867536E+04  0.24319867536E+04  0.00000000000E+00 0. -1.
         23    2    1    2    0    0 -0.45011454543E+03  0.66526830880E+03 -0.24029158995E+02  0.80828909350E+03  0.86999031619E+02 0.  0.
         13    1    3    3    0    0 -0.57338980906E+02  0.43750519632E+02  0.66017618996E+01  0.72425478663E+02  0.00000000000E+00 0. -1.
        -13    1    3    3    0    0 -0.39277556452E+03  0.62151778916E+03 -0.30630920894E+02  0.73586361484E+03  0.00000000000E+00 0.  1.
         22    1    1    2    0    0  0.45011454543E+03 -0.66526830880E+03 -0.19358127221E+04  0.20958425327E+04  0.00000000000E+00 0. -1.
<mgrwt>
<rscale>  0 0.21431286E+04</rscale>
<asrwt>0</asrwt>
<pdfrwt beam="1">  1        2 0.37415181E+00 0.21431286E+04</pdfrwt>
<pdfrwt beam="2">  1       -2 0.72637672E-01 0.21431286E+04</pdfrwt>
<totfact> 0.59985798E+00</totfact>
</mgrwt>
</event>
<event>
 6    1  0.2003386E-005  0.4745651E+04  0.7818608E-02  0.7868987E-01
         -2   -1    0    0    0  501 -0.00000000000E+00  0.00000000000E+00  0.17726720227E+04  0.17726720227E+04  0.00000000000E+00 0.  1.
          2   -1    0    0  501    0  0.00000000000E+00 -0.00000000000E+00 -0.31761657356E+04  0.31761657356E+04  0.00000000000E+00 0. -1.
         23    2    1    2    0    0  0.13643111650E+03 -0.22602896558E+04 -0.14383670035E+04  0.26841658341E+04  0.91234917410E+02 0.  0.
         13    1    3    3    0    0  0.71528034978E+02 -0.13009691438E+04 -0.88021484743E+03  0.15723915385E+04  0.00000000000E+00 0.  1.
        -13    1    3    3    0    0  0.64903081522E+02 -0.95932051207E+03 -0.55815215608E+03  0.11117742955E+04  0.00000000000E+00 0. -1.
         22    1    1    2    0    0 -0.13643111650E+03  0.22602896558E+04  0.34873290650E+02  0.22646719242E+04  0.00000000000E+00 0.  1.
<mgrwt>
<rscale>  0 0.47456507E+04</rscale>
<asrwt>0</asrwt>
<pdfrwt beam="1">  1        2 0.48864088E+00 0.47456507E+04</pdfrwt>
<pdfrwt beam="2">  1       -2 0.27271878E+00 0.47456507E+04</pdfrwt>
<totfact> 0.46531173E-02</totfact>
</mgrwt>
</event>
<event>
 6    1  0.2003386E-005  0.1226591E+04  0.7818608E-02  0.9089894E-01
         -2   -1    0    0    0  501 -0.00000000000E+00  0.00000000000E+00  0.24885573628E+03  0.24885573628E+03  0.00000000000E+00 0. -1.
          2   -1    0    0  501    0  0.00000000000E+00 -0.00000000000E+00 -0.15114440222E+04  0.15114440222E+04  0.00000000000E+00 0.  1.
         23    2    1    2    0    0  0.27366520655E+03  0.33634527115E+03 -0.19066789475E+02  0.44334626696E+03  0.90396810037E+02 0.  0.
         11    1    3    3    0    0  0.25810500882E+03  0.33938045382E+03 -0.23051856132E+02  0.42699962071E+03  0.00000000000E+00 0.  1.
        -11    1    3    3    0    0  0.15560197730E+02 -0.30351826761E+01  0.39850666572E+01  0.16346646247E+02  0.00000000000E+00 0. -1.
         22    1    1    2    0    0 -0.27366520655E+03 -0.33634527115E+03 -0.12435214964E+04  0.13169534915E+04  0.00000000000E+00 0.  1.
<mgrwt>
<rscale>  0 0.12265912E+04</rscale>
<asrwt>0</asrwt>
<pdfrwt beam="1">  1        2 0.23252985E+00 0.12265912E+04</pdfrwt>
<pdfrwt beam="2">  1       -2 0.38285498E-01 0.12265912E+04</pdfrwt>
<totfact> 0.79325548E+01</totfact>
</mgrwt>
</event>
<event>
 6    1  0.2003386E-005  0.2648516E+04  0.7818608E-02  0.8351906E-01
          2   -1    0    0  501    0  0.00000000000E+00  0.00000000000E+00  0.32655846333E+04  0.32655846333E+04  0.00000000000E+00 0.  1.
         -2   -1    0    0    0  501 -0.00000000000E+00 -0.00000000000E+00 -0.53701226433E+03  0.53701226433E+03  0.00000000000E+00 0. -1.
         23    2    1    2    0    0  0.66816759932E+03 -0.59950472881E+03  0.27605822276E+04  0.29043327429E+04  0.92090093036E+02 0.  0.
         11    1    3    3    0    0  0.43729980536E+03 -0.33764481055E+03  0.16306353085E+04  0.17216871513E+04  0.00000000000E+00 0. -1.
        -11    1    3    3    0    0  0.23086779396E+03 -0.26185991826E+03  0.11299469192E+04  0.11826455916E+04  0.00000000000E+00 0.  1.
         22    1    1    2    0    0 -0.66816759932E+03  0.59950472881E+03 -0.32009858657E+02  0.89826415474E+03  0.00000000000E+00 0.  1.
<mgrwt>
<rscale>  0 0.26485158E+04</rscale>
<asrwt>0</asrwt>
<pdfrwt beam="1">  1        2 0.50239763E+00 0.26485158E+04</pdfrwt>
<pdfrwt beam="2">  1       -2 0.82617273E-01 0.26485158E+04</pdfrwt>
<totfact> 0.13296918E+00</totfact>
</mgrwt>
</event>
<event>
 6    1  0.2003386E-005  0.2439253E+04  0.7818608E-02  0.8424952E-01
          1   -1    0    0  501    0  0.00000000000E+00  0.00000000000E+00  0.18966154314E+04  0.18966154314E+04  0.00000000000E+00 0. -1.
         -1   -1    0    0    0  501 -0.00000000000E+00 -0.00000000000E+00 -0.78428617897E+03  0.78428617897E+03  0.00000000000E+00 0.  1.
         23    2    1    2    0    0 -0.35854970994E+03 -0.25698360699E+03  0.18046356848E+04  0.18599956078E+04  0.90968332584E+02 0.  0.
         13    1    3    3    0    0 -0.25502221615E+02 -0.54580072241E+02  0.27103059341E+03  0.27764533160E+03  0.00000000000E+00 0. -1.
        -13    1    3    3    0    0 -0.33304748833E+03 -0.20240353475E+03  0.15336050914E+04  0.15823502762E+04  0.00000000000E+00 0.  1.
         22    1    1    2    0    0  0.35854970994E+03  0.25698360699E+03 -0.69230643235E+03  0.82090600256E+03  0.00000000000E+00 0.  1.
<mgrwt>
<rscale>  0 0.24392534E+04</rscale>
<asrwt>0</asrwt>
<pdfrwt beam="1">  1        1 0.29178699E+00 0.24392534E+04</pdfrwt>
<pdfrwt beam="2">  1       -1 0.12065941E+00 0.24392534E+04</pdfrwt>
<totfact> 0.19104044E+00</totfact>
</mgrwt>
</event>
<event>
 6    1  0.2003386E-005  0.2536310E+04  0.7818608E-02  0.8390163E-01
          2   -1    0    0  501    0  0.00000000000E+00  0.00000000000E+00  0.25127292905E+04  0.25127292905E+04  0.00000000000E+00 0.  1.
         -2   -1    0    0    0  501 -0.00000000000E+00 -0.00000000000E+00 -0.64002807995E+03  0.64002807995E+03  0.00000000000E+00 0. -1.
         23    2    1    2    0    0 -0.47966513255E+03 -0.60794241283E+03 -0.30827249465E+03  0.83838511874E+03  0.90471319583E+02 0.  0.
         13    1    3    3    0    0 -0.22578131208E+03 -0.35764605421E+03 -0.17630627398E+03  0.45822680326E+03  0.00000000000E+00 0. -1.
        -13    1    3    3    0    0 -0.25388382047E+03 -0.25029635862E+03 -0.13196622067E+03  0.38015831548E+03  0.00000000000E+00 0.  1.
         22    1    1    2    0    0  0.47966513255E+03  0.60794241283E+03  0.21809737052E+04  0.23143722517E+04  0.00000000000E+00 0.  1.
<mgrwt>
<rscale>  0 0.25363102E+04</rscale>
<asrwt>0</asrwt>
<pdfrwt beam="1">  1        2 0.38657373E+00 0.25363102E+04</pdfrwt>
<pdfrwt beam="2">  1       -2 0.98465860E-01 0.25363102E+04</pdfrwt>
<totfact> 0.26068467E+00</totfact>
</mgrwt>
</event>
<event>
 6    1  0.2003386E-005  0.3960256E+04  0.7818608E-02  0.8012613E-01
          2   -1    0    0  501    0  0.00000000000E+00  0.00000000000E+00  0.19449690776E+04  0.19449690776E+04  0.00000000000E+00 0. -1.
         -2   -1    0    0    0  501 -0.00000000000E+00 -0.00000000000E+00 -0.20159222158E+04  0.20159222158E+04  0.00000000000E+00 0.  1.
         23    2    1    2    0    0  0.44602428056E+03  0.12071223767E+04  0.14683225181E+04  0.19545384737E+04  0.90374424313E+02 0.  0.
         11    1    3    3    0    0  0.29179052326E+03  0.76340886590E+03  0.86699745825E+03  0.11914778213E+04  0.00000000000E+00 0. -1.
        -11    1    3    3    0    0  0.15423375730E+03  0.44371351082E+03  0.60132505989E+03  0.76306065239E+03  0.00000000000E+00 0.  1.
         22    1    1    2    0    0 -0.44602428056E+03 -0.12071223767E+04 -0.15392756563E+04  0.20063528198E+04  0.00000000000E+00 0.  1.
<mgrwt>
<rscale>  0 0.39602557E+04</rscale>
<asrwt>0</asrwt>
<pdfrwt beam="1">  1        2 0.29922601E+00 0.39602557E+04</pdfrwt>
<pdfrwt beam="2">  1       -2 0.31014188E+00 0.39602557E+04</pdfrwt>
<totfact> 0.15624804E-01</totfact>
</mgrwt>
</event>
<event>
 6    1  0.2003386E-005  0.3112556E+04  0.7818608E-02  0.8212301E-01
          2   -1    0    0  501    0  0.00000000000E+00  0.00000000000E+00  0.31171783080E+04  0.31171783080E+04  0.00000000000E+00 0. -1.
         -2   -1    0    0    0  501 -0.00000000000E+00 -0.00000000000E+00 -0.77698489337E+03  0.77698489337E+03  0.00000000000E+00 0.  1.
         23    2    1    2    0    0 -0.11980438826E+04 -0.84421189632E+03  0.52123383039E+03  0.15582229539E+04  0.91494249568E+02 0.  0.
         11    1    3    3    0    0 -0.24483185387E+03 -0.13847615536E+03  0.75927468577E+02  0.29134732324E+03  0.00000000000E+00 0. -1.
        -11    1    3    3    0    0 -0.95321202872E+03 -0.70573574097E+03  0.44530636182E+03  0.12668756307E+04  0.00000000000E+00 0.  1.
         22    1    1    2    0    0  0.11980438826E+04  0.84421189632E+03  0.18189595843E+04  0.23359402475E+04  0.00000000000E+00 0. -1.
<mgrwt>
<rscale>  0 0.31125555E+04</rscale>
<asrwt>0</asrwt>
<pdfrwt beam="1">  1        2 0.47956589E+00 0.31125555E+04</pdfrwt>
<pdfrwt beam="2">  1       -2 0.11953614E+00 0.31125555E+04</pdfrwt>
<totfact> 0.66664670E-01</totfact>
</mgrwt>
</event>
<event>
 6    1  0.2003386E-005  0.2403589E+04  0.7818608E-02  0.8438161E-01
         -2   -1    0    0    0  501 -0.00000000000E+00  0.00000000000E+00  0.33562183877E+03  0.33562183877E+03  0.00000000000E+00 0. -1.
          2   -1    0    0  501    0  0.00000000000E+00 -0.00000000000E+00 -0.43033860709E+04  0.43033860709E+04  0.00000000000E+00 0.  1.
         23    2    1    2    0    0 -0.95370747289E+03 -0.45672740079E+03 -0.89143517884E+03  0.13860157015E+04  0.90691698410E+02 0.  0.
         11    1    3    3    0    0 -0.23838266094E+03 -0.83843369352E+02 -0.17781098647E+03  0.30898665106E+03  0.00000000000E+00 0. -1.
        -11    1    3    3    0    0 -0.71532481195E+03 -0.37288403144E+03 -0.71362419238E+03  0.10770290504E+04  0.00000000000E+00 0.  1.
         22    1    1    2    0    0  0.95370747289E+03  0.45672740079E+03 -0.30763290533E+04  0.32529922082E+04  0.00000000000E+00 0.  1.
<mgrwt>
<rscale>  0 0.24035893E+04</rscale>
<asrwt>0</asrwt>
<pdfrwt beam="1">  1        2 0.66205934E+00 0.24035893E+04</pdfrwt>
<pdfrwt beam="2">  1       -2 0.51634133E-01 0.24035893E+04</pdfrwt>
<totfact> 0.60369339E-01</totfact>
</mgrwt>
</event>
<event>
 6    1  0.2003386E-005  0.1846172E+04  0.7818608E-02  0.8682124E-01
          2   -1    0    0  501    0  0.00000000000E+00  0.00000000000E+00  0.31893666852E+04  0.31893666852E+04  0.00000000000E+00 0. -1.
         -2   -1    0    0    0  501 -0.00000000000E+00 -0.00000000000E+00 -0.26716524474E+03  0.26716524474E+03  0.00000000000E+00 0.  1.
         23    2    1    2    0    0  0.84428432378E+02 -0.59923889742E+03  0.27639923748E+04  0.28310357071E+04  0.94307531759E+02 0.  0.
         11    1    3    3    0    0 -0.11981134585E+01 -0.23518096772E+03  0.12130758714E+04  0.12356636245E+04  0.00000000000E+00 0. -1.
        -11    1    3    3    0    0  0.85626545836E+02 -0.36405792970E+03  0.15509165033E+04  0.15953720825E+04  0.00000000000E+00 0.  1.
         22    1    1    2    0    0 -0.84428432378E+02  0.59923889742E+03  0.15820906569E+03  0.62549622288E+03  0.00000000000E+00 0.  1.
<mgrwt>
<rscale>  0 0.18461722E+04</rscale>
<asrwt>0</asrwt>
<pdfrwt beam="1">  1        2 0.49067177E+00 0.18461722E+04</pdfrwt>
<pdfrwt beam="2">  1       -2 0.41102348E-01 0.18461722E+04</pdfrwt>
<totfact> 0.69819726E+00</totfact>
</mgrwt>
</event>
<event>
 6    1  0.2003386E-005  0.2134351E+04  0.7818608E-02  0.8546261E-01
         -2   -1    0    0    0  501 -0.00000000000E+00  0.00000000000E+00  0.38383240782E+03  0.38383240782E+03  0.00000000000E+00 0.  1.
          2   -1    0    0  501    0  0.00000000000E+00 -0.00000000000E+00 -0.29670841076E+04  0.29670841076E+04  0.00000000000E+00 0. -1.
         23    2    1    2    0    0 -0.40872306340E+03  0.20044653173E+03 -0.28059972434E+04  0.28441138597E+04  0.90165196690E+02 0.  0.
         13    1    3    3    0    0 -0.33047219129E+03  0.19154350950E+03 -0.24421349948E+04  0.24718260695E+04  0.00000000000E+00 0. -1.
        -13    1    3    3    0    0 -0.78250872110E+02  0.89030222333E+01 -0.36386224857E+03  0.37228779019E+03  0.00000000000E+00 0.  1.
         22    1    1    2    0    0  0.40872306340E+03 -0.20044653173E+03  0.22274554357E+03  0.50680265569E+03  0.00000000000E+00 0.  1.
<mgrwt>
<rscale>  0 0.21343505E+04</rscale>
<asrwt>0</asrwt>
<pdfrwt beam="1">  1        2 0.45647447E+00 0.21343505E+04</pdfrwt>
<pdfrwt beam="2">  1       -2 0.59051141E-01 0.21343505E+04</pdfrwt>
<totfact> 0.45007347E+00</totfact>
</mgrwt>
</event>
<event>
 6    1  0.2003386E-005  0.2851873E+04  0.7818608E-02  0.8287342E-01
         -2   -1    0    0    0  501 -0.00000000000E+00  0.00000000000E+00  0.78724610596E+03  0.78724610596E+03  0.00000000000E+00 0.  1.
          2   -1    0    0  501    0  0.00000000000E+00 -0.00000000000E+00 -0.25827940439E+04  0.25827940439E+04  0.00000000000E+00 0. -1.
         23    2    1    2    0    0  0.46359800107E+03  0.96653770878E+03  0.20980910030E+03  0.10961502889E+04  0.91691592486E+02 0.  0.
         11    1    3    3    0    0  0.40952571224E+03  0.81140182003E+03  0.14930165436E+03  0.92107285626E+03  0.00000000000E+00 0. -1.
        -11    1    3    3    0    0  0.54072288829E+02  0.15513588875E+03  0.60507445936E+02  0.17507743261E+03  0.00000000000E+00 0.  1.
         22    1    1    2    0    0 -0.46359800107E+03 -0.96653770878E+03 -0.20053570382E+04  0.22738898610E+04  0.00000000000E+00 0. -1.
<mgrwt>
<rscale>  0 0.28518728E+04</rscale>
<asrwt>0</asrwt>
<pdfrwt beam="1">  1        2 0.39735293E+00 0.28518728E+04</pdfrwt>
<pdfrwt beam="2">  1       -2 0.12111479E+00 0.28518728E+04</pdfrwt>
<totfact> 0.14001131E+00</totfact>
</mgrwt>
</event>
<event>
 6    1  0.2003386E-005  0.1318605E+04  0.7818608E-02  0.9014940E-01
          2   -1    0    0  501    0  0.00000000000E+00  0.00000000000E+00  0.73908339338E+03  0.73908339338E+03  0.00000000000E+00 0. -1.
         -2   -1    0    0    0  501 -0.00000000000E+00 -0.00000000000E+00 -0.58813387173E+03  0.58813387173E+03  0.00000000000E+00 0.  1.
         23    2    1    2    0    0  0.11520219929E+03 -0.26219272107E+03  0.66996996991E+03  0.73442826772E+03  0.92241802562E+02 0.  0.
         11    1    3    3    0    0  0.97197847701E+02 -0.20799539343E+03  0.42668673317E+03  0.48453180860E+03  0.00000000000E+00 0.  1.
        -11    1    3    3    0    0  0.18004351592E+02 -0.54197327642E+02  0.24328323674E+03  0.24989645912E+03  0.00000000000E+00 0. -1.
         22    1    1    2    0    0 -0.11520219929E+03  0.26219272107E+03 -0.51902044827E+03  0.59278899739E+03  0.00000000000E+00 0.  1.
<mgrwt>
<rscale>  0 0.13186053E+04</rscale>
<asrwt>0</asrwt>
<pdfrwt beam="1">  1        2 0.11370514E+00 0.13186053E+04</pdfrwt>
<pdfrwt beam="2">  1       -2 0.90482135E-01 0.13186053E+04</pdfrwt>
<totfact> 0.39068359E+01</totfact>
</mgrwt>
</event>
<event>
 6    1  0.2003386E-005  0.4872587E+03  0.7818608E-02  0.1017159E+00
          2   -1    0    0  501    0  0.00000000000E+00  0.00000000000E+00  0.23637073188E+04  0.23637073188E+04  0.00000000000E+00 0.  1.
         -2   -1    0    0    0  501 -0.00000000000E+00 -0.00000000000E+00 -0.25111085843E+02  0.25111085843E+02  0.00000000000E+00 0. -1.
         23    2    1    2    0    0 -0.29744407868E+02 -0.94806710738E+02  0.22547028341E+04  0.22587755479E+04  0.92244586965E+02 0.  0.
         11    1    3    3    0    0 -0.14407639237E+02 -0.10017040927E+03  0.12995452264E+04  0.13034797606E+04  0.00000000000E+00 0. -1.
        -11    1    3    3    0    0 -0.15336768631E+02  0.53636985293E+01  0.95515760769E+03  0.95529578731E+03  0.00000000000E+00 0.  1.
         22    1    1    2    0    0  0.29744407868E+02  0.94806710738E+02  0.83893398871E+02  0.13004285668E+03  0.00000000000E+00 0. -1.
<mgrwt>
<rscale>  0 0.48725869E+03</rscale>
<asrwt>0</asrwt>
<pdfrwt beam="1">  1        2 0.36364711E+00 0.48725869E+03</pdfrwt>
<pdfrwt beam="2">  1       -2 0.38632458E-02 0.48725869E+03</pdfrwt>
<totfact> 0.13498427E+03</totfact>
</mgrwt>
</event>
<event>
 6    1  0.2003386E-005  0.3229201E+04  0.7818608E-02  0.8181148E-01
          2   -1    0    0  501    0  0.00000000000E+00  0.00000000000E+00  0.34724199349E+04  0.34724199349E+04  0.00000000000E+00 0. -1.
         -2   -1    0    0    0  501 -0.00000000000E+00 -0.00000000000E+00 -0.75075436639E+03  0.75075436639E+03  0.00000000000E+00 0.  1.
         23    2    1    2    0    0  0.49627195507E+03 -0.43535769665E+03 -0.56316229368E+03  0.87266445029E+03  0.92570494004E+02 0.  0.
         11    1    3    3    0    0  0.35638637008E+03 -0.33584260660E+03 -0.46293058521E+03  0.67387404454E+03  0.00000000000E+00 0. -1.
        -11    1    3    3    0    0  0.13988558499E+03 -0.99515090049E+02 -0.10023170848E+03  0.19879040575E+03  0.00000000000E+00 0.  1.
         22    1    1    2    0    0 -0.49627195507E+03  0.43535769665E+03  0.32848278622E+04  0.33505098510E+04  0.00000000000E+00 0. -1.
<mgrwt>
<rscale>  0 0.32292008E+04</rscale>
<asrwt>0</asrwt>
<pdfrwt beam="1">  1        2 0.53421844E+00 0.32292008E+04</pdfrwt>
<pdfrwt beam="2">  1       -2 0.11550067E+00 0.32292008E+04</pdfrwt>
<totfact> 0.41595900E-01</totfact>
</mgrwt>
</event>
<event>
 6    1  0.2003386E-005  0.7510643E+03  0.7818608E-02  0.9633682E-01
          2   -1    0    0  501    0  0.00000000000E+00  0.00000000000E+00  0.82172504687E+03  0.82172504687E+03  0.00000000000E+00 0. -1.
         -2   -1    0    0    0  501 -0.00000000000E+00 -0.00000000000E+00 -0.17161991411E+03  0.17161991411E+03  0.00000000000E+00 0.  1.
         23    2    1    2    0    0  0.70917072107E+02 -0.11192802414E+03  0.78671598297E+03  0.80303038430E+03  0.91534947149E+02 0.  0.
         11    1    3    3    0    0  0.51016439633E+02 -0.11168321848E+03  0.47276269594E+03  0.48844691121E+03  0.00000000000E+00 0. -1.
        -11    1    3    3    0    0  0.19900632473E+02 -0.24480565457E+00  0.31395328703E+03  0.31458347308E+03  0.00000000000E+00 0.  1.
         22    1    1    2    0    0 -0.70917072107E+02  0.11192802414E+03 -0.13661085020E+03  0.19031457668E+03  0.00000000000E+00 0.  1.
<mgrwt>
<rscale>  0 0.75106426E+03</rscale>
<asrwt>0</asrwt>
<pdfrwt beam="1">  1        2 0.12641924E+00 0.75106426E+03</pdfrwt>
<pdfrwt beam="2">  1       -2 0.26403064E-01 0.75106426E+03</pdfrwt>
<totfact> 0.43360730E+02</totfact>
</mgrwt>
</event>
<event>
 6    1  0.2003386E-005  0.1827402E+04  0.7818608E-02  0.8691862E-01
         -2   -1    0    0    0  501 -0.00000000000E+00  0.00000000000E+00  0.23204099920E+03  0.23204099920E+03  0.00000000000E+00 0.  1.
          2   -1    0    0  501    0  0.00000000000E+00 -0.00000000000E+00 -0.35978538624E+04  0.35978538624E+04  0.00000000000E+00 0. -1.
         23    2    1    2    0    0  0.77146077176E+03  0.46038758533E+03 -0.20060509467E+04  0.22001522683E+04  0.96546110734E+02 0.  0.
         13    1    3    3    0    0  0.83678033225E+02  0.78297135676E+02 -0.30965297187E+03  0.33017785765E+03  0.00000000000E+00 0.  1.
        -13    1    3    3    0    0  0.68778273854E+03  0.38209044966E+03 -0.16963979749E+04  0.18699744106E+04  0.00000000000E+00 0. -1.
         22    1    1    2    0    0 -0.77146077176E+03 -0.46038758533E+03 -0.13597619165E+04  0.16297425934E+04  0.00000000000E+00 0. -1.
<mgrwt>
<rscale>  0 0.18274021E+04</rscale>
<asrwt>0</asrwt>
<pdfrwt beam="1">  1        2 0.55351592E+00 0.18274021E+04</pdfrwt>
<pdfrwt beam="2">  1       -2 0.35698619E-01 0.18274021E+04</pdfrwt>
<totfact> 0.48567738E+00</totfact>
</mgrwt>
</event>
<event>
 6    1  0.2003386E-005  0.2743926E+04  0.7818608E-02  0.8320892E-01
          2   -1    0    0  501    0  0.00000000000E+00  0.00000000000E+00  0.12780482148E+04  0.12780482148E+04  0.00000000000E+00 0.  1.
         -2   -1    0    0    0  501 -0.00000000000E+00 -0.00000000000E+00 -0.14727785703E+04  0.14727785703E+04  0.00000000000E+00 0. -1.
         23    2    1    2    0    0 -0.51294531111E+03 -0.46629725364E+03 -0.12826445947E+04  0.14608254624E+04  0.91037652102E+02 0.  0.
         13    1    3    3    0    0 -0.39207459800E+03 -0.30411404645E+03 -0.94037532284E+03  0.10632561269E+04  0.00000000000E+00 0. -1.
        -13    1    3    3    0    0 -0.12087071310E+03 -0.16218320719E+03 -0.34226927190E+03  0.39756933542E+03  0.00000000000E+00 0.  1.
         22    1    1    2    0    0  0.51294531111E+03  0.46629725364E+03  0.10879142392E+04  0.12900013228E+04  0.00000000000E+00 0.  1.
<mgrwt>
<rscale>  0 0.27439257E+04</rscale>
<asrwt>0</asrwt>
<pdfrwt beam="1">  1        2 0.19662280E+00 0.27439257E+04</pdfrwt>
<pdfrwt beam="2">  1       -2 0.22658132E+00 0.27439257E+04</pdfrwt>
<totfact> 0.13370465E+00</totfact>
</mgrwt>
</event>
<event>
 6    1  0.2003386E-005  0.1501147E+04  0.7818608E-02  0.8883690E-01
          1   -1    0    0  501    0  0.00000000000E+00  0.00000000000E+00  0.22480279565E+04  0.22480279565E+04  0.00000000000E+00 0. -1.
         -1   -1    0    0    0  501 -0.00000000000E+00 -0.00000000000E+00 -0.25060224000E+03  0.25060224000E+03  0.00000000000E+00 0.  1.
         23    2    1    2    0    0  0.20648066676E+03  0.62872321464E+03  0.42253664553E+03  0.79035541410E+03  0.90539037999E+02 0.  0.
         11    1    3    3    0    0  0.20824219528E+03  0.58927050554E+03  0.41481016470E+03  0.75011466679E+03  0.00000000000E+00 0. -1.
        -11    1    3    3    0    0 -0.17615285157E+01  0.39452709096E+02  0.77264808350E+01  0.40240747307E+02  0.00000000000E+00 0.  1.
         22    1    1    2    0    0 -0.20648066676E+03 -0.62872321464E+03  0.15748890710E+04  0.17082747825E+04  0.00000000000E+00 0. -1.
<mgrwt>
<rscale>  0 0.15011473E+04</rscale>
<asrwt>0</asrwt>
<pdfrwt beam="1">  1        1 0.34585044E+00 0.15011473E+04</pdfrwt>
<pdfrwt beam="2">  1       -1 0.38554192E-01 0.15011473E+04</pdfrwt>
<totfact> 0.12747723E+01</totfact>
</mgrwt>
</event>
<event>
 6    1  0.2003386E-005  0.1291279E+04  0.7818608E-02  0.9036510E-01
          2   -1    0    0  501    0  0.00000000000E+00  0.00000000000E+00  0.70298404156E+03  0.70298404156E+03  0.00000000000E+00 0. -1.
         -2   -1    0    0    0  501 -0.00000000000E+00 -0.00000000000E+00 -0.59297246833E+03  0.59297246833E+03  0.00000000000E+00 0.  1.
         23    2    1    2    0    0  0.59819792541E+01  0.22423619100E+03  0.65950657102E+03  0.70243952948E+03  0.90303498917E+02 0.  0.
         13    1    3    3    0    0  0.44121533448E+02  0.13952810918E+03  0.45170192162E+03  0.47481515242E+03  0.00000000000E+00 0.  1.
        -13    1    3    3    0    0 -0.38139554194E+02  0.84708081815E+02  0.20780464940E+03  0.22762437706E+03  0.00000000000E+00 0. -1.
         22    1    1    2    0    0 -0.59819792541E+01 -0.22423619100E+03 -0.54949499780E+03  0.59351698041E+03  0.00000000000E+00 0.  1.
<mgrwt>
<rscale>  0 0.12912787E+04</rscale>
<asrwt>0</asrwt>
<pdfrwt beam="1">  1        2 0.10815139E+00 0.12912787E+04</pdfrwt>
<pdfrwt beam="2">  1       -2 0.91226533E-01 0.12912787E+04</pdfrwt>
<totfact> 0.40952157E+01</totfact>
</mgrwt>
</event>
<event>
 6    1  0.2003386E-005  0.2465630E+04  0.7818608E-02  0.8415333E-01
         -2   -1    0    0    0  501 -0.00000000000E+00  0.00000000000E+00  0.96872902146E+03  0.96872902146E+03  0.00000000000E+00 0.  1.
          2   -1    0    0  501    0  0.00000000000E+00 -0.00000000000E+00 -0.15688931031E+04  0.15688931031E+04  0.00000000000E+00 0. -1.
         23    2    1    2    0    0 -0.10509662516E+03  0.19023745455E+03 -0.15476756318E+04  0.15655039591E+04  0.90924117017E+02 0.  0.
         11    1    3    3    0    0 -0.50090649965E+02  0.14384980818E+03 -0.12504226023E+04  0.12596660371E+04  0.00000000000E+00 0.  1.
        -11    1    3    3    0    0 -0.55005975190E+02  0.46387646368E+02 -0.29725302948E+03  0.30583792207E+03  0.00000000000E+00 0. -1.
         22    1    1    2    0    0  0.10509662516E+03 -0.19023745455E+03  0.94751155020E+03  0.97211816540E+03  0.00000000000E+00 0.  1.
<mgrwt>
<rscale>  0 0.24656296E+04</rscale>
<asrwt>0</asrwt>
<pdfrwt beam="1">  1        2 0.24136817E+00 0.24656296E+04</pdfrwt>
<pdfrwt beam="2">  1       -2 0.14903523E+00 0.24656296E+04</pdfrwt>
<totfact> 0.31651485E+00</totfact>
</mgrwt>
</event>
<event>
 6    1  0.2003386E-005  0.2322169E+04  0.7818608E-02  0.8469231E-01
         -2   -1    0    0    0  501 -0.00000000000E+00  0.00000000000E+00  0.17612998955E+04  0.17612998955E+04  0.00000000000E+00 0.  1.
          2   -1    0    0  501    0  0.00000000000E+00 -0.00000000000E+00 -0.76541070165E+03  0.76541070165E+03  0.00000000000E+00 0. -1.
         23    2    1    2    0    0  0.53106892775E+03  0.70276589607E+03  0.13188021932E+04  0.15885278240E+04  0.90924760468E+02 0.  0.
         13    1    3    3    0    0  0.35434629008E+03  0.50275422891E+03  0.85220159742E+03  0.10509855711E+04  0.00000000000E+00 0.  1.
        -13    1    3    3    0    0  0.17672263767E+03  0.20001166717E+03  0.46660059582E+03  0.53754225293E+03  0.00000000000E+00 0. -1.
         22    1    1    2    0    0 -0.53106892775E+03 -0.70276589607E+03 -0.32291299936E+03  0.93818277316E+03  0.00000000000E+00 0. -1.
<mgrwt>
<rscale>  0 0.23221695E+04</rscale>
<asrwt>0</asrwt>
<pdfrwt beam="1">  1        2 0.11775549E+00 0.23221695E+04</pdfrwt>
<pdfrwt beam="2">  1       -2 0.27096921E+00 0.23221695E+04</pdfrwt>
<totfact> 0.15800540E+00</totfact>
</mgrwt>
</event>
<event>
 6    1  0.2003386E-005  0.1835032E+04  0.7818608E-02  0.8687888E-01
         -2   -1    0    0    0  501 -0.00000000000E+00  0.00000000000E+00  0.37180203022E+03  0.37180203022E+03  0.00000000000E+00 0.  1.
          2   -1    0    0  501    0  0.00000000000E+00 -0.00000000000E+00 -0.22642042957E+04  0.22642042957E+04  0.00000000000E+00 0. -1.
         23    2    1    2    0    0  0.79188684652E+03  0.41033947800E+03 -0.65331364376E+03  0.11093092776E+04  0.91022476911E+02 0.  0.
         13    1    3    3    0    0  0.56233037336E+03  0.24388451871E+03 -0.44278292925E+03  0.75614273104E+03  0.00000000000E+00 0. -1.
        -13    1    3    3    0    0  0.22955647316E+03  0.16645495929E+03 -0.21053071451E+03  0.35316654654E+03  0.00000000000E+00 0.  1.
         22    1    1    2    0    0 -0.79188684652E+03 -0.41033947800E+03 -0.12390886217E+04  0.15266970483E+04  0.00000000000E+00 0. -1.
<mgrwt>
<rscale>  0 0.18350322E+04</rscale>
<asrwt>0</asrwt>
<pdfrwt beam="1">  1        2 0.34833912E+00 0.18350322E+04</pdfrwt>
<pdfrwt beam="2">  1       -2 0.57200313E-01 0.18350322E+04</pdfrwt>
<totfact> 0.12814186E+01</totfact>
</mgrwt>
</event>
<event>
 6    1  0.2003386E-005  0.3820301E+04  0.7818608E-02  0.8041812E-01
          2   -1    0    0  501    0  0.00000000000E+00  0.00000000000E+00  0.18196275037E+04  0.18196275037E+04  0.00000000000E+00 0. -1.
         -2   -1    0    0    0  501 -0.00000000000E+00 -0.00000000000E+00 -0.20051770240E+04  0.20051770240E+04  0.00000000000E+00 0.  1.
         23    2    1    2    0    0 -0.12605535319E+03 -0.27713786901E+03 -0.19797175958E+04  0.20049873848E+04  0.89427644141E+02 0.  0.
         13    1    3    3    0    0 -0.37943869450E+02 -0.18737330988E+03 -0.11467949733E+04  0.11626208347E+04  0.00000000000E+00 0. -1.
        -13    1    3    3    0    0 -0.88111483741E+02 -0.89764559131E+02 -0.83292262257E+03  0.84236655016E+03  0.00000000000E+00 0.  1.
         22    1    1    2    0    0  0.12605535319E+03  0.27713786901E+03  0.17941680755E+04  0.18198171429E+04  0.00000000000E+00 0. -1.
<mgrwt>
<rscale>  0 0.38203012E+04</rscale>
<asrwt>0</asrwt>
<pdfrwt beam="1">  1        2 0.27994269E+00 0.38203012E+04</pdfrwt>
<pdfrwt beam="2">  1       -2 0.30848877E+00 0.38203012E+04</pdfrwt>
<totfact> 0.18989130E-01</totfact>
</mgrwt>
</event>
<event>
 6    1  0.2003386E-005  0.2954260E+04  0.7818608E-02  0.8256914E-01
          2   -1    0    0  501    0  0.00000000000E+00  0.00000000000E+00  0.19975167500E+04  0.19975167500E+04  0.00000000000E+00 0. -1.
         -2   -1    0    0    0  501 -0.00000000000E+00 -0.00000000000E+00 -0.10923127907E+04  0.10923127907E+04  0.00000000000E+00 0.  1.
         23    2    1    2    0    0 -0.88992017923E+03 -0.89662026916E+03  0.12504613558E+04  0.17802156654E+04  0.98124311810E+02 0.  0.
         11    1    3    3    0    0 -0.43634720096E+03 -0.50252704596E+03  0.68651830119E+03  0.95615882027E+03  0.00000000000E+00 0. -1.
        -11    1    3    3    0    0 -0.45357297827E+03 -0.39409322319E+03  0.56394305459E+03  0.82405684513E+03  0.00000000000E+00 0.  1.
         22    1    1    2    0    0  0.88992017923E+03  0.89662026916E+03 -0.34525739650E+03  0.13096138753E+04  0.00000000000E+00 0.  1.
<mgrwt>
<rscale>  0 0.29542600E+04</rscale>
<asrwt>0</asrwt>
<pdfrwt beam="1">  1        2 0.30731027E+00 0.29542600E+04</pdfrwt>
<pdfrwt beam="2">  1       -2 0.16804812E+00 0.29542600E+04</pdfrwt>
<totfact> 0.12676077E+00</totfact>
</mgrwt>
</event>
<event>
 6    1  0.2003386E-005  0.2775114E+04  0.7818608E-02  0.8311036E-01
          2   -1    0    0  501    0  0.00000000000E+00  0.00000000000E+00  0.22637064599E+04  0.22637064599E+04  0.00000000000E+00 0. -1.
         -2   -1    0    0    0  501 -0.00000000000E+00 -0.00000000000E+00 -0.85051388955E+03  0.85051388955E+03  0.00000000000E+00 0.  1.
         23    2    1    2    0    0 -0.88225199515E+03 -0.74704458070E+03  0.15654569996E+04  0.19481891986E+04  0.91330977584E+02 0.  0.
         13    1    3    3    0    0 -0.16807094827E+03 -0.10263183588E+03  0.23982497585E+03  0.31031783131E+03  0.00000000000E+00 0. -1.
        -13    1    3    3    0    0 -0.71418104688E+03 -0.64441274481E+03  0.13256320237E+04  0.16378713673E+04  0.00000000000E+00 0.  1.
         22    1    1    2    0    0  0.88225199515E+03  0.74704458070E+03 -0.15226442918E+03  0.11660311509E+04  0.00000000000E+00 0.  1.
<mgrwt>
<rscale>  0 0.27751135E+04</rscale>
<asrwt>0</asrwt>
<pdfrwt beam="1">  1        2 0.34826253E+00 0.27751135E+04</pdfrwt>
<pdfrwt beam="2">  1       -2 0.13084829E+00 0.27751135E+04</pdfrwt>
<totfact> 0.17704406E+00</totfact>
</mgrwt>
</event>
<event>
 6    1  0.2003386E-005  0.2204590E+04  0.7818608E-02  0.8516520E-01
          2   -1    0    0  501    0  0.00000000000E+00  0.00000000000E+00  0.33993730943E+04  0.33993730943E+04  0.00000000000E+00 0. -1.
         -2   -1    0    0    0  501 -0.00000000000E+00 -0.00000000000E+00 -0.35743479499E+03  0.35743479499E+03  0.00000000000E+00 0.  1.
         23    2    1    2    0    0  0.46948794898E+03 -0.94552611713E+03  0.99459626617E+03  0.14533218413E+04  0.92109008438E+02 0.  0.
         13    1    3    3    0    0  0.33673578530E+03 -0.61362507114E+03  0.61271621845E+03  0.93024076528E+03  0.00000000000E+00 0.  1.
        -13    1    3    3    0    0  0.13275216367E+03 -0.33190104599E+03  0.38188004772E+03  0.52308107607E+03  0.00000000000E+00 0. -1.
         22    1    1    2    0    0 -0.46948794898E+03  0.94552611713E+03  0.20473420331E+04  0.23034860479E+04  0.00000000000E+00 0. -1.
<mgrwt>
<rscale>  0 0.22045900E+04</rscale>
<asrwt>0</asrwt>
<pdfrwt beam="1">  1        2 0.52298045E+00 0.22045900E+04</pdfrwt>
<pdfrwt beam="2">  1       -2 0.54989971E-01 0.22045900E+04</pdfrwt>
<totfact> 0.27199171E+00</totfact>
</mgrwt>
</event>
<event>
 6    1  0.2003386E-005  0.4825510E+03  0.7818608E-02  0.1018436E+00
         -1   -1    0    0    0  501 -0.00000000000E+00  0.00000000000E+00  0.26549270671E+03  0.26549270671E+03  0.00000000000E+00 0.  1.
          1   -1    0    0  501    0  0.00000000000E+00 -0.00000000000E+00 -0.21926730078E+03  0.21926730078E+03  0.00000000000E+00 0. -1.
         23    2    1    2    0    0 -0.17521886317E+03  0.10945713365E+03 -0.84969180946E+02  0.24002641000E+03  0.87808892876E+02 0.  0.
         13    1    3    3    0    0 -0.14072039026E+03  0.12219754816E+03 -0.80375593875E+02  0.20296478784E+03  0.00000000000E+00 0. -1.
        -13    1    3    3    0    0 -0.34498472908E+02 -0.12740414508E+02 -0.45935870709E+01  0.37061622159E+02  0.00000000000E+00 0.  1.
         22    1    1    2    0    0  0.17521886317E+03 -0.10945713365E+03  0.13119458687E+03  0.24473359750E+03  0.00000000000E+00 0.  1.
<mgrwt>
<rscale>  0 0.48255101E+03</rscale>
<asrwt>0</asrwt>
<pdfrwt beam="1">  1        1 0.33733431E-01 0.48255101E+03</pdfrwt>
<pdfrwt beam="2">  1       -1 0.40845032E-01 0.48255101E+03</pdfrwt>
<totfact> 0.77778247E+02</totfact>
</mgrwt>
</event>
<event>
 6    1  0.2003386E-005  0.1830602E+04  0.7818608E-02  0.8690193E-01
         -2   -1    0    0    0  501 -0.00000000000E+00  0.00000000000E+00  0.79934992359E+03  0.79934992359E+03  0.00000000000E+00 0.  1.
          2   -1    0    0  501    0  0.00000000000E+00 -0.00000000000E+00 -0.10480718982E+04  0.10480718982E+04  0.00000000000E+00 0. -1.
         23    2    1    2    0    0  0.45756111446E+03  0.52454357789E+03  0.47166427708E+03  0.84569107445E+03  0.90653541317E+02 0.  0.
         13    1    3    3    0    0  0.32983092336E+03  0.43520698376E+03  0.36614554277E+03  0.65746187358E+03  0.00000000000E+00 0.  1.
        -13    1    3    3    0    0  0.12773019111E+03  0.89336594135E+02  0.10551873431E+03  0.18822920087E+03  0.00000000000E+00 0. -1.
         22    1    1    2    0    0 -0.45756111446E+03 -0.52454357789E+03 -0.72038625172E+03  0.10017307474E+04  0.00000000000E+00 0.  1.
<mgrwt>
<rscale>  0 0.18306023E+04</rscale>
<asrwt>0</asrwt>
<pdfrwt beam="1">  1        2 0.16124183E+00 0.18306023E+04</pdfrwt>
<pdfrwt beam="2">  1       -2 0.12297691E+00 0.18306023E+04</pdfrwt>
<totfact> 0.11043424E+01</totfact>
</mgrwt>
</event>
<event>
 6    1  0.2003386E-005  0.4470479E+04  0.7818608E-02  0.7915826E-01
          2   -1    0    0  501    0  0.00000000000E+00  0.00000000000E+00  0.21742934215E+04  0.21742934215E+04  0.00000000000E+00 0. -1.
         -2   -1    0    0    0  501 -0.00000000000E+00 -0.00000000000E+00 -0.22978934145E+04  0.22978934145E+04  0.00000000000E+00 0.  1.
         23    2    1    2    0    0 -0.67644129089E+03  0.16764420409E+04  0.12516487471E+04  0.22007688134E+04  0.93424018740E+02 0.  0.
         13    1    3    3    0    0 -0.25425895604E+03  0.72846852520E+03  0.56782326737E+03  0.95798604995E+03  0.00000000000E+00 0. -1.
        -13    1    3    3    0    0 -0.42218233485E+03  0.94797351572E+03  0.68382547970E+03  0.12427827634E+04  0.00000000000E+00 0.  1.
         22    1    1    2    0    0  0.67644129089E+03 -0.16764420409E+04 -0.13752487400E+04  0.22714180226E+04  0.00000000000E+00 0.  1.
<mgrwt>
<rscale>  0 0.44704785E+04</rscale>
<asrwt>0</asrwt>
<pdfrwt beam="1">  1        2 0.33450668E+00 0.44704785E+04</pdfrwt>
<pdfrwt beam="2">  1       -2 0.35352206E+00 0.44704785E+04</pdfrwt>
<totfact> 0.59932961E-02</totfact>
</mgrwt>
</event>
<event>
 6    1  0.2003386E-005  0.1583283E+04  0.7818608E-02  0.8830884E-01
         -2   -1    0    0    0  501 -0.00000000000E+00  0.00000000000E+00  0.47814548422E+03  0.47814548422E+03  0.00000000000E+00 0.  1.
          2   -1    0    0  501    0  0.00000000000E+00 -0.00000000000E+00 -0.13106818730E+04  0.13106818730E+04  0.00000000000E+00 0. -1.
         23    2    1    2    0    0  0.46163463784E+03 -0.61765517236E+03 -0.60771068685E+03  0.98561440472E+03  0.86712312105E+02 0.  0.
         13    1    3    3    0    0  0.37253096258E+03 -0.50515737021E+03 -0.44954286848E+03  0.77204409030E+03  0.00000000000E+00 0. -1.
        -13    1    3    3    0    0  0.89103675260E+02 -0.11249780215E+03 -0.15816781836E+03  0.21357031442E+03  0.00000000000E+00 0.  1.
         22    1    1    2    0    0 -0.46163463784E+03  0.61765517236E+03 -0.22482570191E+03  0.80321295249E+03  0.00000000000E+00 0.  1.
<mgrwt>
<rscale>  0 0.15832834E+04</rscale>
<asrwt>0</asrwt>
<pdfrwt beam="1">  1        2 0.20164336E+00 0.15832834E+04</pdfrwt>
<pdfrwt beam="2">  1       -2 0.73560845E-01 0.15832834E+04</pdfrwt>
<totfact> 0.26081168E+01</totfact>
</mgrwt>
</event>
<event>
 6    1  0.2003386E-005  0.4530785E+04  0.7818608E-02  0.7905269E-01
          2   -1    0    0  501    0  0.00000000000E+00  0.00000000000E+00  0.37535234090E+04  0.37535234090E+04  0.00000000000E+00 0.  1.
         -2   -1    0    0    0  501 -0.00000000000E+00 -0.00000000000E+00 -0.13672493508E+04  0.13672493508E+04  0.00000000000E+00 0. -1.
         23    2    1    2    0    0  0.57946365319E+03 -0.18391593379E+03  0.36590400721E+04  0.37102634469E+04  0.88754718472E+02 0.  0.
         13    1    3    3    0    0  0.96007726659E+02 -0.48213395467E+02  0.48566163117E+03  0.49740248800E+03  0.00000000000E+00 0. -1.
        -13    1    3    3    0    0  0.48345592653E+03 -0.13570253833E+03  0.31733784409E+04  0.32128609589E+04  0.00000000000E+00 0.  1.
         22    1    1    2    0    0 -0.57946365319E+03  0.18391593379E+03 -0.12727660139E+04  0.14105093130E+04  0.00000000000E+00 0. -1.
<mgrwt>
<rscale>  0 0.45307847E+04</rscale>
<asrwt>0</asrwt>
<pdfrwt beam="1">  1        2 0.57746514E+00 0.45307847E+04</pdfrwt>
<pdfrwt beam="2">  1       -2 0.21034605E+00 0.45307847E+04</pdfrwt>
<totfact> 0.45716408E-02</totfact>
</mgrwt>
</event>
<event>
 6    1  0.2003386E-005  0.1514515E+04  0.7818608E-02  0.8874858E-01
         -2   -1    0    0    0  501 -0.00000000000E+00  0.00000000000E+00  0.70499753753E+03  0.70499753753E+03  0.00000000000E+00 0. -1.
          2   -1    0    0  501    0  0.00000000000E+00 -0.00000000000E+00 -0.81339102250E+03  0.81339102250E+03  0.00000000000E+00 0.  1.
         23    2    1    2    0    0 -0.58970799578E+03 -0.41251271120E+03 -0.28052416397E+03  0.77842151492E+03  0.96560815657E+02 0.  0.
         13    1    3    3    0    0 -0.12088559948E+03 -0.11880022062E+03 -0.34549507949E+02  0.17297540021E+03  0.00000000000E+00 0. -1.
        -13    1    3    3    0    0 -0.46882239631E+03 -0.29371249058E+03 -0.24597465603E+03  0.60544611470E+03  0.00000000000E+00 0.  1.
         22    1    1    2    0    0  0.58970799578E+03  0.41251271120E+03  0.17213067901E+03  0.73996704511E+03  0.00000000000E+00 0. -1.
<mgrwt>
<rscale>  0 0.15145147E+04</rscale>
<asrwt>0</asrwt>
<pdfrwt beam="1">  1        2 0.12513708E+00 0.15145147E+04</pdfrwt>
<pdfrwt beam="2">  1       -2 0.10846116E+00 0.15145147E+04</pdfrwt>
<totfact> 0.22106906E+01</totfact>
</mgrwt>
</event>
<event>
 6    1  0.2003386E-005  0.9153176E+03  0.7818608E-02  0.9406634E-01
          2   -1    0    0  501    0  0.00000000000E+00  0.00000000000E+00  0.51614467938E+03  0.51614467938E+03  0.00000000000E+00 0. -1.
         -2   -1    0    0    0  501 -0.00000000000E+00 -0.00000000000E+00 -0.40580017198E+03  0.40580017198E+03  0.00000000000E+00 0.  1.
         23    2    1    2    0    0  0.32571425393E+03 -0.12553760583E+03  0.34630865106E+03  0.50060349000E+03  0.93939910081E+02 0.  0.
         13    1    3    3    0    0  0.14933462707E+03 -0.10503442060E+03  0.15394896143E+03  0.23881654691E+03  0.00000000000E+00 0. -1.
        -13    1    3    3    0    0  0.17637962686E+03 -0.20503185235E+02  0.19235968964E+03  0.26178694309E+03  0.00000000000E+00 0.  1.
         22    1    1    2    0    0 -0.32571425393E+03  0.12553760583E+03 -0.23596414367E+03  0.42134136136E+03  0.00000000000E+00 0.  1.
<mgrwt>
<rscale>  0 0.91531765E+03</rscale>
<asrwt>0</asrwt>
<pdfrwt beam="1">  1        2 0.79406874E-01 0.91531765E+03</pdfrwt>
<pdfrwt beam="2">  1       -2 0.62430796E-01 0.91531765E+03</pdfrwt>
<totfact> 0.14169368E+02</totfact>
</mgrwt>
</event>
<event>
 6    1  0.2003386E-005  0.1082709E+04  0.7818608E-02  0.9222211E-01
          2   -1    0    0  501    0  0.00000000000E+00  0.00000000000E+00  0.11069917049E+04  0.11069917049E+04  0.00000000000E+00 0. -1.
         -2   -1    0    0    0  501 -0.00000000000E+00 -0.00000000000E+00 -0.26473976549E+03  0.26473976549E+03  0.00000000000E+00 0.  1.
         23    2    1    2    0    0  0.20335222865E+03 -0.66902698916E+02 -0.20039069392E+03  0.30733879808E+03  0.92046762982E+02 0.  0.
         11    1    3    3    0    0  0.15365150497E+03 -0.70103323850E+02 -0.10263907286E+03  0.19763107112E+03  0.00000000000E+00 0. -1.
        -11    1    3    3    0    0  0.49700723681E+02  0.32006249347E+01 -0.97751621065E+02  0.10970772696E+03  0.00000000000E+00 0.  1.
         22    1    1    2    0    0 -0.20335222865E+03  0.66902698916E+02  0.10426426333E+04  0.10643926723E+04  0.00000000000E+00 0. -1.
<mgrwt>
<rscale>  0 0.10827091E+04</rscale>
<asrwt>0</asrwt>
<pdfrwt beam="1">  1        2 0.17030641E+00 0.10827091E+04</pdfrwt>
<pdfrwt beam="2">  1       -2 0.40729195E-01 0.10827091E+04</pdfrwt>
<totfact> 0.12227967E+02</totfact>
</mgrwt>
</event>
<event>
 6    1  0.2003386E-005  0.2081409E+04  0.7818608E-02  0.8569478E-01
         -3   -1    0    0    0  501 -0.00000000000E+00  0.00000000000E+00  0.70847172432E+03  0.70847172432E+03  0.00000000000E+00 0.  1.
          3   -1    0    0  501    0  0.00000000000E+00 -0.00000000000E+00 -0.15287348724E+04  0.15287348724E+04  0.00000000000E+00 0. -1.
         23    2    1    2    0    0 -0.24680416524E+03  0.58153025905E+03 -0.12970097181E+04  0.14457667505E+04  0.94432779067E+02 0.  0.
         11    1    3    3    0    0 -0.11843754008E+03  0.30265524792E+03 -0.56181835852E+03  0.64905124448E+03  0.00000000000E+00 0.  1.
        -11    1    3    3    0    0 -0.12836662516E+03  0.27887501113E+03 -0.73519135960E+03  0.79671550601E+03  0.00000000000E+00 0. -1.
         22    1    1    2    0    0  0.24680416524E+03 -0.58153025905E+03  0.47674657003E+03  0.79143984623E+03  0.00000000000E+00 0.  1.
<mgrwt>
<rscale>  0 0.20814086E+04</rscale>
<asrwt>0</asrwt>
<pdfrwt beam="1">  1        3 0.23518998E+00 0.20814086E+04</pdfrwt>
<pdfrwt beam="2">  1       -3 0.10899565E+00 0.20814086E+04</pdfrwt>
<totfact> 0.15476365E-01</totfact>
</mgrwt>
</event>
<event>
 6    1  0.2003386E-005  0.2734546E+04  0.7818608E-02  0.8323882E-01
         -1   -1    0    0    0  501 -0.00000000000E+00  0.00000000000E+00  0.98272957812E+03  0.98272957812E+03  0.00000000000E+00 0.  1.
          1   -1    0    0  501    0  0.00000000000E+00 -0.00000000000E+00 -0.19022890283E+04  0.19022890283E+04  0.00000000000E+00 0. -1.
         23    2    1    2    0    0 -0.35953517027E+03  0.13173254464E+04 -0.43338254832E+03  0.14355428907E+04  0.91384285265E+02 0.  0.
         13    1    3    3    0    0 -0.33289795641E+03  0.11892474880E+04 -0.36413366744E+03  0.12875262968E+04  0.00000000000E+00 0. -1.
        -13    1    3    3    0    0 -0.26637213859E+02  0.12807795834E+03 -0.69248880883E+02  0.14801659393E+03  0.00000000000E+00 0.  1.
         22    1    1    2    0    0  0.35953517027E+03 -0.13173254464E+04 -0.48617690181E+03  0.14494757156E+04  0.00000000000E+00 0. -1.
<mgrwt>
<rscale>  0 0.27345462E+04</rscale>
<asrwt>0</asrwt>
<pdfrwt beam="1">  1        1 0.29265985E+00 0.27345462E+04</pdfrwt>
<pdfrwt beam="2">  1       -1 0.15118917E+00 0.27345462E+04</pdfrwt>
<totfact> 0.10321565E+00</totfact>
</mgrwt>
</event>
<event>
 6    1  0.2003386E-005  0.1523836E+04  0.7818608E-02  0.8868755E-01
         -2   -1    0    0    0  501 -0.00000000000E+00  0.00000000000E+00  0.25367211672E+03  0.25367211672E+03  0.00000000000E+00 0.  1.
          2   -1    0    0  501    0  0.00000000000E+00 -0.00000000000E+00 -0.22884624125E+04  0.22884624125E+04  0.00000000000E+00 0. -1.
         23    2    1    2    0    0  0.67993843432E+03 -0.26852035122E+03 -0.68078888056E+03  0.10033885184E+04  0.94316305087E+02 0.  0.
         11    1    3    3    0    0  0.47931091579E+03 -0.22971535376E+03 -0.51727623936E+03  0.74167567410E+03  0.00000000000E+00 0. -1.
        -11    1    3    3    0    0  0.20062751853E+03 -0.38804997461E+02 -0.16351264120E+03  0.26171284426E+03  0.00000000000E+00 0.  1.
         22    1    1    2    0    0 -0.67993843432E+03  0.26852035122E+03 -0.13540014152E+04  0.15387460109E+04  0.00000000000E+00 0. -1.
<mgrwt>
<rscale>  0 0.15238361E+04</rscale>
<asrwt>0</asrwt>
<pdfrwt beam="1">  1        2 0.35207114E+00 0.15238361E+04</pdfrwt>
<pdfrwt beam="2">  1       -2 0.39026479E-01 0.15238361E+04</pdfrwt>
<totfact> 0.27587670E+01</totfact>
</mgrwt>
</event>
<event>
 6    1  0.2486401E-005  0.3724467E+04  0.7818608E-02  0.8062561E-01
          2   -1    0    0  501    0  0.00000000000E+00  0.00000000000E+00  0.27236998924E+04  0.27236998924E+04  0.00000000000E+00 0. -1.
         -2   -1    0    0    0  501 -0.00000000000E+00 -0.00000000000E+00 -0.12732361344E+04  0.12732361344E+04  0.00000000000E+00 0.  1.
         23    2    1    2    0    0 -0.66102120010E+03  0.68072265703E+03 -0.99240055002E+03  0.13762646644E+04  0.94409808209E+02 0.  0.
         13    1    3    3    0    0 -0.17150367708E+03  0.22576145969E+03 -0.33427552921E+03  0.43831709682E+03  0.00000000000E+00 0. -1.
        -13    1    3    3    0    0 -0.48951752301E+03  0.45496119734E+03 -0.65812502082E+03  0.93794756754E+03  0.00000000000E+00 0.  1.
         22    1    1    2    0    0  0.66102120010E+03 -0.68072265703E+03  0.24428643080E+04  0.26206713625E+04  0.00000000000E+00 0. -1.
<mgrwt>
<rscale>  0 0.37244667E+04</rscale>
<asrwt>0</asrwt>
<pdfrwt beam="1">  1        2 0.41903075E+00 0.37244667E+04</pdfrwt>
<pdfrwt beam="2">  1       -2 0.19588248E+00 0.37244667E+04</pdfrwt>
<totfact> 0.29354905E-01</totfact>
</mgrwt>
</event>
<event>
 6    1  0.2003386E-005  0.2012860E+04  0.7818608E-02  0.8600632E-01
         -2   -1    0    0    0  501 -0.00000000000E+00  0.00000000000E+00  0.31647968500E+03  0.31647968500E+03  0.00000000000E+00 0. -1.
          2   -1    0    0  501    0  0.00000000000E+00 -0.00000000000E+00 -0.32005240638E+04  0.32005240638E+04  0.00000000000E+00 0.  1.
         23    2    1    2    0    0  0.74855933154E+03 -0.55611188110E+03 -0.79347497042E+03  0.12278812208E+04  0.92131788745E+02 0.  0.
         13    1    3    3    0    0  0.24539151088E+03 -0.21021499591E+03 -0.22608722053E+03  0.39436375265E+03  0.00000000000E+00 0. -1.
        -13    1    3    3    0    0  0.50316782066E+03 -0.34589688518E+03 -0.56738774989E+03  0.83351746811E+03  0.00000000000E+00 0.  1.
         22    1    1    2    0    0 -0.74855933154E+03  0.55611188110E+03 -0.20905694084E+04  0.22891225281E+04  0.00000000000E+00 0.  1.
<mgrwt>
<rscale>  0 0.20128595E+04</rscale>
<asrwt>0</asrwt>
<pdfrwt beam="1">  1        2 0.49238829E+00 0.20128595E+04</pdfrwt>
<pdfrwt beam="2">  1       -2 0.48689185E-01 0.20128595E+04</pdfrwt>
<totfact> 0.48204380E+00</totfact>
</mgrwt>
</event>
<event>
 6    1  0.2003386E-005  0.6663830E+03  0.7818608E-02  0.9776514E-01
         -3   -1    0    0    0  501 -0.00000000000E+00  0.00000000000E+00  0.12395959362E+03  0.12395959362E+03  0.00000000000E+00 0.  1.
          3   -1    0    0  501    0  0.00000000000E+00 -0.00000000000E+00 -0.89558687752E+03  0.89558687752E+03  0.00000000000E+00 0. -1.
         23    2    1    2    0    0 -0.15832564099E+03  0.17718598866E+03 -0.49293792878E+02  0.25913371782E+03  0.90876413465E+02 0.  0.
         13    1    3    3    0    0 -0.12422822086E+03  0.73922720194E+02 -0.16205886170E+02  0.14546425735E+03  0.00000000000E+00 0. -1.
        -13    1    3    3    0    0 -0.34097420122E+02  0.10326326847E+03 -0.33087906708E+02  0.11366946047E+03  0.00000000000E+00 0.  1.
         22    1    1    2    0    0  0.15832564099E+03 -0.17718598866E+03 -0.72233349101E+03  0.76041275332E+03  0.00000000000E+00 0. -1.
<mgrwt>
<rscale>  0 0.66638303E+03</rscale>
<asrwt>0</asrwt>
<pdfrwt beam="1">  1        3 0.13778259E+00 0.66638303E+03</pdfrwt>
<pdfrwt beam="2">  1       -3 0.19070708E-01 0.66638303E+03</pdfrwt>
<totfact> 0.26573769E+01</totfact>
</mgrwt>
</event>
<event>
 6    1  0.2003386E-005  0.6342229E+03  0.7818608E-02  0.9836843E-01
         -2   -1    0    0    0  501 -0.00000000000E+00  0.00000000000E+00  0.65002685883E+02  0.65002685883E+02  0.00000000000E+00 0.  1.
          2   -1    0    0  501    0  0.00000000000E+00 -0.00000000000E+00 -0.15470080393E+04  0.15470080393E+04  0.00000000000E+00 0. -1.
         23    2    1    2    0    0 -0.13417748450E+03 -0.16837372298E+03 -0.13252249481E+04  0.13456774688E+04  0.90958117651E+02 0.  0.
         11    1    3    3    0    0 -0.52516821927E+01 -0.40747359444E+02 -0.44865097186E+03  0.45052815896E+03  0.00000000000E+00 0.  1.
        -11    1    3    3    0    0 -0.12892580231E+03 -0.12762636353E+03 -0.87657397621E+03  0.89514930985E+03  0.00000000000E+00 0. -1.
         22    1    1    2    0    0  0.13417748450E+03  0.16837372298E+03 -0.15678040530E+03  0.26633325632E+03  0.00000000000E+00 0.  1.
<mgrwt>
<rscale>  0 0.63422292E+03</rscale>
<asrwt>0</asrwt>
<pdfrwt beam="1">  1        2 0.23800124E+00 0.63422292E+03</pdfrwt>
<pdfrwt beam="2">  1       -2 0.10000413E-01 0.63422292E+03</pdfrwt>
<totfact> 0.83507725E+02</totfact>
</mgrwt>
</event>
<event>
 6    1  0.2003386E-005  0.1694876E+04  0.7818608E-02  0.8764292E-01
          2   -1    0    0  501    0  0.00000000000E+00  0.00000000000E+00  0.15357744722E+04  0.15357744722E+04  0.00000000000E+00 0. -1.
         -2   -1    0    0    0  501 -0.00000000000E+00 -0.00000000000E+00 -0.46761521851E+03  0.46761521851E+03  0.00000000000E+00 0.  1.
         23    2    1    2    0    0  0.67911194651E+03  0.31770077637E+02  0.11287651294E+04  0.13208389997E+04  0.91118450482E+02 0.  0.
         11    1    3    3    0    0  0.30657405189E+03  0.46005275808E+02  0.57556919639E+03  0.65374615451E+03  0.00000000000E+00 0. -1.
        -11    1    3    3    0    0  0.37253789462E+03 -0.14235198171E+02  0.55319593297E+03  0.66709284515E+03  0.00000000000E+00 0.  1.
         22    1    1    2    0    0 -0.67911194651E+03 -0.31770077637E+02 -0.60605875655E+02  0.68255069108E+03  0.00000000000E+00 0.  1.
<mgrwt>
<rscale>  0 0.16948764E+04</rscale>
<asrwt>0</asrwt>
<pdfrwt beam="1">  1        2 0.23627299E+00 0.16948764E+04</pdfrwt>
<pdfrwt beam="2">  1       -2 0.71940803E-01 0.16948764E+04</pdfrwt>
<totfact> 0.20192950E+01</totfact>
</mgrwt>
</event>
<event>
 6    1  0.2003386E-005  0.4864447E+04  0.7818608E-02  0.7849765E-01
          2   -1    0    0  501    0  0.00000000000E+00  0.00000000000E+00  0.20426591699E+04  0.20426591699E+04  0.00000000000E+00 0. -1.
         -2   -1    0    0    0  501 -0.00000000000E+00 -0.00000000000E+00 -0.28960835460E+04  0.28960835460E+04  0.00000000000E+00 0.  1.
         23    2    1    2    0    0 -0.19714836278E+04  0.48652893629E+03 -0.17844708791E+04  0.27048435034E+04  0.91563961033E+02 0.  0.
         11    1    3    3    0    0 -0.91927291141E+03  0.25977865066E+03 -0.88258047561E+03  0.13005752300E+04  0.00000000000E+00 0.  1.
        -11    1    3    3    0    0 -0.10522107164E+04  0.22675028563E+03 -0.90189040351E+03  0.14042682734E+04  0.00000000000E+00 0. -1.
         22    1    1    2    0    0  0.19714836278E+04 -0.48652893629E+03  0.93104650300E+03  0.22338992124E+04  0.00000000000E+00 0. -1.
<mgrwt>
<rscale>  0 0.48644472E+04</rscale>
<asrwt>0</asrwt>
<pdfrwt beam="1">  1        2 0.31425525E+00 0.48644472E+04</pdfrwt>
<pdfrwt beam="2">  1       -2 0.44555132E+00 0.48644472E+04</pdfrwt>
<totfact> 0.17326010E-02</totfact>
</mgrwt>
</event>
<event>
 6    1  0.2003386E-005  0.2769923E+04  0.7818608E-02  0.8312667E-01
         -2   -1    0    0    0  501 -0.00000000000E+00  0.00000000000E+00  0.75615266422E+03  0.75615266422E+03  0.00000000000E+00 0.  1.
          2   -1    0    0  501    0  0.00000000000E+00 -0.00000000000E+00 -0.25366807539E+04  0.25366807539E+04  0.00000000000E+00 0. -1.
         23    2    1    2    0    0  0.48603379010E+03  0.17297981550E+03 -0.24172624681E+04  0.24733326370E+04  0.89808865074E+02 0.  0.
         13    1    3    3    0    0  0.12639301340E+03  0.64161351493E+02 -0.84421420809E+03  0.85603125060E+03  0.00000000000E+00 0.  1.
        -13    1    3    3    0    0  0.35964077670E+03  0.10881846401E+03 -0.15730482600E+04  0.16173013864E+04  0.00000000000E+00 0. -1.
         22    1    1    2    0    0 -0.48603379010E+03 -0.17297981550E+03  0.63673437834E+03  0.81950078112E+03  0.00000000000E+00 0.  1.
<mgrwt>
<rscale>  0 0.27699227E+04</rscale>
<asrwt>0</asrwt>
<pdfrwt beam="1">  1        2 0.39025857E+00 0.27699227E+04</pdfrwt>
<pdfrwt beam="2">  1       -2 0.11633118E+00 0.27699227E+04</pdfrwt>
<totfact> 0.16569590E+00</totfact>
</mgrwt>
</event>
<event>
 6    1  0.2003386E-005  0.5092411E+04  0.7818608E-02  0.7814408E-01
         -2   -1    0    0    0  501 -0.00000000000E+00  0.00000000000E+00  0.17075886562E+04  0.17075886562E+04  0.00000000000E+00 0.  1.
          2   -1    0    0  501    0  0.00000000000E+00 -0.00000000000E+00 -0.37966774891E+04  0.37966774891E+04  0.00000000000E+00 0. -1.
         23    2    1    2    0    0 -0.12630500553E+04 -0.11219540424E+04  0.10130221466E+04  0.19719625281E+04  0.91356593988E+02 0.  0.
         11    1    3    3    0    0 -0.15957965096E+03 -0.18236415942E+03  0.15687092204E+03  0.28867081221E+03  0.00000000000E+00 0.  1.
        -11    1    3    3    0    0 -0.11034704043E+04 -0.93958988300E+03  0.85615122454E+03  0.16832917159E+04  0.00000000000E+00 0. -1.
         22    1    1    2    0    0  0.12630500553E+04  0.11219540424E+04 -0.31021109794E+04  0.35323036172E+04  0.00000000000E+00 0. -1.
<mgrwt>
<rscale>  0 0.50924114E+04</rscale>
<asrwt>0</asrwt>
<pdfrwt beam="1">  1        2 0.58410422E+00 0.50924114E+04</pdfrwt>
<pdfrwt beam="2">  1       -2 0.26270595E+00 0.50924114E+04</pdfrwt>
<totfact> 0.19107936E-02</totfact>
</mgrwt>
</event>
<event>
 6    1  0.2003386E-005  0.2011496E+04  0.7818608E-02  0.8601265E-01
         -2   -1    0    0    0  501 -0.00000000000E+00  0.00000000000E+00  0.66444091065E+03  0.66444091065E+03  0.00000000000E+00 0.  1.
          2   -1    0    0  501    0  0.00000000000E+00 -0.00000000000E+00 -0.15223765086E+04  0.15223765086E+04  0.00000000000E+00 0. -1.
         23    2    1    2    0    0 -0.42300922287E+03 -0.67885115618E+03  0.22931432913E+03  0.83704406835E+03  0.91005581920E+02 0.  0.
         13    1    3    3    0    0 -0.28299392071E+03 -0.45305106540E+03  0.19725169948E+03  0.56942871368E+03  0.00000000000E+00 0.  1.
        -13    1    3    3    0    0 -0.14001530216E+03 -0.22580009078E+03  0.32062629650E+02  0.26761535467E+03  0.00000000000E+00 0. -1.
         22    1    1    2    0    0  0.42300922287E+03  0.67885115618E+03 -0.10872499271E+04  0.13497733509E+04  0.00000000000E+00 0. -1.
<mgrwt>
<rscale>  0 0.20114962E+04</rscale>
<asrwt>0</asrwt>
<pdfrwt beam="1">  1        2 0.23421177E+00 0.20114962E+04</pdfrwt>
<pdfrwt beam="2">  1       -2 0.10222168E+00 0.20114962E+04</pdfrwt>
<totfact> 0.89720261E+00</totfact>
</mgrwt>
</event>
<event>
 6    1  0.2003386E-005  0.3830369E+03  0.7818608E-02  0.1049817E+00
         -2   -1    0    0    0  501 -0.00000000000E+00  0.00000000000E+00  0.29615585124E+03  0.29615585124E+03  0.00000000000E+00 0.  1.
          2   -1    0    0  501    0  0.00000000000E+00 -0.00000000000E+00 -0.12385139574E+03  0.12385139574E+03  0.00000000000E+00 0. -1.
         23    2    1    2    0    0 -0.46608709999E+02  0.13590225019E+03 -0.27449942907E+02  0.17395112911E+03  0.94147238409E+02 0.  0.
         11    1    3    3    0    0 -0.15324381603E+02  0.79514259292E+01  0.26486250546E+02  0.31616187528E+02  0.00000000000E+00 0.  1.
        -11    1    3    3    0    0 -0.31284328396E+02  0.12795082426E+03 -0.53936193453E+02  0.14233494159E+03  0.00000000000E+00 0. -1.
         22    1    1    2    0    0  0.46608709999E+02 -0.13590225019E+03  0.19975439841E+03  0.24605611787E+03  0.00000000000E+00 0.  1.
<mgrwt>
<rscale>  0 0.38303689E+03</rscale>
<asrwt>0</asrwt>
<pdfrwt beam="1">  1        2 0.19054061E-01 0.38303689E+03</pdfrwt>
<pdfrwt beam="2">  1       -2 0.45562438E-01 0.38303689E+03</pdfrwt>
<totfact> 0.13668646E+03</totfact>
</mgrwt>
</event>
<event>
 6    1  0.2003386E-005  0.2223340E+04  0.7818608E-02  0.8508776E-01
          2   -1    0    0  501    0  0.00000000000E+00  0.00000000000E+00  0.12178439829E+04  0.12178439829E+04  0.00000000000E+00 0. -1.
         -2   -1    0    0    0  501 -0.00000000000E+00 -0.00000000000E+00 -0.10147521153E+04  0.10147521153E+04  0.00000000000E+00 0.  1.
         23    2    1    2    0    0  0.34036092743E+03 -0.82344743372E+03 -0.56235744281E+03  0.10579370482E+04  0.95255799832E+02 0.  0.
         13    1    3    3    0    0  0.14691794105E+03 -0.27036267104E+03 -0.15692493990E+03  0.34540742907E+03  0.00000000000E+00 0.  1.
        -13    1    3    3    0    0  0.19344298637E+03 -0.55308476268E+03 -0.40543250291E+03  0.71252961910E+03  0.00000000000E+00 0. -1.
         22    1    1    2    0    0 -0.34036092743E+03  0.82344743372E+03  0.76544931044E+03  0.11746590501E+04  0.00000000000E+00 0. -1.
<mgrwt>
<rscale>  0 0.22233396E+04</rscale>
<asrwt>0</asrwt>
<pdfrwt beam="1">  1        2 0.18736061E+00 0.22233396E+04</pdfrwt>
<pdfrwt beam="2">  1       -2 0.15611571E+00 0.22233396E+04</pdfrwt>
<totfact> 0.45403725E+00</totfact>
</mgrwt>
</event>
<event>
 6    1  0.2003386E-005  0.1031497E+04  0.7818608E-02  0.9274659E-01
          2   -1    0    0  501    0  0.00000000000E+00  0.00000000000E+00  0.77556084238E+03  0.77556084238E+03  0.00000000000E+00 0. -1.
         -2   -1    0    0    0  501 -0.00000000000E+00 -0.00000000000E+00 -0.34297279329E+03  0.34297279329E+03  0.00000000000E+00 0.  1.
         23    2    1    2    0    0  0.15136283883E+03  0.41256128839E+03 -0.66486600745E+02  0.45355767237E+03  0.90424379630E+02 0.  0.
         11    1    3    3    0    0  0.13477646021E+03  0.25546778196E+03 -0.23214005419E+02  0.28977124062E+03  0.00000000000E+00 0. -1.
        -11    1    3    3    0    0  0.16586378626E+02  0.15709350643E+03 -0.43272595325E+02  0.16378643175E+03  0.00000000000E+00 0.  1.
         22    1    1    2    0    0 -0.15136283883E+03 -0.41256128839E+03  0.49907464983E+03  0.66497596330E+03  0.00000000000E+00 0. -1.
<mgrwt>
<rscale>  0 0.10314965E+04</rscale>
<asrwt>0</asrwt>
<pdfrwt beam="1">  1        2 0.11931705E+00 0.10314965E+04</pdfrwt>
<pdfrwt beam="2">  1       -2 0.52765045E-01 0.10314965E+04</pdfrwt>
<totfact> 0.12122783E+02</totfact>
</mgrwt>
</event>
<event>
 6    1  0.2003386E-005  0.4726372E+04  0.7818608E-02  0.7872161E-01
         -2   -1    0    0    0  501 -0.00000000000E+00  0.00000000000E+00  0.18100938200E+04  0.18100938200E+04  0.00000000000E+00 0.  1.
          2   -1    0    0  501    0  0.00000000000E+00 -0.00000000000E+00 -0.30852816209E+04  0.30852816209E+04  0.00000000000E+00 0. -1.
         23    2    1    2    0    0  0.17954111564E+04  0.11963761003E+04 -0.16344048987E+04  0.27081731372E+04  0.90029851402E+02 0.  0.
         13    1    3    3    0    0  0.11002107028E+04  0.68311891003E+03 -0.99858769965E+03  0.16353263985E+04  0.00000000000E+00 0.  1.
        -13    1    3    3    0    0  0.69520045362E+03  0.51325719024E+03 -0.63581719903E+03  0.10728467386E+04  0.00000000000E+00 0. -1.
         22    1    1    2    0    0 -0.17954111564E+04 -0.11963761003E+04  0.35921709777E+03  0.21872023037E+04  0.00000000000E+00 0.  1.
<mgrwt>
<rscale>  0 0.47263725E+04</rscale>
<asrwt>0</asrwt>
<pdfrwt beam="1">  1        2 0.47465870E+00 0.47263725E+04</pdfrwt>
<pdfrwt beam="2">  1       -2 0.27847598E+00 0.47263725E+04</pdfrwt>
<totfact> 0.49189861E-02</totfact>
</mgrwt>
</event>
<event>
 6    1  0.2003386E-005  0.1690564E+04  0.7818608E-02  0.8766764E-01
         -2   -1    0    0    0  501 -0.00000000000E+00  0.00000000000E+00  0.63198268466E+03  0.63198268466E+03  0.00000000000E+00 0.  1.
          2   -1    0    0  501    0  0.00000000000E+00 -0.00000000000E+00 -0.11305715230E+04  0.11305715230E+04  0.00000000000E+00 0. -1.
         23    2    1    2    0    0  0.72701884702E+03 -0.40615008099E+03 -0.11514389262E+03  0.84574216663E+03  0.92235590761E+02 0.  0.
         13    1    3    3    0    0  0.54979536786E+02 -0.23069443963E+02 -0.32173295933E+02  0.67750052998E+02  0.00000000000E+00 0. -1.
        -13    1    3    3    0    0  0.67203931023E+03 -0.38308063702E+03 -0.82970596690E+02  0.77799211363E+03  0.00000000000E+00 0.  1.
         22    1    1    2    0    0 -0.72701884702E+03  0.40615008099E+03 -0.38344494574E+03  0.91681204105E+03  0.00000000000E+00 0. -1.
<mgrwt>
<rscale>  0 0.16905640E+04</rscale>
<asrwt>0</asrwt>
<pdfrwt beam="1">  1        2 0.17393408E+00 0.16905640E+04</pdfrwt>
<pdfrwt beam="2">  1       -2 0.97228106E-01 0.16905640E+04</pdfrwt>
<totfact> 0.17539729E+01</totfact>
</mgrwt>
</event>
<event>
 6    1  0.2003386E-005  0.2740798E+04  0.7818608E-02  0.8321887E-01
         -2   -1    0    0    0  501 -0.00000000000E+00  0.00000000000E+00  0.58921310554E+03  0.58921310554E+03  0.00000000000E+00 0.  1.
          2   -1    0    0  501    0  0.00000000000E+00 -0.00000000000E+00 -0.31872915660E+04  0.31872915660E+04  0.00000000000E+00 0. -1.
         23    2    1    2    0    0 -0.47357487709E+03  0.23620665120E+03 -0.30400424132E+04  0.30870129153E+04  0.87886967634E+02 0.  0.
         13    1    3    3    0    0 -0.28790224599E+03  0.15591896393E+03 -0.16325262268E+04  0.16650346266E+04  0.00000000000E+00 0. -1.
        -13    1    3    3    0    0 -0.18567263110E+03  0.80287687275E+02 -0.14075161864E+04  0.14219782887E+04  0.00000000000E+00 0.  1.
         22    1    1    2    0    0  0.47357487709E+03 -0.23620665120E+03  0.44196395277E+03  0.68949175617E+03  0.00000000000E+00 0.  1.
<mgrwt>
<rscale>  0 0.27407984E+04</rscale>
<asrwt>0</asrwt>
<pdfrwt beam="1">  1        2 0.49035255E+00 0.27407984E+04</pdfrwt>
<pdfrwt beam="2">  1       -2 0.90648170E-01 0.27407984E+04</pdfrwt>
<totfact> 0.12009566E+00</totfact>
</mgrwt>
</event>
<event>
 6    1  0.2003386E-005  0.1218529E+04  0.7818608E-02  0.9096791E-01
          2   -1    0    0  501    0  0.00000000000E+00  0.00000000000E+00  0.14866437084E+03  0.14866437084E+03  0.00000000000E+00 0. -1.
         -2   -1    0    0    0  501 -0.00000000000E+00 -0.00000000000E+00 -0.24969223955E+04  0.24969223955E+04  0.00000000000E+00 0.  1.
         23    2    1    2    0    0 -0.48709648546E+03 -0.24563612378E+03 -0.61031114341E+03  0.82403263497E+03  0.94604441071E+02 0.  0.
         11    1    3    3    0    0 -0.17457925862E+03 -0.81814743443E+02 -0.28510397738E+03  0.34417415316E+03  0.00000000000E+00 0. -1.
        -11    1    3    3    0    0 -0.31251722684E+03 -0.16382138034E+03 -0.32520716603E+03  0.47985848181E+03  0.00000000000E+00 0.  1.
         22    1    1    2    0    0  0.48709648546E+03  0.24563612378E+03 -0.17379468813E+04  0.18215541314E+04  0.00000000000E+00 0.  1.
<mgrwt>
<rscale>  0 0.12185293E+04</rscale>
<asrwt>0</asrwt>
<pdfrwt beam="1">  1        2 0.22871444E-01 0.12185293E+04</pdfrwt>
<pdfrwt beam="2">  1       -2 0.38414187E+00 0.12185293E+04</pdfrwt>
<totfact> 0.22954019E+00</totfact>
</mgrwt>
</event>
<event>
 6    1  0.2003386E-005  0.5219709E+04  0.7818608E-02  0.7795481E-01
         -1   -1    0    0    0  501 -0.00000000000E+00  0.00000000000E+00  0.20328722697E+04  0.20328722697E+04  0.00000000000E+00 0.  1.
          1   -1    0    0  501    0  0.00000000000E+00 -0.00000000000E+00 -0.33505997502E+04  0.33505997502E+04  0.00000000000E+00 0. -1.
         23    2    1    2    0    0 -0.42123420278E+03  0.76824028306E+02 -0.33134878945E+04  0.33422959337E+04  0.91650949019E+02 0.  0.
         11    1    3    3    0    0 -0.31363737012E+03  0.35736986595E+02 -0.21377865528E+04  0.21609666535E+04  0.00000000000E+00 0.  1.
        -11    1    3    3    0    0 -0.10759683266E+03  0.41087041711E+02 -0.11757013417E+04  0.11813292802E+04  0.00000000000E+00 0. -1.
         22    1    1    2    0    0  0.42123420278E+03 -0.76824028306E+02  0.19957604140E+04  0.20411760862E+04  0.00000000000E+00 0.  1.
<mgrwt>
<rscale>  0 0.52197093E+04</rscale>
<asrwt>0</asrwt>
<pdfrwt beam="1">  1        1 0.51547688E+00 0.52197093E+04</pdfrwt>
<pdfrwt beam="2">  1       -1 0.31274958E+00 0.52197093E+04</pdfrwt>
<totfact> 0.63208262E-03</totfact>
</mgrwt>
</event>
<event>
 6    1  0.2003386E-005  0.4829646E+04  0.7818608E-02  0.7855337E-01
         -2   -1    0    0    0  501 -0.00000000000E+00  0.00000000000E+00  0.20994647844E+04  0.20994647844E+04  0.00000000000E+00 0.  1.
          2   -1    0    0  501    0  0.00000000000E+00 -0.00000000000E+00 -0.27775502404E+04  0.27775502404E+04  0.00000000000E+00 0. -1.
         23    2    1    2    0    0  0.20172079253E+03 -0.47551290895E+03 -0.27203125728E+04  0.27704786732E+04  0.92993442419E+02 0.  0.
         13    1    3    3    0    0  0.24957423561E+02 -0.70709290600E+02 -0.59828977705E+03  0.60297042555E+03  0.00000000000E+00 0.  1.
        -13    1    3    3    0    0  0.17676336897E+03 -0.40480361835E+03 -0.21220227957E+04  0.21675082476E+04  0.00000000000E+00 0. -1.
         22    1    1    2    0    0 -0.20172079253E+03  0.47551290895E+03  0.20422271167E+04  0.21065363517E+04  0.00000000000E+00 0.  1.
<mgrwt>
<rscale>  0 0.48296455E+04</rscale>
<asrwt>0</asrwt>
<pdfrwt beam="1">  1        2 0.42731542E+00 0.48296455E+04</pdfrwt>
<pdfrwt beam="2">  1       -2 0.32299458E+00 0.48296455E+04</pdfrwt>
<totfact> 0.40387932E-02</totfact>
</mgrwt>
</event>
<event>
 6    1  0.2003386E-005  0.1230361E+04  0.7818608E-02  0.9086689E-01
          1   -1    0    0  501    0  0.00000000000E+00  0.00000000000E+00  0.66428229273E+03  0.66428229273E+03  0.00000000000E+00 0. -1.
         -1   -1    0    0    0  501 -0.00000000000E+00 -0.00000000000E+00 -0.56970837696E+03  0.56970837696E+03  0.00000000000E+00 0.  1.
         23    2    1    2    0    0 -0.53074359691E+01  0.24368152209E+03 -0.51565265169E+03  0.57688693609E+03  0.86556494613E+02 0.  0.
         13    1    3    3    0    0 -0.13367865196E+02  0.12237005874E+03 -0.16573116494E+03  0.20644599809E+03  0.00000000000E+00 0.  1.
        -13    1    3    3    0    0  0.80604292266E+01  0.12131146334E+03 -0.34992148675E+03  0.37044093800E+03  0.00000000000E+00 0. -1.
         22    1    1    2    0    0  0.53074359691E+01 -0.24368152209E+03  0.61022656745E+03  0.65710373360E+03  0.00000000000E+00 0. -1.
<mgrwt>
<rscale>  0 0.12303612E+04</rscale>
<asrwt>0</asrwt>
<pdfrwt beam="1">  1        1 0.10219728E+00 0.12303612E+04</pdfrwt>
<pdfrwt beam="2">  1       -1 0.87647443E-01 0.12303612E+04</pdfrwt>
<totfact> 0.37305869E+01</totfact>
</mgrwt>
</event>
<event>
 6    1  0.2003386E-005  0.3544310E+04  0.7818608E-02  0.8103369E-01
         -2   -1    0    0    0  501 -0.00000000000E+00  0.00000000000E+00  0.92184442235E+03  0.92184442235E+03  0.00000000000E+00 0.  1.
          2   -1    0    0  501    0  0.00000000000E+00 -0.00000000000E+00 -0.34067926093E+04  0.34067926093E+04  0.00000000000E+00 0. -1.
         23    2    1    2    0    0 -0.69482197419E+02  0.11985194405E+04 -0.28333924936E+04  0.30785610101E+04  0.90267631172E+02 0.  0.
         13    1    3    3    0    0 -0.59796566081E+02  0.64280587328E+03 -0.14224371146E+04  0.15620827011E+04  0.00000000000E+00 0. -1.
        -13    1    3    3    0    0 -0.96856313374E+01  0.55571356720E+03 -0.14109553790E+04  0.15164783090E+04  0.00000000000E+00 0.  1.
         22    1    1    2    0    0  0.69482197419E+02 -0.11985194405E+04  0.34844430658E+03  0.12500760216E+04  0.00000000000E+00 0.  1.
<mgrwt>
<rscale>  0 0.35443097E+04</rscale>
<asrwt>0</asrwt>
<pdfrwt beam="1">  1        2 0.52412195E+00 0.35443097E+04</pdfrwt>
<pdfrwt beam="2">  1       -2 0.14182222E+00 0.35443097E+04</pdfrwt>
<totfact> 0.26779550E-01</totfact>
</mgrwt>
</event>
<event>
 6    1  0.2003386E-005  0.3372829E+04  0.7818608E-02  0.8144607E-01
         -2   -1    0    0    0  501 -0.00000000000E+00  0.00000000000E+00  0.20896271615E+04  0.20896271615E+04  0.00000000000E+00 0.  1.
          2   -1    0    0  501    0  0.00000000000E+00 -0.00000000000E+00 -0.13610055285E+04  0.13610055285E+04  0.00000000000E+00 0. -1.
         23    2    1    2    0    0  0.90464915713E+03  0.10656410429E+04 -0.59844812835E+03  0.15231744981E+04  0.89103645952E+02 0.  0.
         11    1    3    3    0    0  0.37154135201E+03  0.38020893340E+03 -0.25133142198E+03  0.58802150723E+03  0.00000000000E+00 0.  1.
        -11    1    3    3    0    0  0.53310780512E+03  0.68543210946E+03 -0.34711670637E+03  0.93515299091E+03  0.00000000000E+00 0. -1.
         22    1    1    2    0    0 -0.90464915713E+03 -0.10656410429E+04  0.13270697613E+04  0.19274581918E+04  0.00000000000E+00 0.  1.
<mgrwt>
<rscale>  0 0.33728292E+04</rscale>
<asrwt>0</asrwt>
<pdfrwt beam="1">  1        2 0.20938547E+00 0.33728292E+04</pdfrwt>
<pdfrwt beam="2">  1       -2 0.32148110E+00 0.33728292E+04</pdfrwt>
<totfact> 0.29653152E-01</totfact>
</mgrwt>
</event>
<event>
 6    1  0.2003386E-005  0.1236801E+04  0.7818608E-02  0.9081241E-01
          1   -1    0    0  501    0  0.00000000000E+00  0.00000000000E+00  0.20573025470E+03  0.20573025470E+03  0.00000000000E+00 0. -1.
         -1   -1    0    0    0  501 -0.00000000000E+00 -0.00000000000E+00 -0.18588378208E+04  0.18588378208E+04  0.00000000000E+00 0.  1.
         23    2    1    2    0    0  0.26630727044E+03  0.42731619488E+03 -0.14190951927E+04  0.15093379578E+04  0.10368805227E+03 0.  0.
         13    1    3    3    0    0  0.13440428566E+03  0.15271698185E+03 -0.45880305835E+03  0.50188368662E+03  0.00000000000E+00 0. -1.
        -13    1    3    3    0    0  0.13190298477E+03  0.27459921304E+03 -0.96029213435E+03  0.10074542712E+04  0.00000000000E+00 0.  1.
         22    1    1    2    0    0 -0.26630727044E+03 -0.42731619488E+03 -0.23401237338E+03  0.55523011769E+03  0.00000000000E+00 0. -1.
<mgrwt>
<rscale>  0 0.12368010E+04</rscale>
<asrwt>0</asrwt>
<pdfrwt beam="1">  1        1 0.31650807E-01 0.12368010E+04</pdfrwt>
<pdfrwt beam="2">  1       -1 0.28597506E+00 0.12368010E+04</pdfrwt>
<totfact> 0.57891891E+00</totfact>
</mgrwt>
</event>
<event>
 6    1  0.2003386E-005  0.2727043E+04  0.7818608E-02  0.8326283E-01
          2   -1    0    0  501    0  0.00000000000E+00  0.00000000000E+00  0.11762722706E+04  0.11762722706E+04  0.00000000000E+00 0. -1.
         -2   -1    0    0    0  501 -0.00000000000E+00 -0.00000000000E+00 -0.15805789996E+04  0.15805789996E+04  0.00000000000E+00 0.  1.
         23    2    1    2    0    0  0.79811288127E+03 -0.31223139410E+03 -0.12725453150E+04  0.15368878047E+04  0.90442969598E+02 0.  0.
         11    1    3    3    0    0  0.32461431675E+03 -0.99363349932E+02 -0.56824928969E+03  0.66193261378E+03  0.00000000000E+00 0. -1.
        -11    1    3    3    0    0  0.47349856451E+03 -0.21286804417E+03 -0.70429602534E+03  0.87495519093E+03  0.00000000000E+00 0.  1.
         22    1    1    2    0    0 -0.79811288127E+03  0.31223139410E+03  0.86823858606E+03  0.12199634654E+04  0.00000000000E+00 0. -1.
<mgrwt>
<rscale>  0 0.27270433E+04</rscale>
<asrwt>0</asrwt>
<pdfrwt beam="1">  1        2 0.18096496E+00 0.27270433E+04</pdfrwt>
<pdfrwt beam="2">  1       -2 0.24316600E+00 0.27270433E+04</pdfrwt>
<totfact> 0.12131406E+00</totfact>
</mgrwt>
</event>
<event>
 6    1  0.2003386E-005  0.1255156E+04  0.7818608E-02  0.9065903E-01
          2   -1    0    0  501    0  0.00000000000E+00  0.00000000000E+00  0.79928302793E+03  0.79928302793E+03  0.00000000000E+00 0. -1.
         -2   -1    0    0    0  501 -0.00000000000E+00 -0.00000000000E+00 -0.49275942620E+03  0.49275942620E+03  0.00000000000E+00 0.  1.
         23    2    1    2    0    0 -0.19596986652E+03  0.37871673628E+03 -0.31460949745E+03  0.53862564929E+03  0.96477454663E+02 0.  0.
         13    1    3    3    0    0 -0.81109881357E+02  0.25665669186E+03 -0.18232480460E+03  0.32510583616E+03  0.00000000000E+00 0. -1.
        -13    1    3    3    0    0 -0.11485998516E+03  0.12206004442E+03 -0.13228469284E+03  0.21351981312E+03  0.00000000000E+00 0.  1.
         22    1    1    2    0    0  0.19596986652E+03 -0.37871673628E+03  0.62113309918E+03  0.75341680485E+03  0.00000000000E+00 0. -1.
<mgrwt>
<rscale>  0 0.12551562E+04</rscale>
<asrwt>0</asrwt>
<pdfrwt beam="1">  1        2 0.12296662E+00 0.12551562E+04</pdfrwt>
<pdfrwt beam="2">  1       -2 0.75809142E-01 0.12551562E+04</pdfrwt>
<totfact> 0.52889985E+01</totfact>
</mgrwt>
</event>
<event>
 6    1  0.2003386E-005  0.1408778E+04  0.7818608E-02  0.8947489E-01
          1   -1    0    0  501    0  0.00000000000E+00  0.00000000000E+00  0.16674587820E+04  0.16674587820E+04  0.00000000000E+00 0. -1.
         -1   -1    0    0    0  501 -0.00000000000E+00 -0.00000000000E+00 -0.29755706574E+03  0.29755706574E+03  0.00000000000E+00 0.  1.
         23    2    1    2    0    0 -0.14612179346E+03  0.50737782921E+03  0.43445916553E+02  0.53733632183E+03  0.89771571216E+02 0.  0.
         11    1    3    3    0    0  0.12887371990E+01  0.20515174722E+02 -0.14790903582E+02  0.25323982038E+02  0.00000000000E+00 0. -1.
        -11    1    3    3    0    0 -0.14741053066E+03  0.48686265448E+03  0.58236820135E+02  0.51201233979E+03  0.00000000000E+00 0.  1.
         22    1    1    2    0    0  0.14612179346E+03 -0.50737782921E+03  0.13264557997E+04  0.14276795259E+04  0.00000000000E+00 0. -1.
<mgrwt>
<rscale>  0 0.14087784E+04</rscale>
<asrwt>0</asrwt>
<pdfrwt beam="1">  1        1 0.25653212E+00 0.14087784E+04</pdfrwt>
<pdfrwt beam="2">  1       -1 0.45778011E-01 0.14087784E+04</pdfrwt>
<totfact> 0.23183841E+01</totfact>
</mgrwt>
</event>
<event>
 6    1  0.2003386E-005  0.2800222E+04  0.7818608E-02  0.8303199E-01
         -2   -1    0    0    0  501 -0.00000000000E+00  0.00000000000E+00  0.72647364552E+03  0.72647364552E+03  0.00000000000E+00 0.  1.
          2   -1    0    0  501    0  0.00000000000E+00 -0.00000000000E+00 -0.26983927728E+04  0.26983927728E+04  0.00000000000E+00 0. -1.
         23    2    1    2    0    0 -0.70381424355E+03  0.91333273321E+03 -0.19066985621E+02  0.11570122215E+04  0.93715311986E+02 0.  0.
         13    1    3    3    0    0 -0.20269924538E+03  0.29341060840E+03 -0.45075117133E+02  0.35945588795E+03  0.00000000000E+00 0.  1.
        -13    1    3    3    0    0 -0.50111499817E+03  0.61992212481E+03  0.26008131512E+02  0.79755633352E+03  0.00000000000E+00 0. -1.
         22    1    1    2    0    0  0.70381424355E+03 -0.91333273321E+03 -0.19528521416E+04  0.22678541968E+04  0.00000000000E+00 0. -1.
<mgrwt>
<rscale>  0 0.28002223E+04</rscale>
<asrwt>0</asrwt>
<pdfrwt beam="1">  1        2 0.41513734E+00 0.28002223E+04</pdfrwt>
<pdfrwt beam="2">  1       -2 0.11176518E+00 0.28002223E+04</pdfrwt>
<totfact> 0.14633337E+00</totfact>
</mgrwt>
</event>
<event>
 6    1  0.2003386E-005  0.1832334E+04  0.7818608E-02  0.8689291E-01
         -2   -1    0    0    0  501 -0.00000000000E+00  0.00000000000E+00  0.30656726596E+03  0.30656726596E+03  0.00000000000E+00 0.  1.
          2   -1    0    0  501    0  0.00000000000E+00 -0.00000000000E+00 -0.27379364340E+04  0.27379364340E+04  0.00000000000E+00 0. -1.
         23    2    1    2    0    0  0.13827953867E+03 -0.16788212836E+03 -0.26935294188E+04  0.27038665956E+04  0.92131411322E+02 0.  0.
         11    1    3    3    0    0  0.10496979570E+03 -0.15221703165E+03 -0.17760299172E+04  0.17856290067E+04  0.00000000000E+00 0.  1.
        -11    1    3    3    0    0  0.33309742967E+02 -0.15665096707E+02 -0.91749950156E+03  0.91823758886E+03  0.00000000000E+00 0. -1.
         22    1    1    2    0    0 -0.13827953867E+03  0.16788212836E+03  0.26216025072E+03  0.34063710441E+03  0.00000000000E+00 0.  1.
<mgrwt>
<rscale>  0 0.18323337E+04</rscale>
<asrwt>0</asrwt>
<pdfrwt beam="1">  1        2 0.42122099E+00 0.18323337E+04</pdfrwt>
<pdfrwt beam="2">  1       -2 0.47164195E-01 0.18323337E+04</pdfrwt>
<totfact> 0.10133124E+01</totfact>
</mgrwt>
</event>
<event>
 6    1  0.2003386E-005  0.1872322E+04  0.7818608E-02  0.8668757E-01
         -2   -1    0    0    0  501 -0.00000000000E+00  0.00000000000E+00  0.65311252854E+03  0.65311252854E+03  0.00000000000E+00 0. -1.
          2   -1    0    0  501    0  0.00000000000E+00 -0.00000000000E+00 -0.13418785736E+04  0.13418785736E+04  0.00000000000E+00 0.  1.
         23    2    1    2    0    0  0.89273987786E+03  0.21794515692E+03 -0.52279082243E+03  0.10611643754E+04  0.90967064070E+02 0.  0.
         13    1    3    3    0    0  0.26089215184E+03  0.90596725571E+02 -0.12010132730E+03  0.30115911143E+03  0.00000000000E+00 0. -1.
        -13    1    3    3    0    0  0.63184772602E+03  0.12734843135E+03 -0.40268949514E+03  0.76000526402E+03  0.00000000000E+00 0.  1.
         22    1    1    2    0    0 -0.89273987786E+03 -0.21794515692E+03 -0.16597522261E+03  0.93382672668E+03  0.00000000000E+00 0.  1.
<mgrwt>
<rscale>  0 0.18723223E+04</rscale>
<asrwt>0</asrwt>
<pdfrwt beam="1">  1        2 0.20644286E+00 0.18723223E+04</pdfrwt>
<pdfrwt beam="2">  1       -2 0.10047885E+00 0.18723223E+04</pdfrwt>
<totfact> 0.11983364E+01</totfact>
</mgrwt>
</event>
<event>
 6    1  0.2003386E-005  0.2438072E+04  0.7818608E-02  0.8425386E-01
          2   -1    0    0  501    0  0.00000000000E+00  0.00000000000E+00  0.27198287122E+04  0.27198287122E+04  0.00000000000E+00 0. -1.
         -2   -1    0    0    0  501 -0.00000000000E+00 -0.00000000000E+00 -0.54637585049E+03  0.54637585049E+03  0.00000000000E+00 0.  1.
         23    2    1    2    0    0  0.11874105669E+04 -0.10735523021E+03  0.75918999716E+03  0.14164455379E+04  0.92084254822E+02 0.  0.
         13    1    3    3    0    0  0.93982838314E+03 -0.10653874356E+03  0.63701628610E+03  0.11403585587E+04  0.00000000000E+00 0.  1.
        -13    1    3    3    0    0  0.24758218381E+03 -0.81648664319E+00  0.12217371105E+03  0.27608697916E+03  0.00000000000E+00 0. -1.
         22    1    1    2    0    0 -0.11874105669E+04  0.10735523021E+03  0.14142628646E+04  0.18497590249E+04  0.00000000000E+00 0. -1.
<mgrwt>
<rscale>  0 0.24380720E+04</rscale>
<asrwt>0</asrwt>
<pdfrwt beam="1">  1        2 0.41843518E+00 0.24380720E+04</pdfrwt>
<pdfrwt beam="2">  1       -2 0.84057825E-01 0.24380720E+04</pdfrwt>
<totfact> 0.28628150E+00</totfact>
</mgrwt>
</event>
<event>
 6    1  0.2003386E-005  0.1334884E+04  0.7818608E-02  0.9002351E-01
         -2   -1    0    0    0  501 -0.00000000000E+00  0.00000000000E+00  0.28027037483E+03  0.28027037483E+03  0.00000000000E+00 0. -1.
          2   -1    0    0  501    0  0.00000000000E+00 -0.00000000000E+00 -0.15894600257E+04  0.15894600257E+04  0.00000000000E+00 0.  1.
         23    2    1    2    0    0 -0.10061852992E+03  0.35762255149E+03  0.11329189804E+03  0.39953594574E+03  0.93679986533E+02 0.  0.
         13    1    3    3    0    0 -0.97259142153E+02  0.22934668865E+03  0.10681984346E+03  0.27105298981E+03  0.00000000000E+00 0. -1.
        -13    1    3    3    0    0 -0.33593877719E+01  0.12827586285E+03  0.64720545765E+01  0.12848295593E+03  0.00000000000E+00 0.  1.
         22    1    1    2    0    0  0.10061852992E+03 -0.35762255149E+03 -0.14224815489E+04  0.14701944548E+04  0.00000000000E+00 0.  1.
<mgrwt>
<rscale>  0 0.13348836E+04</rscale>
<asrwt>0</asrwt>
<pdfrwt beam="1">  1        2 0.24453231E+00 0.13348836E+04</pdfrwt>
<pdfrwt beam="2">  1       -2 0.43118519E-01 0.13348836E+04</pdfrwt>
<totfact> 0.56355236E+01</totfact>
</mgrwt>
</event>
<event>
 6    1  0.2003386E-005  0.3394653E+04  0.7818608E-02  0.8139220E-01
          2   -1    0    0  501    0  0.00000000000E+00  0.00000000000E+00  0.13215912894E+04  0.13215912894E+04  0.00000000000E+00 0. -1.
         -2   -1    0    0    0  501 -0.00000000000E+00 -0.00000000000E+00 -0.21798852479E+04  0.21798852479E+04  0.00000000000E+00 0.  1.
         23    2    1    2    0    0  0.15170098684E+04 -0.71762207854E+03 -0.68238797523E+03  0.18140988963E+04  0.94873960460E+02 0.  0.
         13    1    3    3    0    0  0.89944965609E+03 -0.47536398828E+03 -0.40135386678E+03  0.10936478097E+04  0.00000000000E+00 0.  1.
        -13    1    3    3    0    0  0.61756021228E+03 -0.24225809027E+03 -0.28103410846E+03  0.72045108662E+03  0.00000000000E+00 0. -1.
         22    1    1    2    0    0 -0.15170098684E+04  0.71762207854E+03 -0.17590598324E+03  0.16873776410E+04  0.00000000000E+00 0.  1.
<mgrwt>
<rscale>  0 0.33946531E+04</rscale>
<asrwt>0</asrwt>
<pdfrwt beam="1">  1        2 0.20332174E+00 0.33946531E+04</pdfrwt>
<pdfrwt beam="2">  1       -2 0.33536696E+00 0.33946531E+04</pdfrwt>
<totfact> 0.25574629E-01</totfact>
</mgrwt>
</event>
<event>
 6    1  0.2003386E-005  0.3762599E+04  0.7818608E-02  0.8054229E-01
          2   -1    0    0  501    0  0.00000000000E+00  0.00000000000E+00  0.24465918241E+04  0.24465918241E+04  0.00000000000E+00 0. -1.
         -2   -1    0    0    0  501 -0.00000000000E+00 -0.00000000000E+00 -0.14466195581E+04  0.14466195581E+04  0.00000000000E+00 0.  1.
         23    2    1    2    0    0  0.76543917093E+03 -0.90766137928E+03  0.20086109073E+04  0.23352966822E+04  0.96677366034E+02 0.  0.
         13    1    3    3    0    0  0.50056962632E+03 -0.62096182142E+03  0.12646582169E+04  0.14951668602E+04  0.00000000000E+00 0. -1.
        -13    1    3    3    0    0  0.26486954461E+03 -0.28669955786E+03  0.74395269045E+03  0.84012982197E+03  0.00000000000E+00 0.  1.
         22    1    1    2    0    0 -0.76543917093E+03  0.90766137928E+03 -0.10086386413E+04  0.15579147000E+04  0.00000000000E+00 0.  1.
<mgrwt>
<rscale>  0 0.37625989E+04</rscale>
<asrwt>0</asrwt>
<pdfrwt beam="1">  1        2 0.37639874E+00 0.37625989E+04</pdfrwt>
<pdfrwt beam="2">  1       -2 0.22255686E+00 0.37625989E+04</pdfrwt>
<totfact> 0.28624200E-01</totfact>
</mgrwt>
</event>
<event>
 6    1  0.2003386E-005  0.1315505E+04  0.7818608E-02  0.9017359E-01
          2   -1    0    0  501    0  0.00000000000E+00  0.00000000000E+00  0.16540092644E+04  0.16540092644E+04  0.00000000000E+00 0.  1.
         -2   -1    0    0    0  501 -0.00000000000E+00 -0.00000000000E+00 -0.26156938171E+03  0.26156938171E+03  0.00000000000E+00 0. -1.
         23    2    1    2    0    0 -0.34759951942E+03  0.65767639035E+02 -0.10252193445E+03  0.37932943359E+03  0.90715290338E+02 0.  0.
         13    1    3    3    0    0 -0.51785242514E+02  0.44075818610E+02 -0.10744899984E+02  0.68846510471E+02  0.00000000000E+00 0.  1.
        -13    1    3    3    0    0 -0.29581427690E+03  0.21691820425E+02 -0.91777034467E+02  0.31048292312E+03  0.00000000000E+00 0. -1.
         22    1    1    2    0    0  0.34759951942E+03 -0.65767639035E+02  0.14949618172E+04  0.15362492126E+04  0.00000000000E+00 0.  1.
<mgrwt>
<rscale>  0 0.13155047E+04</rscale>
<asrwt>0</asrwt>
<pdfrwt beam="1">  1        2 0.25446296E+00 0.13155047E+04</pdfrwt>
<pdfrwt beam="2">  1       -2 0.40241444E-01 0.13155047E+04</pdfrwt>
<totfact> 0.59522116E+01</totfact>
</mgrwt>
</event>
<event>
 6    1  0.2003386E-005  0.4623892E+04  0.7818608E-02  0.7889299E-01
         -2   -1    0    0    0  501 -0.00000000000E+00  0.00000000000E+00  0.14505303626E+04  0.14505303626E+04  0.00000000000E+00 0.  1.
          2   -1    0    0  501    0  0.00000000000E+00 -0.00000000000E+00 -0.36849241978E+04  0.36849241978E+04  0.00000000000E+00 0. -1.
         23    2    1    2    0    0 -0.18810087950E+04 -0.76049447987E+03  0.11204053054E+03  0.20334712959E+04  0.76853692491E+02 0.  0.
         13    1    3    3    0    0 -0.13891589687E+04 -0.52856543760E+03  0.96805136816E+02  0.14894681254E+04  0.00000000000E+00 0.  1.
        -13    1    3    3    0    0 -0.49184982624E+03 -0.23192904227E+03  0.15235393724E+02  0.54400317043E+03  0.00000000000E+00 0. -1.
         22    1    1    2    0    0  0.18810087950E+04  0.76049447987E+03 -0.23464343657E+04  0.31019832645E+04  0.00000000000E+00 0. -1.
<mgrwt>
<rscale>  0 0.46238921E+04</rscale>
<asrwt>0</asrwt>
<pdfrwt beam="1">  1        2 0.56691142E+00 0.46238921E+04</pdfrwt>
<pdfrwt beam="2">  1       -2 0.22315852E+00 0.46238921E+04</pdfrwt>
<totfact> 0.42290109E-02</totfact>
</mgrwt>
</event>
<event>
 6    1  0.2003386E-005  0.1132660E+04  0.7818608E-02  0.9173931E-01
         -2   -1    0    0    0  501 -0.00000000000E+00  0.00000000000E+00  0.30507047053E+03  0.30507047053E+03  0.00000000000E+00 0.  1.
          2   -1    0    0  501    0  0.00000000000E+00 -0.00000000000E+00 -0.10513302247E+04  0.10513302247E+04  0.00000000000E+00 0. -1.
         23    2    1    2    0    0 -0.33363126343E+02  0.37176973531E+03  0.12843303524E+03  0.40539422304E+03  0.92323329879E+02 0.  0.
         11    1    3    3    0    0 -0.45245884853E+02  0.13117303483E+03  0.16388694187E+02  0.13972166783E+03  0.00000000000E+00 0.  1.
        -11    1    3    3    0    0  0.11882758510E+02  0.24059670048E+03  0.11204434105E+03  0.26567255521E+03  0.00000000000E+00 0. -1.
         22    1    1    2    0    0  0.33363126343E+02 -0.37176973531E+03 -0.87469278942E+03  0.95100647220E+03  0.00000000000E+00 0. -1.
<mgrwt>
<rscale>  0 0.11326602E+04</rscale>
<asrwt>0</asrwt>
<pdfrwt beam="1">  1        2 0.16174311E+00 0.11326602E+04</pdfrwt>
<pdfrwt beam="2">  1       -2 0.46933919E-01 0.11326602E+04</pdfrwt>
<totfact> 0.99588515E+01</totfact>
</mgrwt>
</event>
<event>
 6    1  0.2003386E-005  0.3128378E+04  0.7818608E-02  0.8207993E-01
         -2   -1    0    0    0  501 -0.00000000000E+00  0.00000000000E+00  0.79214316248E+03  0.79214316248E+03  0.00000000000E+00 0.  1.
          2   -1    0    0  501    0  0.00000000000E+00 -0.00000000000E+00 -0.30886932822E+04  0.30886932822E+04  0.00000000000E+00 0. -1.
         23    2    1    2    0    0  0.13605188748E+04 -0.45003871082E+03 -0.37642632575E+03  0.14849187011E+04  0.98693060348E+02 0.  0.
         11    1    3    3    0    0  0.13036493650E+03 -0.65482982221E+02 -0.16966005133E+02  0.14687029298E+03  0.00000000000E+00 0. -1.
        -11    1    3    3    0    0  0.12301539383E+04 -0.38455572860E+03 -0.35946032061E+03  0.13380484081E+04  0.00000000000E+00 0.  1.
         22    1    1    2    0    0 -0.13605188748E+04  0.45003871082E+03 -0.19201237940E+04  0.23959177436E+04  0.00000000000E+00 0. -1.
<mgrwt>
<rscale>  0 0.31283780E+04</rscale>
<asrwt>0</asrwt>
<pdfrwt beam="1">  1        2 0.47518359E+00 0.31283780E+04</pdfrwt>
<pdfrwt beam="2">  1       -2 0.12186818E+00 0.31283780E+04</pdfrwt>
<totfact> 0.66170150E-01</totfact>
</mgrwt>
</event>
<event>
 6    1  0.2003386E-005  0.1117491E+04  0.7818608E-02  0.9188309E-01
         -1   -1    0    0    0  501 -0.00000000000E+00  0.00000000000E+00  0.46456655708E+03  0.46456655708E+03  0.00000000000E+00 0.  1.
          1   -1    0    0  501    0  0.00000000000E+00 -0.00000000000E+00 -0.67201736551E+03  0.67201736551E+03  0.00000000000E+00 0. -1.
         23    2    1    2    0    0 -0.37162902718E+02 -0.40522629467E+03  0.27958413934E+03  0.50192458752E+03  0.90396733097E+02 0.  0.
         13    1    3    3    0    0 -0.41759688721E+02 -0.20979500906E+03  0.98670620170E+02  0.23557102690E+03  0.00000000000E+00 0.  1.
        -13    1    3    3    0    0  0.45967860031E+01 -0.19543128561E+03  0.18091351917E+03  0.26635356062E+03  0.00000000000E+00 0. -1.
         22    1    1    2    0    0  0.37162902718E+02  0.40522629467E+03 -0.48703494778E+03  0.63465933507E+03  0.00000000000E+00 0. -1.
<mgrwt>
<rscale>  0 0.11174915E+04</rscale>
<asrwt>0</asrwt>
<pdfrwt beam="1">  1        1 0.10338729E+00 0.11174915E+04</pdfrwt>
<pdfrwt beam="2">  1       -1 0.71471778E-01 0.11174915E+04</pdfrwt>
<totfact> 0.57033375E+01</totfact>
</mgrwt>
</event>
<event>
 6    1  0.2003386E-005  0.8895212E+03  0.7818608E-02  0.9438776E-01
          2   -1    0    0  501    0  0.00000000000E+00  0.00000000000E+00  0.79132504568E+03  0.79132504568E+03  0.00000000000E+00 0. -1.
         -2   -1    0    0    0  501 -0.00000000000E+00 -0.00000000000E+00 -0.24997565393E+03  0.24997565393E+03  0.00000000000E+00 0.  1.
         23    2    1    2    0    0  0.38466694572E+03  0.17783528429E+03  0.41191104267E+03  0.59818859903E+03  0.92546450301E+02 0.  0.
         11    1    3    3    0    0  0.17777912148E+03  0.99994636331E+02  0.25775220523E+03  0.32869521236E+03  0.00000000000E+00 0.  1.
        -11    1    3    3    0    0  0.20688782425E+03  0.77840647962E+02  0.15415883743E+03  0.26949338666E+03  0.00000000000E+00 0. -1.
         22    1    1    2    0    0 -0.38466694572E+03 -0.17783528429E+03  0.12943834908E+03  0.44311210058E+03  0.00000000000E+00 0.  1.
<mgrwt>
<rscale>  0 0.88952121E+03</rscale>
<asrwt>0</asrwt>
<pdfrwt beam="1">  1        2 0.12174231E+00 0.88952121E+03</pdfrwt>
<pdfrwt beam="2">  1       -2 0.38457793E-01 0.88952121E+03</pdfrwt>
<totfact> 0.22376374E+02</totfact>
</mgrwt>
</event>
<event>
 6    1  0.2003386E-005  0.3017499E+04  0.7818608E-02  0.8238751E-01
          2   -1    0    0  501    0  0.00000000000E+00  0.00000000000E+00  0.29534771951E+04  0.29534771951E+04  0.00000000000E+00 0. -1.
         -2   -1    0    0    0  501 -0.00000000000E+00 -0.00000000000E+00 -0.77072736661E+03  0.77072736661E+03  0.00000000000E+00 0.  1.
         23    2    1    2    0    0 -0.77158043074E+03  0.44450777192E+03 -0.40876605351E+03  0.98397134408E+03  0.90478721620E+02 0.  0.
         13    1    3    3    0    0 -0.38956609508E+03  0.20969885773E+03 -0.15530969755E+03  0.46888853209E+03  0.00000000000E+00 0. -1.
        -13    1    3    3    0    0 -0.38201433566E+03  0.23480891419E+03 -0.25345635596E+03  0.51508281199E+03  0.00000000000E+00 0.  1.
         22    1    1    2    0    0  0.77158043074E+03 -0.44450777192E+03  0.25915158820E+04  0.27402332176E+04  0.00000000000E+00 0. -1.
<mgrwt>
<rscale>  0 0.30174994E+04</rscale>
<asrwt>0</asrwt>
<pdfrwt beam="1">  1        2 0.45438110E+00 0.30174994E+04</pdfrwt>
<pdfrwt beam="2">  1       -2 0.11857344E+00 0.30174994E+04</pdfrwt>
<totfact> 0.86997283E-01</totfact>
</mgrwt>
</event>
<event>
 6    1  0.2003386E-005  0.4446184E+04  0.7818608E-02  0.7920127E-01
          2   -1    0    0  501    0  0.00000000000E+00  0.00000000000E+00  0.14579444389E+04  0.14579444389E+04  0.00000000000E+00 0. -1.
         -2   -1    0    0    0  501 -0.00000000000E+00 -0.00000000000E+00 -0.33897982211E+04  0.33897982211E+04  0.00000000000E+00 0.  1.
         23    2    1    2    0    0 -0.29680020434E+03  0.69676497640E+03  0.13114323761E+04  0.15172056315E+04  0.92120885336E+02 0.  0.
         13    1    3    3    0    0 -0.20819377872E+03  0.54002511751E+03  0.92952623060E+03  0.10949843791E+04  0.00000000000E+00 0. -1.
        -13    1    3    3    0    0 -0.88606425617E+02  0.15673985890E+03  0.38190614547E+03  0.42222125239E+03  0.00000000000E+00 0.  1.
         22    1    1    2    0    0  0.29680020434E+03 -0.69676497640E+03 -0.32432861582E+04  0.33305370285E+04  0.00000000000E+00 0.  1.
<mgrwt>
<rscale>  0 0.44461837E+04</rscale>
<asrwt>0</asrwt>
<pdfrwt beam="1">  1        2 0.22429915E+00 0.44461837E+04</pdfrwt>
<pdfrwt beam="2">  1       -2 0.52150741E+00 0.44461837E+04</pdfrwt>
<totfact> 0.12550681E-02</totfact>
</mgrwt>
</event>
<event>
 6    1  0.2003386E-005  0.7335113E+03  0.7818608E-02  0.9661580E-01
         -2   -1    0    0    0  501 -0.00000000000E+00  0.00000000000E+00  0.17772068530E+03  0.17772068530E+03  0.00000000000E+00 0. -1.
          2   -1    0    0  501    0  0.00000000000E+00 -0.00000000000E+00 -0.75686011631E+03  0.75686011631E+03  0.00000000000E+00 0.  1.
         23    2    1    2    0    0  0.32715198717E+03 -0.50487946138E+02 -0.47766472167E+03  0.58835172709E+03  0.91742645594E+02 0.  0.
         11    1    3    3    0    0  0.26444032393E+03 -0.52984457400E+02 -0.31902059493E+03  0.41774415332E+03  0.00000000000E+00 0. -1.
        -11    1    3    3    0    0  0.62711663233E+02  0.24965112616E+01 -0.15864412675E+03  0.17060757376E+03  0.00000000000E+00 0.  1.
         22    1    1    2    0    0 -0.32715198717E+03  0.50487946138E+02 -0.10147470933E+03  0.34622907453E+03  0.00000000000E+00 0. -1.
<mgrwt>
<rscale>  0 0.73351128E+03</rscale>
<asrwt>0</asrwt>
<pdfrwt beam="1">  1        2 0.11644002E+00 0.73351128E+03</pdfrwt>
<pdfrwt beam="2">  1       -2 0.27341643E-01 0.73351128E+03</pdfrwt>
<totfact> 0.45368779E+02</totfact>
</mgrwt>
</event>
<event>
 6    1  0.2550522E-005  0.2203625E+04  0.7818608E-02  0.8516921E-01
         -2   -1    0    0    0  501 -0.00000000000E+00  0.00000000000E+00  0.91699655744E+03  0.91699655744E+03  0.00000000000E+00 0.  1.
          2   -1    0    0  501    0  0.00000000000E+00 -0.00000000000E+00 -0.13238775170E+04  0.13238775170E+04  0.00000000000E+00 0. -1.
         23    2    1    2    0    0 -0.20254557523E+03 -0.40774133335E+03 -0.12220024437E+04  0.13072249226E+04  0.90935806364E+02 0.  0.
         11    1    3    3    0    0 -0.73186423406E+02 -0.22973167112E+03 -0.56302643016E+03  0.61247992158E+03  0.00000000000E+00 0.  1.
        -11    1    3    3    0    0 -0.12935915182E+03 -0.17800966223E+03 -0.65897601350E+03  0.69474500097E+03  0.00000000000E+00 0. -1.
         22    1    1    2    0    0  0.20254557523E+03  0.40774133335E+03  0.81512148410E+03  0.93364915188E+03  0.00000000000E+00 0.  1.
<mgrwt>
<rscale>  0 0.22036253E+04</rscale>
<asrwt>0</asrwt>
<pdfrwt beam="1">  1        2 0.20367346E+00 0.22036253E+04</pdfrwt>
<pdfrwt beam="2">  1       -2 0.14107639E+00 0.22036253E+04</pdfrwt>
<totfact> 0.51515233E+00</totfact>
</mgrwt>
</event>
<event>
 6    1  0.2003386E-005  0.1725797E+04  0.7818608E-02  0.8746787E-01
         -2   -1    0    0    0  501 -0.00000000000E+00  0.00000000000E+00  0.10987350399E+04  0.10987350399E+04  0.00000000000E+00 0. -1.
          2   -1    0    0  501    0  0.00000000000E+00 -0.00000000000E+00 -0.67768259842E+03  0.67768259842E+03  0.00000000000E+00 0.  1.
         23    2    1    2    0    0  0.52881923102E+03 -0.32440092041E+03 -0.40255512249E+03  0.74529438881E+03  0.92343722575E+02 0.  0.
         13    1    3    3    0    0  0.96404506595E+02 -0.22791457625E+02 -0.79108743334E+02  0.12677331227E+03  0.00000000000E+00 0.  1.
        -13    1    3    3    0    0  0.43241472442E+03 -0.30160946278E+03 -0.32344637916E+03  0.61852107654E+03  0.00000000000E+00 0. -1.
         22    1    1    2    0    0 -0.52881923102E+03  0.32440092041E+03  0.82360756397E+03  0.10311232495E+04  0.00000000000E+00 0. -1.
<mgrwt>
<rscale>  0 0.17257968E+04</rscale>
<asrwt>0</asrwt>
<pdfrwt beam="1">  1        2 0.10425886E+00 0.17257968E+04</pdfrwt>
<pdfrwt beam="2">  1       -2 0.16903616E+00 0.17257968E+04</pdfrwt>
<totfact> 0.87703329E+00</totfact>
</mgrwt>
</event>
<event>
 6    1  0.2003386E-005  0.7849631E+03  0.7818608E-02  0.9582041E-01
         -1   -1    0    0    0  501 -0.00000000000E+00  0.00000000000E+00  0.18532736049E+03  0.18532736049E+03  0.00000000000E+00 0.  1.
          1   -1    0    0  501    0  0.00000000000E+00 -0.00000000000E+00 -0.83118737315E+03  0.83118737315E+03  0.00000000000E+00 0. -1.
         23    2    1    2    0    0  0.16697836478E+03 -0.25987296096E+03 -0.25228388221E+02  0.32326200670E+03  0.91902792470E+02 0.  0.
         13    1    3    3    0    0  0.12604779518E+03 -0.14220990101E+03  0.19199175019E+02  0.19099819616E+03  0.00000000000E+00 0. -1.
        -13    1    3    3    0    0  0.40930569599E+02 -0.11766305995E+03 -0.44427563239E+02  0.13226381054E+03  0.00000000000E+00 0.  1.
         22    1    1    2    0    0 -0.16697836478E+03  0.25987296096E+03 -0.62063162444E+03  0.69325272693E+03  0.00000000000E+00 0. -1.
<mgrwt>
<rscale>  0 0.78496309E+03</rscale>
<asrwt>0</asrwt>
<pdfrwt beam="1">  1        1 0.12787498E+00 0.78496309E+03</pdfrwt>
<pdfrwt beam="2">  1       -1 0.28511901E-01 0.78496309E+03</pdfrwt>
<totfact> 0.23411001E+02</totfact>
</mgrwt>
</event>
<event>
 6    1  0.2003386E-005  0.1640019E+04  0.7818608E-02  0.8796333E-01
         -2   -1    0    0    0  501 -0.00000000000E+00  0.00000000000E+00  0.27180857457E+03  0.27180857457E+03  0.00000000000E+00 0.  1.
          2   -1    0    0  501    0  0.00000000000E+00 -0.00000000000E+00 -0.24738580055E+04  0.24738580055E+04  0.00000000000E+00 0. -1.
         23    2    1    2    0    0  0.72178842384E+03  0.19513122630E+03 -0.55139922121E+03  0.93356811721E+03  0.91943482959E+02 0.  0.
         13    1    3    3    0    0  0.53672605793E+03  0.14331335886E+03 -0.35782409449E+03  0.66079623386E+03  0.00000000000E+00 0. -1.
        -13    1    3    3    0    0  0.18506236591E+03  0.51817867444E+02 -0.19357512672E+03  0.27277188335E+03  0.00000000000E+00 0.  1.
         22    1    1    2    0    0 -0.72178842384E+03 -0.19513122630E+03 -0.16506502098E+04  0.18120984629E+04  0.00000000000E+00 0.  1.
<mgrwt>
<rscale>  0 0.16400193E+04</rscale>
<asrwt>0</asrwt>
<pdfrwt beam="1">  1        2 0.38059353E+00 0.16400193E+04</pdfrwt>
<pdfrwt beam="2">  1       -2 0.41816705E-01 0.16400193E+04</pdfrwt>
<totfact> 0.18708000E+01</totfact>
</mgrwt>
</event>
<event>
 6    1  0.2003386E-005  0.2455128E+04  0.7818608E-02  0.8419148E-01
         -2   -1    0    0    0  501 -0.00000000000E+00  0.00000000000E+00  0.62786516297E+03  0.62786516297E+03  0.00000000000E+00 0.  1.
          2   -1    0    0  501    0  0.00000000000E+00 -0.00000000000E+00 -0.24000581900E+04  0.24000581900E+04  0.00000000000E+00 0. -1.
         23    2    1    2    0    0  0.12552913473E+03  0.47556627788E+03 -0.22724964182E+04  0.23263363437E+04  0.75365541490E+02 0.  0.
         13    1    3    3    0    0  0.92642628531E+02  0.23906977702E+03 -0.12910428182E+04  0.13162555121E+04  0.00000000000E+00 0. -1.
        -13    1    3    3    0    0  0.32886506196E+02  0.23649650086E+03 -0.98145360004E+03  0.10100808315E+04  0.00000000000E+00 0.  1.
         22    1    1    2    0    0 -0.12552913473E+03 -0.47556627788E+03  0.50030339120E+03  0.70158700926E+03  0.00000000000E+00 0.  1.
<mgrwt>
<rscale>  0 0.24551276E+04</rscale>
<asrwt>0</asrwt>
<pdfrwt beam="1">  1        2 0.36923971E+00 0.24551276E+04</pdfrwt>
<pdfrwt beam="2">  1       -2 0.96594644E-01 0.24551276E+04</pdfrwt>
<totfact> 0.31891226E+00</totfact>
</mgrwt>
</event>
<event>
 6    1  0.2965838E-005  0.4036063E+04  0.7818608E-02  0.7997311E-01
         -2   -1    0    0    0  501 -0.00000000000E+00  0.00000000000E+00  0.18774589806E+04  0.18774589806E+04  0.00000000000E+00 0.  1.
          2   -1    0    0  501    0  0.00000000000E+00 -0.00000000000E+00 -0.21691289972E+04  0.21691289972E+04  0.00000000000E+00 0. -1.
         23    2    1    2    0    0 -0.79641544273E+03 -0.61184537804E+03  0.16078474574E+04  0.18979142106E+04  0.90953725696E+02 0.  0.
         13    1    3    3    0    0 -0.30904941656E+03 -0.29399325044E+03  0.67530371023E+03  0.79873567232E+03  0.00000000000E+00 0. -1.
        -13    1    3    3    0    0 -0.48736602616E+03 -0.31785212760E+03  0.93254374722E+03  0.10991785383E+04  0.00000000000E+00 0.  1.
         22    1    1    2    0    0  0.79641544273E+03  0.61184537804E+03 -0.18995174740E+04  0.21486737672E+04  0.00000000000E+00 0. -1.
<mgrwt>
<rscale>  0 0.40360628E+04</rscale>
<asrwt>0</asrwt>
<pdfrwt beam="1">  1        2 0.33371215E+00 0.40360628E+04</pdfrwt>
<pdfrwt beam="2">  1       -2 0.28883984E+00 0.40360628E+04</pdfrwt>
<totfact> 0.15723594E-01</totfact>
</mgrwt>
</event>
<event>
 6    1  0.2003386E-005  0.2863950E+04  0.7818608E-02  0.8283685E-01
          2   -1    0    0  501    0  0.00000000000E+00  0.00000000000E+00  0.19571019498E+04  0.19571019498E+04  0.00000000000E+00 0. -1.
         -2   -1    0    0    0  501 -0.00000000000E+00 -0.00000000000E+00 -0.10477495994E+04  0.10477495994E+04  0.00000000000E+00 0.  1.
         23    2    1    2    0    0  0.62846667965E+03  0.58020332744E+03  0.16579948215E+04  0.18681581789E+04  0.97272219142E+02 0.  0.
         13    1    3    3    0    0  0.35704417937E+03  0.28989255473E+03  0.80485323191E+03  0.92698811440E+03  0.00000000000E+00 0.  1.
        -13    1    3    3    0    0  0.27142250028E+03  0.29031077271E+03  0.85314158960E+03  0.94117006450E+03  0.00000000000E+00 0. -1.
         22    1    1    2    0    0 -0.62846667965E+03 -0.58020332744E+03 -0.74864247111E+03  0.11366933703E+04  0.00000000000E+00 0.  1.
<mgrwt>
<rscale>  0 0.28639503E+04</rscale>
<asrwt>0</asrwt>
<pdfrwt beam="1">  1        2 0.30109261E+00 0.28639503E+04</pdfrwt>
<pdfrwt beam="2">  1       -2 0.16119225E+00 0.28639503E+04</pdfrwt>
<totfact> 0.15083330E+00</totfact>
</mgrwt>
</event>
<event>
 6    1  0.2003386E-005  0.2810409E+04  0.7818608E-02  0.8300044E-01
         -2   -1    0    0    0  501 -0.00000000000E+00  0.00000000000E+00  0.86396483645E+03  0.86396483645E+03  0.00000000000E+00 0.  1.
          2   -1    0    0  501    0  0.00000000000E+00 -0.00000000000E+00 -0.22855092019E+04  0.22855092019E+04  0.00000000000E+00 0. -1.
         23    2    1    2    0    0 -0.76202791917E+03  0.10732231582E+04 -0.12579610400E+04  0.18231053108E+04  0.93554792710E+02 0.  0.
         11    1    3    3    0    0 -0.43830652115E+03  0.63581812210E+03 -0.67553376576E+03  0.10260229820E+04  0.00000000000E+00 0. -1.
        -11    1    3    3    0    0 -0.32372139801E+03  0.43740503611E+03 -0.58242727428E+03  0.79708232886E+03  0.00000000000E+00 0.  1.
         22    1    1    2    0    0  0.76202791917E+03 -0.10732231582E+04 -0.16358332539E+03  0.13263687275E+04  0.00000000000E+00 0. -1.
<mgrwt>
<rscale>  0 0.28104089E+04</rscale>
<asrwt>0</asrwt>
<pdfrwt beam="1">  1        2 0.35161679E+00 0.28104089E+04</pdfrwt>
<pdfrwt beam="2">  1       -2 0.13291767E+00 0.28104089E+04</pdfrwt>
<totfact> 0.16487144E+00</totfact>
</mgrwt>
</event>
<event>
 6    1  0.2003386E-005  0.1581417E+04  0.7818608E-02  0.8832046E-01
         -2   -1    0    0    0  501 -0.00000000000E+00  0.00000000000E+00  0.53324623321E+03  0.53324623321E+03  0.00000000000E+00 0.  1.
          2   -1    0    0  501    0  0.00000000000E+00 -0.00000000000E+00 -0.11724791660E+04  0.11724791660E+04  0.00000000000E+00 0. -1.
         23    2    1    2    0    0 -0.78696243139E+03  0.18378793206E+02 -0.27298993768E+03  0.83751944446E+03  0.85250603057E+02 0.  0.
         13    1    3    3    0    0 -0.62885162996E+03  0.46336495867E+02 -0.20369426348E+03  0.66264077472E+03  0.00000000000E+00 0. -1.
        -13    1    3    3    0    0 -0.15811080143E+03 -0.27957702661E+02 -0.69295674204E+02  0.17487866974E+03  0.00000000000E+00 0.  1.
         22    1    1    2    0    0  0.78696243139E+03 -0.18378793206E+02 -0.36624299515E+03  0.86820595480E+03  0.00000000000E+00 0.  1.
<mgrwt>
<rscale>  0 0.15814172E+04</rscale>
<asrwt>0</asrwt>
<pdfrwt beam="1">  1        2 0.18038141E+00 0.15814172E+04</pdfrwt>
<pdfrwt beam="2">  1       -2 0.82037883E-01 0.15814172E+04</pdfrwt>
<totfact> 0.24680104E+01</totfact>
</mgrwt>
</event>
<event>
 6    1  0.2003386E-005  0.2400061E+04  0.7818608E-02  0.8439481E-01
         -2   -1    0    0    0  501 -0.00000000000E+00  0.00000000000E+00  0.90871455166E+03  0.90871455166E+03  0.00000000000E+00 0.  1.
          2   -1    0    0  501    0  0.00000000000E+00 -0.00000000000E+00 -0.15847370520E+04  0.15847370520E+04  0.00000000000E+00 0. -1.
         23    2    1    2    0    0  0.11602223014E+03  0.37487393489E+03  0.83786709232E+03  0.92952918753E+03  0.89507659595E+02 0.  0.
         13    1    3    3    0    0  0.41679062448E+02  0.12420590935E+03  0.38405339011E+03  0.40578474419E+03  0.00000000000E+00 0.  1.
        -13    1    3    3    0    0  0.74343167690E+02  0.25066802554E+03  0.45381370220E+03  0.52374444333E+03  0.00000000000E+00 0. -1.
         22    1    1    2    0    0 -0.11602223014E+03 -0.37487393489E+03 -0.15138895926E+04  0.15639224161E+04  0.00000000000E+00 0. -1.
<mgrwt>
<rscale>  0 0.24000613E+04</rscale>
<asrwt>0</asrwt>
<pdfrwt beam="1">  1        2 0.24380570E+00 0.24000613E+04</pdfrwt>
<pdfrwt beam="2">  1       -2 0.13980224E+00 0.24000613E+04</pdfrwt>
<totfact> 0.36874740E+00</totfact>
</mgrwt>
</event>
<event>
 6    1  0.2003386E-005  0.4734178E+04  0.7818608E-02  0.7870874E-01
          2   -1    0    0  501    0  0.00000000000E+00  0.00000000000E+00  0.25823096976E+04  0.25823096976E+04  0.00000000000E+00 0. -1.
         -2   -1    0    0    0  501 -0.00000000000E+00 -0.00000000000E+00 -0.21698054191E+04  0.21698054191E+04  0.00000000000E+00 0.  1.
         23    2    1    2    0    0 -0.16492320809E+04  0.11540439196E+04  0.14548674161E+04  0.24853322123E+04  0.91941189074E+02 0.  0.
         11    1    3    3    0    0 -0.52507456069E+03  0.41969585953E+03  0.47716125072E+03  0.82433656232E+03  0.00000000000E+00 0. -1.
        -11    1    3    3    0    0 -0.11241575202E+04  0.73434806008E+03  0.97770616533E+03  0.16609956500E+04  0.00000000000E+00 0.  1.
         22    1    1    2    0    0  0.16492320809E+04 -0.11540439196E+04 -0.10423631375E+04  0.22667829044E+04  0.00000000000E+00 0.  1.
<mgrwt>
<rscale>  0 0.47341777E+04</rscale>
<asrwt>0</asrwt>
<pdfrwt beam="1">  1        2 0.39727841E+00 0.47341777E+04</pdfrwt>
<pdfrwt beam="2">  1       -2 0.33381622E+00 0.47341777E+04</pdfrwt>
<totfact> 0.45546770E-02</totfact>
</mgrwt>
</event>
<event>
 6    1  0.2003386E-005  0.2874975E+04  0.7818608E-02  0.8280362E-01
          2   -1    0    0  501    0  0.00000000000E+00  0.00000000000E+00  0.25833596478E+04  0.25833596478E+04  0.00000000000E+00 0. -1.
         -2   -1    0    0    0  501 -0.00000000000E+00 -0.00000000000E+00 -0.79987712824E+03  0.79987712824E+03  0.00000000000E+00 0.  1.
         23    2    1    2    0    0  0.81593356052E+03  0.77803243970E+03  0.19393961907E+04  0.22450842707E+04  0.89798361367E+02 0.  0.
         11    1    3    3    0    0  0.31588134762E+03  0.29433889844E+03  0.65799405758E+03  0.78700228254E+03  0.00000000000E+00 0.  1.
        -11    1    3    3    0    0  0.50005221290E+03  0.48369354126E+03  0.12814021331E+04  0.14580819882E+04  0.00000000000E+00 0. -1.
         22    1    1    2    0    0 -0.81593356052E+03 -0.77803243970E+03 -0.15591367118E+03  0.11381525053E+04  0.00000000000E+00 0.  1.
<mgrwt>
<rscale>  0 0.28749750E+04</rscale>
<asrwt>0</asrwt>
<pdfrwt beam="1">  1        2 0.39743994E+00 0.28749750E+04</pdfrwt>
<pdfrwt beam="2">  1       -2 0.12305802E+00 0.28749750E+04</pdfrwt>
<totfact> 0.13419576E+00</totfact>
</mgrwt>
</event>
<event>
 6    1  0.2003386E-005  0.1822913E+04  0.7818608E-02  0.8694208E-01
          3   -1    0    0  501    0  0.00000000000E+00  0.00000000000E+00  0.34436384834E+03  0.34436384834E+03  0.00000000000E+00 0. -1.
         -3   -1    0    0    0  501 -0.00000000000E+00 -0.00000000000E+00 -0.24124290562E+04  0.24124290562E+04  0.00000000000E+00 0.  1.
         23    2    1    2    0    0  0.64783497054E+03 -0.56279318120E+03 -0.58023600423E+03  0.10392184366E+04  0.82914561148E+02 0.  0.
         11    1    3    3    0    0  0.30234503241E+02 -0.52596341299E+02 -0.49196150117E+02  0.78107371551E+02  0.00000000000E+00 0. -1.
        -11    1    3    3    0    0  0.61760046730E+03 -0.51019683990E+03 -0.53103985411E+03  0.96111106502E+03  0.00000000000E+00 0.  1.
         22    1    1    2    0    0 -0.64783497054E+03  0.56279318120E+03 -0.14878292037E+04  0.17175744680E+04  0.00000000000E+00 0.  1.
<mgrwt>
<rscale>  0 0.18229134E+04</rscale>
<asrwt>0</asrwt>
<pdfrwt beam="1">  1        3 0.52979055E-01 0.18229134E+04</pdfrwt>
<pdfrwt beam="2">  1       -3 0.37114292E+00 0.18229134E+04</pdfrwt>
<totfact> 0.13319843E-01</totfact>
</mgrwt>
</event>
<event>
 6    1  0.2003386E-005  0.3508626E+04  0.7818608E-02  0.8111749E-01
         -2   -1    0    0    0  501 -0.00000000000E+00  0.00000000000E+00  0.13077843964E+04  0.13077843964E+04  0.00000000000E+00 0.  1.
          2   -1    0    0  501    0  0.00000000000E+00 -0.00000000000E+00 -0.23533035786E+04  0.23533035786E+04  0.00000000000E+00 0. -1.
         23    2    1    2    0    0  0.11653718100E+04  0.10033291855E+04  0.35548249608E+03  0.15808075582E+04  0.88452365244E+02 0.  0.
         13    1    3    3    0    0  0.96101407532E+03  0.79644232189E+03  0.26196212506E+03  0.12753401821E+04  0.00000000000E+00 0.  1.
        -13    1    3    3    0    0  0.20435773472E+03  0.20688686366E+03  0.93520371020E+02  0.30546737614E+03  0.00000000000E+00 0. -1.
         22    1    1    2    0    0 -0.11653718100E+04 -0.10033291855E+04 -0.14010016783E+04  0.20802804169E+04  0.00000000000E+00 0. -1.
<mgrwt>
<rscale>  0 0.35086258E+04</rscale>
<asrwt>0</asrwt>
<pdfrwt beam="1">  1        2 0.36204670E+00 0.35086258E+04</pdfrwt>
<pdfrwt beam="2">  1       -2 0.20119760E+00 0.35086258E+04</pdfrwt>
<totfact> 0.45341745E-01</totfact>
</mgrwt>
</event>
<event>
 6    1  0.2003386E-005  0.3033081E+04  0.7818608E-02  0.8234347E-01
         -2   -1    0    0    0  501 -0.00000000000E+00  0.00000000000E+00  0.17310200186E+04  0.17310200186E+04  0.00000000000E+00 0.  1.
          2   -1    0    0  501    0  0.00000000000E+00 -0.00000000000E+00 -0.13286356915E+04  0.13286356915E+04  0.00000000000E+00 0. -1.
         23    2    1    2    0    0 -0.13403532849E+04  0.62715885735E+03  0.52914336603E+03  0.15744139740E+04  0.94400736067E+02 0.  0.
         13    1    3    3    0    0 -0.46897092747E+03  0.17063911391E+03  0.18443231001E+03  0.53204014414E+03  0.00000000000E+00 0.  1.
        -13    1    3    3    0    0 -0.87138235748E+03  0.45651974344E+03  0.34471105602E+03  0.10423738299E+04  0.00000000000E+00 0. -1.
         22    1    1    2    0    0  0.13403532849E+04 -0.62715885735E+03 -0.12675903895E+03  0.14852417361E+04  0.00000000000E+00 0. -1.
<mgrwt>
<rscale>  0 0.30330809E+04</rscale>
<asrwt>0</asrwt>
<pdfrwt beam="1">  1        2 0.20440549E+00 0.30330809E+04</pdfrwt>
<pdfrwt beam="2">  1       -2 0.26631077E+00 0.30330809E+04</pdfrwt>
<totfact> 0.69331131E-01</totfact>
</mgrwt>
</event>
<event>
 6    1  0.2003386E-005  0.1178060E+04  0.7818608E-02  0.9132280E-01
         -2   -1    0    0    0  501 -0.00000000000E+00  0.00000000000E+00  0.16416860803E+03  0.16416860803E+03  0.00000000000E+00 0.  1.
          2   -1    0    0  501    0  0.00000000000E+00 -0.00000000000E+00 -0.21134158195E+04  0.21134158195E+04  0.00000000000E+00 0. -1.
         23    2    1    2    0    0 -0.14553412559E+03  0.37837977957E+03 -0.17972328183E+04  0.18446181297E+04  0.90657609609E+02 0.  0.
         11    1    3    3    0    0 -0.79403604963E+00  0.94987252051E+02 -0.49843474699E+03  0.50740556318E+03  0.00000000000E+00 0. -1.
        -11    1    3    3    0    0 -0.14474008954E+03  0.28339252752E+03 -0.12987980713E+04  0.13372125666E+04  0.00000000000E+00 0.  1.
         22    1    1    2    0    0  0.14553412559E+03 -0.37837977957E+03 -0.15201439322E+03  0.43296629782E+03  0.00000000000E+00 0.  1.
<mgrwt>
<rscale>  0 0.11780603E+04</rscale>
<asrwt>0</asrwt>
<pdfrwt beam="1">  1        2 0.32514086E+00 0.11780603E+04</pdfrwt>
<pdfrwt beam="2">  1       -2 0.25256711E-01 0.11780603E+04</pdfrwt>
<totfact> 0.80557787E+01</totfact>
</mgrwt>
</event>
<event>
 6    1  0.2003386E-005  0.3163292E+04  0.7818608E-02  0.8198579E-01
         -2   -1    0    0    0  501 -0.00000000000E+00  0.00000000000E+00  0.17581806765E+04  0.17581806765E+04  0.00000000000E+00 0.  1.
          2   -1    0    0  501    0  0.00000000000E+00 -0.00000000000E+00 -0.14228369880E+04  0.14228369880E+04  0.00000000000E+00 0. -1.
         23    2    1    2    0    0 -0.12100485014E+04  0.31066930187E+03  0.11406960622E+04  0.16946377546E+04  0.99382201078E+02 0.  0.
         11    1    3    3    0    0 -0.10271464874E+04  0.29735417298E+03  0.95591043324E+03  0.14342991902E+04  0.00000000000E+00 0. -1.
        -11    1    3    3    0    0 -0.18290201406E+03  0.13315128893E+02  0.18478562896E+03  0.26033856433E+03  0.00000000000E+00 0.  1.
         22    1    1    2    0    0  0.12100485014E+04 -0.31066930187E+03 -0.80535237371E+03  0.14863799100E+04  0.00000000000E+00 0. -1.
<mgrwt>
<rscale>  0 0.31632923E+04</rscale>
<asrwt>0</asrwt>
<pdfrwt beam="1">  1        2 0.21889800E+00 0.31632923E+04</pdfrwt>
<pdfrwt beam="2">  1       -2 0.27048933E+00 0.31632923E+04</pdfrwt>
<totfact> 0.57085750E-01</totfact>
</mgrwt>
</event>
<event>
 6    1  0.2003386E-005  0.2645595E+04  0.7818608E-02  0.8352877E-01
         -2   -1    0    0    0  501 -0.00000000000E+00  0.00000000000E+00  0.11971941478E+04  0.11971941478E+04  0.00000000000E+00 0.  1.
          2   -1    0    0  501    0  0.00000000000E+00 -0.00000000000E+00 -0.14615779479E+04  0.14615779479E+04  0.00000000000E+00 0. -1.
         23    2    1    2    0    0  0.90486921863E+03 -0.49979644530E+02 -0.10985470683E+04  0.14270600247E+04  0.91697247357E+02 0.  0.
         13    1    3    3    0    0  0.49130072457E+03 -0.85234710207E+01 -0.66014075944E+03  0.82294281320E+03  0.00000000000E+00 0. -1.
        -13    1    3    3    0    0  0.41356849406E+03 -0.41456173509E+02 -0.43840630888E+03  0.60411721153E+03  0.00000000000E+00 0.  1.
         22    1    1    2    0    0 -0.90486921863E+03  0.49979644530E+02  0.83416326817E+03  0.12317120709E+04  0.00000000000E+00 0.  1.
<mgrwt>
<rscale>  0 0.26455945E+04</rscale>
<asrwt>0</asrwt>
<pdfrwt beam="1">  1        2 0.22485815E+00 0.26455945E+04</pdfrwt>
<pdfrwt beam="2">  1       -2 0.18418372E+00 0.26455945E+04</pdfrwt>
<totfact> 0.19963007E+00</totfact>
</mgrwt>
</event>
<event>
 6    1  0.2003386E-005  0.3011329E+04  0.7818608E-02  0.8240503E-01
         -2   -1    0    0    0  501 -0.00000000000E+00  0.00000000000E+00  0.76281223772E+03  0.76281223772E+03  0.00000000000E+00 0.  1.
          2   -1    0    0  501    0  0.00000000000E+00 -0.00000000000E+00 -0.29719307341E+04  0.29719307341E+04  0.00000000000E+00 0. -1.
         23    2    1    2    0    0 -0.47538850800E+03  0.11312335473E+04 -0.21847524193E+04  0.25074380881E+04  0.91755434727E+02 0.  0.
         11    1    3    3    0    0 -0.34629251984E+03  0.74973645946E+03 -0.14021138623E+04  0.16272512254E+04  0.00000000000E+00 0. -1.
        -11    1    3    3    0    0 -0.12909598815E+03  0.38149708781E+03 -0.78263855707E+03  0.88018686265E+03  0.00000000000E+00 0.  1.
         22    1    1    2    0    0  0.47538850800E+03 -0.11312335473E+04 -0.24366077090E+02  0.12273048838E+04  0.00000000000E+00 0.  1.
<mgrwt>
<rscale>  0 0.30113287E+04</rscale>
<asrwt>0</asrwt>
<pdfrwt beam="1">  1        2 0.45722012E+00 0.30113287E+04</pdfrwt>
<pdfrwt beam="2">  1       -2 0.11735573E+00 0.30113287E+04</pdfrwt>
<totfact> 0.86946717E-01</totfact>
</mgrwt>
</event>
<event>
 6    1  0.2003386E-005  0.4486143E+04  0.7818608E-02  0.7913067E-01
         -2   -1    0    0    0  501 -0.00000000000E+00  0.00000000000E+00  0.39721844218E+04  0.39721844218E+04  0.00000000000E+00 0.  1.
          2   -1    0    0  501    0  0.00000000000E+00 -0.00000000000E+00 -0.12666503589E+04  0.12666503589E+04  0.00000000000E+00 0. -1.
         23    2    1    2    0    0 -0.68982919136E+03  0.16196307647E+04 -0.26811560182E+03  0.17831640128E+04  0.93379834686E+02 0.  0.
         11    1    3    3    0    0 -0.47725962902E+03  0.12158360408E+04 -0.18180602557E+03  0.13187446540E+04  0.00000000000E+00 0. -1.
        -11    1    3    3    0    0 -0.21256956233E+03  0.40379472390E+03 -0.86309576251E+02  0.46441935880E+03  0.00000000000E+00 0.  1.
         22    1    1    2    0    0  0.68982919136E+03 -0.16196307647E+04  0.29736496648E+04  0.34556707679E+04  0.00000000000E+00 0.  1.
<mgrwt>
<rscale>  0 0.44861426E+04</rscale>
<asrwt>0</asrwt>
<pdfrwt beam="1">  1        2 0.19486929E+00 0.44861426E+04</pdfrwt>
<pdfrwt beam="2">  1       -2 0.61110529E+00 0.44861426E+04</pdfrwt>
<totfact> 0.60627953E-03</totfact>
</mgrwt>
</event>
<event>
 6    1  0.2003386E-005  0.3215829E+04  0.7818608E-02  0.8184649E-01
         -2   -1    0    0    0  501 -0.00000000000E+00  0.00000000000E+00  0.17870696376E+04  0.17870696376E+04  0.00000000000E+00 0.  1.
          2   -1    0    0  501    0  0.00000000000E+00 -0.00000000000E+00 -0.14467199437E+04  0.14467199437E+04  0.00000000000E+00 0. -1.
         23    2    1    2    0    0  0.17426059483E+03 -0.86714816163E+03  0.15189915757E+04  0.17601853689E+04  0.92760102886E+02 0.  0.
         11    1    3    3    0    0  0.56866529266E+02 -0.23189029832E+03  0.49261328748E+03  0.54742557814E+03  0.00000000000E+00 0.  1.
        -11    1    3    3    0    0  0.11739406557E+03 -0.63525786331E+03  0.10263782882E+04  0.12127597908E+04  0.00000000000E+00 0. -1.
         22    1    1    2    0    0 -0.17426059483E+03  0.86714816163E+03 -0.11786418818E+04  0.14736042124E+04  0.00000000000E+00 0. -1.
<mgrwt>
<rscale>  0 0.32158292E+04</rscale>
<asrwt>0</asrwt>
<pdfrwt beam="1">  1        2 0.22257230E+00 0.32158292E+04</pdfrwt>
<pdfrwt beam="2">  1       -2 0.27493379E+00 0.32158292E+04</pdfrwt>
<totfact> 0.51748152E-01</totfact>
</mgrwt>
</event>
<event>
 6    1  0.2003386E-005  0.1699708E+04  0.7818608E-02  0.8761531E-01
         -2   -1    0    0    0  501 -0.00000000000E+00  0.00000000000E+00  0.72570517472E+03  0.72570517472E+03  0.00000000000E+00 0.  1.
          2   -1    0    0  501    0  0.00000000000E+00 -0.00000000000E+00 -0.99524196203E+03  0.99524196203E+03  0.00000000000E+00 0. -1.
         23    2    1    2    0    0 -0.46403283404E+03 -0.69418843524E+03 -0.28145711478E+03  0.88586262073E+03  0.91161508699E+02 0.  0.
         11    1    3    3    0    0 -0.20740918174E+03 -0.25604597501E+03 -0.76379128851E+02  0.33824825397E+03  0.00000000000E+00 0. -1.
        -11    1    3    3    0    0 -0.25662365230E+03 -0.43814246022E+03 -0.20507798593E+03  0.54761436676E+03  0.00000000000E+00 0.  1.
         22    1    1    2    0    0  0.46403283404E+03  0.69418843524E+03  0.11920327474E+02  0.83508451602E+03  0.00000000000E+00 0.  1.
<mgrwt>
<rscale>  0 0.16997085E+04</rscale>
<asrwt>0</asrwt>
<pdfrwt beam="1">  1        2 0.15311415E+00 0.16997085E+04</pdfrwt>
<pdfrwt beam="2">  1       -2 0.11164695E+00 0.16997085E+04</pdfrwt>
<totfact> 0.15299380E+01</totfact>
</mgrwt>
</event>
<event>
 6    1  0.2003386E-005  0.1332447E+04  0.7818608E-02  0.9004223E-01
         -1   -1    0    0    0  501 -0.00000000000E+00  0.00000000000E+00  0.23380895572E+03  0.23380895572E+03  0.00000000000E+00 0.  1.
          1   -1    0    0  501    0  0.00000000000E+00 -0.00000000000E+00 -0.18983603274E+04  0.18983603274E+04  0.00000000000E+00 0. -1.
         23    2    1    2    0    0  0.38280996733E+03 -0.41459116847E+03 -0.13933897600E+04  0.15061038491E+04  0.91566766798E+02 0.  0.
         11    1    3    3    0    0  0.73961203509E+02 -0.76769119201E+02 -0.36928443564E+03  0.38436278656E+03  0.00000000000E+00 0.  1.
        -11    1    3    3    0    0  0.30884876382E+03 -0.33782204927E+03 -0.10241053244E+04  0.11217410625E+04  0.00000000000E+00 0. -1.
         22    1    1    2    0    0 -0.38280996733E+03  0.41459116847E+03 -0.27116161162E+03  0.62606543402E+03  0.00000000000E+00 0.  1.
<mgrwt>
<rscale>  0 0.13324468E+04</rscale>
<asrwt>0</asrwt>
<pdfrwt beam="1">  1        1 0.29205543E+00 0.13324468E+04</pdfrwt>
<pdfrwt beam="2">  1       -1 0.35970609E-01 0.13324468E+04</pdfrwt>
<totfact> 0.25310281E+01</totfact>
</mgrwt>
</event>
<event>
 6    1  0.2003386E-005  0.5200914E+04  0.7818608E-02  0.7798240E-01
         -2   -1    0    0    0  501 -0.00000000000E+00  0.00000000000E+00  0.30707443750E+04  0.30707443750E+04  0.00000000000E+00 0.  1.
          2   -1    0    0  501    0  0.00000000000E+00 -0.00000000000E+00 -0.22021946257E+04  0.22021946257E+04  0.00000000000E+00 0. -1.
         23    2    1    2    0    0 -0.24708488745E+04  0.14056181460E+03  0.12412821390E+04  0.27701842748E+04  0.91037265345E+02 0.  0.
         11    1    3    3    0    0 -0.89414467908E+03  0.77141851290E+02  0.41098522886E+03  0.98709393205E+03  0.00000000000E+00 0. -1.
        -11    1    3    3    0    0 -0.15767041954E+04  0.63419963309E+02  0.83029691009E+03  0.17830903427E+04  0.00000000000E+00 0.  1.
         22    1    1    2    0    0  0.24708488745E+04 -0.14056181460E+03 -0.37273238963E+03  0.25027547260E+04  0.00000000000E+00 0.  1.
<mgrwt>
<rscale>  0 0.52009141E+04</rscale>
<asrwt>0</asrwt>
<pdfrwt beam="1">  1        2 0.33879917E+00 0.52009141E+04</pdfrwt>
<pdfrwt beam="2">  1       -2 0.47242221E+00 0.52009141E+04</pdfrwt>
<totfact> 0.91689467E-03</totfact>
</mgrwt>
</event>
<event>
 6    1  0.2003386E-005  0.2168280E+04  0.7818608E-02  0.8531748E-01
          2   -1    0    0  501    0  0.00000000000E+00  0.00000000000E+00  0.33220035055E+04  0.33220035055E+04  0.00000000000E+00 0. -1.
         -2   -1    0    0    0  501 -0.00000000000E+00 -0.00000000000E+00 -0.35381056377E+03  0.35381056377E+03  0.00000000000E+00 0.  1.
         23    2    1    2    0    0 -0.53491956249E+03 -0.22090327272E+03  0.30371554504E+04  0.30929821708E+04  0.85371451991E+02 0.  0.
         13    1    3    3    0    0 -0.14528949868E+03 -0.28784486874E+02  0.65478902545E+03  0.67133170114E+03  0.00000000000E+00 0.  1.
        -13    1    3    3    0    0 -0.38963006381E+03 -0.19211878585E+03  0.23823664249E+04  0.24216504697E+04  0.00000000000E+00 0. -1.
         22    1    1    2    0    0  0.53491956249E+03  0.22090327272E+03 -0.68962508693E+02  0.58283189844E+03  0.00000000000E+00 0.  1.
<mgrwt>
<rscale>  0 0.21682804E+04</rscale>
<asrwt>0</asrwt>
<pdfrwt beam="1">  1        2 0.51107744E+00 0.21682804E+04</pdfrwt>
<pdfrwt beam="2">  1       -2 0.54432397E-01 0.21682804E+04</pdfrwt>
<totfact> 0.31434397E+00</totfact>
</mgrwt>
</event>
<event>
 6    1  0.2003386E-005  0.2894262E+04  0.7818608E-02  0.8274587E-01
         -1   -1    0    0    0  501 -0.00000000000E+00  0.00000000000E+00  0.90633080135E+03  0.90633080135E+03  0.00000000000E+00 0.  1.
          1   -1    0    0  501    0  0.00000000000E+00 -0.00000000000E+00 -0.23106228218E+04  0.23106228218E+04  0.00000000000E+00 0. -1.
         23    2    1    2    0    0 -0.64493850056E+03 -0.53144541002E+03 -0.20141130346E+04  0.21824191565E+04  0.89006544137E+02 0.  0.
         13    1    3    3    0    0 -0.13882610842E+03 -0.16363860872E+03 -0.49493342820E+03  0.53945285336E+03  0.00000000000E+00 0. -1.
        -13    1    3    3    0    0 -0.50611239214E+03 -0.36780680130E+03 -0.15191796064E+04  0.16429663031E+04  0.00000000000E+00 0.  1.
         22    1    1    2    0    0  0.64493850056E+03  0.53144541002E+03  0.60982101421E+03  0.10345344667E+04  0.00000000000E+00 0.  1.
<mgrwt>
<rscale>  0 0.28942623E+04</rscale>
<asrwt>0</asrwt>
<pdfrwt beam="1">  1        1 0.35548042E+00 0.28942623E+04</pdfrwt>
<pdfrwt beam="2">  1       -1 0.13943551E+00 0.28942623E+04</pdfrwt>
<totfact> 0.66563109E-01</totfact>
</mgrwt>
</event>
<event>
 6    1  0.2003386E-005  0.1391519E+04  0.7818608E-02  0.8959980E-01
          2   -1    0    0  501    0  0.00000000000E+00  0.00000000000E+00  0.24118102593E+04  0.24118102593E+04  0.00000000000E+00 0. -1.
         -2   -1    0    0    0  501 -0.00000000000E+00 -0.00000000000E+00 -0.20071286221E+03  0.20071286221E+03  0.00000000000E+00 0.  1.
         23    2    1    2    0    0  0.47180434366E+03 -0.48126700971E+03  0.81278133770E+03  0.10602650646E+04  0.96598296709E+02 0.  0.
         13    1    3    3    0    0  0.24655751792E+03 -0.22826070811E+03  0.33394616452E+03  0.47372312727E+03  0.00000000000E+00 0.  1.
        -13    1    3    3    0    0  0.22524682574E+03 -0.25300630160E+03  0.47883517318E+03  0.58654193732E+03  0.00000000000E+00 0. -1.
         22    1    1    2    0    0 -0.47180434366E+03  0.48126700971E+03  0.13983160594E+04  0.15522580569E+04  0.00000000000E+00 0.  1.
<mgrwt>
<rscale>  0 0.13915191E+04</rscale>
<asrwt>0</asrwt>
<pdfrwt beam="1">  1        2 0.37104771E+00 0.13915191E+04</pdfrwt>
<pdfrwt beam="2">  1       -2 0.30878904E-01 0.13915191E+04</pdfrwt>
<totfact> 0.37142831E+01</totfact>
</mgrwt>
</event>
<event>
 6    1  0.2003386E-005  0.5710829E+04  0.7818608E-02  0.7727327E-01
         -2   -1    0    0    0  501 -0.00000000000E+00  0.00000000000E+00  0.18328106625E+04  0.18328106625E+04  0.00000000000E+00 0.  1.
          2   -1    0    0  501    0  0.00000000000E+00 -0.00000000000E+00 -0.44485722966E+04  0.44485722966E+04  0.00000000000E+00 0. -1.
         23    2    1    2    0    0  0.76557878917E+03  0.22523016256E+04 -0.30438969736E+04  0.38643034477E+04  0.92514079948E+02 0.  0.
         11    1    3    3    0    0  0.13237082374E+03  0.49319526634E+03 -0.62399362303E+03  0.80630741488E+03  0.00000000000E+00 0. -1.
        -11    1    3    3    0    0  0.63320796543E+03  0.17591063593E+04 -0.24199033506E+04  0.30579960328E+04  0.00000000000E+00 0.  1.
         22    1    1    2    0    0 -0.76557878917E+03 -0.22523016256E+04  0.42813533950E+03  0.24170795114E+04  0.00000000000E+00 0.  1.
<mgrwt>
<rscale>  0 0.57108286E+04</rscale>
<asrwt>0</asrwt>
<pdfrwt beam="1">  1        2 0.68439574E+00 0.57108286E+04</pdfrwt>
<pdfrwt beam="2">  1       -2 0.28197087E+00 0.57108286E+04</pdfrwt>
<totfact> 0.38510895E-03</totfact>
</mgrwt>
</event>
<event>
 6    1  0.2003386E-005  0.1467387E+04  0.7818608E-02  0.8906434E-01
         -2   -1    0    0    0  501 -0.00000000000E+00  0.00000000000E+00  0.59971097201E+03  0.59971097201E+03  0.00000000000E+00 0.  1.
          2   -1    0    0  501    0  0.00000000000E+00 -0.00000000000E+00 -0.89760976094E+03  0.89760976094E+03  0.00000000000E+00 0. -1.
         23    2    1    2    0    0 -0.26860540397E+03 -0.38264623589E+03  0.42067620929E+03  0.64004771171E+03  0.11885114773E+03 0.  0.
         11    1    3    3    0    0 -0.73701206874E+02 -0.18509722255E+03  0.12846012223E+03  0.23705453527E+03  0.00000000000E+00 0.  1.
        -11    1    3    3    0    0 -0.19490419709E+03 -0.19754901335E+03  0.29221608705E+03  0.40299317643E+03  0.00000000000E+00 0. -1.
         22    1    1    2    0    0  0.26860540397E+03  0.38264623589E+03 -0.71857499822E+03  0.85727302124E+03  0.00000000000E+00 0. -1.
<mgrwt>
<rscale>  0 0.14673874E+04</rscale>
<asrwt>0</asrwt>
<pdfrwt beam="1">  1        2 0.13809381E+00 0.14673874E+04</pdfrwt>
<pdfrwt beam="2">  1       -2 0.92263227E-01 0.14673874E+04</pdfrwt>
<totfact> 0.28448156E+01</totfact>
</mgrwt>
</event>
<event>
 6    1  0.2003386E-005  0.4505117E+04  0.7818608E-02  0.7909742E-01
          2   -1    0    0  501    0  0.00000000000E+00  0.00000000000E+00  0.35989308087E+04  0.35989308087E+04  0.00000000000E+00 0.  1.
         -2   -1    0    0    0  501 -0.00000000000E+00 -0.00000000000E+00 -0.14098685751E+04  0.14098685751E+04  0.00000000000E+00 0. -1.
         23    2    1    2    0    0 -0.74862150506E+03 -0.12701022356E+04  0.29871008632E+04  0.33323568702E+04  0.90757348160E+02 0.  0.
         11    1    3    3    0    0 -0.19437567586E+03 -0.30835947919E+03  0.65615494740E+03  0.75060428107E+03  0.00000000000E+00 0.  1.
        -11    1    3    3    0    0 -0.55424582920E+03 -0.96174275645E+03  0.23309459158E+04  0.25817525891E+04  0.00000000000E+00 0. -1.
         22    1    1    2    0    0  0.74862150506E+03  0.12701022356E+04 -0.79803862968E+03  0.16764425136E+04  0.00000000000E+00 0.  1.
<mgrwt>
<rscale>  0 0.45051168E+04</rscale>
<asrwt>0</asrwt>
<pdfrwt beam="1">  1        2 0.55368166E+00 0.45051168E+04</pdfrwt>
<pdfrwt beam="2">  1       -2 0.21690286E+00 0.45051168E+04</pdfrwt>
<totfact> 0.54049823E-02</totfact>
</mgrwt>
</event>
<event>
 6    1  0.2003386E-005  0.3199081E+04  0.7818608E-02  0.8189060E-01
         -1   -1    0    0    0  501 -0.00000000000E+00  0.00000000000E+00  0.26478668731E+04  0.26478668731E+04  0.00000000000E+00 0.  1.
          1   -1    0    0  501    0  0.00000000000E+00 -0.00000000000E+00 -0.96626075475E+03  0.96626075475E+03  0.00000000000E+00 0. -1.
         23    2    1    2    0    0  0.46851304761E+03  0.84163424803E+03  0.22823345995E+04  0.24789063317E+04  0.89848172126E+02 0.  0.
         13    1    3    3    0    0  0.14529636809E+03  0.33392459912E+03  0.79647605607E+03  0.87578009818E+03  0.00000000000E+00 0.  1.
        -13    1    3    3    0    0  0.32321667952E+03  0.50770964891E+03  0.14858585434E+04  0.16031262335E+04  0.00000000000E+00 0. -1.
         22    1    1    2    0    0 -0.46851304761E+03 -0.84163424803E+03 -0.60072848113E+03  0.11352212962E+04  0.00000000000E+00 0. -1.
<mgrwt>
<rscale>  0 0.31990810E+04</rscale>
<asrwt>0</asrwt>
<pdfrwt beam="1">  1        1 0.14865550E+00 0.31990810E+04</pdfrwt>
<pdfrwt beam="2">  1       -1 0.40736413E+00 0.31990810E+04</pdfrwt>
<totfact> 0.85655617E-02</totfact>
</mgrwt>
</event>
<event>
 6    1  0.2003386E-005  0.6676477E+03  0.7818608E-02  0.9774217E-01
          1   -1    0    0  501    0  0.00000000000E+00  0.00000000000E+00  0.17168066475E+04  0.17168066475E+04  0.00000000000E+00 0. -1.
         -1   -1    0    0    0  501 -0.00000000000E+00 -0.00000000000E+00 -0.64910251605E+02  0.64910251605E+02  0.00000000000E+00 0.  1.
         23    2    1    2    0    0  0.14744184080E+03 -0.21834702139E+03  0.32095138687E+03  0.42494531361E+03  0.90300657014E+02 0.  0.
         13    1    3    3    0    0  0.44383137562E+02 -0.11473295910E+03  0.20201236899E+03  0.23652169462E+03  0.00000000000E+00 0. -1.
        -13    1    3    3    0    0  0.10305870323E+03 -0.10361406229E+03  0.11893901788E+03  0.18842361899E+03  0.00000000000E+00 0.  1.
         22    1    1    2    0    0 -0.14744184080E+03  0.21834702139E+03  0.13309450090E+04  0.13567715855E+04  0.00000000000E+00 0. -1.
<mgrwt>
<rscale>  0 0.66764767E+03</rscale>
<asrwt>0</asrwt>
<pdfrwt beam="1">  1        1 0.26412407E+00 0.66764767E+03</pdfrwt>
<pdfrwt beam="2">  1       -1 0.99861938E-02 0.66764767E+03</pdfrwt>
<totfact> 0.30193247E+02</totfact>
</mgrwt>
</event>
<event>
 6    1  0.2003386E-005  0.2053334E+04  0.7818608E-02  0.8582083E-01
          2   -1    0    0  501    0  0.00000000000E+00  0.00000000000E+00  0.95714691749E+03  0.95714691749E+03  0.00000000000E+00 0. -1.
         -2   -1    0    0    0  501 -0.00000000000E+00 -0.00000000000E+00 -0.11012362175E+04  0.11012362175E+04  0.00000000000E+00 0.  1.
         23    2    1    2    0    0 -0.62668197435E+03  0.61135521331E+03 -0.60583129743E+03  0.10685896383E+04  0.91469997014E+02 0.  0.
         11    1    3    3    0    0 -0.33669312080E+03  0.38778352545E+03 -0.37198250491E+03  0.63412089081E+03  0.00000000000E+00 0.  1.
        -11    1    3    3    0    0 -0.28998885354E+03  0.22357168787E+03 -0.23384879252E+03  0.43446874750E+03  0.00000000000E+00 0. -1.
         22    1    1    2    0    0  0.62668197435E+03 -0.61135521331E+03  0.46174199744E+03  0.98979349665E+03  0.00000000000E+00 0. -1.
<mgrwt>
<rscale>  0 0.20533337E+04</rscale>
<asrwt>0</asrwt>
<pdfrwt beam="1">  1        2 0.14725337E+00 0.20533337E+04</pdfrwt>
<pdfrwt beam="2">  1       -2 0.16942096E+00 0.20533337E+04</pdfrwt>
<totfact> 0.53444772E+00</totfact>
</mgrwt>
</event>
<event>
 6    1  0.2003386E-005  0.3413838E+04  0.7818608E-02  0.8134518E-01
         -2   -1    0    0    0  501 -0.00000000000E+00  0.00000000000E+00  0.17299779437E+04  0.17299779437E+04  0.00000000000E+00 0.  1.
          2   -1    0    0  501    0  0.00000000000E+00 -0.00000000000E+00 -0.16841673235E+04  0.16841673235E+04  0.00000000000E+00 0. -1.
         23    2    1    2    0    0  0.71223862448E+02  0.32002095230E+03 -0.16511083256E+04  0.16858454792E+04  0.91815185374E+02 0.  0.
         13    1    3    3    0    0  0.46197620184E+02  0.24705585168E+03 -0.10425796943E+04  0.10724473101E+04  0.00000000000E+00 0.  1.
        -13    1    3    3    0    0  0.25026242264E+02  0.72965100616E+02 -0.60852863125E+03  0.61339816902E+03  0.00000000000E+00 0. -1.
         22    1    1    2    0    0 -0.71223862448E+02 -0.32002095230E+03  0.16969189459E+04  0.17282997880E+04  0.00000000000E+00 0.  1.
<mgrwt>
<rscale>  0 0.34138379E+04</rscale>
<asrwt>0</asrwt>
<pdfrwt beam="1">  1        2 0.25910266E+00 0.34138379E+04</pdfrwt>
<pdfrwt beam="2">  1       -2 0.26615045E+00 0.34138379E+04</pdfrwt>
<totfact> 0.42373813E-01</totfact>
</mgrwt>
</event>
<event>
 6    1  0.2003386E-005  0.2724105E+04  0.7818608E-02  0.8327226E-01
         -2   -1    0    0    0  501 -0.00000000000E+00  0.00000000000E+00  0.16151339551E+04  0.16151339551E+04  0.00000000000E+00 0.  1.
          2   -1    0    0  501    0  0.00000000000E+00 -0.00000000000E+00 -0.11486275986E+04  0.11486275986E+04  0.00000000000E+00 0. -1.
         23    2    1    2    0    0  0.16211368876E+03 -0.33396287096E+03  0.15615367501E+04  0.16075160737E+04  0.88875520114E+02 0.  0.
         11    1    3    3    0    0  0.15543185199E+02 -0.12780769040E+03  0.51835699760E+03  0.53410708036E+03  0.00000000000E+00 0. -1.
        -11    1    3    3    0    0  0.14657050356E+03 -0.20615518056E+03  0.10431797525E+04  0.10734089934E+04  0.00000000000E+00 0.  1.
         22    1    1    2    0    0 -0.16211368876E+03  0.33396287096E+03 -0.10950303936E+04  0.11562454801E+04  0.00000000000E+00 0. -1.
<mgrwt>
<rscale>  0 0.27241053E+04</rscale>
<asrwt>0</asrwt>
<pdfrwt beam="1">  1        2 0.17671194E+00 0.27241053E+04</pdfrwt>
<pdfrwt beam="2">  1       -2 0.24848215E+00 0.27241053E+04</pdfrwt>
<totfact> 0.11693834E+00</totfact>
</mgrwt>
</event>
<event>
 6    1  0.2003386E-005  0.2857725E+03  0.7818608E-02  0.1092577E+00
          2   -1    0    0  501    0  0.00000000000E+00  0.00000000000E+00  0.14725700454E+04  0.14725700454E+04  0.00000000000E+00 0. -1.
         -2   -1    0    0    0  501 -0.00000000000E+00 -0.00000000000E+00 -0.13864518887E+02  0.13864518887E+02  0.00000000000E+00 0.  1.
         23    2    1    2    0    0  0.11259649779E+03 -0.57707938243E+02  0.91410832963E+03  0.92733324583E+03  0.91349510506E+02 0.  0.
         11    1    3    3    0    0  0.50754560609E+02 -0.39435225462E+01  0.61806266738E+03  0.62015565594E+03  0.00000000000E+00 0. -1.
        -11    1    3    3    0    0  0.61841937179E+02 -0.53764415696E+02  0.29604566225E+03  0.30717758989E+03  0.00000000000E+00 0.  1.
         22    1    1    2    0    0 -0.11259649779E+03  0.57707938243E+02  0.54459719692E+03  0.55910131849E+03  0.00000000000E+00 0.  1.
<mgrwt>
<rscale>  0 0.28577246E+03</rscale>
<asrwt>0</asrwt>
<pdfrwt beam="1">  1        2 0.22654911E+00 0.28577246E+03</pdfrwt>
<pdfrwt beam="2">  1       -2 0.21330041E-02 0.28577246E+03</pdfrwt>
<totfact> 0.99317379E+03</totfact>
</mgrwt>
</event>
<event>
 6    1  0.2003386E-005  0.2298407E+04  0.7818608E-02  0.8478550E-01
         -2   -1    0    0    0  501 -0.00000000000E+00  0.00000000000E+00  0.56393322339E+03  0.56393322339E+03  0.00000000000E+00 0.  1.
          2   -1    0    0  501    0  0.00000000000E+00 -0.00000000000E+00 -0.23418876844E+04  0.23418876844E+04  0.00000000000E+00 0. -1.
         23    2    1    2    0    0  0.21300261845E+03  0.65157210715E+03 -0.20535717853E+04  0.21669831477E+04  0.93501650900E+02 0.  0.
         13    1    3    3    0    0  0.10667576829E+03  0.34953941096E+03 -0.12377045831E+04  0.12905309583E+04  0.00000000000E+00 0. -1.
        -13    1    3    3    0    0  0.10632685016E+03  0.30203269618E+03 -0.81586720223E+03  0.87645218940E+03  0.00000000000E+00 0.  1.
         22    1    1    2    0    0 -0.21300261845E+03 -0.65157210715E+03  0.27561732430E+03  0.73883776009E+03  0.00000000000E+00 0.  1.
<mgrwt>
<rscale>  0 0.22984066E+04</rscale>
<asrwt>0</asrwt>
<pdfrwt beam="1">  1        2 0.36029041E+00 0.22984066E+04</pdfrwt>
<pdfrwt beam="2">  1       -2 0.86758959E-01 0.22984066E+04</pdfrwt>
<totfact> 0.44737661E+00</totfact>
</mgrwt>
</event>
<event>
 6    1  0.2003386E-005  0.6082094E+04  0.7818608E-02  0.7680306E-01
          1   -1    0    0  501    0  0.00000000000E+00  0.00000000000E+00  0.32710933696E+04  0.32710933696E+04  0.00000000000E+00 0. -1.
         -1   -1    0    0    0  501 -0.00000000000E+00 -0.00000000000E+00 -0.28271792168E+04  0.28271792168E+04  0.00000000000E+00 0.  1.
         23    2    1    2    0    0  0.20546337183E+04  0.15371930409E+04 -0.14131507714E+04  0.29307542686E+04  0.88562515150E+02 0.  0.
         13    1    3    3    0    0  0.11097504063E+04  0.80849769265E+03 -0.80235859430E+03  0.15902810435E+04  0.00000000000E+00 0. -1.
        -13    1    3    3    0    0  0.94488331199E+03  0.72869534820E+03 -0.61079217708E+03  0.13404732252E+04  0.00000000000E+00 0.  1.
         22    1    1    2    0    0 -0.20546337183E+04 -0.15371930409E+04  0.18570649242E+04  0.31675183179E+04  0.00000000000E+00 0. -1.
<mgrwt>
<rscale>  0 0.60820941E+04</rscale>
<asrwt>0</asrwt>
<pdfrwt beam="1">  1        1 0.50324513E+00 0.60820941E+04</pdfrwt>
<pdfrwt beam="2">  1       -1 0.43495065E+00 0.60820941E+04</pdfrwt>
<totfact> 0.10276564E-03</totfact>
</mgrwt>
</event>
<event>
 6    1  0.2003386E-005  0.3849306E+04  0.7818608E-02  0.8035656E-01
          2   -1    0    0  501    0  0.00000000000E+00  0.00000000000E+00  0.27834977567E+04  0.27834977567E+04  0.00000000000E+00 0. -1.
         -2   -1    0    0    0  501 -0.00000000000E+00 -0.00000000000E+00 -0.13308036360E+04  0.13308036360E+04  0.00000000000E+00 0.  1.
         23    2    1    2    0    0  0.35615725400E+03  0.10150665747E+04 -0.97776701311E+03  0.14564169966E+04  0.88960639133E+02 0.  0.
         13    1    3    3    0    0  0.16584388213E+03  0.60330323301E+03 -0.57700442578E+03  0.85112460402E+03  0.00000000000E+00 0. -1.
        -13    1    3    3    0    0  0.19031337186E+03  0.41176334171E+03 -0.40076258733E+03  0.60529239255E+03  0.00000000000E+00 0.  1.
         22    1    1    2    0    0 -0.35615725400E+03 -0.10150665747E+04  0.24304611337E+04  0.26578843961E+04  0.00000000000E+00 0. -1.
<mgrwt>
<rscale>  0 0.38493059E+04</rscale>
<asrwt>0</asrwt>
<pdfrwt beam="1">  1        2 0.42823042E+00 0.38493059E+04</pdfrwt>
<pdfrwt beam="2">  1       -2 0.20473902E+00 0.38493059E+04</pdfrwt>
<totfact> 0.23394172E-01</totfact>
</mgrwt>
</event>
<event>
 6    1  0.2003386E-005  0.9110732E+03  0.7818608E-02  0.9411844E-01
          2   -1    0    0  501    0  0.00000000000E+00  0.00000000000E+00  0.15970455048E+04  0.15970455048E+04  0.00000000000E+00 0. -1.
         -2   -1    0    0    0  501 -0.00000000000E+00 -0.00000000000E+00 -0.12993591815E+03  0.12993591815E+03  0.00000000000E+00 0.  1.
         23    2    1    2    0    0 -0.12426723939E+03  0.27412618367E+03  0.13749124727E+04  0.14121992456E+04  0.11547679621E+03 0.  0.
         13    1    3    3    0    0 -0.55567726842E+02  0.14823207131E+03  0.46880293052E+03  0.49480976839E+03  0.00000000000E+00 0.  1.
        -13    1    3    3    0    0 -0.68699512546E+02  0.12589411236E+03  0.90610954215E+03  0.91738947722E+03  0.00000000000E+00 0. -1.
         22    1    1    2    0    0  0.12426723939E+03 -0.27412618367E+03  0.92197114017E+02  0.31478217737E+03  0.00000000000E+00 0.  1.
<mgrwt>
<rscale>  0 0.91107316E+03</rscale>
<asrwt>0</asrwt>
<pdfrwt beam="1">  1        2 0.24569929E+00 0.91107316E+03</pdfrwt>
<pdfrwt beam="2">  1       -2 0.19990142E-01 0.91107316E+03</pdfrwt>
<totfact> 0.24019621E+02</totfact>
</mgrwt>
</event>
<event>
 6    1  0.2003386E-005  0.2265044E+04  0.7818608E-02  0.8491833E-01
          2   -1    0    0  501    0  0.00000000000E+00  0.00000000000E+00  0.30964993289E+04  0.30964993289E+04  0.00000000000E+00 0. -1.
         -2   -1    0    0    0  501 -0.00000000000E+00 -0.00000000000E+00 -0.41421166644E+03  0.41421166644E+03  0.00000000000E+00 0.  1.
         23    2    1    2    0    0 -0.38918818880E+03  0.68267778676E+03  0.85257226459E+02  0.79739503653E+03  0.10513630573E+03 0.  0.
         13    1    3    3    0    0 -0.30457017717E+03  0.58002398858E+03  0.38038970370E+02  0.65622997754E+03  0.00000000000E+00 0.  1.
        -13    1    3    3    0    0 -0.84618011629E+02  0.10265379818E+03  0.47218256089E+02  0.14116505900E+03  0.00000000000E+00 0. -1.
         22    1    1    2    0    0  0.38918818880E+03 -0.68267778676E+03  0.25970304360E+04  0.27133159588E+04  0.00000000000E+00 0. -1.
<mgrwt>
<rscale>  0 0.22650441E+04</rscale>
<asrwt>0</asrwt>
<pdfrwt beam="1">  1        2 0.47638450E+00 0.22650441E+04</pdfrwt>
<pdfrwt beam="2">  1       -2 0.63724874E-01 0.22650441E+04</pdfrwt>
<totfact> 0.31368821E+00</totfact>
</mgrwt>
</event>
<event>
 6    1  0.2003386E-005  0.1322860E+04  0.7818608E-02  0.9011631E-01
          2   -1    0    0  501    0  0.00000000000E+00  0.00000000000E+00  0.86719549993E+03  0.86719549993E+03  0.00000000000E+00 0. -1.
         -2   -1    0    0    0  501 -0.00000000000E+00 -0.00000000000E+00 -0.50448753817E+03  0.50448753817E+03  0.00000000000E+00 0.  1.
         23    2    1    2    0    0  0.19282570186E+03 -0.95910098631E+02  0.82679055182E+03  0.86006487118E+03  0.98734329151E+02 0.  0.
         11    1    3    3    0    0  0.10241971817E+03 -0.87351902413E+02  0.35607634092E+03  0.38067113640E+03  0.00000000000E+00 0.  1.
        -11    1    3    3    0    0  0.90405983689E+02 -0.85581962186E+01  0.47071421089E+03  0.47939373478E+03  0.00000000000E+00 0. -1.
         22    1    1    2    0    0 -0.19282570186E+03  0.95910098631E+02 -0.46408259006E+03  0.51161816691E+03  0.00000000000E+00 0.  1.
<mgrwt>
<rscale>  0 0.13228595E+04</rscale>
<asrwt>0</asrwt>
<pdfrwt beam="1">  1        2 0.13341469E+00 0.13228595E+04</pdfrwt>
<pdfrwt beam="2">  1       -2 0.77613467E-01 0.13228595E+04</pdfrwt>
<totfact> 0.44722820E+01</totfact>
</mgrwt>
</event>
<event>
 6    1  0.2003386E-005  0.1808924E+04  0.7818608E-02  0.8701568E-01
         -2   -1    0    0    0  501 -0.00000000000E+00  0.00000000000E+00  0.86856957027E+03  0.86856957027E+03  0.00000000000E+00 0.  1.
          2   -1    0    0  501    0  0.00000000000E+00 -0.00000000000E+00 -0.94183724446E+03  0.94183724446E+03  0.00000000000E+00 0. -1.
         23    2    1    2    0    0  0.50466940465E+03 -0.26914331204E+03 -0.73506460420E+03  0.93570428989E+03  0.89962299668E+02 0.  0.
         13    1    3    3    0    0  0.63932441557E+02 -0.33960843897E+02 -0.50593977086E+02  0.88320136543E+02  0.00000000000E+00 0. -1.
        -13    1    3    3    0    0  0.44073696310E+03 -0.23518246815E+03 -0.68447062711E+03  0.84738415335E+03  0.00000000000E+00 0.  1.
         22    1    1    2    0    0 -0.50466940465E+03  0.26914331204E+03  0.66179693000E+03  0.87470252485E+03  0.00000000000E+00 0.  1.
<mgrwt>
<rscale>  0 0.18089236E+04</rscale>
<asrwt>0</asrwt>
<pdfrwt beam="1">  1        2 0.14489804E+00 0.18089236E+04</pdfrwt>
<pdfrwt beam="2">  1       -2 0.13362609E+00 0.18089236E+04</pdfrwt>
<totfact> 0.10501135E+01</totfact>
</mgrwt>
</event>
<event>
 6    1  0.2003386E-005  0.3785302E+04  0.7818608E-02  0.8049316E-01
          1   -1    0    0  501    0  0.00000000000E+00  0.00000000000E+00  0.20041667027E+04  0.20041667027E+04  0.00000000000E+00 0. -1.
         -1   -1    0    0    0  501 -0.00000000000E+00 -0.00000000000E+00 -0.17873402203E+04  0.17873402203E+04  0.00000000000E+00 0.  1.
         23    2    1    2    0    0 -0.12918526176E+04 -0.70140822341E+03 -0.10839316204E+04  0.18286446447E+04  0.90425645996E+02 0.  0.
         13    1    3    3    0    0 -0.29578721731E+03 -0.15327895845E+03 -0.20036676084E+03  0.38875616507E+03  0.00000000000E+00 0.  1.
        -13    1    3    3    0    0 -0.99606540029E+03 -0.54812926496E+03 -0.88356485956E+03  0.14398884796E+04  0.00000000000E+00 0. -1.
         22    1    1    2    0    0  0.12918526176E+04  0.70140822341E+03  0.13007581028E+04  0.19628622783E+04  0.00000000000E+00 0. -1.
<mgrwt>
<rscale>  0 0.37853020E+04</rscale>
<asrwt>0</asrwt>
<pdfrwt beam="1">  1        1 0.30833334E+00 0.37853020E+04</pdfrwt>
<pdfrwt beam="2">  1       -1 0.27497542E+00 0.37853020E+04</pdfrwt>
<totfact> 0.11314639E-01</totfact>
</mgrwt>
</event>
<event>
 6    1  0.2003386E-005  0.3134728E+04  0.7818608E-02  0.8206271E-01
         -2   -1    0    0    0  501 -0.00000000000E+00  0.00000000000E+00  0.90592784842E+03  0.90592784842E+03  0.00000000000E+00 0.  1.
          2   -1    0    0  501    0  0.00000000000E+00 -0.00000000000E+00 -0.27117282900E+04  0.27117282900E+04  0.00000000000E+00 0. -1.
         23    2    1    2    0    0  0.10293802585E+04  0.87258044544E+03  0.13223442938E+02  0.13527348941E+04  0.93254941150E+02 0.  0.
         11    1    3    3    0    0  0.57511821532E+03  0.45623908497E+03  0.47044204058E+02  0.73561417971E+03  0.00000000000E+00 0.  1.
        -11    1    3    3    0    0  0.45426204316E+03  0.41634136047E+03 -0.33820761120E+02  0.61712071443E+03  0.00000000000E+00 0. -1.
         22    1    1    2    0    0 -0.10293802585E+04 -0.87258044544E+03 -0.18190238845E+04  0.22649212443E+04  0.00000000000E+00 0. -1.
<mgrwt>
<rscale>  0 0.31347282E+04</rscale>
<asrwt>0</asrwt>
<pdfrwt beam="1">  1        2 0.41718897E+00 0.31347282E+04</pdfrwt>
<pdfrwt beam="2">  1       -2 0.13937352E+00 0.31347282E+04</pdfrwt>
<totfact> 0.80354385E-01</totfact>
</mgrwt>
</event>
<event>
 6    1  0.2003386E-005  0.1874530E+04  0.7818608E-02  0.8667640E-01
          2   -1    0    0  501    0  0.00000000000E+00  0.00000000000E+00  0.73152662701E+03  0.73152662701E+03  0.00000000000E+00 0. -1.
         -2   -1    0    0    0  501 -0.00000000000E+00 -0.00000000000E+00 -0.12008657069E+04  0.12008657069E+04  0.00000000000E+00 0.  1.
         23    2    1    2    0    0 -0.79354213509E+03 -0.28776295506E+03 -0.64977102715E+03  0.10692166125E+04  0.92223306265E+02 0.  0.
         13    1    3    3    0    0 -0.42819187255E+03 -0.16691527741E+03 -0.40950115531E+03  0.61554868674E+03  0.00000000000E+00 0. -1.
        -13    1    3    3    0    0 -0.36535026255E+03 -0.12084767765E+03 -0.24026987185E+03  0.45366792575E+03  0.00000000000E+00 0.  1.
         22    1    1    2    0    0  0.79354213509E+03  0.28776295506E+03  0.18043194726E+03  0.86317572143E+03  0.00000000000E+00 0. -1.
<mgrwt>
<rscale>  0 0.18745295E+04</rscale>
<asrwt>0</asrwt>
<pdfrwt beam="1">  1        2 0.11254256E+00 0.18745295E+04</pdfrwt>
<pdfrwt beam="2">  1       -2 0.18474857E+00 0.18745295E+04</pdfrwt>
<totfact> 0.61100280E+00</totfact>
</mgrwt>
</event>
<event>
 6    1  0.2003386E-005  0.2841155E+04  0.7818608E-02  0.8290604E-01
          2   -1    0    0  501    0  0.00000000000E+00  0.00000000000E+00  0.20615910527E+04  0.20615910527E+04  0.00000000000E+00 0. -1.
         -2   -1    0    0    0  501 -0.00000000000E+00 -0.00000000000E+00 -0.97887510892E+03  0.97887510892E+03  0.00000000000E+00 0.  1.
         23    2    1    2    0    0  0.95394706288E+03 -0.41796161553E+03  0.15736597583E+04  0.18890614804E+04  0.86263149873E+02 0.  0.
         11    1    3    3    0    0  0.50974100305E+03 -0.26766851657E+03  0.84216333447E+03  0.10201575402E+04  0.00000000000E+00 0.  1.
        -11    1    3    3    0    0  0.44420605983E+03 -0.15029309896E+03  0.73149642381E+03  0.86890394016E+03  0.00000000000E+00 0. -1.
         22    1    1    2    0    0 -0.95394706288E+03  0.41796161553E+03 -0.49094381454E+03  0.11514046812E+04  0.00000000000E+00 0.  1.
<mgrwt>
<rscale>  0 0.28411548E+04</rscale>
<asrwt>0</asrwt>
<pdfrwt beam="1">  1        2 0.31716785E+00 0.28411548E+04</pdfrwt>
<pdfrwt beam="2">  1       -2 0.15059617E+00 0.28411548E+04</pdfrwt>
<totfact> 0.15873635E+00</totfact>
</mgrwt>
</event>
<event>
 6    1  0.2003386E-005  0.1172635E+04  0.7818608E-02  0.9137152E-01
         -1   -1    0    0    0  501 -0.00000000000E+00  0.00000000000E+00  0.17467456872E+03  0.17467456872E+03  0.00000000000E+00 0.  1.
          1   -1    0    0  501    0  0.00000000000E+00 -0.00000000000E+00 -0.19680500608E+04  0.19680500608E+04  0.00000000000E+00 0. -1.
         23    2    1    2    0    0  0.26441762516E+03  0.34864682103E+03 -0.16045875079E+04  0.16661617384E+04  0.99612155215E+02 0.  0.
         13    1    3    3    0    0  0.19746885441E+03  0.22215045661E+03 -0.12234886695E+04  0.12590747786E+04  0.00000000000E+00 0.  1.
        -13    1    3    3    0    0  0.66948770751E+02  0.12649636442E+03 -0.38109883844E+03  0.40708695972E+03  0.00000000000E+00 0. -1.
         22    1    1    2    0    0 -0.26441762516E+03 -0.34864682103E+03 -0.18878798420E+03  0.47656289122E+03  0.00000000000E+00 0.  1.
<mgrwt>
<rscale>  0 0.11726351E+04</rscale>
<asrwt>0</asrwt>
<pdfrwt beam="1">  1        1 0.30277693E+00 0.11726351E+04</pdfrwt>
<pdfrwt beam="2">  1       -1 0.26873011E-01 0.11726351E+04</pdfrwt>
<totfact> 0.38484993E+01</totfact>
</mgrwt>
</event>
<event>
 6    1  0.2003386E-005  0.2209607E+04  0.7818608E-02  0.8514440E-01
         -2   -1    0    0    0  501 -0.00000000000E+00  0.00000000000E+00  0.10415887091E+04  0.10415887091E+04  0.00000000000E+00 0.  1.
          2   -1    0    0  501    0  0.00000000000E+00 -0.00000000000E+00 -0.11718543408E+04  0.11718543408E+04  0.00000000000E+00 0. -1.
         23    2    1    2    0    0 -0.59936398352E+02 -0.38932047533E+03  0.96665151218E+03  0.10479431465E+04  0.92773314910E+02 0.  0.
         11    1    3    3    0    0 -0.62712125945E+02 -0.30440718550E+03  0.65628890749E+03  0.72616229276E+03  0.00000000000E+00 0.  1.
        -11    1    3    3    0    0  0.27757275929E+01 -0.84913289825E+02  0.31036260469E+03  0.32178085375E+03  0.00000000000E+00 0. -1.
         22    1    1    2    0    0  0.59936398352E+02  0.38932047533E+03 -0.10969171439E+04  0.11654999034E+04  0.00000000000E+00 0. -1.
<mgrwt>
<rscale>  0 0.22096065E+04</rscale>
<asrwt>0</asrwt>
<pdfrwt beam="1">  1        2 0.18028528E+00 0.22096065E+04</pdfrwt>
<pdfrwt beam="2">  1       -2 0.16024442E+00 0.22096065E+04</pdfrwt>
<totfact> 0.45118926E+00</totfact>
</mgrwt>
</event>
<event>
 6    1  0.2003386E-005  0.2209872E+04  0.7818608E-02  0.8514330E-01
         -2   -1    0    0    0  501 -0.00000000000E+00  0.00000000000E+00  0.76070910844E+03  0.76070910844E+03  0.00000000000E+00 0.  1.
          2   -1    0    0  501    0  0.00000000000E+00 -0.00000000000E+00 -0.16049282376E+04  0.16049282376E+04  0.00000000000E+00 0. -1.
         23    2    1    2    0    0  0.84594430319E+03  0.42984463431E+03  0.17925845196E+03  0.96996742344E+03  0.91186820311E+02 0.  0.
         11    1    3    3    0    0  0.38401178651E+03  0.24413646822E+03  0.72519086878E+02  0.46078919829E+03  0.00000000000E+00 0.  1.
        -11    1    3    3    0    0  0.46193251668E+03  0.18570816609E+03  0.10673936509E+03  0.50917822516E+03  0.00000000000E+00 0. -1.
         22    1    1    2    0    0 -0.84594430319E+03 -0.42984463431E+03 -0.10234775811E+04  0.13956699226E+04  0.00000000000E+00 0. -1.
<mgrwt>
<rscale>  0 0.22098720E+04</rscale>
<asrwt>0</asrwt>
<pdfrwt beam="1">  1        2 0.24691203E+00 0.22098720E+04</pdfrwt>
<pdfrwt beam="2">  1       -2 0.11703217E+00 0.22098720E+04</pdfrwt>
<totfact> 0.57178396E+00</totfact>
</mgrwt>
</event>
<event>
 6    1  0.2003386E-005  0.2581401E+04  0.7818608E-02  0.8374546E-01
         -1   -1    0    0    0  501 -0.00000000000E+00  0.00000000000E+00  0.12633439289E+04  0.12633439289E+04  0.00000000000E+00 0.  1.
          1   -1    0    0  501    0  0.00000000000E+00 -0.00000000000E+00 -0.13186496972E+04  0.13186496972E+04  0.00000000000E+00 0. -1.
         23    2    1    2    0    0 -0.71645662005E+03  0.41231453367E+03 -0.10170624318E+04  0.13138101839E+04  0.91475931473E+02 0.  0.
         11    1    3    3    0    0 -0.52826205576E+03  0.30660702037E+03 -0.68507415964E+03  0.91782093499E+03  0.00000000000E+00 0. -1.
        -11    1    3    3    0    0 -0.18819456429E+03  0.10570751329E+03 -0.33198827220E+03  0.39598924894E+03  0.00000000000E+00 0.  1.
         22    1    1    2    0    0  0.71645662005E+03 -0.41231453367E+03  0.96175666357E+03  0.12681834422E+04  0.00000000000E+00 0.  1.
<mgrwt>
<rscale>  0 0.25814012E+04</rscale>
<asrwt>0</asrwt>
<pdfrwt beam="1">  1        1 0.20286919E+00 0.25814012E+04</pdfrwt>
<pdfrwt beam="2">  1       -1 0.19436060E+00 0.25814012E+04</pdfrwt>
<totfact> 0.12746143E+00</totfact>
</mgrwt>
</event>
<event>
 6    1  0.2003386E-005  0.1229575E+04  0.7818608E-02  0.9087357E-01
         -2   -1    0    0    0  501 -0.00000000000E+00  0.00000000000E+00  0.13896792764E+03  0.13896792764E+03  0.00000000000E+00 0.  1.
          2   -1    0    0  501    0  0.00000000000E+00 -0.00000000000E+00 -0.27197894936E+04  0.27197894936E+04  0.00000000000E+00 0. -1.
         23    2    1    2    0    0 -0.35608742417E+03  0.43309659884E+03 -0.18678487657E+04  0.19517286832E+04  0.77555941432E+02 0.  0.
         13    1    3    3    0    0 -0.77082944551E+02  0.14822664238E+03 -0.57628974061E+03  0.60001898552E+03  0.00000000000E+00 0. -1.
        -13    1    3    3    0    0 -0.27900447962E+03  0.28486995646E+03 -0.12915590251E+04  0.13517096977E+04  0.00000000000E+00 0.  1.
         22    1    1    2    0    0  0.35608742417E+03 -0.43309659884E+03 -0.71297280028E+03  0.90702873798E+03  0.00000000000E+00 0.  1.
<mgrwt>
<rscale>  0 0.12295747E+04</rscale>
<asrwt>0</asrwt>
<pdfrwt beam="1">  1        2 0.41842914E+00 0.12295747E+04</pdfrwt>
<pdfrwt beam="2">  1       -2 0.21379682E-01 0.12295747E+04</pdfrwt>
<totfact> 0.48780864E+01</totfact>
</mgrwt>
</event>
<event>
 6    1  0.2003386E-005  0.2769418E+04  0.7818608E-02  0.8312826E-01
         -2   -1    0    0    0  501 -0.00000000000E+00  0.00000000000E+00  0.26386730672E+04  0.26386730672E+04  0.00000000000E+00 0.  1.
          2   -1    0    0  501    0  0.00000000000E+00 -0.00000000000E+00 -0.72666039933E+03  0.72666039933E+03  0.00000000000E+00 0. -1.
         23    2    1    2    0    0  0.11260488515E+04 -0.73858883482E+03  0.57228694394E+03  0.14657639105E+04  0.86325037575E+02 0.  0.
         11    1    3    3    0    0  0.57668188388E+03 -0.33998511555E+03  0.31563647598E+03  0.74012043545E+03  0.00000000000E+00 0.  1.
        -11    1    3    3    0    0  0.54936696763E+03 -0.39860371927E+03  0.25665046795E+03  0.72564347502E+03  0.00000000000E+00 0. -1.
         22    1    1    2    0    0 -0.11260488515E+04  0.73858883482E+03  0.13397257239E+04  0.18995695560E+04  0.00000000000E+00 0. -1.
<mgrwt>
<rscale>  0 0.27694182E+04</rscale>
<asrwt>0</asrwt>
<pdfrwt beam="1">  1        2 0.11179391E+00 0.27694182E+04</pdfrwt>
<pdfrwt beam="2">  1       -2 0.40594970E+00 0.27694182E+04</pdfrwt>
<totfact> 0.23110536E-01</totfact>
</mgrwt>
</event>
<event>
 6    1  0.2003386E-005  0.1117414E+04  0.7818608E-02  0.9188384E-01
         -2   -1    0    0    0  501 -0.00000000000E+00  0.00000000000E+00  0.92361176302E+02  0.92361176302E+02  0.00000000000E+00 0.  1.
          2   -1    0    0  501    0  0.00000000000E+00 -0.00000000000E+00 -0.33797031093E+04  0.33797031093E+04  0.00000000000E+00 0. -1.
         23    2    1    2    0    0 -0.87824395189E+02  0.48899523787E+03 -0.24246918535E+04  0.24765771552E+04  0.86454348800E+02 0.  0.
         13    1    3    3    0    0 -0.40158511006E+02  0.34996779626E+03 -0.15412893421E+04  0.15810322579E+04  0.00000000000E+00 0.  1.
        -13    1    3    3    0    0 -0.47665884183E+02  0.13902744161E+03 -0.88340251138E+03  0.89554489734E+03  0.00000000000E+00 0. -1.
         22    1    1    2    0    0  0.87824395189E+02 -0.48899523787E+03 -0.86265007953E+03  0.99548713038E+03  0.00000000000E+00 0. -1.
<mgrwt>
<rscale>  0 0.11174137E+04</rscale>
<asrwt>0</asrwt>
<pdfrwt beam="1">  1        2 0.51995422E+00 0.11174137E+04</pdfrwt>
<pdfrwt beam="2">  1       -2 0.14209415E-01 0.11174137E+04</pdfrwt>
<totfact> 0.38605671E+01</totfact>
</mgrwt>
</event>
<event>
 6    1  0.2003386E-005  0.1780613E+04  0.7818608E-02  0.8716678E-01
          2   -1    0    0  501    0  0.00000000000E+00  0.00000000000E+00  0.25019948573E+04  0.25019948573E+04  0.00000000000E+00 0. -1.
         -2   -1    0    0    0  501 -0.00000000000E+00 -0.00000000000E+00 -0.31680533828E+03  0.31680533828E+03  0.00000000000E+00 0.  1.
         23    2    1    2    0    0  0.68464724173E+03 -0.14162247537E+03  0.22872361754E+03  0.74116750553E+03  0.90642191561E+02 0.  0.
         11    1    3    3    0    0  0.24890761705E+03 -0.23686825442E+02  0.11741820801E+03  0.27623016327E+03  0.00000000000E+00 0.  1.
        -11    1    3    3    0    0  0.43573962468E+03 -0.11793564992E+03  0.11130540953E+03  0.46493734226E+03  0.00000000000E+00 0. -1.
         22    1    1    2    0    0 -0.68464724173E+03  0.14162247537E+03  0.19564659015E+04  0.20776326901E+04  0.00000000000E+00 0. -1.
<mgrwt>
<rscale>  0 0.17806126E+04</rscale>
<asrwt>0</asrwt>
<pdfrwt beam="1">  1        2 0.38492227E+00 0.17806126E+04</pdfrwt>
<pdfrwt beam="2">  1       -2 0.48739284E-01 0.17806126E+04</pdfrwt>
<totfact> 0.13103056E+01</totfact>
</mgrwt>
</event>
<event>
 6    1  0.2003386E-005  0.3609779E+04  0.7818608E-02  0.8088255E-01
         -2   -1    0    0    0  501 -0.00000000000E+00  0.00000000000E+00  0.17485924549E+04  0.17485924549E+04  0.00000000000E+00 0. -1.
          2   -1    0    0  501    0  0.00000000000E+00 -0.00000000000E+00 -0.18629991905E+04  0.18629991905E+04  0.00000000000E+00 0.  1.
         23    2    1    2    0    0  0.15918629763E+04 -0.71580431874E+03  0.39786711288E+03  0.17925732140E+04  0.92827419133E+02 0.  0.
         13    1    3    3    0    0  0.10259841990E+04 -0.50205475538E+03  0.28459197613E+03  0.11771555321E+04  0.00000000000E+00 0. -1.
        -13    1    3    3    0    0  0.56587877737E+03 -0.21374956336E+03  0.11327513675E+03  0.61541768183E+03  0.00000000000E+00 0.  1.
         22    1    1    2    0    0 -0.15918629763E+04  0.71580431874E+03 -0.51227384844E+03  0.18190184314E+04  0.00000000000E+00 0.  1.
<mgrwt>
<rscale>  0 0.36097791E+04</rscale>
<asrwt>0</asrwt>
<pdfrwt beam="1">  1        2 0.28661526E+00 0.36097791E+04</pdfrwt>
<pdfrwt beam="2">  1       -2 0.26901423E+00 0.36097791E+04</pdfrwt>
<totfact> 0.31863425E-01</totfact>
</mgrwt>
</event>
<event>
 6    1  0.2003386E-005  0.2327166E+04  0.7818608E-02  0.8467286E-01
          2   -1    0    0  501    0  0.00000000000E+00  0.00000000000E+00  0.23617221162E+04  0.23617221162E+04  0.00000000000E+00 0. -1.
         -2   -1    0    0    0  501 -0.00000000000E+00 -0.00000000000E+00 -0.57327876780E+03  0.57327876780E+03  0.00000000000E+00 0.  1.
         23    2    1    2    0    0  0.37754298974E+03  0.97013047329E+03  0.24495973829E+03  0.10732722521E+04  0.90643308285E+02 0.  0.
         11    1    3    3    0    0  0.17624576096E+03  0.47391859137E+03  0.73126457882E+02  0.51089028015E+03  0.00000000000E+00 0. -1.
        -11    1    3    3    0    0  0.20129722879E+03  0.49621188192E+03  0.17183328041E+03  0.56238197191E+03  0.00000000000E+00 0.  1.
         22    1    1    2    0    0 -0.37754298974E+03 -0.97013047329E+03  0.15434836101E+04  0.18617286319E+04  0.00000000000E+00 0. -1.
<mgrwt>
<rscale>  0 0.23271658E+04</rscale>
<asrwt>0</asrwt>
<pdfrwt beam="1">  1        2 0.36334186E+00 0.23271658E+04</pdfrwt>
<pdfrwt beam="2">  1       -2 0.88196735E-01 0.23271658E+04</pdfrwt>
<totfact> 0.41875072E+00</totfact>
</mgrwt>
</event>
<event>
 6    1  0.2003386E-005  0.2687871E+04  0.7818608E-02  0.8338951E-01
         -1   -1    0    0    0  501 -0.00000000000E+00  0.00000000000E+00  0.24598846404E+04  0.24598846404E+04  0.00000000000E+00 0.  1.
          1   -1    0    0  501    0  0.00000000000E+00 -0.00000000000E+00 -0.73424699731E+03  0.73424699731E+03  0.00000000000E+00 0. -1.
         23    2    1    2    0    0 -0.48856567585E+02  0.96497750156E+03 -0.24360450996E+03  0.10006223033E+04  0.91286877064E+02 0.  0.
         11    1    3    3    0    0 -0.48150098605E+02  0.22403657430E+03 -0.70143061556E+02  0.23964738201E+03  0.00000000000E+00 0.  1.
        -11    1    3    3    0    0 -0.70646898096E+00  0.74094092726E+03 -0.17346144840E+03  0.76097492132E+03  0.00000000000E+00 0. -1.
         22    1    1    2    0    0  0.48856567585E+02 -0.96497750156E+03  0.19692421531E+04  0.21935093344E+04  0.00000000000E+00 0.  1.
<mgrwt>
<rscale>  0 0.26878712E+04</rscale>
<asrwt>0</asrwt>
<pdfrwt beam="1">  1        1 0.11296108E+00 0.26878712E+04</pdfrwt>
<pdfrwt beam="2">  1       -1 0.37844379E+00 0.26878712E+04</pdfrwt>
<totfact> 0.22177123E-01</totfact>
</mgrwt>
</event>
<event>
 6    1  0.2003386E-005  0.3946932E+04  0.7818608E-02  0.8015338E-01
         -2   -1    0    0    0  501 -0.00000000000E+00  0.00000000000E+00  0.15110224561E+04  0.15110224561E+04  0.00000000000E+00 0.  1.
          2   -1    0    0  501    0  0.00000000000E+00 -0.00000000000E+00 -0.25774385960E+04  0.25774385960E+04  0.00000000000E+00 0. -1.
         23    2    1    2    0    0  0.19640351004E+04 -0.17710199385E+02 -0.72082589585E+03  0.20941741762E+04  0.90708222232E+02 0.  0.
         11    1    3    3    0    0  0.17062987020E+04  0.61941841541E+01 -0.60237464955E+03  0.18095161914E+04  0.00000000000E+00 0. -1.
        -11    1    3    3    0    0  0.25773639837E+03 -0.23904383539E+02 -0.11845124630E+03  0.28465798486E+03  0.00000000000E+00 0.  1.
         22    1    1    2    0    0 -0.19640351004E+04  0.17710199385E+02 -0.34559024406E+03  0.19942868759E+04  0.00000000000E+00 0.  1.
<mgrwt>
<rscale>  0 0.39469318E+04</rscale>
<asrwt>0</asrwt>
<pdfrwt beam="1">  1        2 0.39652901E+00 0.39469318E+04</pdfrwt>
<pdfrwt beam="2">  1       -2 0.23246499E+00 0.39469318E+04</pdfrwt>
<totfact> 0.20509816E-01</totfact>
</mgrwt>
</event>
<event>
 6    1  0.2003386E-005  0.6572964E+03  0.7818608E-02  0.9793183E-01
          2   -1    0    0  501    0  0.00000000000E+00  0.00000000000E+00  0.34854261136E+03  0.34854261136E+03  0.00000000000E+00 0. -1.
         -2   -1    0    0    0  501 -0.00000000000E+00 -0.00000000000E+00 -0.30988938344E+03  0.30988938344E+03  0.00000000000E+00 0.  1.
         23    2    1    2    0    0 -0.71306908868E+02  0.19397974552E+03 -0.23005882351E+03  0.31943496899E+03  0.79992626031E+02 0.  0.
         11    1    3    3    0    0 -0.39551643988E+02  0.60004580831E+02 -0.33104191619E+02  0.79125026165E+02  0.00000000000E+00 0. -1.
        -11    1    3    3    0    0 -0.31755264879E+02  0.13397516469E+03 -0.19695463189E+03  0.24030994283E+03  0.00000000000E+00 0.  1.
         22    1    1    2    0    0  0.71306908868E+02 -0.19397974552E+03  0.26871205142E+03  0.33899702580E+03  0.00000000000E+00 0. -1.
<mgrwt>
<rscale>  0 0.65729645E+03</rscale>
<asrwt>0</asrwt>
<pdfrwt beam="1">  1        2 0.53621940E-01 0.65729645E+03</pdfrwt>
<pdfrwt beam="2">  1       -2 0.47675290E-01 0.65729645E+03</pdfrwt>
<totfact> 0.39061095E+02</totfact>
</mgrwt>
</event>
<event>
 6    1  0.2003386E-005  0.1277133E+04  0.7818608E-02  0.9047898E-01
         -2   -1    0    0    0  501 -0.00000000000E+00  0.00000000000E+00  0.16044179498E+04  0.16044179498E+04  0.00000000000E+00 0.  1.
          2   -1    0    0  501    0  0.00000000000E+00 -0.00000000000E+00 -0.25415257632E+03  0.25415257632E+03  0.00000000000E+00 0. -1.
         23    2    1    2    0    0 -0.28428186777E+03  0.56741383133E+03  0.63161311259E+03  0.89980271877E+03  0.89079584492E+02 0.  0.
         13    1    3    3    0    0 -0.19986979714E+03  0.41849359537E+03  0.51291278856E+03  0.69149429053E+03  0.00000000000E+00 0. -1.
        -13    1    3    3    0    0 -0.84412070632E+02  0.14892023596E+03  0.11870032403E+03  0.20830842823E+03  0.00000000000E+00 0.  1.
         22    1    1    2    0    0  0.28428186777E+03 -0.56741383133E+03  0.71865226086E+03  0.95876780733E+03  0.00000000000E+00 0.  1.
<mgrwt>
<rscale>  0 0.12771327E+04</rscale>
<asrwt>0</asrwt>
<pdfrwt beam="1">  1        2 0.39100397E-01 0.12771327E+04</pdfrwt>
<pdfrwt beam="2">  1       -2 0.24683352E+00 0.12771327E+04</pdfrwt>
<totfact> 0.87339360E+00</totfact>
</mgrwt>
</event>
<event>
 6    1  0.2003386E-005  0.5315511E+04  0.7818608E-02  0.7781598E-01
          2   -1    0    0  501    0  0.00000000000E+00  0.00000000000E+00  0.34406947870E+04  0.34406947870E+04  0.00000000000E+00 0. -1.
         -2   -1    0    0    0  501 -0.00000000000E+00 -0.00000000000E+00 -0.20529763124E+04  0.20529763124E+04  0.00000000000E+00 0.  1.
         23    2    1    2    0    0 -0.12577338993E+04 -0.20444441214E+04 -0.48337921850E+03  0.24502104204E+04  0.90715534218E+02 0.  0.
         13    1    3    3    0    0 -0.74355206165E+03 -0.12804366419E+04 -0.32149011249E+03  0.15151711305E+04  0.00000000000E+00 0.  1.
        -13    1    3    3    0    0 -0.51418183768E+03 -0.76400747953E+03 -0.16188910601E+03  0.93503928988E+03  0.00000000000E+00 0. -1.
         22    1    1    2    0    0  0.12577338993E+04  0.20444441214E+04  0.18710976931E+04  0.30434606789E+04  0.00000000000E+00 0. -1.
<mgrwt>
<rscale>  0 0.53155112E+04</rscale>
<asrwt>0</asrwt>
<pdfrwt beam="1">  1        2 0.52933766E+00 0.53155112E+04</pdfrwt>
<pdfrwt beam="2">  1       -2 0.31584251E+00 0.53155112E+04</pdfrwt>
<totfact> 0.16095670E-02</totfact>
</mgrwt>
</event>
<event>
 6    1  0.2003386E-005  0.2713233E+04  0.7818608E-02  0.8330724E-01
         -2   -1    0    0    0  501 -0.00000000000E+00  0.00000000000E+00  0.97383932207E+03  0.97383932207E+03  0.00000000000E+00 0.  1.
          2   -1    0    0  501    0  0.00000000000E+00 -0.00000000000E+00 -0.18898485098E+04  0.18898485098E+04  0.00000000000E+00 0. -1.
         23    2    1    2    0    0 -0.76460819661E+03 -0.97191868804E+03  0.12619588975E+03  0.12464546842E+04  0.92044807848E+02 0.  0.
         11    1    3    3    0    0 -0.65901883266E+03 -0.80732098296E+03  0.78087772863E+02  0.10450697066E+04  0.00000000000E+00 0. -1.
        -11    1    3    3    0    0 -0.10558936396E+03 -0.16459770508E+03  0.48108116891E+02  0.20138497762E+03  0.00000000000E+00 0.  1.
         22    1    1    2    0    0  0.76460819661E+03  0.97191868804E+03 -0.10422050775E+04  0.16172331477E+04  0.00000000000E+00 0. -1.
<mgrwt>
<rscale>  0 0.27132333E+04</rscale>
<asrwt>0</asrwt>
<pdfrwt beam="1">  1        2 0.29074592E+00 0.27132333E+04</pdfrwt>
<pdfrwt beam="2">  1       -2 0.14982144E+00 0.27132333E+04</pdfrwt>
<totfact> 0.20264802E+00</totfact>
</mgrwt>
</event>
<event>
 6    1  0.2003386E-005  0.2279788E+04  0.7818608E-02  0.8485933E-01
         -2   -1    0    0    0  501 -0.00000000000E+00  0.00000000000E+00  0.46472700947E+03  0.46472700947E+03  0.00000000000E+00 0.  1.
          2   -1    0    0  501    0  0.00000000000E+00 -0.00000000000E+00 -0.27959603547E+04  0.27959603547E+04  0.00000000000E+00 0. -1.
         23    2    1    2    0    0 -0.80512253043E+03 -0.73923163463E+03 -0.71388938056E+03  0.13086404388E+04  0.90642439410E+02 0.  0.
         13    1    3    3    0    0 -0.21469580412E+03 -0.21466255833E+03 -0.15324666525E+03  0.34008652232E+03  0.00000000000E+00 0. -1.
        -13    1    3    3    0    0 -0.59042672631E+03 -0.52456907630E+03 -0.56064271531E+03  0.96855391651E+03  0.00000000000E+00 0.  1.
         22    1    1    2    0    0  0.80512253043E+03  0.73923163463E+03 -0.16173439647E+04  0.19520469254E+04  0.00000000000E+00 0. -1.
<mgrwt>
<rscale>  0 0.22797880E+04</rscale>
<asrwt>0</asrwt>
<pdfrwt beam="1">  1        2 0.43014776E+00 0.22797880E+04</pdfrwt>
<pdfrwt beam="2">  1       -2 0.71496461E-01 0.22797880E+04</pdfrwt>
<totfact> 0.37493295E+00</totfact>
</mgrwt>
</event>
<event>
 6    1  0.2003386E-005  0.3724202E+04  0.7818608E-02  0.8062619E-01
          2   -1    0    0  501    0  0.00000000000E+00  0.00000000000E+00  0.32141005530E+04  0.32141005530E+04  0.00000000000E+00 0. -1.
         -2   -1    0    0    0  501 -0.00000000000E+00 -0.00000000000E+00 -0.10788149763E+04  0.10788149763E+04  0.00000000000E+00 0.  1.
         23    2    1    2    0    0 -0.50767233862E+03 -0.41731723440E+03  0.30753258332E+04  0.31459366448E+04  0.86043684290E+02 0.  0.
         11    1    3    3    0    0 -0.28016829024E+03 -0.26725984782E+03  0.19510460443E+04  0.19890959666E+04  0.00000000000E+00 0.  1.
        -11    1    3    3    0    0 -0.22750404838E+03 -0.15005738658E+03  0.11242797888E+04  0.11568406783E+04  0.00000000000E+00 0. -1.
         22    1    1    2    0    0  0.50767233862E+03  0.41731723440E+03 -0.94004025650E+03  0.11469788845E+04  0.00000000000E+00 0.  1.
<mgrwt>
<rscale>  0 0.37242018E+04</rscale>
<asrwt>0</asrwt>
<pdfrwt beam="1">  1        2 0.49447700E+00 0.37242018E+04</pdfrwt>
<pdfrwt beam="2">  1       -2 0.16597154E+00 0.37242018E+04</pdfrwt>
<totfact> 0.23307004E-01</totfact>
</mgrwt>
</event>
<event>
 6    1  0.2003386E-005  0.2416711E+04  0.7818608E-02  0.8433274E-01
         -2   -1    0    0    0  501 -0.00000000000E+00  0.00000000000E+00  0.76746810346E+03  0.76746810346E+03  0.00000000000E+00 0.  1.
          2   -1    0    0  501    0  0.00000000000E+00 -0.00000000000E+00 -0.19025190615E+04  0.19025190615E+04  0.00000000000E+00 0. -1.
         23    2    1    2    0    0 -0.82322917212E+03 -0.23882993714E+03 -0.15066402946E+04  0.17357363187E+04  0.89830851519E+02 0.  0.
         13    1    3    3    0    0 -0.68644188405E+03 -0.16480760264E+03 -0.12141905322E+04  0.14045008560E+04  0.00000000000E+00 0. -1.
        -13    1    3    3    0    0 -0.13678728807E+03 -0.74022334501E+02 -0.29244976236E+03  0.33123546260E+03  0.00000000000E+00 0.  1.
         22    1    1    2    0    0  0.82322917212E+03  0.23882993714E+03  0.37158933659E+03  0.93425084628E+03  0.00000000000E+00 0.  1.
<mgrwt>
<rscale>  0 0.24167107E+04</rscale>
<asrwt>0</asrwt>
<pdfrwt beam="1">  1        2 0.29269524E+00 0.24167107E+04</pdfrwt>
<pdfrwt beam="2">  1       -2 0.11807202E+00 0.24167107E+04</pdfrwt>
<totfact> 0.37572705E+00</totfact>
</mgrwt>
</event>
<event>
 6    1  0.2003386E-005  0.9186113E+03  0.7818608E-02  0.9402611E-01
          2   -1    0    0  501    0  0.00000000000E+00  0.00000000000E+00  0.57309290453E+03  0.57309290453E+03  0.00000000000E+00 0. -1.
         -2   -1    0    0    0  501 -0.00000000000E+00 -0.00000000000E+00 -0.36811076194E+03  0.36811076194E+03  0.00000000000E+00 0.  1.
         23    2    1    2    0    0  0.34061911378E+03 -0.10898028338E+03  0.39151761031E+03  0.53785076447E+03  0.89996237775E+02 0.  0.
         13    1    3    3    0    0  0.92124486136E+02 -0.72053634239E+02  0.13887343150E+03  0.18156122143E+03  0.00000000000E+00 0.  1.
        -13    1    3    3    0    0  0.24849462764E+03 -0.36926649143E+02  0.25264417882E+03  0.35628954303E+03  0.00000000000E+00 0. -1.
         22    1    1    2    0    0 -0.34061911378E+03  0.10898028338E+03 -0.18653546772E+03  0.40335290200E+03  0.00000000000E+00 0.  1.
<mgrwt>
<rscale>  0 0.91861127E+03</rscale>
<asrwt>0</asrwt>
<pdfrwt beam="1">  1        2 0.88168139E-01 0.91861127E+03</pdfrwt>
<pdfrwt beam="2">  1       -2 0.56632425E-01 0.91861127E+03</pdfrwt>
<totfact> 0.15375153E+02</totfact>
</mgrwt>
</event>
<event>
 6    1  0.2003386E-005  0.1814545E+04  0.7818608E-02  0.8698603E-01
          2   -1    0    0  501    0  0.00000000000E+00  0.00000000000E+00  0.27499802154E+04  0.27499802154E+04  0.00000000000E+00 0. -1.
         -2   -1    0    0    0  501 -0.00000000000E+00 -0.00000000000E+00 -0.29932687988E+03  0.29932687988E+03  0.00000000000E+00 0.  1.
         23    2    1    2    0    0 -0.60400934719E+03 -0.65115140736E+03  0.15217151551E+04  0.17641022129E+04  0.87259139135E+02 0.  0.
         13    1    3    3    0    0 -0.18865477549E+03 -0.23598410933E+03  0.44962433440E+03  0.54170210103E+03  0.00000000000E+00 0.  1.
        -13    1    3    3    0    0 -0.41535457170E+03 -0.41516729802E+03  0.10720908207E+04  0.12224001118E+04  0.00000000000E+00 0. -1.
         22    1    1    2    0    0  0.60400934719E+03  0.65115140736E+03  0.92893818045E+03  0.12852048825E+04  0.00000000000E+00 0. -1.
<mgrwt>
<rscale>  0 0.18145446E+04</rscale>
<asrwt>0</asrwt>
<pdfrwt beam="1">  1        2 0.42307386E+00 0.18145446E+04</pdfrwt>
<pdfrwt beam="2">  1       -2 0.46050291E-01 0.18145446E+04</pdfrwt>
<totfact> 0.10474524E+01</totfact>
</mgrwt>
</event>
<event>
 6    1  0.2003386E-005  0.2615770E+04  0.7818608E-02  0.8362864E-01
          2   -1    0    0  501    0  0.00000000000E+00  0.00000000000E+00  0.42083712715E+04  0.42083712715E+04  0.00000000000E+00 0. -1.
         -2   -1    0    0    0  501 -0.00000000000E+00 -0.00000000000E+00 -0.40646684811E+03  0.40646684811E+03  0.00000000000E+00 0.  1.
         23    2    1    2    0    0  0.89694778785E+03 -0.47885634604E+03  0.45637043064E+03  0.11182088240E+04  0.91094839916E+02 0.  0.
         11    1    3    3    0    0  0.62080085852E+03 -0.29052238889E+03  0.28147947777E+03  0.74096400776E+03  0.00000000000E+00 0.  1.
        -11    1    3    3    0    0  0.27614692933E+03 -0.18833395715E+03  0.17489095287E+03  0.37724481626E+03  0.00000000000E+00 0. -1.
         22    1    1    2    0    0 -0.89694778785E+03  0.47885634604E+03  0.33455339928E+04  0.34966292956E+04  0.00000000000E+00 0. -1.
<mgrwt>
<rscale>  0 0.26157702E+04</rscale>
<asrwt>0</asrwt>
<pdfrwt beam="1">  1        2 0.64744170E+00 0.26157702E+04</pdfrwt>
<pdfrwt beam="2">  1       -2 0.62533364E-01 0.26157702E+04</pdfrwt>
<totfact> 0.48057610E-01</totfact>
</mgrwt>
</event>
<event>
 6    1  0.2003386E-005  0.7754503E+03  0.7818608E-02  0.9596248E-01
         -2   -1    0    0    0  501 -0.00000000000E+00  0.00000000000E+00  0.11661639089E+04  0.11661639089E+04  0.00000000000E+00 0. -1.
          2   -1    0    0  501    0  0.00000000000E+00 -0.00000000000E+00 -0.12891050625E+03  0.12891050625E+03  0.00000000000E+00 0.  1.
         23    2    1    2    0    0 -0.18498403690E+03  0.25824578854E+02 -0.32115188831E+02  0.20951686844E+03  0.89330454080E+02 0.  0.
         11    1    3    3    0    0 -0.21165714655E+02  0.33014429700E+02  0.94827126074E+01  0.40346770424E+02  0.00000000000E+00 0. -1.
        -11    1    3    3    0    0 -0.16381832225E+03 -0.71898508458E+01 -0.41597901439E+02  0.16917009802E+03  0.00000000000E+00 0.  1.
         22    1    1    2    0    0  0.18498403690E+03 -0.25824578854E+02  0.10693685915E+04  0.10855575467E+04  0.00000000000E+00 0. -1.
<mgrwt>
<rscale>  0 0.77545027E+03</rscale>
<asrwt>0</asrwt>
<pdfrwt beam="1">  1        2 0.19832386E-01 0.77545027E+03</pdfrwt>
<pdfrwt beam="2">  1       -2 0.17940983E+00 0.77545027E+03</pdfrwt>
<totfact> 0.53189625E+01</totfact>
</mgrwt>
</event>
<event>
 6    1  0.2003386E-005  0.2412294E+04  0.7818608E-02  0.8434915E-01
          1   -1    0    0  501    0  0.00000000000E+00  0.00000000000E+00  0.87657565799E+03  0.87657565799E+03  0.00000000000E+00 0. -1.
         -1   -1    0    0    0  501 -0.00000000000E+00 -0.00000000000E+00 -0.16596295192E+04  0.16596295192E+04  0.00000000000E+00 0.  1.
         23    2    1    2    0    0 -0.71595648337E+03 -0.24674481041E+03  0.59269297076E+03  0.96580521756E+03  0.89543693950E+02 0.  0.
         13    1    3    3    0    0 -0.40881858531E+03 -0.10450529135E+03  0.29295205137E+03  0.51368754707E+03  0.00000000000E+00 0.  1.
        -13    1    3    3    0    0 -0.30713789806E+03 -0.14223951906E+03  0.29974091939E+03  0.45211767048E+03  0.00000000000E+00 0. -1.
         22    1    1    2    0    0  0.71595648337E+03  0.24674481041E+03 -0.13757468319E+04  0.15703999596E+04  0.00000000000E+00 0.  1.
<mgrwt>
<rscale>  0 0.24122942E+04</rscale>
<asrwt>0</asrwt>
<pdfrwt beam="1">  1        1 0.13485779E+00 0.24122942E+04</pdfrwt>
<pdfrwt beam="2">  1       -1 0.25532762E+00 0.24122942E+04</pdfrwt>
<totfact> 0.10960182E+00</totfact>
</mgrwt>
</event>
<event>
 6    1  0.2003386E-005  0.3587546E+04  0.7818608E-02  0.8093350E-01
          1   -1    0    0  501    0  0.00000000000E+00  0.00000000000E+00  0.18688318971E+04  0.18688318971E+04  0.00000000000E+00 0. -1.
         -1   -1    0    0    0  501 -0.00000000000E+00 -0.00000000000E+00 -0.17217285798E+04  0.17217285798E+04  0.00000000000E+00 0.  1.
         23    2    1    2    0    0  0.11807167357E+04 -0.12838861833E+04  0.48741444218E+03  0.18134089911E+04  0.91780110944E+02 0.  0.
         13    1    3    3    0    0  0.15103853883E+03 -0.19344554151E+03  0.94855120874E+02  0.26311843664E+03  0.00000000000E+00 0. -1.
        -13    1    3    3    0    0  0.10296781969E+04 -0.10904406418E+04  0.39255932130E+03  0.15502905544E+04  0.00000000000E+00 0.  1.
         22    1    1    2    0    0 -0.11807167357E+04  0.12838861833E+04 -0.34031112492E+03  0.17771514858E+04  0.00000000000E+00 0.  1.
<mgrwt>
<rscale>  0 0.35875458E+04</rscale>
<asrwt>0</asrwt>
<pdfrwt beam="1">  1        1 0.28751260E+00 0.35875458E+04</pdfrwt>
<pdfrwt beam="2">  1       -1 0.26488132E+00 0.35875458E+04</pdfrwt>
<totfact> 0.16525447E-01</totfact>
</mgrwt>
</event>
<event>
 6    1  0.2003386E-005  0.2696639E+04  0.7818608E-02  0.8336096E-01
         -1   -1    0    0    0  501 -0.00000000000E+00  0.00000000000E+00  0.12468328930E+04  0.12468328930E+04  0.00000000000E+00 0.  1.
          1   -1    0    0  501    0  0.00000000000E+00 -0.00000000000E+00 -0.14580669821E+04  0.14580669821E+04  0.00000000000E+00 0. -1.
         23    2    1    2    0    0 -0.38817451031E+03 -0.59145461551E+03 -0.12552012326E+04  0.14438029678E+04  0.92405967953E+02 0.  0.
         11    1    3    3    0    0 -0.40515589553E+02 -0.10560145837E+03 -0.15530085490E+03  0.19212375319E+03  0.00000000000E+00 0. -1.
        -11    1    3    3    0    0 -0.34765892076E+03 -0.48585315714E+03 -0.10999003777E+04  0.12516792146E+04  0.00000000000E+00 0.  1.
         22    1    1    2    0    0  0.38817451031E+03  0.59145461551E+03  0.10439671436E+04  0.12610969073E+04  0.00000000000E+00 0.  1.
<mgrwt>
<rscale>  0 0.26966393E+04</rscale>
<asrwt>0</asrwt>
<pdfrwt beam="1">  1        1 0.22431800E+00 0.26966393E+04</pdfrwt>
<pdfrwt beam="2">  1       -1 0.19182045E+00 0.26966393E+04</pdfrwt>
<totfact> 0.10484995E+00</totfact>
</mgrwt>
</event>
<event>
 6    1  0.2003386E-005  0.2972618E+04  0.7818608E-02  0.8251594E-01
         -1   -1    0    0    0  501 -0.00000000000E+00  0.00000000000E+00  0.13078832875E+04  0.13078832875E+04  0.00000000000E+00 0.  1.
          1   -1    0    0  501    0  0.00000000000E+00 -0.00000000000E+00 -0.16890757809E+04  0.16890757809E+04  0.00000000000E+00 0. -1.
         23    2    1    2    0    0 -0.10341217889E+04 -0.96372264925E+03 -0.65062625620E+03  0.15579442069E+04  0.75540766878E+02 0.  0.
         11    1    3    3    0    0 -0.33862089272E+03 -0.26803841908E+03 -0.19883533184E+03  0.47544105027E+03  0.00000000000E+00 0.  1.
        -11    1    3    3    0    0 -0.69550089622E+03 -0.69568423016E+03 -0.45179092436E+03  0.10825031566E+04  0.00000000000E+00 0. -1.
         22    1    1    2    0    0  0.10341217889E+04  0.96372264925E+03  0.26943376279E+03  0.14390148615E+04  0.00000000000E+00 0.  1.
<mgrwt>
<rscale>  0 0.29726177E+04</rscale>
<asrwt>0</asrwt>
<pdfrwt beam="1">  1        1 0.25985781E+00 0.29726177E+04</pdfrwt>
<pdfrwt beam="2">  1       -1 0.20121281E+00 0.29726177E+04</pdfrwt>
<totfact> 0.61065767E-01</totfact>
</mgrwt>
</event>
<event>
 6    1  0.2003386E-005  0.1651977E+04  0.7818608E-02  0.8789238E-01
          2   -1    0    0  501    0  0.00000000000E+00  0.00000000000E+00  0.12875997514E+04  0.12875997514E+04  0.00000000000E+00 0.  1.
         -2   -1    0    0    0  501 -0.00000000000E+00 -0.00000000000E+00 -0.52986756454E+03  0.52986756454E+03  0.00000000000E+00 0. -1.
         23    2    1    2    0    0 -0.44955110611E+03  0.68847128192E+03  0.42878224285E+03  0.93186189097E+03  0.91779458660E+02 0.  0.
         13    1    3    3    0    0 -0.30018637763E+03  0.52510821402E+03  0.29193180002E+03  0.67162092999E+03  0.00000000000E+00 0.  1.
        -13    1    3    3    0    0 -0.14936472848E+03  0.16336306790E+03  0.13685044283E+03  0.26024096098E+03  0.00000000000E+00 0. -1.
         22    1    1    2    0    0  0.44955110611E+03 -0.68847128192E+03  0.32894994396E+03  0.88560542493E+03  0.00000000000E+00 0. -1.
<mgrwt>
<rscale>  0 0.16519774E+04</rscale>
<asrwt>0</asrwt>
<pdfrwt beam="1">  1        2 0.19809227E+00 0.16519774E+04</pdfrwt>
<pdfrwt beam="2">  1       -2 0.81518087E-01 0.16519774E+04</pdfrwt>
<totfact> 0.21273495E+01</totfact>
</mgrwt>
</event>
<event>
 6    1  0.2003386E-005  0.1191938E+04  0.7818608E-02  0.9119942E-01
         -2   -1    0    0    0  501 -0.00000000000E+00  0.00000000000E+00  0.48965606866E+03  0.48965606866E+03  0.00000000000E+00 0.  1.
          2   -1    0    0  501    0  0.00000000000E+00 -0.00000000000E+00 -0.72536486625E+03  0.72536486625E+03  0.00000000000E+00 0. -1.
         23    2    1    2    0    0 -0.41918008170E+03  0.22366234627E+03  0.24209116903E+03  0.54120375337E+03  0.92501797353E+02 0.  0.
         13    1    3    3    0    0 -0.15118167649E+03  0.13100937121E+03  0.88977094275E+02  0.21894354970E+03  0.00000000000E+00 0.  1.
        -13    1    3    3    0    0 -0.26799840521E+03  0.92652975056E+02  0.15311407475E+03  0.32226020367E+03  0.00000000000E+00 0. -1.
         22    1    1    2    0    0  0.41918008170E+03 -0.22366234627E+03 -0.47779996662E+03  0.67381718154E+03  0.00000000000E+00 0. -1.
<mgrwt>
<rscale>  0 0.11919384E+04</rscale>
<asrwt>0</asrwt>
<pdfrwt beam="1">  1        2 0.11159459E+00 0.11919384E+04</pdfrwt>
<pdfrwt beam="2">  1       -2 0.75331703E-01 0.11919384E+04</pdfrwt>
<totfact> 0.61153298E+01</totfact>
</mgrwt>
</event>
<event>
 6    1  0.2003386E-005  0.1399905E+04  0.7818608E-02  0.8953887E-01
         -2   -1    0    0    0  501 -0.00000000000E+00  0.00000000000E+00  0.16570116814E+03  0.16570116814E+03  0.00000000000E+00 0.  1.
          2   -1    0    0  501    0  0.00000000000E+00 -0.00000000000E+00 -0.29567302153E+04  0.29567302153E+04  0.00000000000E+00 0. -1.
         23    2    1    2    0    0  0.53937398247E+03  0.38988772736E+03 -0.18638186868E+04  0.19810919137E+04  0.89265559788E+02 0.  0.
         11    1    3    3    0    0  0.17240567422E+03  0.17192597866E+03 -0.62103313085E+03  0.66705652554E+03  0.00000000000E+00 0. -1.
        -11    1    3    3    0    0  0.36696830825E+03  0.21796174870E+03 -0.12427855560E+04  0.13140353881E+04  0.00000000000E+00 0.  1.
         22    1    1    2    0    0 -0.53937398247E+03 -0.38988772736E+03 -0.92721036030E+03  0.11413394697E+04  0.00000000000E+00 0. -1.
<mgrwt>
<rscale>  0 0.13999052E+04</rscale>
<asrwt>0</asrwt>
<pdfrwt beam="1">  1        2 0.45488156E+00 0.13999052E+04</pdfrwt>
<pdfrwt beam="2">  1       -2 0.25492488E-01 0.13999052E+04</pdfrwt>
<totfact> 0.25187278E+01</totfact>
</mgrwt>
</event>
<event>
 6    1  0.2003386E-005  0.3579302E+04  0.7818608E-02  0.8095249E-01
          2   -1    0    0  501    0  0.00000000000E+00  0.00000000000E+00  0.12411662707E+04  0.12411662707E+04  0.00000000000E+00 0. -1.
         -2   -1    0    0    0  501 -0.00000000000E+00 -0.00000000000E+00 -0.25805173059E+04  0.25805173059E+04  0.00000000000E+00 0.  1.
         23    2    1    2    0    0 -0.13319194905E+04  0.18537493154E+03 -0.19290526574E+04  0.23533098511E+04  0.91922282130E+02 0.  0.
         13    1    3    3    0    0 -0.27307579051E+03  0.49236186056E+02 -0.33832114893E+03  0.43755661256E+03  0.00000000000E+00 0. -1.
        -13    1    3    3    0    0 -0.10588437000E+04  0.13613874548E+03 -0.15907315085E+04  0.19157532386E+04  0.00000000000E+00 0.  1.
         22    1    1    2    0    0  0.13319194905E+04 -0.18537493154E+03  0.58970162225E+03  0.14683737255E+04  0.00000000000E+00 0. -1.
<mgrwt>
<rscale>  0 0.35793022E+04</rscale>
<asrwt>0</asrwt>
<pdfrwt beam="1">  1        2 0.19094866E+00 0.35793022E+04</pdfrwt>
<pdfrwt beam="2">  1       -2 0.39700266E+00 0.35793022E+04</pdfrwt>
<totfact> 0.11339453E-01</totfact>
</mgrwt>
</event>
<event>
 6    1  0.2003386E-005  0.7952917E+03  0.7818608E-02  0.9566857E-01
          2   -1    0    0  501    0  0.00000000000E+00  0.00000000000E+00  0.15250288700E+04  0.15250288700E+04  0.00000000000E+00 0. -1.
         -2   -1    0    0    0  501 -0.00000000000E+00 -0.00000000000E+00 -0.10368474430E+03  0.10368474430E+03  0.00000000000E+00 0.  1.
         23    2    1    2    0    0 -0.24017346304E+03  0.20774574505E+03  0.25248331900E+03  0.41748400255E+03  0.98506238787E+02 0.  0.
         13    1    3    3    0    0 -0.15126319652E+03  0.69374925453E+02  0.14740454618E+03  0.22230954801E+03  0.00000000000E+00 0. -1.
        -13    1    3    3    0    0 -0.88910266520E+02  0.13837081959E+03  0.10507877282E+03  0.19517445454E+03  0.00000000000E+00 0.  1.
         22    1    1    2    0    0  0.24017346304E+03 -0.20774574505E+03  0.11688608067E+04  0.12112296118E+04  0.00000000000E+00 0. -1.
<mgrwt>
<rscale>  0 0.79529172E+03</rscale>
<asrwt>0</asrwt>
<pdfrwt beam="1">  1        2 0.23461981E+00 0.79529172E+03</pdfrwt>
<pdfrwt beam="2">  1       -2 0.15951500E-01 0.79529172E+03</pdfrwt>
<totfact> 0.39180913E+02</totfact>
</mgrwt>
</event>
<event>
 6    1  0.2003386E-005  0.1855349E+04  0.7818608E-02  0.8677407E-01
          2   -1    0    0  501    0  0.00000000000E+00  0.00000000000E+00  0.70533789614E+03  0.70533789614E+03  0.00000000000E+00 0. -1.
         -2   -1    0    0    0  501 -0.00000000000E+00 -0.00000000000E+00 -0.12200964469E+04  0.12200964469E+04  0.00000000000E+00 0.  1.
         23    2    1    2    0    0  0.39563525477E+02 -0.25088755809E+03  0.66544744360E+03  0.71820775765E+03  0.92153370061E+02 0.  0.
         11    1    3    3    0    0 -0.20977554701E+02 -0.15750674966E+03  0.38979572758E+03  0.42093840788E+03  0.00000000000E+00 0. -1.
        -11    1    3    3    0    0  0.60541080177E+02 -0.93380808432E+02  0.27565171602E+03  0.29726934978E+03  0.00000000000E+00 0.  1.
         22    1    1    2    0    0 -0.39563525477E+02  0.25088755809E+03 -0.11802059943E+04  0.12072265853E+04  0.00000000000E+00 0.  1.
<mgrwt>
<rscale>  0 0.18553493E+04</rscale>
<asrwt>0</asrwt>
<pdfrwt beam="1">  1        2 0.10851352E+00 0.18553493E+04</pdfrwt>
<pdfrwt beam="2">  1       -2 0.18770714E+00 0.18553493E+04</pdfrwt>
<totfact> 0.61216317E+00</totfact>
</mgrwt>
</event>
<event>
 6    1  0.2003386E-005  0.1838162E+04  0.7818608E-02  0.8686265E-01
          2   -1    0    0  501    0  0.00000000000E+00  0.00000000000E+00  0.18988493642E+04  0.18988493642E+04  0.00000000000E+00 0. -1.
         -2   -1    0    0    0  501 -0.00000000000E+00 -0.00000000000E+00 -0.44485351177E+03  0.44485351177E+03  0.00000000000E+00 0.  1.
         23    2    1    2    0    0  0.25185700399E+03 -0.82593283536E+03  0.11241001384E+04  0.14193500315E+04  0.73187373461E+02 0.  0.
         13    1    3    3    0    0  0.24551250616E+03 -0.72852774636E+03  0.10064236781E+04  0.12664587193E+04  0.00000000000E+00 0. -1.
        -13    1    3    3    0    0  0.63444978339E+01 -0.97405089002E+02  0.11767646029E+03  0.15289131212E+03  0.00000000000E+00 0.  1.
         22    1    1    2    0    0 -0.25185700399E+03  0.82593283536E+03  0.32989571399E+03  0.92435284448E+03  0.00000000000E+00 0.  1.
<mgrwt>
<rscale>  0 0.18381619E+04</rscale>
<asrwt>0</asrwt>
<pdfrwt beam="1">  1        2 0.29213067E+00 0.18381619E+04</pdfrwt>
<pdfrwt beam="2">  1       -2 0.68439003E-01 0.18381619E+04</pdfrwt>
<totfact> 0.13974682E+01</totfact>
</mgrwt>
</event>
<event>
 6    1  0.2003386E-005  0.1954585E+04  0.7818608E-02  0.8628153E-01
          2   -1    0    0  501    0  0.00000000000E+00  0.00000000000E+00  0.23609295439E+04  0.23609295439E+04  0.00000000000E+00 0. -1.
         -2   -1    0    0    0  501 -0.00000000000E+00 -0.00000000000E+00 -0.40454450018E+03  0.40454450018E+03  0.00000000000E+00 0.  1.
         23    2    1    2    0    0 -0.63535067625E+03 -0.26241983755E+03  0.21350576319E+01  0.69384964253E+03  0.94276799993E+02 0.  0.
         11    1    3    3    0    0 -0.37476508448E+03 -0.18256925625E+03  0.39577914115E+02  0.41874432910E+03  0.00000000000E+00 0. -1.
        -11    1    3    3    0    0 -0.26058559177E+03 -0.79850581296E+02 -0.37442856483E+02  0.27510531342E+03  0.00000000000E+00 0.  1.
         22    1    1    2    0    0  0.63535067625E+03  0.26241983755E+03  0.19542499861E+04  0.20716244015E+04  0.00000000000E+00 0. -1.
<mgrwt>
<rscale>  0 0.19545854E+04</rscale>
<asrwt>0</asrwt>
<pdfrwt beam="1">  1        2 0.36321992E+00 0.19545854E+04</pdfrwt>
<pdfrwt beam="2">  1       -2 0.62237617E-01 0.19545854E+04</pdfrwt>
<totfact> 0.93546998E+00</totfact>
</mgrwt>
</event>
<event>
 6    1  0.2003386E-005  0.2082761E+04  0.7818608E-02  0.8568876E-01
          2   -1    0    0  501    0  0.00000000000E+00  0.00000000000E+00  0.23840467300E+04  0.23840467300E+04  0.00000000000E+00 0. -1.
         -2   -1    0    0    0  501 -0.00000000000E+00 -0.00000000000E+00 -0.45488748077E+03  0.45488748077E+03  0.00000000000E+00 0.  1.
         23    2    1    2    0    0 -0.82168936277E+03 -0.43627321278E+03  0.33413157064E+03  0.99241829680E+03  0.87991160007E+02 0.  0.
         11    1    3    3    0    0 -0.59777755738E+03 -0.33373939909E+03  0.20683615652E+03  0.71519311396E+03  0.00000000000E+00 0. -1.
        -11    1    3    3    0    0 -0.22391180539E+03 -0.10253381369E+03  0.12729541412E+03  0.27722518284E+03  0.00000000000E+00 0.  1.
         22    1    1    2    0    0  0.82168936277E+03  0.43627321278E+03  0.15950276785E+04  0.18465159139E+04  0.00000000000E+00 0. -1.
<mgrwt>
<rscale>  0 0.20827607E+04</rscale>
<asrwt>0</asrwt>
<pdfrwt beam="1">  1        2 0.36677641E+00 0.20827607E+04</pdfrwt>
<pdfrwt beam="2">  1       -2 0.69982691E-01 0.20827607E+04</pdfrwt>
<totfact> 0.69698001E+00</totfact>
</mgrwt>
</event>
<event>
 6    1  0.2003386E-005  0.8563079E+03  0.7818608E-02  0.9481910E-01
          2   -1    0    0  501    0  0.00000000000E+00  0.00000000000E+00  0.64927913210E+03  0.64927913210E+03  0.00000000000E+00 0. -1.
         -2   -1    0    0    0  501 -0.00000000000E+00 -0.00000000000E+00 -0.28233744556E+03  0.28233744556E+03  0.00000000000E+00 0.  1.
         23    2    1    2    0    0  0.18521734032E+03  0.77533980369E+02  0.59111982384E+03  0.63066339440E+03  0.89424211644E+02 0.  0.
         11    1    3    3    0    0  0.22342064149E+02 -0.14048014317E+02  0.13845916484E+03  0.14095195943E+03  0.00000000000E+00 0. -1.
        -11    1    3    3    0    0  0.16287527617E+03  0.91581994686E+02  0.45266065900E+03  0.48971143497E+03  0.00000000000E+00 0.  1.
         22    1    1    2    0    0 -0.18521734032E+03 -0.77533980369E+02 -0.22417813731E+03  0.30095318326E+03  0.00000000000E+00 0.  1.
<mgrwt>
<rscale>  0 0.85630792E+03</rscale>
<asrwt>0</asrwt>
<pdfrwt beam="1">  1        2 0.99889097E-01 0.85630792E+03</pdfrwt>
<pdfrwt beam="2">  1       -2 0.43436530E-01 0.85630792E+03</pdfrwt>
<totfact> 0.22729341E+02</totfact>
</mgrwt>
</event>
<event>
 6    1  0.2003386E-005  0.5643359E+04  0.7818608E-02  0.7736265E-01
         -2   -1    0    0    0  501 -0.00000000000E+00  0.00000000000E+00  0.19068836708E+04  0.19068836708E+04  0.00000000000E+00 0.  1.
          2   -1    0    0  501    0  0.00000000000E+00 -0.00000000000E+00 -0.41753336407E+04  0.41753336407E+04  0.00000000000E+00 0. -1.
         23    2    1    2    0    0  0.91990941669E+03 -0.19284281715E+04  0.85062431884E+03  0.23015172486E+04  0.91385810685E+02 0.  0.
         13    1    3    3    0    0  0.51857070154E+03 -0.10355382886E+04  0.41813842554E+03  0.12312980397E+04  0.00000000000E+00 0.  1.
        -13    1    3    3    0    0  0.40133871515E+03 -0.89288988283E+03  0.43248589330E+03  0.10702192089E+04  0.00000000000E+00 0. -1.
         22    1    1    2    0    0 -0.91990941669E+03  0.19284281715E+04 -0.31190742887E+04  0.37807000629E+04  0.00000000000E+00 0. -1.
<mgrwt>
<rscale>  0 0.56433591E+04</rscale>
<asrwt>0</asrwt>
<pdfrwt beam="1">  1        2 0.64235902E+00 0.56433591E+04</pdfrwt>
<pdfrwt beam="2">  1       -2 0.29336672E+00 0.56433591E+04</pdfrwt>
<totfact> 0.58567842E-03</totfact>
</mgrwt>
</event>
<event>
 6    1  0.2003386E-005  0.3646414E+04  0.7818608E-02  0.8079942E-01
         -2   -1    0    0    0  501 -0.00000000000E+00  0.00000000000E+00  0.19058347275E+04  0.19058347275E+04  0.00000000000E+00 0. -1.
          2   -1    0    0  501    0  0.00000000000E+00 -0.00000000000E+00 -0.17441612996E+04  0.17441612996E+04  0.00000000000E+00 0.  1.
         23    2    1    2    0    0 -0.69503252398E+03 -0.34140183109E+03 -0.15700208478E+04  0.17530536231E+04  0.92769192520E+02 0.  0.
         13    1    3    3    0    0 -0.47461740280E+03 -0.19534424901E+03 -0.97197094905E+03  0.10991581235E+04  0.00000000000E+00 0.  1.
        -13    1    3    3    0    0 -0.22041512119E+03 -0.14605758208E+03 -0.59804989879E+03  0.65389549958E+03  0.00000000000E+00 0. -1.
         22    1    1    2    0    0  0.69503252398E+03  0.34140183109E+03  0.17316942757E+04  0.18969424040E+04  0.00000000000E+00 0. -1.
<mgrwt>
<rscale>  0 0.36464137E+04</rscale>
<asrwt>0</asrwt>
<pdfrwt beam="1">  1        2 0.26833251E+00 0.36464137E+04</pdfrwt>
<pdfrwt beam="2">  1       -2 0.29320534E+00 0.36464137E+04</pdfrwt>
<totfact> 0.26317931E-01</totfact>
</mgrwt>
</event>
<event>
 6    1  0.2003386E-005  0.2578051E+04  0.7818608E-02  0.8375695E-01
         -2   -1    0    0    0  501 -0.00000000000E+00  0.00000000000E+00  0.61268559577E+03  0.61268559577E+03  0.00000000000E+00 0.  1.
          2   -1    0    0  501    0  0.00000000000E+00 -0.00000000000E+00 -0.27119726115E+04  0.27119726115E+04  0.00000000000E+00 0. -1.
         23    2    1    2    0    0 -0.57810078546E+03 -0.84996763702E+03 -0.51085742178E+02  0.10329832829E+04  0.88313122130E+02 0.  0.
         11    1    3    3    0    0 -0.46350590912E+03 -0.64518140490E+03 -0.83787845579E+01  0.79446017964E+03  0.00000000000E+00 0. -1.
        -11    1    3    3    0    0 -0.11459487634E+03 -0.20478623212E+03 -0.42706957620E+02  0.23852310324E+03  0.00000000000E+00 0.  1.
         22    1    1    2    0    0  0.57810078546E+03  0.84996763702E+03 -0.20482012736E+04  0.22916749244E+04  0.00000000000E+00 0. -1.
<mgrwt>
<rscale>  0 0.25780509E+04</rscale>
<asrwt>0</asrwt>
<pdfrwt beam="1">  1        2 0.41722656E+00 0.25780509E+04</pdfrwt>
<pdfrwt beam="2">  1       -2 0.94259322E-01 0.25780509E+04</pdfrwt>
<totfact> 0.21968239E+00</totfact>
</mgrwt>
</event>
<event>
 6    1  0.2003386E-005  0.3066668E+04  0.7818608E-02  0.8224946E-01
          2   -1    0    0  501    0  0.00000000000E+00  0.00000000000E+00  0.81881270819E+03  0.81881270819E+03  0.00000000000E+00 0. -1.
         -2   -1    0    0    0  501 -0.00000000000E+00 -0.00000000000E+00 -0.28713684490E+04  0.28713684490E+04  0.00000000000E+00 0.  1.
         23    2    1    2    0    0 -0.88354154610E+03  0.65947914660E+03  0.25256599335E+03  0.11349620633E+04  0.93759776283E+02 0.  0.
         11    1    3    3    0    0 -0.54444897095E+03  0.35752885933E+03  0.17379680189E+03  0.67413418217E+03  0.00000000000E+00 0. -1.
        -11    1    3    3    0    0 -0.33909257515E+03  0.30195028726E+03  0.78769191461E+02  0.46082788113E+03  0.00000000000E+00 0.  1.
         22    1    1    2    0    0  0.88354154610E+03 -0.65947914660E+03 -0.23051217342E+04  0.25552190939E+04  0.00000000000E+00 0.  1.
<mgrwt>
<rscale>  0 0.30666679E+04</rscale>
<asrwt>0</asrwt>
<pdfrwt beam="1">  1        2 0.12597119E+00 0.30666679E+04</pdfrwt>
<pdfrwt beam="2">  1       -2 0.44174899E+00 0.30666679E+04</pdfrwt>
<totfact> 0.11173180E-01</totfact>
</mgrwt>
</event>
<event>
 6    1  0.2003386E-005  0.8488728E+03  0.7818608E-02  0.9491851E-01
          2   -1    0    0  501    0  0.00000000000E+00  0.00000000000E+00  0.11090160708E+04  0.11090160708E+04  0.00000000000E+00 0. -1.
         -2   -1    0    0    0  501 -0.00000000000E+00 -0.00000000000E+00 -0.16243791346E+03  0.16243791346E+03  0.00000000000E+00 0.  1.
         23    2    1    2    0    0  0.38496424957E+03 -0.16584495715E+02  0.72703695073E+03  0.82797809953E+03  0.92154688657E+02 0.  0.
         11    1    3    3    0    0  0.21463566346E+03 -0.55021132033E+02  0.40744284578E+03  0.46379463729E+03  0.00000000000E+00 0. -1.
        -11    1    3    3    0    0  0.17032858611E+03  0.38436636318E+02  0.31959410495E+03  0.36418346225E+03  0.00000000000E+00 0.  1.
         22    1    1    2    0    0 -0.38496424957E+03  0.16584495715E+02  0.21954120664E+03  0.44347588475E+03  0.00000000000E+00 0.  1.
<mgrwt>
<rscale>  0 0.84887280E+03</rscale>
<asrwt>0</asrwt>
<pdfrwt beam="1">  1        2 0.17061785E+00 0.84887280E+03</pdfrwt>
<pdfrwt beam="2">  1       -2 0.24990449E-01 0.84887280E+03</pdfrwt>
<totfact> 0.30959947E+02</totfact>
</mgrwt>
</event>
<event>
 6    1  0.2003386E-005  0.2346998E+04  0.7818608E-02  0.8459618E-01
          2   -1    0    0  501    0  0.00000000000E+00  0.00000000000E+00  0.22763571030E+04  0.22763571030E+04  0.00000000000E+00 0. -1.
         -2   -1    0    0    0  501 -0.00000000000E+00 -0.00000000000E+00 -0.60495753045E+03  0.60495753045E+03  0.00000000000E+00 0.  1.
         23    2    1    2    0    0 -0.20306364547E+03  0.46275515004E+03  0.21347398783E+04  0.21957043857E+04  0.92877489135E+02 0.  0.
         13    1    3    3    0    0 -0.18795190937E+03  0.38820655239E+03  0.16709571365E+04  0.17257253546E+04  0.00000000000E+00 0.  1.
        -13    1    3    3    0    0 -0.15111736101E+02  0.74548597648E+02  0.46378274189E+03  0.46997903108E+03  0.00000000000E+00 0. -1.
         22    1    1    2    0    0  0.20306364547E+03 -0.46275515004E+03 -0.46334030575E+03  0.68561024783E+03  0.00000000000E+00 0.  1.
<mgrwt>
<rscale>  0 0.23469975E+04</rscale>
<asrwt>0</asrwt>
<pdfrwt beam="1">  1        2 0.35020878E+00 0.23469975E+04</pdfrwt>
<pdfrwt beam="2">  1       -2 0.93070390E-01 0.23469975E+04</pdfrwt>
<totfact> 0.41282274E+00</totfact>
</mgrwt>
</event>
<event>
 6    1  0.2003386E-005  0.5330105E+03  0.7818608E-02  0.1005505E+00
          2   -1    0    0  501    0  0.00000000000E+00  0.00000000000E+00  0.46915282013E+03  0.46915282013E+03  0.00000000000E+00 0. -1.
         -2   -1    0    0    0  501 -0.00000000000E+00 -0.00000000000E+00 -0.15139002047E+03  0.15139002047E+03  0.00000000000E+00 0.  1.
         23    2    1    2    0    0  0.51271961108E+02  0.13655626301E+03 -0.84350083265E+02  0.19279151380E+03  0.93686734841E+02 0.  0.
         11    1    3    3    0    0  0.78315505952E+02  0.91123860730E+02 -0.52998046144E+02  0.13132276787E+03  0.00000000000E+00 0. -1.
        -11    1    3    3    0    0 -0.27043544844E+02  0.45432402280E+02 -0.31352037121E+02  0.61468745931E+02  0.00000000000E+00 0.  1.
         22    1    1    2    0    0 -0.51271961108E+02 -0.13655626301E+03  0.40211288292E+03  0.42775132679E+03  0.00000000000E+00 0. -1.
<mgrwt>
<rscale>  0 0.53301053E+03</rscale>
<asrwt>0</asrwt>
<pdfrwt beam="1">  1        2 0.72177356E-01 0.53301053E+03</pdfrwt>
<pdfrwt beam="2">  1       -2 0.23290773E-01 0.53301053E+03</pdfrwt>
<totfact> 0.10817308E+03</totfact>
</mgrwt>
</event>
<event>
 6    1  0.2003386E-005  0.1313966E+04  0.7818608E-02  0.9018563E-01
         -2   -1    0    0    0  501 -0.00000000000E+00  0.00000000000E+00  0.14725652552E+03  0.14725652552E+03  0.00000000000E+00 0.  1.
          2   -1    0    0  501    0  0.00000000000E+00 -0.00000000000E+00 -0.29311193467E+04  0.29311193467E+04  0.00000000000E+00 0. -1.
         23    2    1    2    0    0  0.28196792689E+03  0.50763296491E+03 -0.21027303077E+04  0.21833123885E+04  0.90449434609E+02 0.  0.
         11    1    3    3    0    0  0.89545136900E+02  0.21813364908E+03 -0.72373751198E+03  0.76118106036E+03  0.00000000000E+00 0. -1.
        -11    1    3    3    0    0  0.19242278999E+03  0.28949931583E+03 -0.13789927957E+04  0.14221313282E+04  0.00000000000E+00 0.  1.
         22    1    1    2    0    0 -0.28196792689E+03 -0.50763296491E+03 -0.68113251346E+03  0.89506348364E+03  0.00000000000E+00 0.  1.
<mgrwt>
<rscale>  0 0.13139657E+04</rscale>
<asrwt>0</asrwt>
<pdfrwt beam="1">  1        2 0.45094144E+00 0.13139657E+04</pdfrwt>
<pdfrwt beam="2">  1       -2 0.22654850E-01 0.13139657E+04</pdfrwt>
<totfact> 0.32573490E+01</totfact>
</mgrwt>
</event>
<event>
 6    1  0.2003386E-005  0.3593077E+04  0.7818608E-02  0.8092079E-01
          2   -1    0    0  501    0  0.00000000000E+00  0.00000000000E+00  0.22654730919E+04  0.22654730919E+04  0.00000000000E+00 0. -1.
         -2   -1    0    0    0  501 -0.00000000000E+00 -0.00000000000E+00 -0.14246698558E+04  0.14246698558E+04  0.00000000000E+00 0.  1.
         23    2    1    2    0    0  0.14531350763E+03 -0.29752433184E+03  0.22331560537E+04  0.22589605303E+04  0.79246286099E+02 0.  0.
         11    1    3    3    0    0  0.10960472468E+03 -0.27356171538E+03  0.18387003234E+04  0.18621675776E+04  0.00000000000E+00 0.  1.
        -11    1    3    3    0    0  0.35708782947E+02 -0.23962616462E+02  0.39445573026E+03  0.39679295269E+03  0.00000000000E+00 0. -1.
         22    1    1    2    0    0 -0.14531350763E+03  0.29752433184E+03 -0.13923528175E+04  0.14311824175E+04  0.00000000000E+00 0.  1.
<mgrwt>
<rscale>  0 0.35930774E+04</rscale>
<asrwt>0</asrwt>
<pdfrwt beam="1">  1        2 0.34853432E+00 0.35930774E+04</pdfrwt>
<pdfrwt beam="2">  1       -2 0.21917998E+00 0.35930774E+04</pdfrwt>
<totfact> 0.38686643E-01</totfact>
</mgrwt>
</event>
<event>
 6    1  0.2102483E-005  0.2892624E+04  0.7818608E-02  0.8275075E-01
         -2   -1    0    0    0  501 -0.00000000000E+00  0.00000000000E+00  0.95831143049E+03  0.95831143049E+03  0.00000000000E+00 0.  1.
          2   -1    0    0  501    0  0.00000000000E+00 -0.00000000000E+00 -0.21828174316E+04  0.21828174316E+04  0.00000000000E+00 0. -1.
         23    2    1    2    0    0 -0.12075106165E+04 -0.26096423079E+03 -0.14265889730E+04  0.18893214703E+04  0.90527904734E+02 0.  0.
         13    1    3    3    0    0 -0.72924407703E+03 -0.20133857431E+03 -0.85465062000E+03  0.11413859241E+04  0.00000000000E+00 0.  1.
        -13    1    3    3    0    0 -0.47826653944E+03 -0.59625656483E+02 -0.57193835302E+03  0.74793554624E+03  0.00000000000E+00 0. -1.
         22    1    1    2    0    0  0.12075106165E+04  0.26096423079E+03  0.20208297189E+03  0.12518073918E+04  0.00000000000E+00 0.  1.
<mgrwt>
<rscale>  0 0.28926243E+04</rscale>
<asrwt>0</asrwt>
<pdfrwt beam="1">  1        2 0.33581806E+00 0.28926243E+04</pdfrwt>
<pdfrwt beam="2">  1       -2 0.14743253E+00 0.28926243E+04</pdfrwt>
<totfact> 0.14300408E+00</totfact>
</mgrwt>
</event>
<event>
 6    1  0.2003386E-005  0.1149905E+04  0.7818608E-02  0.9157872E-01
         -2   -1    0    0    0  501 -0.00000000000E+00  0.00000000000E+00  0.51276947147E+03  0.51276947147E+03  0.00000000000E+00 0.  1.
          2   -1    0    0  501    0  0.00000000000E+00 -0.00000000000E+00 -0.64467597560E+03  0.64467597560E+03  0.00000000000E+00 0. -1.
         23    2    1    2    0    0 -0.24993136589E+03 -0.40211510782E+03 -0.38834346853E+03  0.61900123984E+03  0.90496617504E+02 0.  0.
         11    1    3    3    0    0 -0.15602839111E+03 -0.16556273742E+03 -0.18042023524E+03  0.29035726294E+03  0.00000000000E+00 0. -1.
        -11    1    3    3    0    0 -0.93902974782E+02 -0.23655237040E+03 -0.20792323329E+03  0.32864397690E+03  0.00000000000E+00 0.  1.
         22    1    1    2    0    0  0.24993136589E+03  0.40211510782E+03  0.25643696440E+03  0.53844420723E+03  0.00000000000E+00 0.  1.
<mgrwt>
<rscale>  0 0.11499046E+04</rscale>
<asrwt>0</asrwt>
<pdfrwt beam="1">  1        2 0.99180919E-01 0.11499046E+04</pdfrwt>
<pdfrwt beam="2">  1       -2 0.78887611E-01 0.11499046E+04</pdfrwt>
<totfact> 0.64175923E+01</totfact>
</mgrwt>
</event>
<event>
 6    1  0.2003386E-005  0.3540634E+04  0.7818608E-02  0.8104227E-01
          2   -1    0    0  501    0  0.00000000000E+00  0.00000000000E+00  0.24044638067E+04  0.24044638067E+04  0.00000000000E+00 0. -1.
         -2   -1    0    0    0  501 -0.00000000000E+00 -0.00000000000E+00 -0.13034183228E+04  0.13034183228E+04  0.00000000000E+00 0.  1.
         23    2    1    2    0    0 -0.15638044984E+04  0.71633034015E+03  0.11750653355E+03  0.17264779475E+04  0.91129864182E+02 0.  0.
         13    1    3    3    0    0 -0.23836285601E+03  0.13060330306E+03 -0.83779597985E+01  0.27192694627E+03  0.00000000000E+00 0.  1.
        -13    1    3    3    0    0 -0.13254416424E+04  0.58572703709E+03  0.12588449334E+03  0.14545510012E+04  0.00000000000E+00 0. -1.
         22    1    1    2    0    0  0.15638044984E+04 -0.71633034015E+03  0.98353895037E+03  0.19814041820E+04  0.00000000000E+00 0.  1.
<mgrwt>
<rscale>  0 0.35406339E+04</rscale>
<asrwt>0</asrwt>
<pdfrwt beam="1">  1        2 0.36991751E+00 0.35406339E+04</pdfrwt>
<pdfrwt beam="2">  1       -2 0.20052590E+00 0.35406339E+04</pdfrwt>
<totfact> 0.42705918E-01</totfact>
</mgrwt>
</event>
<event>
 6    1  0.2003386E-005  0.2737113E+04  0.7818608E-02  0.8323062E-01
          2   -1    0    0  501    0  0.00000000000E+00  0.00000000000E+00  0.57847826168E+03  0.57847826168E+03  0.00000000000E+00 0. -1.
         -2   -1    0    0    0  501 -0.00000000000E+00 -0.00000000000E+00 -0.32377145257E+04  0.32377145257E+04  0.00000000000E+00 0.  1.
         23    2    1    2    0    0  0.10064990871E+04  0.87999947623E+03 -0.93424966038E+03  0.16337587624E+04  0.94370415245E+02 0.  0.
         11    1    3    3    0    0  0.79103579039E+03  0.64253112690E+03 -0.72988097269E+03  0.12535190884E+04  0.00000000000E+00 0.  1.
        -11    1    3    3    0    0  0.21546329675E+03  0.23746834934E+03 -0.20436868769E+03  0.38023967401E+03  0.00000000000E+00 0. -1.
         22    1    1    2    0    0 -0.10064990871E+04 -0.87999947623E+03 -0.17249866036E+04  0.21824340250E+04  0.00000000000E+00 0.  1.
<mgrwt>
<rscale>  0 0.27371134E+04</rscale>
<asrwt>0</asrwt>
<pdfrwt beam="1">  1        2 0.88996655E-01 0.27371134E+04</pdfrwt>
<pdfrwt beam="2">  1       -2 0.49810993E+00 0.27371134E+04</pdfrwt>
<totfact> 0.76544825E-02</totfact>
</mgrwt>
</event>
<event>
 6    1  0.2003386E-005  0.2014322E+04  0.7818608E-02  0.8599954E-01
          2   -1    0    0  501    0  0.00000000000E+00  0.00000000000E+00  0.22580693420E+04  0.22580693420E+04  0.00000000000E+00 0. -1.
         -2   -1    0    0    0  501 -0.00000000000E+00 -0.00000000000E+00 -0.44922165356E+03  0.44922165356E+03  0.00000000000E+00 0.  1.
         23    2    1    2    0    0  0.66834671987E+02 -0.38597921872E+03  0.21503282797E+04  0.21876220385E+04  0.91277829672E+02 0.  0.
         11    1    3    3    0    0 -0.52663520632E+01 -0.17475618627E+03  0.11036125669E+04  0.11173755667E+04  0.00000000000E+00 0.  1.
        -11    1    3    3    0    0  0.72101024050E+02 -0.21122303245E+03  0.10467157128E+04  0.10702464719E+04  0.00000000000E+00 0. -1.
         22    1    1    2    0    0 -0.66834671987E+02  0.38597921872E+03 -0.34148059130E+03  0.51966895702E+03  0.00000000000E+00 0.  1.
<mgrwt>
<rscale>  0 0.20143224E+04</rscale>
<asrwt>0</asrwt>
<pdfrwt beam="1">  1        2 0.34739528E+00 0.20143224E+04</pdfrwt>
<pdfrwt beam="2">  1       -2 0.69111025E-01 0.20143224E+04</pdfrwt>
<totfact> 0.84949397E+00</totfact>
</mgrwt>
</event>
<event>
 6    1  0.2003386E-005  0.2461341E+04  0.7818608E-02  0.8416889E-01
          2   -1    0    0  501    0  0.00000000000E+00  0.00000000000E+00  0.17666250846E+04  0.17666250846E+04  0.00000000000E+00 0. -1.
         -2   -1    0    0    0  501 -0.00000000000E+00 -0.00000000000E+00 -0.85731245936E+03  0.85731245936E+03  0.00000000000E+00 0.  1.
         23    2    1    2    0    0 -0.56643721478E+03 -0.29582799745E+03 -0.66392821463E+03  0.92586450001E+03  0.89772355619E+02 0.  0.
         11    1    3    3    0    0 -0.15391034639E+03 -0.12699099525E+03 -0.20105065700E+03  0.28326043543E+03  0.00000000000E+00 0. -1.
        -11    1    3    3    0    0 -0.41252686839E+03 -0.16883700220E+03 -0.46287755763E+03  0.64260406458E+03  0.00000000000E+00 0.  1.
         22    1    1    2    0    0  0.56643721478E+03  0.29582799745E+03  0.15732408398E+04  0.16980730439E+04  0.00000000000E+00 0. -1.
<mgrwt>
<rscale>  0 0.24613409E+04</rscale>
<asrwt>0</asrwt>
<pdfrwt beam="1">  1        2 0.27178847E+00 0.24613409E+04</pdfrwt>
<pdfrwt beam="2">  1       -2 0.13189422E+00 0.24613409E+04</pdfrwt>
<totfact> 0.33733755E+00</totfact>
</mgrwt>
</event>
<event>
 6    1  0.2003386E-005  0.6851951E+03  0.7818608E-02  0.9742891E-01
         -2   -1    0    0    0  501 -0.00000000000E+00  0.00000000000E+00  0.17057604068E+03  0.17057604068E+03  0.00000000000E+00 0.  1.
          2   -1    0    0  501    0  0.00000000000E+00 -0.00000000000E+00 -0.68809823823E+03  0.68809823823E+03  0.00000000000E+00 0. -1.
         23    2    1    2    0    0  0.12171063730E+03  0.19712192067E+02  0.12948984981E+03  0.20001910419E+03  0.89654732665E+02 0.  0.
         13    1    3    3    0    0  0.57213315971E+02  0.93209051042E+01  0.12096378168E+03  0.13413604764E+03  0.00000000000E+00 0.  1.
        -13    1    3    3    0    0  0.64497321326E+02  0.10391286963E+02  0.85260681283E+01  0.65883056553E+02  0.00000000000E+00 0. -1.
         22    1    1    2    0    0 -0.12171063730E+03 -0.19712192067E+02 -0.64701204736E+03  0.65865517472E+03  0.00000000000E+00 0. -1.
<mgrwt>
<rscale>  0 0.68519508E+03</rscale>
<asrwt>0</asrwt>
<pdfrwt beam="1">  1        2 0.10586127E+00 0.68519508E+03</pdfrwt>
<pdfrwt beam="2">  1       -2 0.26242468E-01 0.68519508E+03</pdfrwt>
<totfact> 0.55275947E+02</totfact>
</mgrwt>
</event>
<event>
 6    1  0.2003386E-005  0.3055356E+04  0.7818608E-02  0.8228098E-01
         -2   -1    0    0    0  501 -0.00000000000E+00  0.00000000000E+00  0.16856187676E+04  0.16856187676E+04  0.00000000000E+00 0.  1.
          2   -1    0    0  501    0  0.00000000000E+00 -0.00000000000E+00 -0.13845362367E+04  0.13845362367E+04  0.00000000000E+00 0. -1.
         23    2    1    2    0    0  0.63554326619E+03 -0.13568286249E+04 -0.13916571222E+03  0.15085155849E+04  0.10655052350E+03 0.  0.
         11    1    3    3    0    0  0.45633503027E+03 -0.92575572670E+03 -0.14077380437E+03  0.10416729762E+04  0.00000000000E+00 0. -1.
        -11    1    3    3    0    0  0.17920823592E+03 -0.43107289817E+03  0.16080921412E+01  0.46684260872E+03  0.00000000000E+00 0.  1.
         22    1    1    2    0    0 -0.63554326619E+03  0.13568286249E+04  0.44024824319E+03  0.15616394194E+04  0.00000000000E+00 0. -1.
<mgrwt>
<rscale>  0 0.30553561E+04</rscale>
<asrwt>0</asrwt>
<pdfrwt beam="1">  1        2 0.21300558E+00 0.30553561E+04</pdfrwt>
<pdfrwt beam="2">  1       -2 0.25932596E+00 0.30553561E+04</pdfrwt>
<totfact> 0.70888390E-01</totfact>
</mgrwt>
</event>
<event>
 6    1  0.2003386E-005  0.4181960E+04  0.7818608E-02  0.7968813E-01
          2   -1    0    0  501    0  0.00000000000E+00  0.00000000000E+00  0.18390455109E+04  0.18390455109E+04  0.00000000000E+00 0. -1.
         -2   -1    0    0    0  501 -0.00000000000E+00 -0.00000000000E+00 -0.23774271892E+04  0.23774271892E+04  0.00000000000E+00 0.  1.
         23    2    1    2    0    0 -0.10321628699E+04 -0.10642744023E+04  0.12159522639E+04  0.19195774535E+04  0.90540037156E+02 0.  0.
         11    1    3    3    0    0 -0.68521401990E+03 -0.75914443824E+03  0.86367056832E+03  0.13385609369E+04  0.00000000000E+00 0. -1.
        -11    1    3    3    0    0 -0.34694884997E+03 -0.30512996406E+03  0.35228169560E+03  0.58101651657E+03  0.00000000000E+00 0.  1.
         22    1    1    2    0    0  0.10321628699E+04  0.10642744023E+04 -0.17543339422E+04  0.22968952466E+04  0.00000000000E+00 0.  1.
<mgrwt>
<rscale>  0 0.41819597E+04</rscale>
<asrwt>0</asrwt>
<pdfrwt beam="1">  1        2 0.28293008E+00 0.41819597E+04</pdfrwt>
<pdfrwt beam="2">  1       -2 0.36575803E+00 0.41819597E+04</pdfrwt>
<totfact> 0.78844398E-02</totfact>
</mgrwt>
</event>
<event>
 6    1  0.2003386E-005  0.1312867E+04  0.7818608E-02  0.9019423E-01
         -2   -1    0    0    0  501 -0.00000000000E+00  0.00000000000E+00  0.23219423194E+03  0.23219423194E+03  0.00000000000E+00 0.  1.
          2   -1    0    0  501    0  0.00000000000E+00 -0.00000000000E+00 -0.18557952750E+04  0.18557952750E+04  0.00000000000E+00 0. -1.
         23    2    1    2    0    0 -0.32193588828E+03 -0.32056522817E+03 -0.69079533331E+02  0.46843959851E+03  0.90878456496E+02 0.  0.
         13    1    3    3    0    0 -0.21877493263E+03 -0.15760411168E+03 -0.26543115738E+02  0.27093553506E+03  0.00000000000E+00 0.  1.
        -13    1    3    3    0    0 -0.10316095565E+03 -0.16296111649E+03 -0.42536417593E+02  0.19750406345E+03  0.00000000000E+00 0. -1.
         22    1    1    2    0    0  0.32193588828E+03  0.32056522817E+03 -0.15545215098E+04  0.16195499085E+04  0.00000000000E+00 0. -1.
<mgrwt>
<rscale>  0 0.13128670E+04</rscale>
<asrwt>0</asrwt>
<pdfrwt beam="1">  1        2 0.28550696E+00 0.13128670E+04</pdfrwt>
<pdfrwt beam="2">  1       -2 0.35722190E-01 0.13128670E+04</pdfrwt>
<totfact> 0.57977842E+01</totfact>
</mgrwt>
</event>
<event>
 6    1  0.2003386E-005  0.1779512E+04  0.7818608E-02  0.8717271E-01
          2   -1    0    0  501    0  0.00000000000E+00  0.00000000000E+00  0.13524806506E+04  0.13524806506E+04  0.00000000000E+00 0. -1.
         -2   -1    0    0    0  501 -0.00000000000E+00 -0.00000000000E+00 -0.58534381124E+03  0.58534381124E+03  0.00000000000E+00 0.  1.
         23    2    1    2    0    0 -0.29645282666E+03 -0.83536643606E+03  0.42350799877E+03  0.98713937147E+03  0.96766485698E+02 0.  0.
         11    1    3    3    0    0 -0.20966175738E+03 -0.61168063449E+03  0.26074232059E+03  0.69720714918E+03  0.00000000000E+00 0.  1.
        -11    1    3    3    0    0 -0.86791069285E+02 -0.22368580158E+03  0.16276567818E+03  0.28993222230E+03  0.00000000000E+00 0. -1.
         22    1    1    2    0    0  0.29645282666E+03  0.83536643606E+03  0.34362884056E+03  0.95068509034E+03  0.00000000000E+00 0.  1.
<mgrwt>
<rscale>  0 0.17795125E+04</rscale>
<asrwt>0</asrwt>
<pdfrwt beam="1">  1        2 0.20807395E+00 0.17795125E+04</pdfrwt>
<pdfrwt beam="2">  1       -2 0.90052894E-01 0.17795125E+04</pdfrwt>
<totfact> 0.15381299E+01</totfact>
</mgrwt>
</event>
<event>
 6    1  0.2003386E-005  0.1421075E+04  0.7818608E-02  0.8938703E-01
          2   -1    0    0  501    0  0.00000000000E+00  0.00000000000E+00  0.23178047828E+04  0.23178047828E+04  0.00000000000E+00 0. -1.
         -2   -1    0    0    0  501 -0.00000000000E+00 -0.00000000000E+00 -0.21781967003E+03  0.21781967003E+03  0.00000000000E+00 0.  1.
         23    2    1    2    0    0 -0.61459657668E+03 -0.60121460349E+02  0.16713077073E+04  0.17838878899E+04  0.87424305633E+02 0.  0.
         13    1    3    3    0    0 -0.52391168640E+03 -0.81450205439E+02  0.14414154691E+04  0.15358372784E+04  0.00000000000E+00 0. -1.
        -13    1    3    3    0    0 -0.90684890284E+02  0.21328745090E+02  0.22989223817E+03  0.24805061149E+03  0.00000000000E+00 0.  1.
         22    1    1    2    0    0  0.61459657668E+03  0.60121460349E+02  0.42867740545E+03  0.75173656290E+03  0.00000000000E+00 0.  1.
<mgrwt>
<rscale>  0 0.14210749E+04</rscale>
<asrwt>0</asrwt>
<pdfrwt beam="1">  1        2 0.35658533E+00 0.14210749E+04</pdfrwt>
<pdfrwt beam="2">  1       -2 0.33510720E-01 0.14210749E+04</pdfrwt>
<totfact> 0.35905752E+01</totfact>
</mgrwt>
</event>
<event>
 6    1  0.2003386E-005  0.2802855E+04  0.7818608E-02  0.8302382E-01
          2   -1    0    0  501    0  0.00000000000E+00  0.00000000000E+00  0.38056233701E+04  0.38056233701E+04  0.00000000000E+00 0.  1.
         -2   -1    0    0    0  501 -0.00000000000E+00 -0.00000000000E+00 -0.51607824552E+03  0.51607824552E+03  0.00000000000E+00 0. -1.
         23    2    1    2    0    0  0.11903160210E+04 -0.48613650635E+01  0.51028464603E+03  0.12982657108E+04  0.90705970589E+02 0.  0.
         11    1    3    3    0    0  0.49797022815E+03  0.38658693445E+02  0.19340922367E+03  0.53560803812E+03  0.00000000000E+00 0. -1.
        -11    1    3    3    0    0  0.69234579289E+03 -0.43520058508E+02  0.31687542236E+03  0.76265767270E+03  0.00000000000E+00 0.  1.
         22    1    1    2    0    0 -0.11903160210E+04  0.48613650635E+01  0.27792604786E+04  0.30234359048E+04  0.00000000000E+00 0.  1.
<mgrwt>
<rscale>  0 0.28028553E+04</rscale>
<asrwt>0</asrwt>
<pdfrwt beam="1">  1        2 0.58548050E+00 0.28028553E+04</pdfrwt>
<pdfrwt beam="2">  1       -2 0.79396656E-01 0.28028553E+04</pdfrwt>
<totfact> 0.59500600E-01</totfact>
</mgrwt>
</event>
<event>
 6    1  0.2003386E-005  0.1813487E+04  0.7818608E-02  0.8699160E-01
         -2   -1    0    0    0  501 -0.00000000000E+00  0.00000000000E+00  0.66441027595E+03  0.66441027595E+03  0.00000000000E+00 0.  1.
          2   -1    0    0  501    0  0.00000000000E+00 -0.00000000000E+00 -0.12374634026E+04  0.12374634026E+04  0.00000000000E+00 0. -1.
         23    2    1    2    0    0 -0.36305737265E+03  0.71332215122E+03 -0.72836071880E+03  0.10865457719E+04  0.97124818609E+02 0.  0.
         11    1    3    3    0    0 -0.12850201296E+03  0.34249725828E+03 -0.36620983644E+03  0.51761644446E+03  0.00000000000E+00 0.  1.
        -11    1    3    3    0    0 -0.23455535969E+03  0.37082489294E+03 -0.36215088236E+03  0.56892932740E+03  0.00000000000E+00 0. -1.
         22    1    1    2    0    0  0.36305737265E+03 -0.71332215122E+03  0.15530759215E+03  0.81532790670E+03  0.00000000000E+00 0.  1.
<mgrwt>
<rscale>  0 0.18134866E+04</rscale>
<asrwt>0</asrwt>
<pdfrwt beam="1">  1        2 0.19037898E+00 0.18134866E+04</pdfrwt>
<pdfrwt beam="2">  1       -2 0.10221697E+00 0.18134866E+04</pdfrwt>
<totfact> 0.13304257E+01</totfact>
</mgrwt>
</event>
<event>
 6    1  0.2003386E-005  0.8237353E+03  0.7818608E-02  0.9526283E-01
         -2   -1    0    0    0  501 -0.00000000000E+00  0.00000000000E+00  0.26351912135E+03  0.26351912135E+03  0.00000000000E+00 0.  1.
          2   -1    0    0  501    0  0.00000000000E+00 -0.00000000000E+00 -0.64372921709E+03  0.64372921709E+03  0.00000000000E+00 0. -1.
         23    2    1    2    0    0  0.28063212118E+03  0.24065202249E+03 -0.38031013244E+03  0.53756226435E+03  0.87576297328E+02 0.  0.
         13    1    3    3    0    0  0.34695181782E+02  0.37177190589E+02 -0.10241667662E+03  0.11434629328E+03  0.00000000000E+00 0.  1.
        -13    1    3    3    0    0  0.24593693940E+03  0.20347483190E+03 -0.27789345583E+03  0.42321597107E+03  0.00000000000E+00 0. -1.
         22    1    1    2    0    0 -0.28063212118E+03 -0.24065202249E+03  0.10003669563E+00  0.36968607409E+03  0.00000000000E+00 0.  1.
<mgrwt>
<rscale>  0 0.82373529E+03</rscale>
<asrwt>0</asrwt>
<pdfrwt beam="1">  1        2 0.99035263E-01 0.82373529E+03</pdfrwt>
<pdfrwt beam="2">  1       -2 0.40541404E-01 0.82373529E+03</pdfrwt>
<totfact> 0.26349881E+02</totfact>
</mgrwt>
</event>
<event>
 6    1  0.2003386E-005  0.1115118E+04  0.7818608E-02  0.9190581E-01
         -2   -1    0    0    0  501 -0.00000000000E+00  0.00000000000E+00  0.85482699920E+02  0.85482699920E+02  0.00000000000E+00 0.  1.
          2   -1    0    0  501    0  0.00000000000E+00 -0.00000000000E+00 -0.36366631218E+04  0.36366631218E+04  0.00000000000E+00 0. -1.
         23    2    1    2    0    0  0.26416363225E+03 -0.24333276484E+03 -0.31947366811E+04  0.32161365339E+04  0.90545479643E+02 0.  0.
         13    1    3    3    0    0  0.16093817129E+03 -0.86806998671E+02 -0.16005544921E+04  0.16109659314E+04  0.00000000000E+00 0.  1.
        -13    1    3    3    0    0  0.10322546096E+03 -0.15652576617E+03 -0.15941821890E+04  0.16051706025E+04  0.00000000000E+00 0. -1.
         22    1    1    2    0    0 -0.26416363225E+03  0.24333276484E+03 -0.35644374078E+03  0.50600928785E+03  0.00000000000E+00 0.  1.
<mgrwt>
<rscale>  0 0.11151175E+04</rscale>
<asrwt>0</asrwt>
<pdfrwt beam="1">  1        2 0.55948662E+00 0.11151175E+04</pdfrwt>
<pdfrwt beam="2">  1       -2 0.13151185E-01 0.11151175E+04</pdfrwt>
<totfact> 0.29230571E+01</totfact>
</mgrwt>
</event>
<event>
 6    1  0.2003386E-005  0.3528051E+04  0.7818608E-02  0.8107174E-01
          2   -1    0    0  501    0  0.00000000000E+00  0.00000000000E+00  0.18314214312E+04  0.18314214312E+04  0.00000000000E+00 0. -1.
         -2   -1    0    0    0  501 -0.00000000000E+00 -0.00000000000E+00 -0.16991097449E+04  0.16991097449E+04  0.00000000000E+00 0.  1.
         23    2    1    2    0    0 -0.67007643361E+03 -0.14837924434E+04 -0.60763502349E+03  0.17421901641E+04  0.12395081391E+03 0.  0.
         11    1    3    3    0    0 -0.19453891252E+03 -0.34986996298E+03 -0.10528703609E+03  0.41393204690E+03  0.00000000000E+00 0. -1.
        -11    1    3    3    0    0 -0.47553752110E+03 -0.11339224804E+04 -0.50234798740E+03  0.13282581172E+04  0.00000000000E+00 0.  1.
         22    1    1    2    0    0  0.67007643361E+03  0.14837924434E+04  0.73994670978E+03  0.17883410120E+04  0.00000000000E+00 0. -1.
<mgrwt>
<rscale>  0 0.35280510E+04</rscale>
<asrwt>0</asrwt>
<pdfrwt beam="1">  1        2 0.28175714E+00 0.35280510E+04</pdfrwt>
<pdfrwt beam="2">  1       -2 0.26140150E+00 0.35280510E+04</pdfrwt>
<totfact> 0.37175218E-01</totfact>
</mgrwt>
</event>
<event>
 6    1  0.2003386E-005  0.1474028E+04  0.7818608E-02  0.8901910E-01
          2   -1    0    0  501    0  0.00000000000E+00  0.00000000000E+00  0.21209777809E+04  0.21209777809E+04  0.00000000000E+00 0. -1.
         -2   -1    0    0    0  501 -0.00000000000E+00 -0.00000000000E+00 -0.25610340576E+03  0.25610340576E+03  0.00000000000E+00 0.  1.
         23    2    1    2    0    0 -0.31759719227E+03  0.62256853834E+03  0.57345788117E+03  0.90867520656E+03  0.91526652342E+02 0.  0.
         13    1    3    3    0    0 -0.20711435692E+03  0.43958571342E+03  0.44736096414E+03  0.66050267866E+03  0.00000000000E+00 0. -1.
        -13    1    3    3    0    0 -0.11048283534E+03  0.18298282492E+03  0.12609691703E+03  0.24817252790E+03  0.00000000000E+00 0.  1.
         22    1    1    2    0    0  0.31759719227E+03 -0.62256853834E+03  0.12914164939E+04  0.14684059801E+04  0.00000000000E+00 0. -1.
<mgrwt>
<rscale>  0 0.14740280E+04</rscale>
<asrwt>0</asrwt>
<pdfrwt beam="1">  1        2 0.32630426E+00 0.14740280E+04</pdfrwt>
<pdfrwt beam="2">  1       -2 0.39400525E-01 0.14740280E+04</pdfrwt>
<totfact> 0.33755864E+01</totfact>
</mgrwt>
</event>
<event>
 6    1  0.2003386E-005  0.2233280E+04  0.7818608E-02  0.8504703E-01
          2   -1    0    0  501    0  0.00000000000E+00  0.00000000000E+00  0.16466441346E+04  0.16466441346E+04  0.00000000000E+00 0. -1.
         -2   -1    0    0    0  501 -0.00000000000E+00 -0.00000000000E+00 -0.75722784427E+03  0.75722784427E+03  0.00000000000E+00 0.  1.
         23    2    1    2    0    0  0.57496173101E+03  0.85930179607E+03  0.89457248990E+03  0.13699439566E+04  0.86636803125E+02 0.  0.
         13    1    3    3    0    0  0.22985878818E+03  0.42116330705E+03  0.41176808269E+03  0.63227094479E+03  0.00000000000E+00 0. -1.
        -13    1    3    3    0    0  0.34510294283E+03  0.43813848902E+03  0.48280440720E+03  0.73767301179E+03  0.00000000000E+00 0.  1.
         22    1    1    2    0    0 -0.57496173101E+03 -0.85930179607E+03 -0.51561995843E+01  0.10339280223E+04  0.00000000000E+00 0.  1.
<mgrwt>
<rscale>  0 0.22332799E+04</rscale>
<asrwt>0</asrwt>
<pdfrwt beam="1">  1        2 0.25332987E+00 0.22332799E+04</pdfrwt>
<pdfrwt beam="2">  1       -2 0.11649659E+00 0.22332799E+04</pdfrwt>
<totfact> 0.54696692E+00</totfact>
</mgrwt>
</event>
<event>
 6    1  0.2003386E-005  0.3594611E+04  0.7818608E-02  0.8091727E-01
         -2   -1    0    0    0  501 -0.00000000000E+00  0.00000000000E+00  0.13917284690E+04  0.13917284690E+04  0.00000000000E+00 0.  1.
          2   -1    0    0  501    0  0.00000000000E+00 -0.00000000000E+00 -0.23210762379E+04  0.23210762379E+04  0.00000000000E+00 0. -1.
         23    2    1    2    0    0 -0.17607140758E+04 -0.24386653576E+03 -0.20001041278E+03  0.17914723767E+04  0.98914950592E+02 0.  0.
         11    1    3    3    0    0 -0.13072940774E+04 -0.15918502158E+03 -0.11022098731E+03  0.13215545172E+04  0.00000000000E+00 0. -1.
        -11    1    3    3    0    0 -0.45341999839E+03 -0.84681514180E+02 -0.89789425465E+02  0.46991785954E+03  0.00000000000E+00 0.  1.
         22    1    1    2    0    0  0.17607140758E+04  0.24386653576E+03 -0.72933735606E+03  0.19213323301E+04  0.00000000000E+00 0.  1.
<mgrwt>
<rscale>  0 0.35946115E+04</rscale>
<asrwt>0</asrwt>
<pdfrwt beam="1">  1        2 0.35708865E+00 0.35946115E+04</pdfrwt>
<pdfrwt beam="2">  1       -2 0.21411207E+00 0.35946115E+04</pdfrwt>
<totfact> 0.38748588E-01</totfact>
</mgrwt>
</event>
<event>
 6    1  0.2003386E-005  0.1192528E+04  0.7818608E-02  0.9119422E-01
         -2   -1    0    0    0  501 -0.00000000000E+00  0.00000000000E+00  0.16461481417E+03  0.16461481417E+03  0.00000000000E+00 0.  1.
          2   -1    0    0  501    0  0.00000000000E+00 -0.00000000000E+00 -0.21597721314E+04  0.21597721314E+04  0.00000000000E+00 0. -1.
         23    2    1    2    0    0  0.64465804690E+02  0.57736403175E+03 -0.77265914354E+03  0.97087046992E+03  0.89901346711E+02 0.  0.
         13    1    3    3    0    0  0.24577475904E+02  0.23783652781E+03 -0.39261318659E+03  0.45969052695E+03  0.00000000000E+00 0.  1.
        -13    1    3    3    0    0  0.39888328787E+02  0.33952750394E+03 -0.38004595695E+03  0.51117994297E+03  0.00000000000E+00 0. -1.
         22    1    1    2    0    0 -0.64465804690E+02 -0.57736403175E+03 -0.12224981737E+04  0.13535164756E+04  0.00000000000E+00 0.  1.
<mgrwt>
<rscale>  0 0.11925275E+04</rscale>
<asrwt>0</asrwt>
<pdfrwt beam="1">  1        2 0.33227264E+00 0.11925275E+04</pdfrwt>
<pdfrwt beam="2">  1       -2 0.25325356E-01 0.11925275E+04</pdfrwt>
<totfact> 0.75456722E+01</totfact>
</mgrwt>
</event>
<event>
 6    1  0.2003386E-005  0.1554841E+04  0.7818608E-02  0.8848781E-01
          2   -1    0    0  501    0  0.00000000000E+00  0.00000000000E+00  0.22372284744E+04  0.22372284744E+04  0.00000000000E+00 0.  1.
         -2   -1    0    0    0  501 -0.00000000000E+00 -0.00000000000E+00 -0.27014799306E+03  0.27014799306E+03  0.00000000000E+00 0. -1.
         23    2    1    2    0    0 -0.38575751587E+03 -0.31389567652E+02 -0.94083047542E+02  0.41019043404E+03  0.98032679929E+02 0.  0.
         13    1    3    3    0    0 -0.37122176418E+03 -0.76600494850E+01 -0.84865048357E+02  0.38087576845E+03  0.00000000000E+00 0. -1.
        -13    1    3    3    0    0 -0.14535751690E+02 -0.23729518167E+02 -0.92179991858E+01  0.29314665590E+02  0.00000000000E+00 0.  1.
         22    1    1    2    0    0  0.38575751587E+03  0.31389567652E+02  0.20611635289E+04  0.20971860335E+04  0.00000000000E+00 0.  1.
<mgrwt>
<rscale>  0 0.15548412E+04</rscale>
<asrwt>0</asrwt>
<pdfrwt beam="1">  1        2 0.34418898E+00 0.15548412E+04</pdfrwt>
<pdfrwt beam="2">  1       -2 0.41561231E-01 0.15548412E+04</pdfrwt>
<totfact> 0.25995604E+01</totfact>
</mgrwt>
</event>
<event>
 6    1  0.2003386E-005  0.2795136E+04  0.7818608E-02  0.8304780E-01
          2   -1    0    0  501    0  0.00000000000E+00  0.00000000000E+00  0.30897356456E+04  0.30897356456E+04  0.00000000000E+00 0. -1.
         -2   -1    0    0    0  501 -0.00000000000E+00 -0.00000000000E+00 -0.63215648304E+03  0.63215648304E+03  0.00000000000E+00 0.  1.
         23    2    1    2    0    0 -0.52239081884E+03  0.70495780492E+03  0.26759900016E+04  0.28177013474E+04  0.93062989986E+02 0.  0.
         13    1    3    3    0    0 -0.27894802199E+03  0.30926023668E+03  0.13406583509E+04  0.14038585066E+04  0.00000000000E+00 0. -1.
        -13    1    3    3    0    0 -0.24344279686E+03  0.39569756824E+03  0.13353316508E+04  0.14138428408E+04  0.00000000000E+00 0.  1.
         22    1    1    2    0    0  0.52239081884E+03 -0.70495780492E+03 -0.21841083902E+03  0.90419078127E+03  0.00000000000E+00 0.  1.
<mgrwt>
<rscale>  0 0.27951361E+04</rscale>
<asrwt>0</asrwt>
<pdfrwt beam="1">  1        2 0.47534394E+00 0.27951361E+04</pdfrwt>
<pdfrwt beam="2">  1       -2 0.97254845E-01 0.27951361E+04</pdfrwt>
<totfact> 0.11726615E+00</totfact>
</mgrwt>
</event>
<event>
 6    1  0.2003386E-005  0.2347898E+04  0.7818608E-02  0.8459271E-01
         -4   -1    0    0    0  501 -0.00000000000E+00  0.00000000000E+00  0.12743017061E+04  0.12743017061E+04  0.00000000000E+00 0.  1.
          4   -1    0    0  501    0  0.00000000000E+00 -0.00000000000E+00 -0.10814990954E+04  0.10814990954E+04  0.00000000000E+00 0. -1.
         23    2    1    2    0    0  0.82432611528E+02  0.24143504251E+03 -0.10515289450E+04  0.10855854513E+04  0.87730466203E+02 0.  0.
         11    1    3    3    0    0  0.16561836745E+02  0.13112628490E+03 -0.67274843595E+03  0.68560838319E+03  0.00000000000E+00 0. -1.
        -11    1    3    3    0    0  0.65870774783E+02  0.11030875761E+03 -0.37878050909E+03  0.39997706814E+03  0.00000000000E+00 0.  1.
         22    1    1    2    0    0 -0.82432611528E+02 -0.24143504251E+03  0.12443315558E+04  0.12702153502E+04  0.00000000000E+00 0.  1.
<mgrwt>
<rscale>  0 0.23478979E+04</rscale>
<asrwt>0</asrwt>
<pdfrwt beam="1">  1        4 0.16638448E+00 0.23478979E+04</pdfrwt>
<pdfrwt beam="2">  1       -4 0.19604642E+00 0.23478979E+04</pdfrwt>
<totfact> 0.56611859E-02</totfact>
</mgrwt>
</event>
<event>
 6    1  0.2003386E-005  0.3054984E+04  0.7818608E-02  0.8228202E-01
         -2   -1    0    0    0  501 -0.00000000000E+00  0.00000000000E+00  0.32865413400E+04  0.32865413400E+04  0.00000000000E+00 0.  1.
          2   -1    0    0  501    0  0.00000000000E+00 -0.00000000000E+00 -0.70993527905E+03  0.70993527905E+03  0.00000000000E+00 0. -1.
         23    2    1    2    0    0  0.55982280061E+03 -0.13523348148E+04  0.18552304163E+04  0.23647309771E+04  0.88666096864E+02 0.  0.
         13    1    3    3    0    0  0.24498804632E+03 -0.51828138297E+03  0.77955464485E+03  0.96764672225E+03  0.00000000000E+00 0.  1.
        -13    1    3    3    0    0  0.31483475429E+03 -0.83405343185E+03  0.10756757715E+04  0.13970842548E+04  0.00000000000E+00 0. -1.
         22    1    1    2    0    0 -0.55982280061E+03  0.13523348148E+04  0.72137564461E+03  0.16317456420E+04  0.00000000000E+00 0. -1.
<mgrwt>
<rscale>  0 0.30549839E+04</rscale>
<asrwt>0</asrwt>
<pdfrwt beam="1">  1        2 0.10922081E+00 0.30549839E+04</pdfrwt>
<pdfrwt beam="2">  1       -2 0.50562174E+00 0.30549839E+04</pdfrwt>
<totfact> 0.52061614E-02</totfact>
</mgrwt>
</event>
<event>
 6    1  0.2003386E-005  0.1022954E+04  0.7818608E-02  0.9283721E-01
         -2   -1    0    0    0  501 -0.00000000000E+00  0.00000000000E+00  0.17659396765E+04  0.17659396765E+04  0.00000000000E+00 0.  1.
          2   -1    0    0  501    0  0.00000000000E+00 -0.00000000000E+00 -0.14814137981E+03  0.14814137981E+03  0.00000000000E+00 0. -1.
         23    2    1    2    0    0 -0.17969020687E+02  0.20982523637E+03  0.16791110040E+04  0.16947439559E+04  0.91617666155E+02 0.  0.
         11    1    3    3    0    0  0.82644262220E-01  0.12000190218E+03  0.60850152869E+03  0.62022139093E+03  0.00000000000E+00 0. -1.
        -11    1    3    3    0    0 -0.18051664949E+02  0.89823334191E+02  0.10706094753E+04  0.10745225650E+04  0.00000000000E+00 0.  1.
         22    1    1    2    0    0  0.17969020687E+02 -0.20982523637E+03 -0.61312707342E+02  0.21933710038E+03  0.00000000000E+00 0. -1.
<mgrwt>
<rscale>  0 0.10229540E+04</rscale>
<asrwt>0</asrwt>
<pdfrwt beam="1">  1        2 0.22790983E-01 0.10229540E+04</pdfrwt>
<pdfrwt beam="2">  1       -2 0.27168301E+00 0.10229540E+04</pdfrwt>
<totfact> 0.11634666E+01</totfact>
</mgrwt>
</event>
<event>
 6    1  0.2003386E-005  0.2645690E+04  0.7818608E-02  0.8352845E-01
         -1   -1    0    0    0  501 -0.00000000000E+00  0.00000000000E+00  0.21595345580E+04  0.21595345580E+04  0.00000000000E+00 0.  1.
          1   -1    0    0  501    0  0.00000000000E+00 -0.00000000000E+00 -0.81032218215E+03  0.81032218215E+03  0.00000000000E+00 0. -1.
         23    2    1    2    0    0  0.86579633508E+03 -0.99072642272E+03  0.54026935963E+03  0.14253403298E+04  0.92530731149E+02 0.  0.
         11    1    3    3    0    0  0.62271466897E+03 -0.74816529631E+03  0.36306753302E+03  0.10389142905E+04  0.00000000000E+00 0.  1.
        -11    1    3    3    0    0  0.24308166611E+03 -0.24256112641E+03  0.17720182660E+03  0.38642603923E+03  0.00000000000E+00 0. -1.
         22    1    1    2    0    0 -0.86579633508E+03  0.99072642272E+03  0.80894301627E+03  0.15445164104E+04  0.00000000000E+00 0.  1.
<mgrwt>
<rscale>  0 0.26456899E+04</rscale>
<asrwt>0</asrwt>
<pdfrwt beam="1">  1        1 0.12466495E+00 0.26456899E+04</pdfrwt>
<pdfrwt beam="2">  1       -1 0.33223608E+00 0.26456899E+04</pdfrwt>
<totfact> 0.38667987E-01</totfact>
</mgrwt>
</event>
<event>
 6    1  0.2003386E-005  0.5417398E+04  0.7818608E-02  0.7767159E-01
          2   -1    0    0  501    0  0.00000000000E+00  0.00000000000E+00  0.34990770376E+04  0.34990770376E+04  0.00000000000E+00 0. -1.
         -2   -1    0    0    0  501 -0.00000000000E+00 -0.00000000000E+00 -0.20968530793E+04  0.20968530793E+04  0.00000000000E+00 0.  1.
         23    2    1    2    0    0  0.22150650186E+03  0.17457750683E+04  0.28272991560E+04  0.33315019245E+04  0.92134879953E+02 0.  0.
         13    1    3    3    0    0  0.12859531328E+03  0.13273735380E+04  0.21389487346E+04  0.25206266985E+04  0.00000000000E+00 0. -1.
        -13    1    3    3    0    0  0.92911188589E+02  0.41840153031E+03  0.68835042143E+03  0.81087522604E+03  0.00000000000E+00 0.  1.
         22    1    1    2    0    0 -0.22150650186E+03 -0.17457750683E+04 -0.14250751977E+04  0.22644281924E+04  0.00000000000E+00 0.  1.
<mgrwt>
<rscale>  0 0.54173981E+04</rscale>
<asrwt>0</asrwt>
<pdfrwt beam="1">  1        2 0.53831955E+00 0.54173981E+04</pdfrwt>
<pdfrwt beam="2">  1       -2 0.32259278E+00 0.54173981E+04</pdfrwt>
<totfact> 0.13207100E-02</totfact>
</mgrwt>
</event>
<event>
 6    1  0.2003386E-005  0.2731622E+04  0.7818608E-02  0.8324817E-01
          2   -1    0    0  501    0  0.00000000000E+00  0.00000000000E+00  0.77036666099E+03  0.77036666099E+03  0.00000000000E+00 0. -1.
         -2   -1    0    0    0  501 -0.00000000000E+00 -0.00000000000E+00 -0.24214955133E+04  0.24214955133E+04  0.00000000000E+00 0.  1.
         23    2    1    2    0    0  0.85154034687E+03 -0.10648957361E+04 -0.87957403975E+03  0.16252030793E+04  0.92253273136E+02 0.  0.
         11    1    3    3    0    0  0.45603323481E+03 -0.52914194525E+03 -0.40473315153E+03  0.80732052706E+03  0.00000000000E+00 0. -1.
        -11    1    3    3    0    0  0.39550711206E+03 -0.53575379086E+03 -0.47484088822E+03  0.81788255222E+03  0.00000000000E+00 0.  1.
         22    1    1    2    0    0 -0.85154034687E+03  0.10648957361E+04 -0.77155481253E+03  0.15666590950E+04  0.00000000000E+00 0.  1.
<mgrwt>
<rscale>  0 0.27316218E+04</rscale>
<asrwt>0</asrwt>
<pdfrwt beam="1">  1        2 0.11851795E+00 0.27316218E+04</pdfrwt>
<pdfrwt beam="2">  1       -2 0.37253777E+00 0.27316218E+04</pdfrwt>
<totfact> 0.35431883E-01</totfact>
</mgrwt>
</event>
<event>
 6    1  0.2003386E-005  0.4704586E+03  0.7818608E-02  0.1021791E+00
          2   -1    0    0  501    0  0.00000000000E+00  0.00000000000E+00  0.19412802813E+03  0.19412802813E+03  0.00000000000E+00 0. -1.
         -2   -1    0    0    0  501 -0.00000000000E+00 -0.00000000000E+00 -0.28503266128E+03  0.28503266128E+03  0.00000000000E+00 0.  1.
         23    2    1    2    0    0  0.95828071168E+01 -0.85858524534E+02 -0.26032388336E+03  0.28898603609E+03  0.90999386712E+02 0.  0.
         11    1    3    3    0    0  0.47562759612E+02 -0.67448989765E+02 -0.15693018502E+03  0.17730951834E+03  0.00000000000E+00 0. -1.
        -11    1    3    3    0    0 -0.37979952495E+02 -0.18409534769E+02 -0.10339369834E+03  0.11167651775E+03  0.00000000000E+00 0.  1.
         22    1    1    2    0    0 -0.95828071168E+01  0.85858524534E+02  0.16941925020E+03  0.19017465332E+03  0.00000000000E+00 0. -1.
<mgrwt>
<rscale>  0 0.47045862E+03</rscale>
<asrwt>0</asrwt>
<pdfrwt beam="1">  1        2 0.29865851E-01 0.47045862E+03</pdfrwt>
<pdfrwt beam="2">  1       -2 0.43851178E-01 0.47045862E+03</pdfrwt>
<totfact> 0.88438095E+02</totfact>
</mgrwt>
</event>
<event>
 6    1  0.2003386E-005  0.5580465E+03  0.7818608E-02  0.9996485E-01
         -2   -1    0    0    0  501 -0.00000000000E+00  0.00000000000E+00  0.70522012825E+02  0.70522012825E+02  0.00000000000E+00 0.  1.
          2   -1    0    0  501    0  0.00000000000E+00 -0.00000000000E+00 -0.11039669625E+04  0.11039669625E+04  0.00000000000E+00 0. -1.
         23    2    1    2    0    0 -0.15787976958E+03 -0.16257592887E+03 -0.85436522917E+03  0.88565251542E+03  0.55529082058E+02 0.  0.
         13    1    3    3    0    0 -0.23613207484E+02 -0.24018982343E+02 -0.22100110192E+03  0.22355308571E+03  0.00000000000E+00 0. -1.
        -13    1    3    3    0    0 -0.13426656209E+03 -0.13855694652E+03 -0.63336412725E+03  0.66209942970E+03  0.00000000000E+00 0.  1.
         22    1    1    2    0    0  0.15787976958E+03  0.16257592887E+03 -0.17907972055E+03  0.28883645996E+03  0.00000000000E+00 0.  1.
<mgrwt>
<rscale>  0 0.55804649E+03</rscale>
<asrwt>0</asrwt>
<pdfrwt beam="1">  1        2 0.16984107E+00 0.55804649E+03</pdfrwt>
<pdfrwt beam="2">  1       -2 0.10849540E-01 0.55804649E+03</pdfrwt>
<totfact> 0.13143475E+03</totfact>
</mgrwt>
</event>
<event>
 6    1  0.2003386E-005  0.1446300E+04  0.7818608E-02  0.8920970E-01
         -2   -1    0    0    0  501 -0.00000000000E+00  0.00000000000E+00  0.46781549098E+03  0.46781549098E+03  0.00000000000E+00 0.  1.
          2   -1    0    0  501    0  0.00000000000E+00 -0.00000000000E+00 -0.11178462605E+04  0.11178462605E+04  0.00000000000E+00 0. -1.
         23    2    1    2    0    0 -0.11125690151E+03 -0.52444318673E+03 -0.85356268782E+03  0.10122125418E+04  0.92661823755E+02 0.  0.
         11    1    3    3    0    0 -0.11796313562E+03 -0.42461046822E+03 -0.73584823640E+03  0.85771905546E+03  0.00000000000E+00 0. -1.
        -11    1    3    3    0    0  0.67062341132E+01 -0.99832718509E+02 -0.11771445142E+03  0.15449348638E+03  0.00000000000E+00 0.  1.
         22    1    1    2    0    0  0.11125690151E+03  0.52444318673E+03  0.20353191831E+03  0.57344920962E+03  0.00000000000E+00 0.  1.
<mgrwt>
<rscale>  0 0.14462998E+04</rscale>
<asrwt>0</asrwt>
<pdfrwt beam="1">  1        2 0.17197635E+00 0.14462998E+04</pdfrwt>
<pdfrwt beam="2">  1       -2 0.71971615E-01 0.14462998E+04</pdfrwt>
<totfact> 0.36045268E+01</totfact>
</mgrwt>
</event>
<event>
 6    1  0.2003386E-005  0.1522419E+04  0.7818608E-02  0.8869680E-01
         -2   -1    0    0    0  501 -0.00000000000E+00  0.00000000000E+00  0.23310879978E+03  0.23310879978E+03  0.00000000000E+00 0.  1.
          2   -1    0    0  501    0  0.00000000000E+00 -0.00000000000E+00 -0.24857045849E+04  0.24857045849E+04  0.00000000000E+00 0. -1.
         23    2    1    2    0    0 -0.56097903475E+03 -0.12477900580E+03 -0.20150003206E+04  0.20969461300E+04  0.81789378130E+02 0.  0.
         13    1    3    3    0    0 -0.24932618725E+03 -0.92234188486E+02 -0.99492569887E+03  0.10298290341E+04  0.00000000000E+00 0. -1.
        -13    1    3    3    0    0 -0.31165284750E+03 -0.32544817314E+02 -0.10200746217E+04  0.10671170959E+04  0.00000000000E+00 0.  1.
         22    1    1    2    0    0  0.56097903475E+03  0.12477900580E+03 -0.23759546454E+03  0.62186725471E+03  0.00000000000E+00 0.  1.
<mgrwt>
<rscale>  0 0.15224186E+04</rscale>
<asrwt>0</asrwt>
<pdfrwt beam="1">  1        2 0.38241607E+00 0.15224186E+04</pdfrwt>
<pdfrwt beam="2">  1       -2 0.35862894E-01 0.15224186E+04</pdfrwt>
<totfact> 0.25084502E+01</totfact>
</mgrwt>
</event>
<event>
 6    1  0.2003386E-005  0.1126618E+04  0.7818608E-02  0.9179630E-01
          2   -1    0    0  501    0  0.00000000000E+00  0.00000000000E+00  0.24461149169E+04  0.24461149169E+04  0.00000000000E+00 0. -1.
         -2   -1    0    0    0  501 -0.00000000000E+00 -0.00000000000E+00 -0.12972280319E+03  0.12972280319E+03  0.00000000000E+00 0.  1.
         23    2    1    2    0    0 -0.24906325028E+02  0.38328490427E+03  0.23855906841E+03  0.46280250812E+03  0.98732413775E+02 0.  0.
         13    1    3    3    0    0 -0.10704249815E+02  0.14249512766E+03  0.14642633114E+03  0.20459744089E+03  0.00000000000E+00 0.  1.
        -13    1    3    3    0    0 -0.14202075214E+02  0.24078977662E+03  0.92132737276E+02  0.25820506723E+03  0.00000000000E+00 0. -1.
         22    1    1    2    0    0  0.24906325028E+02 -0.38328490427E+03  0.20778330453E+04  0.21130352120E+04  0.00000000000E+00 0. -1.
<mgrwt>
<rscale>  0 0.11266177E+04</rscale>
<asrwt>0</asrwt>
<pdfrwt beam="1">  1        2 0.37632534E+00 0.11266177E+04</pdfrwt>
<pdfrwt beam="2">  1       -2 0.19957356E-01 0.11266177E+04</pdfrwt>
<totfact> 0.80123589E+01</totfact>
</mgrwt>
</event>
<event>
 6    1  0.2003386E-005  0.1219693E+04  0.7818608E-02  0.9095792E-01
         -2   -1    0    0    0  501 -0.00000000000E+00  0.00000000000E+00  0.87775817764E+02  0.87775817764E+02  0.00000000000E+00 0.  1.
          2   -1    0    0  501    0  0.00000000000E+00 -0.00000000000E+00 -0.42370758642E+04  0.42370758642E+04  0.00000000000E+00 0. -1.
         23    2    1    2    0    0 -0.12275929033E+03  0.40931097842E+03 -0.36123083040E+04  0.36385824550E+04  0.88913882086E+02 0.  0.
         11    1    3    3    0    0 -0.43697832868E+02  0.21600124853E+03 -0.21830625354E+04  0.21941577139E+04  0.00000000000E+00 0. -1.
        -11    1    3    3    0    0 -0.79061457462E+02  0.19330972989E+03 -0.14292457685E+04  0.14444247411E+04  0.00000000000E+00 0.  1.
         22    1    1    2    0    0  0.12275929033E+03 -0.40931097842E+03 -0.53699174248E+03  0.68626922699E+03  0.00000000000E+00 0.  1.
<mgrwt>
<rscale>  0 0.12196931E+04</rscale>
<asrwt>0</asrwt>
<pdfrwt beam="1">  1        2 0.65185773E+00 0.12196931E+04</pdfrwt>
<pdfrwt beam="2">  1       -2 0.13503974E-01 0.12196931E+04</pdfrwt>
<totfact> 0.93377399E+00</totfact>
</mgrwt>
</event>
<event>
 6    1  0.2003386E-005  0.1022164E+04  0.7818608E-02  0.9284564E-01
         -2   -1    0    0    0  501 -0.00000000000E+00  0.00000000000E+00  0.24644328726E+03  0.24644328726E+03  0.00000000000E+00 0.  1.
          2   -1    0    0  501    0  0.00000000000E+00 -0.00000000000E+00 -0.10598985423E+04  0.10598985423E+04  0.00000000000E+00 0. -1.
         23    2    1    2    0    0  0.47531230051E+03  0.10108886330E+03 -0.59485895448E+03  0.77349561920E+03  0.91090921043E+02 0.  0.
         13    1    3    3    0    0  0.25039819306E+03  0.11507678947E+02 -0.33410333601E+03  0.41768016579E+03  0.00000000000E+00 0. -1.
        -13    1    3    3    0    0  0.22491410745E+03  0.89581184357E+02 -0.26075561847E+03  0.35581545341E+03  0.00000000000E+00 0.  1.
         22    1    1    2    0    0 -0.47531230051E+03 -0.10108886330E+03 -0.21859630058E+03  0.53284621039E+03  0.00000000000E+00 0.  1.
<mgrwt>
<rscale>  0 0.10221641E+04</rscale>
<asrwt>0</asrwt>
<pdfrwt beam="1">  1        2 0.16306132E+00 0.10221641E+04</pdfrwt>
<pdfrwt beam="2">  1       -2 0.37914350E-01 0.10221641E+04</pdfrwt>
<totfact> 0.15092938E+02</totfact>
</mgrwt>
</event>
<event>
 6    1  0.2003386E-005  0.1462527E+04  0.7818608E-02  0.8909762E-01
         -2   -1    0    0    0  501 -0.00000000000E+00  0.00000000000E+00  0.94388353425E+03  0.94388353425E+03  0.00000000000E+00 0.  1.
          2   -1    0    0  501    0  0.00000000000E+00 -0.00000000000E+00 -0.56653859855E+03  0.56653859855E+03  0.00000000000E+00 0. -1.
         23    2    1    2    0    0 -0.66752598260E+03 -0.28275290676E+03  0.26132836697E+03  0.77625594729E+03  0.93491371739E+02 0.  0.
         13    1    3    3    0    0 -0.39912408323E+03 -0.18610509288E+03  0.20374864581E+03  0.48523051231E+03  0.00000000000E+00 0. -1.
        -13    1    3    3    0    0 -0.26840189937E+03 -0.96647813872E+02  0.57579721162E+02  0.29102543498E+03  0.00000000000E+00 0.  1.
         22    1    1    2    0    0  0.66752598260E+03  0.28275290676E+03  0.11601656872E+03  0.73416618551E+03  0.00000000000E+00 0. -1.
<mgrwt>
<rscale>  0 0.14625272E+04</rscale>
<asrwt>0</asrwt>
<pdfrwt beam="1">  1        2 0.87159785E-01 0.14625272E+04</pdfrwt>
<pdfrwt beam="2">  1       -2 0.14521285E+00 0.14625272E+04</pdfrwt>
<totfact> 0.16794846E+01</totfact>
</mgrwt>
</event>
<event>
 6    1  0.2003386E-005  0.1691471E+04  0.7818608E-02  0.8766244E-01
         -2   -1    0    0    0  501 -0.00000000000E+00  0.00000000000E+00  0.65988635351E+03  0.65988635351E+03  0.00000000000E+00 0.  1.
          2   -1    0    0  501    0  0.00000000000E+00 -0.00000000000E+00 -0.10839269356E+04  0.10839269356E+04  0.00000000000E+00 0. -1.
         23    2    1    2    0    0  0.66976778577E+03  0.13551050147E+03  0.29672289156E+03  0.75061040558E+03  0.91757962750E+02 0.  0.
         13    1    3    3    0    0  0.32181132992E+03  0.84479723561E+02  0.18976049608E+03  0.38302532766E+03  0.00000000000E+00 0. -1.
        -13    1    3    3    0    0  0.34795645585E+03  0.51030777905E+02  0.10696239548E+03  0.36758507792E+03  0.00000000000E+00 0.  1.
         22    1    1    2    0    0 -0.66976778577E+03 -0.13551050147E+03 -0.72076347360E+03  0.99320288348E+03  0.00000000000E+00 0. -1.
<mgrwt>
<rscale>  0 0.16914711E+04</rscale>
<asrwt>0</asrwt>
<pdfrwt beam="1">  1        2 0.16675799E+00 0.16914711E+04</pdfrwt>
<pdfrwt beam="2">  1       -2 0.10152098E+00 0.16914711E+04</pdfrwt>
<totfact> 0.16916754E+01</totfact>
</mgrwt>
</event>
<event>
 6    1  0.2003386E-005  0.1443893E+04  0.7818608E-02  0.8922645E-01
         -1   -1    0    0    0  501 -0.00000000000E+00  0.00000000000E+00  0.29036564875E+03  0.29036564875E+03  0.00000000000E+00 0.  1.
          1   -1    0    0  501    0  0.00000000000E+00 -0.00000000000E+00 -0.17950009086E+04  0.17950009086E+04  0.00000000000E+00 0. -1.
         23    2    1    2    0    0 -0.47918494672E+03 -0.30545898077E+03 -0.13917206810E+04  0.15059935305E+04  0.90590606245E+02 0.  0.
         13    1    3    3    0    0 -0.18187352504E+03 -0.15818011551E+03 -0.51585898374E+03  0.56939390509E+03  0.00000000000E+00 0. -1.
        -13    1    3    3    0    0 -0.29731142169E+03 -0.14727886526E+03 -0.87586169728E+03  0.93659962544E+03  0.00000000000E+00 0.  1.
         22    1    1    2    0    0  0.47918494672E+03  0.30545898077E+03 -0.11291457886E+03  0.57937302683E+03  0.00000000000E+00 0.  1.
<mgrwt>
<rscale>  0 0.14438928E+04</rscale>
<asrwt>0</asrwt>
<pdfrwt beam="1">  1        1 0.27615399E+00 0.14438928E+04</pdfrwt>
<pdfrwt beam="2">  1       -1 0.44671638E-01 0.14438928E+04</pdfrwt>
<totfact> 0.19814623E+01</totfact>
</mgrwt>
</event>
<event>
 6    1  0.2003386E-005  0.1799874E+04  0.7818608E-02  0.8706366E-01
         -2   -1    0    0    0  501 -0.00000000000E+00  0.00000000000E+00  0.13289319340E+04  0.13289319340E+04  0.00000000000E+00 0.  1.
          2   -1    0    0  501    0  0.00000000000E+00 -0.00000000000E+00 -0.60942683263E+03  0.60942683263E+03  0.00000000000E+00 0. -1.
         23    2    1    2    0    0 -0.30291430765E+03  0.24694870127E+03 -0.50939032450E+03  0.64881438719E+03  0.93492606635E+02 0.  0.
         11    1    3    3    0    0 -0.14867441831E+03  0.11591426120E+03 -0.32128625064E+03  0.37251181653E+03  0.00000000000E+00 0.  1.
        -11    1    3    3    0    0 -0.15423988934E+03  0.13103444007E+03 -0.18810407386E+03  0.27630257066E+03  0.00000000000E+00 0. -1.
         22    1    1    2    0    0  0.30291430765E+03 -0.24694870127E+03  0.12288954258E+04  0.12895443794E+04  0.00000000000E+00 0.  1.
<mgrwt>
<rscale>  0 0.17998742E+04</rscale>
<asrwt>0</asrwt>
<pdfrwt beam="1">  1        2 0.93757974E-01 0.17998742E+04</pdfrwt>
<pdfrwt beam="2">  1       -2 0.20445107E+00 0.17998742E+04</pdfrwt>
<totfact> 0.57099021E+00</totfact>
</mgrwt>
</event>
<event>
 6    1  0.2003386E-005  0.2078262E+04  0.7818608E-02  0.8570880E-01
         -2   -1    0    0    0  501 -0.00000000000E+00  0.00000000000E+00  0.34319836313E+03  0.34319836313E+03  0.00000000000E+00 0.  1.
          2   -1    0    0  501    0  0.00000000000E+00 -0.00000000000E+00 -0.31462657031E+04  0.31462657031E+04  0.00000000000E+00 0. -1.
         23    2    1    2    0    0 -0.52564130322E+03 -0.83041098055E+03 -0.19604384265E+04  0.21948967014E+04  0.91496062623E+02 0.  0.
         13    1    3    3    0    0 -0.43591686493E+03 -0.63565363412E+03 -0.15870839787E+04  0.17643453775E+04  0.00000000000E+00 0.  1.
        -13    1    3    3    0    0 -0.89724438292E+02 -0.19475734643E+03 -0.37335444780E+03  0.43055132390E+03  0.00000000000E+00 0. -1.
         22    1    1    2    0    0  0.52564130322E+03  0.83041098055E+03 -0.84262891353E+03  0.12945673649E+04  0.00000000000E+00 0.  1.
<mgrwt>
<rscale>  0 0.20782620E+04</rscale>
<asrwt>0</asrwt>
<pdfrwt beam="1">  1        2 0.48404089E+00 0.20782620E+04</pdfrwt>
<pdfrwt beam="2">  1       -2 0.52799746E-01 0.20782620E+04</pdfrwt>
<totfact> 0.44010381E+00</totfact>
</mgrwt>
</event>
<event>
 6    1  0.2003386E-005  0.4619756E+03  0.7818608E-02  0.1024210E+00
         -4   -1    0    0    0  501 -0.00000000000E+00  0.00000000000E+00  0.13596322004E+03  0.13596322004E+03  0.00000000000E+00 0.  1.
          4   -1    0    0  501    0  0.00000000000E+00 -0.00000000000E+00 -0.39242494510E+03  0.39242494510E+03  0.00000000000E+00 0. -1.
         23    2    1    2    0    0  0.71565431553E+02  0.13676456104E+03  0.49496061493E+02  0.18569832972E+03  0.90597204193E+02 0.  0.
         13    1    3    3    0    0  0.22023044719E+02  0.44086970065E+02 -0.26552473109E+02  0.55979543196E+02  0.00000000000E+00 0. -1.
        -13    1    3    3    0    0  0.49542386834E+02  0.92677590973E+02  0.76048534602E+02  0.12971878652E+03  0.00000000000E+00 0.  1.
         22    1    1    2    0    0 -0.71565431553E+02 -0.13676456104E+03 -0.30595778656E+03  0.34268983543E+03  0.00000000000E+00 0. -1.
<mgrwt>
<rscale>  0 0.46197558E+03</rscale>
<asrwt>0</asrwt>
<pdfrwt beam="1">  1        4 0.60373068E-01 0.46197558E+03</pdfrwt>
<pdfrwt beam="2">  1       -4 0.20917419E-01 0.46197558E+03</pdfrwt>
<totfact> 0.10637446E+02</totfact>
</mgrwt>
</event>
<event>
 6    1  0.2003386E-005  0.1775061E+04  0.7818608E-02  0.8719675E-01
         -1   -1    0    0    0  501 -0.00000000000E+00  0.00000000000E+00  0.55866165458E+03  0.55866165458E+03  0.00000000000E+00 0.  1.
          1   -1    0    0  501    0  0.00000000000E+00 -0.00000000000E+00 -0.14099951340E+04  0.14099951340E+04  0.00000000000E+00 0. -1.
         23    2    1    2    0    0  0.20287583290E+02  0.79896453917E+03 -0.49824241538E+01  0.80458375408E+03  0.92597364351E+02 0.  0.
         11    1    3    3    0    0  0.35872295444E+02  0.64175390223E+03 -0.35281328653E+02  0.64372328275E+03  0.00000000000E+00 0. -1.
        -11    1    3    3    0    0 -0.15584712154E+02  0.15721063694E+03  0.30298904499E+02  0.16086047132E+03  0.00000000000E+00 0.  1.
         22    1    1    2    0    0 -0.20287583290E+02 -0.79896453917E+03 -0.84635105524E+03  0.11640730345E+04  0.00000000000E+00 0. -1.
<mgrwt>
<rscale>  0 0.17750608E+04</rscale>
<asrwt>0</asrwt>
<pdfrwt beam="1">  1        1 0.21692233E+00 0.17750608E+04</pdfrwt>
<pdfrwt beam="2">  1       -1 0.85947948E-01 0.17750608E+04</pdfrwt>
<totfact> 0.95535039E+00</totfact>
</mgrwt>
</event>
<event>
 6    1  0.2003386E-005  0.5332330E+04  0.7818608E-02  0.7779192E-01
         -2   -1    0    0    0  501 -0.00000000000E+00  0.00000000000E+00  0.25109186777E+04  0.25109186777E+04  0.00000000000E+00 0.  1.
          2   -1    0    0  501    0  0.00000000000E+00 -0.00000000000E+00 -0.28310102678E+04  0.28310102678E+04  0.00000000000E+00 0. -1.
         23    2    1    2    0    0  0.58177546621E+03  0.24334143301E+04  0.76051401223E+03  0.26165525563E+04  0.89429983623E+02 0.  0.
         11    1    3    3    0    0  0.48878753264E+03  0.20271631760E+04  0.59893072837E+03  0.21695671945E+04  0.00000000000E+00 0.  1.
        -11    1    3    3    0    0  0.92987933573E+02  0.40625115406E+03  0.16158328386E+03  0.44698536172E+03  0.00000000000E+00 0. -1.
         22    1    1    2    0    0 -0.58177546621E+03 -0.24334143301E+04 -0.10806056024E+04  0.27253763892E+04  0.00000000000E+00 0. -1.
<mgrwt>
<rscale>  0 0.53323303E+04</rscale>
<asrwt>0</asrwt>
<pdfrwt beam="1">  1        2 0.43554004E+00 0.53323303E+04</pdfrwt>
<pdfrwt beam="2">  1       -2 0.38629518E+00 0.53323303E+04</pdfrwt>
<totfact> 0.14319901E-02</totfact>
</mgrwt>
</event>
<event>
 6    1  0.2003386E-005  0.3656618E+03  0.7818608E-02  0.1056364E+00
          2   -1    0    0  501    0  0.00000000000E+00  0.00000000000E+00  0.53401189285E+03  0.53401189285E+03  0.00000000000E+00 0. -1.
         -2   -1    0    0    0  501 -0.00000000000E+00 -0.00000000000E+00 -0.62596231396E+02  0.62596231396E+02  0.00000000000E+00 0.  1.
         23    2    1    2    0    0 -0.86031950706E+02 -0.12952831474E+02  0.88018388335E+01  0.12588440351E+03  0.90554614980E+02 0.  0.
         11    1    3    3    0    0 -0.78687585599E+02 -0.26855863696E+02  0.39000955816E+02  0.91837073651E+02  0.00000000000E+00 0. -1.
        -11    1    3    3    0    0 -0.73443651064E+01  0.13903032222E+02 -0.30199116983E+02  0.34047329856E+02  0.00000000000E+00 0.  1.
         22    1    1    2    0    0  0.86031950706E+02  0.12952831474E+02  0.46261382262E+03  0.47072372074E+03  0.00000000000E+00 0. -1.
<mgrwt>
<rscale>  0 0.36566177E+03</rscale>
<asrwt>0</asrwt>
<pdfrwt beam="1">  1        2 0.82155673E-01 0.36566177E+03</pdfrwt>
<pdfrwt beam="2">  1       -2 0.96301898E-02 0.36566177E+03</pdfrwt>
<totfact> 0.40896897E+03</totfact>
</mgrwt>
</event>
<event>
 6    1  0.2003386E-005  0.2771690E+04  0.7818608E-02  0.8312112E-01
          2   -1    0    0  501    0  0.00000000000E+00  0.00000000000E+00  0.25133544759E+04  0.25133544759E+04  0.00000000000E+00 0. -1.
         -2   -1    0    0    0  501 -0.00000000000E+00 -0.00000000000E+00 -0.76414443307E+03  0.76414443307E+03  0.00000000000E+00 0.  1.
         23    2    1    2    0    0 -0.11937184746E+04 -0.55351634268E+03  0.13840850480E+04  0.19119732226E+04  0.92768774587E+02 0.  0.
         11    1    3    3    0    0 -0.58245224676E+03 -0.23741515666E+03  0.71267635485E+03  0.95053888038E+03  0.00000000000E+00 0.  1.
        -11    1    3    3    0    0 -0.61126622786E+03 -0.31610118602E+03  0.67140869314E+03  0.96143434220E+03  0.00000000000E+00 0. -1.
         22    1    1    2    0    0  0.11937184746E+04  0.55351634268E+03  0.36512499481E+03  0.13655256864E+04  0.00000000000E+00 0. -1.
<mgrwt>
<rscale>  0 0.27716896E+04</rscale>
<asrwt>0</asrwt>
<pdfrwt beam="1">  1        2 0.38666991E+00 0.27716896E+04</pdfrwt>
<pdfrwt beam="2">  1       -2 0.11756068E+00 0.27716896E+04</pdfrwt>
<totfact> 0.16658426E+00</totfact>
</mgrwt>
</event>
<event>
 6    1  0.2003386E-005  0.4798971E+04  0.7818608E-02  0.7860289E-01
         -2   -1    0    0    0  501 -0.00000000000E+00  0.00000000000E+00  0.25774925203E+04  0.25774925203E+04  0.00000000000E+00 0.  1.
          2   -1    0    0  501    0  0.00000000000E+00 -0.00000000000E+00 -0.22337716076E+04  0.22337716076E+04  0.00000000000E+00 0. -1.
         23    2    1    2    0    0  0.22849409959E+04 -0.21007912232E+03  0.87317838327E+03  0.24563938967E+04  0.79636012632E+02 0.  0.
         11    1    3    3    0    0  0.20839495319E+04 -0.17911406683E+03  0.77525760890E+03  0.22306841688E+04  0.00000000000E+00 0.  1.
        -11    1    3    3    0    0  0.20099146394E+03 -0.30965055496E+02  0.97920774361E+02  0.22570972795E+03  0.00000000000E+00 0. -1.
         22    1    1    2    0    0 -0.22849409959E+04  0.21007912232E+03 -0.52945747058E+03  0.23548702311E+04  0.00000000000E+00 0. -1.
<mgrwt>
<rscale>  0 0.47989706E+04</rscale>
<asrwt>0</asrwt>
<pdfrwt beam="1">  1        2 0.34365717E+00 0.47989706E+04</pdfrwt>
<pdfrwt beam="2">  1       -2 0.39653731E+00 0.47989706E+04</pdfrwt>
<totfact> 0.28600303E-02</totfact>
</mgrwt>
</event>
<event>
 6    1  0.2003386E-005  0.4030329E+04  0.7818608E-02  0.7998456E-01
          2   -1    0    0  501    0  0.00000000000E+00  0.00000000000E+00  0.27200224991E+04  0.27200224991E+04  0.00000000000E+00 0. -1.
         -2   -1    0    0    0  501 -0.00000000000E+00 -0.00000000000E+00 -0.14929614099E+04  0.14929614099E+04  0.00000000000E+00 0.  1.
         23    2    1    2    0    0 -0.89481769171E+03 -0.35745880172E+03  0.24627169065E+04  0.26460375809E+04  0.89804352543E+02 0.  0.
         13    1    3    3    0    0 -0.14065615990E+03 -0.88424577153E+02  0.46767900945E+03  0.49631312399E+03  0.00000000000E+00 0. -1.
        -13    1    3    3    0    0 -0.75416153181E+03 -0.26903422457E+03  0.19950378970E+04  0.21497244569E+04  0.00000000000E+00 0.  1.
         22    1    1    2    0    0  0.89481769171E+03  0.35745880172E+03 -0.12356558173E+04  0.15669463281E+04  0.00000000000E+00 0.  1.
<mgrwt>
<rscale>  0 0.40303293E+04</rscale>
<asrwt>0</asrwt>
<pdfrwt beam="1">  1        2 0.41846500E+00 0.40303293E+04</pdfrwt>
<pdfrwt beam="2">  1       -2 0.22968637E+00 0.40303293E+04</pdfrwt>
<totfact> 0.17457853E-01</totfact>
</mgrwt>
</event>
<event>
 6    1  0.2003386E-005  0.3381083E+04  0.7818608E-02  0.8142565E-01
          1   -1    0    0  501    0  0.00000000000E+00  0.00000000000E+00  0.19844962766E+04  0.19844962766E+04  0.00000000000E+00 0. -1.
         -1   -1    0    0    0  501 -0.00000000000E+00 -0.00000000000E+00 -0.14401286955E+04  0.14401286955E+04  0.00000000000E+00 0.  1.
         23    2    1    2    0    0 -0.30790510448E+02 -0.60679852529E+03 -0.13239096354E+04  0.14600353804E+04  0.99066055515E+02 0.  0.
         11    1    3    3    0    0 -0.30697033988E+02 -0.58253828855E+03 -0.13044155190E+04  0.14289132275E+04  0.00000000000E+00 0. -1.
        -11    1    3    3    0    0 -0.93476459287E-01 -0.24260236743E+02 -0.19494116436E+02  0.31122152887E+02  0.00000000000E+00 0.  1.
         22    1    1    2    0    0  0.30790510448E+02  0.60679852529E+03  0.18682772166E+04  0.19645895917E+04  0.00000000000E+00 0. -1.
<mgrwt>
<rscale>  0 0.33810827E+04</rscale>
<asrwt>0</asrwt>
<pdfrwt beam="1">  1        1 0.30530712E+00 0.33810827E+04</pdfrwt>
<pdfrwt beam="2">  1       -1 0.22155826E+00 0.33810827E+04</pdfrwt>
<totfact> 0.27030484E-01</totfact>
</mgrwt>
</event>
<event>
 6    1  0.2003386E-005  0.1224506E+04  0.7818608E-02  0.9091673E-01
         -2   -1    0    0    0  501 -0.00000000000E+00  0.00000000000E+00  0.53495090920E+03  0.53495090920E+03  0.00000000000E+00 0.  1.
          2   -1    0    0  501    0  0.00000000000E+00 -0.00000000000E+00 -0.70072518024E+03  0.70072518024E+03  0.00000000000E+00 0. -1.
         23    2    1    2    0    0 -0.60707845806E+03  0.33526045852E+02 -0.12434866109E+03  0.62626298558E+03  0.84109973259E+02 0.  0.
         11    1    3    3    0    0 -0.34935113872E+03 -0.22387454336E+02 -0.69913098921E+02  0.35698075247E+03  0.00000000000E+00 0.  1.
        -11    1    3    3    0    0 -0.25772731934E+03  0.55913500189E+02 -0.54435562174E+02  0.26928223311E+03  0.00000000000E+00 0. -1.
         22    1    1    2    0    0  0.60707845806E+03 -0.33526045852E+02 -0.41425609941E+02  0.60941310386E+03  0.00000000000E+00 0.  1.
<mgrwt>
<rscale>  0 0.12245057E+04</rscale>
<asrwt>0</asrwt>
<pdfrwt beam="1">  1        2 0.10780387E+00 0.12245057E+04</pdfrwt>
<pdfrwt beam="2">  1       -2 0.82300140E-01 0.12245057E+04</pdfrwt>
<totfact> 0.52293788E+01</totfact>
</mgrwt>
</event>
<event>
 6    1  0.2003386E-005  0.1963535E+04  0.7818608E-02  0.8623862E-01
          2   -1    0    0  501    0  0.00000000000E+00  0.00000000000E+00  0.15923517092E+04  0.15923517092E+04  0.00000000000E+00 0. -1.
         -2   -1    0    0    0  501 -0.00000000000E+00 -0.00000000000E+00 -0.60531056892E+03  0.60531056892E+03  0.00000000000E+00 0.  1.
         23    2    1    2    0    0 -0.54281062752E+03 -0.56824826053E+03  0.11493075342E+04  0.13952410387E+04  0.90776014242E+02 0.  0.
         13    1    3    3    0    0 -0.34800114411E+03 -0.32393899983E+03  0.63160497805E+03  0.79054798729E+03  0.00000000000E+00 0.  1.
        -13    1    3    3    0    0 -0.19480948341E+03 -0.24430926071E+03  0.51770255620E+03  0.60469305138E+03  0.00000000000E+00 0. -1.
         22    1    1    2    0    0  0.54281062752E+03  0.56824826053E+03 -0.16226639395E+03  0.80242123947E+03  0.00000000000E+00 0.  1.
<mgrwt>
<rscale>  0 0.19635349E+04</rscale>
<asrwt>0</asrwt>
<pdfrwt beam="1">  1        2 0.24497719E+00 0.19635349E+04</pdfrwt>
<pdfrwt beam="2">  1       -2 0.93124703E-01 0.19635349E+04</pdfrwt>
<totfact> 0.10247069E+01</totfact>
</mgrwt>
</event>
<event>
 6    1  0.2003386E-005  0.1756286E+04  0.7818608E-02  0.8729898E-01
         -2   -1    0    0    0  501 -0.00000000000E+00  0.00000000000E+00  0.93926670369E+03  0.93926670369E+03  0.00000000000E+00 0.  1.
          2   -1    0    0  501    0  0.00000000000E+00 -0.00000000000E+00 -0.82099655123E+03  0.82099655123E+03  0.00000000000E+00 0. -1.
         23    2    1    2    0    0  0.13304005505E+03  0.14627167217E+03  0.91437134170E+03  0.93997540189E+03  0.91562805187E+02 0.  0.
         11    1    3    3    0    0  0.74686794069E+02  0.83830315694E+02  0.31230569662E+03  0.33187420384E+03  0.00000000000E+00 0. -1.
        -11    1    3    3    0    0  0.58353260981E+02  0.62441356474E+02  0.60206564509E+03  0.60810119804E+03  0.00000000000E+00 0.  1.
         22    1    1    2    0    0 -0.13304005505E+03 -0.14627167217E+03 -0.79610118924E+03  0.82028785304E+03  0.00000000000E+00 0. -1.
<mgrwt>
<rscale>  0 0.17562855E+04</rscale>
<asrwt>0</asrwt>
<pdfrwt beam="1">  1        2 0.12630716E+00 0.17562855E+04</pdfrwt>
<pdfrwt beam="2">  1       -2 0.14450257E+00 0.17562855E+04</pdfrwt>
<totfact> 0.10418387E+01</totfact>
</mgrwt>
</event>
<event>
 6    1  0.2003386E-005  0.4017360E+04  0.7818608E-02  0.8001054E-01
          2   -1    0    0  501    0  0.00000000000E+00  0.00000000000E+00  0.36478955144E+04  0.36478955144E+04  0.00000000000E+00 0. -1.
         -2   -1    0    0    0  501 -0.00000000000E+00 -0.00000000000E+00 -0.11060610741E+04  0.11060610741E+04  0.00000000000E+00 0.  1.
         23    2    1    2    0    0 -0.79741825594E+03 -0.16197558812E+04  0.23259453052E+03  0.18227326205E+04  0.93642942814E+02 0.  0.
         11    1    3    3    0    0 -0.19420064530E+03 -0.31052297639E+03  0.53496797512E+02  0.37013553847E+03  0.00000000000E+00 0. -1.
        -11    1    3    3    0    0 -0.60321761064E+03 -0.13092329048E+04  0.17909773301E+03  0.14525970820E+04  0.00000000000E+00 0.  1.
         22    1    1    2    0    0  0.79741825594E+03  0.16197558812E+04  0.23092399097E+04  0.29312239679E+04  0.00000000000E+00 0. -1.
<mgrwt>
<rscale>  0 0.40173599E+04</rscale>
<asrwt>0</asrwt>
<pdfrwt beam="1">  1        2 0.56121469E+00 0.40173599E+04</pdfrwt>
<pdfrwt beam="2">  1       -2 0.17016324E+00 0.40173599E+04</pdfrwt>
<totfact> 0.10649284E-01</totfact>
</mgrwt>
</event>
<event>
 6    1  0.2003386E-005  0.2303762E+04  0.7818608E-02  0.8476439E-01
          2   -1    0    0  501    0  0.00000000000E+00  0.00000000000E+00  0.17320265834E+04  0.17320265834E+04  0.00000000000E+00 0. -1.
         -2   -1    0    0    0  501 -0.00000000000E+00 -0.00000000000E+00 -0.76605608723E+03  0.76605608723E+03  0.00000000000E+00 0.  1.
         23    2    1    2    0    0  0.41019139276E+03  0.10676468869E+04  0.61575679687E+03  0.13019319740E+04  0.87997602596E+02 0.  0.
         11    1    3    3    0    0  0.24938108234E+03  0.68246338025E+03  0.43676878126E+03  0.84777010910E+03  0.00000000000E+00 0.  1.
        -11    1    3    3    0    0  0.16081031042E+03  0.38518350668E+03  0.17898801562E+03  0.45416186486E+03  0.00000000000E+00 0. -1.
         22    1    1    2    0    0 -0.41019139276E+03 -0.10676468869E+04  0.35021369926E+03  0.11961506966E+04  0.00000000000E+00 0. -1.
<mgrwt>
<rscale>  0 0.23037617E+04</rscale>
<asrwt>0</asrwt>
<pdfrwt beam="1">  1        2 0.26646563E+00 0.23037617E+04</pdfrwt>
<pdfrwt beam="2">  1       -2 0.11785478E+00 0.23037617E+04</pdfrwt>
<totfact> 0.47374962E+00</totfact>
</mgrwt>
</event>
<event>
 6    1  0.2003386E-005  0.7510303E+03  0.7818608E-02  0.9633735E-01
         -2   -1    0    0    0  501 -0.00000000000E+00  0.00000000000E+00  0.13255751412E+03  0.13255751412E+03  0.00000000000E+00 0.  1.
          2   -1    0    0  501    0  0.00000000000E+00 -0.00000000000E+00 -0.10637769403E+04  0.10637769403E+04  0.00000000000E+00 0. -1.
         23    2    1    2    0    0 -0.80620801381E+02 -0.19597570420E+03 -0.95581203877E+03  0.98300141237E+03  0.88368167338E+02 0.  0.
         11    1    3    3    0    0  0.13737655191E+02 -0.25159033505E+02 -0.21562375687E+03  0.21752081432E+03  0.00000000000E+00 0. -1.
        -11    1    3    3    0    0 -0.94358456573E+02 -0.17081667070E+03 -0.74018828191E+03  0.76548059805E+03  0.00000000000E+00 0.  1.
         22    1    1    2    0    0  0.80620801381E+02  0.19597570420E+03  0.24592612550E+02  0.21333304209E+03  0.00000000000E+00 0.  1.
<mgrwt>
<rscale>  0 0.75103030E+03</rscale>
<asrwt>0</asrwt>
<pdfrwt beam="1">  1        2 0.16365798E+00 0.75103030E+03</pdfrwt>
<pdfrwt beam="2">  1       -2 0.20393465E-01 0.75103030E+03</pdfrwt>
<totfact> 0.47622257E+02</totfact>
</mgrwt>
</event>
<event>
 6    1  0.2003386E-005  0.4623059E+04  0.7818608E-02  0.7889440E-01
          2   -1    0    0  501    0  0.00000000000E+00  0.00000000000E+00  0.29187094167E+04  0.29187094167E+04  0.00000000000E+00 0. -1.
         -2   -1    0    0    0  501 -0.00000000000E+00 -0.00000000000E+00 -0.18306612922E+04  0.18306612922E+04  0.00000000000E+00 0.  1.
         23    2    1    2    0    0  0.72199928935E+03 -0.16452964923E+04  0.20367692137E+04  0.27175352759E+04  0.91025402476E+02 0.  0.
         11    1    3    3    0    0  0.36897351753E+03 -0.73771285135E+03  0.96194270768E+03  0.12671604005E+04  0.00000000000E+00 0.  1.
        -11    1    3    3    0    0  0.35302577182E+03 -0.90758364100E+03  0.10748265061E+04  0.14503748754E+04  0.00000000000E+00 0. -1.
         22    1    1    2    0    0 -0.72199928935E+03  0.16452964923E+04 -0.94872108925E+03  0.20318354330E+04  0.00000000000E+00 0.  1.
<mgrwt>
<rscale>  0 0.46230589E+04</rscale>
<asrwt>0</asrwt>
<pdfrwt beam="1">  1        2 0.44903222E+00 0.46230589E+04</pdfrwt>
<pdfrwt beam="2">  1       -2 0.28164020E+00 0.46230589E+04</pdfrwt>
<totfact> 0.60378129E-02</totfact>
</mgrwt>
</event>
<event>
 6    1  0.2003386E-005  0.1280537E+04  0.7818608E-02  0.9045143E-01
          1   -1    0    0  501    0  0.00000000000E+00  0.00000000000E+00  0.23693152722E+03  0.23693152722E+03  0.00000000000E+00 0. -1.
         -1   -1    0    0    0  501 -0.00000000000E+00 -0.00000000000E+00 -0.17302209808E+04  0.17302209808E+04  0.00000000000E+00 0.  1.
         23    2    1    2    0    0 -0.13855414873E+03  0.36510998322E+03  0.23321856355E+02  0.40107063999E+03  0.88380978173E+02 0.  0.
         13    1    3    3    0    0 -0.64128751201E+02  0.27011248891E+03  0.35039058372E+02  0.27982313880E+03  0.00000000000E+00 0. -1.
        -13    1    3    3    0    0 -0.74425397526E+02  0.94997494306E+02 -0.11717202017E+02  0.12124750119E+03  0.00000000000E+00 0.  1.
         22    1    1    2    0    0  0.13855414873E+03 -0.36510998322E+03 -0.15166113099E+04  0.15660818680E+04  0.00000000000E+00 0.  1.
<mgrwt>
<rscale>  0 0.12805372E+04</rscale>
<asrwt>0</asrwt>
<pdfrwt beam="1">  1        1 0.36451004E-01 0.12805372E+04</pdfrwt>
<pdfrwt beam="2">  1       -1 0.26618785E+00 0.12805372E+04</pdfrwt>
<totfact> 0.64359926E+00</totfact>
</mgrwt>
</event>
<event>
 6    1  0.2003386E-005  0.2375190E+04  0.7818608E-02  0.8448851E-01
          2   -1    0    0  501    0  0.00000000000E+00  0.00000000000E+00  0.26699585385E+04  0.26699585385E+04  0.00000000000E+00 0. -1.
         -2   -1    0    0    0  501 -0.00000000000E+00 -0.00000000000E+00 -0.52824102918E+03  0.52824102918E+03  0.00000000000E+00 0.  1.
         23    2    1    2    0    0  0.86411014502E+03 -0.57879348673E+03  0.30524707391E+03  0.10876754851E+04  0.90409854436E+02 0.  0.
         11    1    3    3    0    0  0.58962551387E+03 -0.35145294161E+03  0.22486636908E+03  0.72231731304E+03  0.00000000000E+00 0.  1.
        -11    1    3    3    0    0  0.27448463115E+03 -0.22734054511E+03  0.80380704823E+02  0.36535817207E+03  0.00000000000E+00 0. -1.
         22    1    1    2    0    0 -0.86411014502E+03  0.57879348673E+03  0.18364704354E+04  0.21105240826E+04  0.00000000000E+00 0. -1.
<mgrwt>
<rscale>  0 0.23751898E+04</rscale>
<asrwt>0</asrwt>
<pdfrwt beam="1">  1        2 0.41076285E+00 0.23751898E+04</pdfrwt>
<pdfrwt beam="2">  1       -2 0.81267852E-01 0.23751898E+04</pdfrwt>
<totfact> 0.33265158E+00</totfact>
</mgrwt>
</event>
<event>
 6    1  0.2003386E-005  0.7724430E+03  0.7818608E-02  0.9600784E-01
         -2   -1    0    0    0  501 -0.00000000000E+00  0.00000000000E+00  0.11843381052E+03  0.11843381052E+03  0.00000000000E+00 0.  1.
          2   -1    0    0  501    0  0.00000000000E+00 -0.00000000000E+00 -0.12594972707E+04  0.12594972707E+04  0.00000000000E+00 0. -1.
         23    2    1    2    0    0  0.33456873920E+03 -0.47892913955E+02 -0.89226789785E+03  0.95825358088E+03  0.88757823782E+02 0.  0.
         11    1    3    3    0    0  0.29327556861E+03 -0.16105614331E+02 -0.70177446113E+03  0.76076102966E+03  0.00000000000E+00 0. -1.
        -11    1    3    3    0    0  0.41293170595E+02 -0.31787299624E+02 -0.19049343672E+03  0.19749255122E+03  0.00000000000E+00 0.  1.
         22    1    1    2    0    0 -0.33456873920E+03  0.47892913955E+02 -0.24879556233E+03  0.41967750034E+03  0.00000000000E+00 0.  1.
<mgrwt>
<rscale>  0 0.77244304E+03</rscale>
<asrwt>0</asrwt>
<pdfrwt beam="1">  1        2 0.19376881E+00 0.77244304E+03</pdfrwt>
<pdfrwt beam="2">  1       -2 0.18220586E-01 0.77244304E+03</pdfrwt>
<totfact> 0.44176856E+02</totfact>
</mgrwt>
</event>
<event>
 6    1  0.2003386E-005  0.2064611E+04  0.7818608E-02  0.8576995E-01
          2   -1    0    0  501    0  0.00000000000E+00  0.00000000000E+00  0.24088448346E+04  0.24088448346E+04  0.00000000000E+00 0. -1.
         -2   -1    0    0    0  501 -0.00000000000E+00 -0.00000000000E+00 -0.44239246236E+03  0.44239246236E+03  0.00000000000E+00 0.  1.
         23    2    1    2    0    0  0.17817357778E+03  0.90702468753E+03  0.35652610613E+03  0.99481541875E+03  0.90040243384E+02 0.  0.
         11    1    3    3    0    0  0.22345944420E+02  0.28473475191E+03  0.13719622306E+03  0.31685331591E+03  0.00000000000E+00 0.  1.
        -11    1    3    3    0    0  0.15582763336E+03  0.62228993562E+03  0.21932988307E+03  0.67796210285E+03  0.00000000000E+00 0. -1.
         22    1    1    2    0    0 -0.17817357778E+03 -0.90702468753E+03  0.16099262661E+04  0.18564218782E+04  0.00000000000E+00 0. -1.
<mgrwt>
<rscale>  0 0.20646111E+04</rscale>
<asrwt>0</asrwt>
<pdfrwt beam="1">  1        2 0.37059150E+00 0.20646111E+04</pdfrwt>
<pdfrwt beam="2">  1       -2 0.68060380E-01 0.20646111E+04</pdfrwt>
<totfact> 0.71787049E+00</totfact>
</mgrwt>
</event>
<event>
 6    1  0.2003386E-005  0.3474469E+04  0.7818608E-02  0.8119867E-01
         -2   -1    0    0    0  501 -0.00000000000E+00  0.00000000000E+00  0.15824406042E+04  0.15824406042E+04  0.00000000000E+00 0.  1.
          2   -1    0    0  501    0  0.00000000000E+00 -0.00000000000E+00 -0.19071702256E+04  0.19071702256E+04  0.00000000000E+00 0. -1.
         23    2    1    2    0    0 -0.97230191270E+03 -0.14361072321E+04 -0.84618303372E+02  0.17387743335E+04  0.91656609085E+02 0.  0.
         13    1    3    3    0    0 -0.60884510501E+03 -0.93347910143E+03 -0.93908907206E+02  0.11184339397E+04  0.00000000000E+00 0. -1.
        -13    1    3    3    0    0 -0.36345680769E+03 -0.50262813071E+03  0.92906038333E+01  0.62034039379E+03  0.00000000000E+00 0.  1.
         22    1    1    2    0    0  0.97230191270E+03  0.14361072321E+04 -0.24011131799E+03  0.17508364963E+04  0.00000000000E+00 0.  1.
<mgrwt>
<rscale>  0 0.34744689E+04</rscale>
<asrwt>0</asrwt>
<pdfrwt beam="1">  1        2 0.29341080E+00 0.34744689E+04</pdfrwt>
<pdfrwt beam="2">  1       -2 0.24345240E+00 0.34744689E+04</pdfrwt>
<totfact> 0.43694544E-01</totfact>
</mgrwt>
</event>
<event>
 6    1  0.2003386E-005  0.1885756E+04  0.7818608E-02  0.8661979E-01
         -4   -1    0    0    0  501 -0.00000000000E+00  0.00000000000E+00  0.12042542608E+04  0.12042542608E+04  0.00000000000E+00 0.  1.
          4   -1    0    0  501    0  0.00000000000E+00 -0.00000000000E+00 -0.73823156866E+03  0.73823156866E+03  0.00000000000E+00 0. -1.
         23    2    1    2    0    0  0.13317380430E+03 -0.72920327111E+03  0.83032114044E+03  0.11165402912E+04  0.88070159124E+02 0.  0.
         13    1    3    3    0    0  0.10690030376E+03 -0.34326684884E+03  0.38994013615E+03  0.53038958723E+03  0.00000000000E+00 0.  1.
        -13    1    3    3    0    0  0.26273500540E+02 -0.38593642227E+03  0.44038100428E+03  0.58615070400E+03  0.00000000000E+00 0. -1.
         22    1    1    2    0    0 -0.13317380430E+03  0.72920327111E+03 -0.36429844828E+03  0.82594553826E+03  0.00000000000E+00 0. -1.
<mgrwt>
<rscale>  0 0.18857556E+04</rscale>
<asrwt>0</asrwt>
<pdfrwt beam="1">  1        4 0.11357409E+00 0.18857556E+04</pdfrwt>
<pdfrwt beam="2">  1       -4 0.18526989E+00 0.18857556E+04</pdfrwt>
<totfact> 0.18808028E-01</totfact>
</mgrwt>
</event>
<event>
 6    1  0.2003386E-005  0.4647704E+04  0.7818608E-02  0.7885276E-01
          3   -1    0    0  501    0  0.00000000000E+00  0.00000000000E+00  0.11542522654E+04  0.11542522654E+04  0.00000000000E+00 0. -1.
         -3   -1    0    0    0  501 -0.00000000000E+00 -0.00000000000E+00 -0.46786030547E+04  0.46786030547E+04  0.00000000000E+00 0.  1.
         23    2    1    2    0    0 -0.61543779012E+03 -0.21595079314E+04 -0.25092295392E+04  0.33685685406E+04  0.93717408591E+02 0.  0.
         13    1    3    3    0    0 -0.29441371271E+03 -0.10735177548E+04 -0.13120938277E+04  0.17206713855E+04  0.00000000000E+00 0.  1.
        -13    1    3    3    0    0 -0.32102407742E+03 -0.10859901766E+04 -0.11971357115E+04  0.16478971551E+04  0.00000000000E+00 0. -1.
         22    1    1    2    0    0  0.61543779012E+03  0.21595079314E+04 -0.10151212500E+04  0.24642867795E+04  0.00000000000E+00 0. -1.
<mgrwt>
<rscale>  0 0.46477040E+04</rscale>
<asrwt>0</asrwt>
<pdfrwt beam="1">  1        3 0.17757727E+00 0.46477040E+04</pdfrwt>
<pdfrwt beam="2">  1       -3 0.71978508E+00 0.46477040E+04</pdfrwt>
<totfact> 0.69161540E-05</totfact>
</mgrwt>
</event>
<event>
 6    1  0.2003386E-005  0.9232574E+03  0.7818608E-02  0.9396967E-01
         -4   -1    0    0    0  501 -0.00000000000E+00  0.00000000000E+00  0.50235277646E+03  0.50235277646E+03  0.00000000000E+00 0.  1.
          4   -1    0    0  501    0  0.00000000000E+00 -0.00000000000E+00 -0.42420601399E+03  0.42420601399E+03  0.00000000000E+00 0. -1.
         23    2    1    2    0    0 -0.72699609677E+02  0.29380693757E+02  0.49150379223E+03  0.50583026460E+03  0.90220953222E+02 0.  0.
         13    1    3    3    0    0 -0.34595886792E+02 -0.32092364162E+02  0.18954099434E+03  0.19532686389E+03  0.00000000000E+00 0. -1.
        -13    1    3    3    0    0 -0.38103722885E+02  0.61473057919E+02  0.30196279789E+03  0.31050340071E+03  0.00000000000E+00 0.  1.
         22    1    1    2    0    0  0.72699609677E+02 -0.29380693757E+02 -0.41335702976E+03  0.42072852585E+03  0.00000000000E+00 0. -1.
<mgrwt>
<rscale>  0 0.92325743E+03</rscale>
<asrwt>0</asrwt>
<pdfrwt beam="1">  1        4 0.65262464E-01 0.92325743E+03</pdfrwt>
<pdfrwt beam="2">  1       -4 0.77285042E-01 0.92325743E+03</pdfrwt>
<totfact> 0.65147057E+00</totfact>
</mgrwt>
</event>
<event>
 6    1  0.2003386E-005  0.4489806E+04  0.7818608E-02  0.7912424E-01
         -1   -1    0    0    0  501 -0.00000000000E+00  0.00000000000E+00  0.15580922815E+04  0.15580922815E+04  0.00000000000E+00 0.  1.
          1   -1    0    0  501    0  0.00000000000E+00 -0.00000000000E+00 -0.32344610212E+04  0.32344610212E+04  0.00000000000E+00 0. -1.
         23    2    1    2    0    0  0.12778095539E+04 -0.16763027070E+04 -0.16818409584E+02  0.21098503150E+04  0.91637717676E+02 0.  0.
         11    1    3    3    0    0  0.40672084818E+03 -0.57742351349E+03 -0.39749862243E+02  0.70740357210E+03  0.00000000000E+00 0. -1.
        -11    1    3    3    0    0  0.87108870574E+03 -0.10988791935E+04  0.22931452659E+02  0.14024467429E+04  0.00000000000E+00 0.  1.
         22    1    1    2    0    0 -0.12778095539E+04  0.16763027070E+04 -0.16595503301E+04  0.26827029876E+04  0.00000000000E+00 0.  1.
<mgrwt>
<rscale>  0 0.44898057E+04</rscale>
<asrwt>0</asrwt>
<pdfrwt beam="1">  1        1 0.49760939E+00 0.44898057E+04</pdfrwt>
<pdfrwt beam="2">  1       -1 0.23970650E+00 0.44898057E+04</pdfrwt>
<totfact> 0.24507327E-02</totfact>
</mgrwt>
</event>
<event>
 6    1  0.2003386E-005  0.2045219E+04  0.7818608E-02  0.8585767E-01
          2   -1    0    0  501    0  0.00000000000E+00  0.00000000000E+00  0.22701069955E+04  0.22701069955E+04  0.00000000000E+00 0. -1.
         -2   -1    0    0    0  501 -0.00000000000E+00 -0.00000000000E+00 -0.46065220519E+03  0.46065220519E+03  0.00000000000E+00 0.  1.
         23    2    1    2    0    0 -0.22204378355E+03 -0.94709137423E+03  0.49356456753E+03  0.10943446471E+04  0.87742300480E+02 0.  0.
         13    1    3    3    0    0 -0.83399793025E+02 -0.25088614094E+03  0.16904654007E+03  0.31380904050E+03  0.00000000000E+00 0. -1.
        -13    1    3    3    0    0 -0.13864399052E+03 -0.69620523329E+03  0.32451802746E+03  0.78053560656E+03  0.00000000000E+00 0.  1.
         22    1    1    2    0    0  0.22204378355E+03  0.94709137423E+03  0.13158902228E+04  0.16364145537E+04  0.00000000000E+00 0. -1.
<mgrwt>
<rscale>  0 0.20452186E+04</rscale>
<asrwt>0</asrwt>
<pdfrwt beam="1">  1        2 0.34924722E+00 0.20452186E+04</pdfrwt>
<pdfrwt beam="2">  1       -2 0.70869571E-01 0.20452186E+04</pdfrwt>
<totfact> 0.78956944E+00</totfact>
</mgrwt>
</event>
<event>
 6    1  0.2003386E-005  0.2160453E+04  0.7818608E-02  0.8535071E-01
         -1   -1    0    0    0  501 -0.00000000000E+00  0.00000000000E+00  0.12208939269E+04  0.12208939269E+04  0.00000000000E+00 0.  1.
          1   -1    0    0  501    0  0.00000000000E+00 -0.00000000000E+00 -0.95576604887E+03  0.95576604887E+03  0.00000000000E+00 0. -1.
         23    2    1    2    0    0 -0.10295545574E+04  0.23707680163E+03  0.35094532648E+03  0.11166823198E+04  0.87342913754E+02 0.  0.
         11    1    3    3    0    0 -0.67981529872E+02  0.35402410846E+02  0.13325139621E+02  0.77797033641E+02  0.00000000000E+00 0. -1.
        -11    1    3    3    0    0 -0.96157302757E+03  0.20167439078E+03  0.33762018686E+03  0.10388852862E+04  0.00000000000E+00 0.  1.
         22    1    1    2    0    0  0.10295545574E+04 -0.23707680163E+03 -0.85817448468E+02  0.10599776559E+04  0.00000000000E+00 0. -1.
<mgrwt>
<rscale>  0 0.21604527E+04</rscale>
<asrwt>0</asrwt>
<pdfrwt beam="1">  1        1 0.14704093E+00 0.21604527E+04</pdfrwt>
<pdfrwt beam="2">  1       -1 0.18782983E+00 0.21604527E+04</pdfrwt>
<totfact> 0.27460163E+00</totfact>
</mgrwt>
</event>
<event>
 6    1  0.2003386E-005  0.1054560E+04  0.7818608E-02  0.9250648E-01
         -2   -1    0    0    0  501 -0.00000000000E+00  0.00000000000E+00  0.10216598245E+03  0.10216598245E+03  0.00000000000E+00 0.  1.
          2   -1    0    0  501    0  0.00000000000E+00 -0.00000000000E+00 -0.27213010893E+04  0.27213010893E+04  0.00000000000E+00 0. -1.
         23    2    1    2    0    0 -0.60657698750E+02 -0.51469812487E+03 -0.11132685485E+04  0.12309132711E+04  0.84776788754E+02 0.  0.
         13    1    3    3    0    0 -0.65018141719E+02 -0.19933459697E+03 -0.43379476695E+03  0.48180861360E+03  0.00000000000E+00 0. -1.
        -13    1    3    3    0    0  0.43604429684E+01 -0.31536352790E+03 -0.67947378151E+03  0.74910465754E+03  0.00000000000E+00 0.  1.
         22    1    1    2    0    0  0.60657698750E+02  0.51469812487E+03 -0.15058665584E+04  0.15925538006E+04  0.00000000000E+00 0. -1.
<mgrwt>
<rscale>  0 0.10545604E+04</rscale>
<asrwt>0</asrwt>
<pdfrwt beam="1">  1        2 0.41866167E+00 0.10545604E+04</pdfrwt>
<pdfrwt beam="2">  1       -2 0.15717845E-01 0.10545604E+04</pdfrwt>
<totfact> 0.84489264E+01</totfact>
</mgrwt>
</event>
<event>
 6    1  0.2003386E-005  0.1339736E+04  0.7818608E-02  0.8998635E-01
          2   -1    0    0  501    0  0.00000000000E+00  0.00000000000E+00  0.21851604983E+04  0.21851604983E+04  0.00000000000E+00 0.  1.
         -2   -1    0    0    0  501 -0.00000000000E+00 -0.00000000000E+00 -0.20535010112E+03  0.20535010112E+03  0.00000000000E+00 0. -1.
         23    2    1    2    0    0  0.98646812258E+02 -0.32380009790E+03 -0.29876511515E+02  0.35251669168E+03  0.93796135342E+02 0.  0.
         11    1    3    3    0    0  0.44468256441E+02 -0.15338933381E+03 -0.61102408835E+02  0.17099478917E+03  0.00000000000E+00 0. -1.
        -11    1    3    3    0    0  0.54178555817E+02 -0.17041076409E+03  0.31225897321E+02  0.18152190251E+03  0.00000000000E+00 0.  1.
         22    1    1    2    0    0 -0.98646812258E+02  0.32380009790E+03  0.20096869086E+04  0.20379939077E+04  0.00000000000E+00 0.  1.
<mgrwt>
<rscale>  0 0.13397357E+04</rscale>
<asrwt>0</asrwt>
<pdfrwt beam="1">  1        2 0.33617852E+00 0.13397357E+04</pdfrwt>
<pdfrwt beam="2">  1       -2 0.31592325E-01 0.13397357E+04</pdfrwt>
<totfact> 0.47970851E+01</totfact>
</mgrwt>
</event>
<event>
 6    1  0.2003386E-005  0.3398207E+04  0.7818608E-02  0.8138347E-01
         -2   -1    0    0    0  501 -0.00000000000E+00  0.00000000000E+00  0.34782118367E+04  0.34782118367E+04  0.00000000000E+00 0.  1.
          2   -1    0    0  501    0  0.00000000000E+00 -0.00000000000E+00 -0.83001058016E+03  0.83001058016E+03  0.00000000000E+00 0. -1.
         23    2    1    2    0    0  0.98184340264E+03  0.13045703411E+04  0.73468827275E+03  0.17927796763E+04  0.91497909321E+02 0.  0.
         11    1    3    3    0    0  0.40085715031E+03  0.54605106415E+03  0.35360024775E+03  0.76412783932E+03  0.00000000000E+00 0. -1.
        -11    1    3    3    0    0  0.58098625232E+03  0.75851927692E+03  0.38108802499E+03  0.10286518369E+04  0.00000000000E+00 0.  1.
         22    1    1    2    0    0 -0.98184340264E+03 -0.13045703411E+04  0.19135129838E+04  0.25154427406E+04  0.00000000000E+00 0.  1.
<mgrwt>
<rscale>  0 0.33982070E+04</rscale>
<asrwt>0</asrwt>
<pdfrwt beam="1">  1        2 0.12769394E+00 0.33982070E+04</pdfrwt>
<pdfrwt beam="2">  1       -2 0.53510951E+00 0.33982070E+04</pdfrwt>
<totfact> 0.27747342E-02</totfact>
</mgrwt>
</event>
<event>
 6    1  0.2003386E-005  0.2483096E+04  0.7818608E-02  0.8409032E-01
         -2   -1    0    0    0  501 -0.00000000000E+00  0.00000000000E+00  0.40856802670E+03  0.40856802670E+03  0.00000000000E+00 0. -1.
          2   -1    0    0  501    0  0.00000000000E+00 -0.00000000000E+00 -0.37727910468E+04  0.37727910468E+04  0.00000000000E+00 0.  1.
         23    2    1    2    0    0 -0.55946412481E+02 -0.12368085888E+04 -0.17964449175E+04  0.21836719945E+04  0.91561736467E+02 0.  0.
         13    1    3    3    0    0 -0.42074315508E+02 -0.10332972053E+04 -0.14379583779E+04  0.17712136119E+04  0.00000000000E+00 0. -1.
        -13    1    3    3    0    0 -0.13872096973E+02 -0.20351138355E+03 -0.35848653961E+03  0.41245838262E+03  0.00000000000E+00 0.  1.
         22    1    1    2    0    0  0.55946412481E+02  0.12368085888E+04 -0.15677781026E+04  0.19976870789E+04  0.00000000000E+00 0. -1.
<mgrwt>
<rscale>  0 0.24830963E+04</rscale>
<asrwt>0</asrwt>
<pdfrwt beam="1">  1        2 0.58042937E+00 0.24830963E+04</pdfrwt>
<pdfrwt beam="2">  1       -2 0.62856621E-01 0.24830963E+04</pdfrwt>
<totfact> 0.10817512E+00</totfact>
</mgrwt>
</event>
<event>
 6    1  0.2003386E-005  0.3452413E+04  0.7818608E-02  0.8125161E-01
         -1   -1    0    0    0  501 -0.00000000000E+00  0.00000000000E+00  0.11720122942E+04  0.11720122942E+04  0.00000000000E+00 0.  1.
          1   -1    0    0  501    0  0.00000000000E+00 -0.00000000000E+00 -0.25424552751E+04  0.25424552751E+04  0.00000000000E+00 0. -1.
         23    2    1    2    0    0  0.62410021990E+03 -0.83476913861E+03 -0.21652769864E+04  0.24037037860E+04  0.55016940189E+02 0.  0.
         13    1    3    3    0    0  0.52518727471E+03 -0.66675760721E+03 -0.17638542389E+04  0.19574394387E+04  0.00000000000E+00 0. -1.
        -13    1    3    3    0    0  0.98912945193E+02 -0.16801153140E+03 -0.40142274752E+03  0.44626434726E+03  0.00000000000E+00 0.  1.
         22    1    1    2    0    0 -0.62410021990E+03  0.83476913861E+03  0.79483400557E+03  0.13107637833E+04  0.00000000000E+00 0.  1.
<mgrwt>
<rscale>  0 0.34524130E+04</rscale>
<asrwt>0</asrwt>
<pdfrwt beam="1">  1        1 0.39114696E+00 0.34524130E+04</pdfrwt>
<pdfrwt beam="2">  1       -1 0.18030959E+00 0.34524130E+04</pdfrwt>
<totfact> 0.21460157E-01</totfact>
</mgrwt>
</event>
<event>
 6    1  0.2003386E-005  0.3355363E+04  0.7818608E-02  0.8148949E-01
         -2   -1    0    0    0  501 -0.00000000000E+00  0.00000000000E+00  0.21109826647E+04  0.21109826647E+04  0.00000000000E+00 0.  1.
          2   -1    0    0  501    0  0.00000000000E+00 -0.00000000000E+00 -0.13333197263E+04  0.13333197263E+04  0.00000000000E+00 0. -1.
         23    2    1    2    0    0  0.12073116486E+04  0.11497997581E+04  0.20512018237E+03  0.16815074205E+04  0.75842042388E+02 0.  0.
         11    1    3    3    0    0  0.91490591922E+03  0.87041165324E+03  0.12249567026E+03  0.12687294733E+04  0.00000000000E+00 0. -1.
        -11    1    3    3    0    0  0.29240572941E+03  0.27938810485E+03  0.82624512113E+02  0.41277794724E+03  0.00000000000E+00 0.  1.
         22    1    1    2    0    0 -0.12073116486E+04 -0.11497997581E+04  0.57254275595E+03  0.17627949705E+04  0.00000000000E+00 0. -1.
<mgrwt>
<rscale>  0 0.33553628E+04</rscale>
<asrwt>0</asrwt>
<pdfrwt beam="1">  1        2 0.20512611E+00 0.33553628E+04</pdfrwt>
<pdfrwt beam="2">  1       -2 0.32476656E+00 0.33553628E+04</pdfrwt>
<totfact> 0.29399818E-01</totfact>
</mgrwt>
</event>
<event>
 6    1  0.2003386E-005  0.1534304E+04  0.7818608E-02  0.8861956E-01
          2   -1    0    0  501    0  0.00000000000E+00  0.00000000000E+00  0.25193435132E+03  0.25193435132E+03  0.00000000000E+00 0. -1.
         -2   -1    0    0    0  501 -0.00000000000E+00 -0.00000000000E+00 -0.23360143499E+04  0.23360143499E+04  0.00000000000E+00 0.  1.
         23    2    1    2    0    0 -0.38758324402E+03 -0.50489128363E+03 -0.17601393440E+04  0.18737543810E+04  0.87914679404E+02 0.  0.
         11    1    3    3    0    0 -0.64841086719E+02 -0.11930615514E+03 -0.29552574590E+03  0.32522882970E+03  0.00000000000E+00 0.  1.
        -11    1    3    3    0    0 -0.32274215731E+03 -0.38558512849E+03 -0.14646135981E+04  0.15485255513E+04  0.00000000000E+00 0. -1.
         22    1    1    2    0    0  0.38758324402E+03  0.50489128363E+03 -0.32394065463E+03  0.71419432023E+03  0.00000000000E+00 0. -1.
<mgrwt>
<rscale>  0 0.15343041E+04</rscale>
<asrwt>0</asrwt>
<pdfrwt beam="1">  1        2 0.38759132E-01 0.15343041E+04</pdfrwt>
<pdfrwt beam="2">  1       -2 0.35938681E+00 0.15343041E+04</pdfrwt>
<totfact> 0.17573653E+00</totfact>
</mgrwt>
</event>
<event>
 6    1  0.2003386E-005  0.3984294E+04  0.7818608E-02  0.8007723E-01
          2   -1    0    0  501    0  0.00000000000E+00  0.00000000000E+00  0.13860294595E+04  0.13860294595E+04  0.00000000000E+00 0. -1.
         -2   -1    0    0    0  501 -0.00000000000E+00 -0.00000000000E+00 -0.28633223173E+04  0.28633223173E+04  0.00000000000E+00 0.  1.
         23    2    1    2    0    0  0.72935163660E+03  0.32430034782E+02 -0.27147307319E+04  0.28125991853E+04  0.89138733171E+02 0.  0.
         11    1    3    3    0    0  0.55412560629E+03  0.91516262422E+01 -0.19159263281E+04  0.19944705148E+04  0.00000000000E+00 0. -1.
        -11    1    3    3    0    0  0.17522603031E+03  0.23278408540E+02 -0.79880440384E+03  0.81812867056E+03  0.00000000000E+00 0.  1.
         22    1    1    2    0    0 -0.72935163660E+03 -0.32430034782E+02  0.12374378741E+04  0.14367525915E+04  0.00000000000E+00 0. -1.
<mgrwt>
<rscale>  0 0.39842937E+04</rscale>
<asrwt>0</asrwt>
<pdfrwt beam="1">  1        2 0.21323531E+00 0.39842937E+04</pdfrwt>
<pdfrwt beam="2">  1       -2 0.44051112E+00 0.39842937E+04</pdfrwt>
<totfact> 0.46688571E-02</totfact>
</mgrwt>
</event>
<event>
 6    1  0.2003386E-005  0.7062404E+03  0.7818608E-02  0.9706619E-01
         -2   -1    0    0    0  501 -0.00000000000E+00  0.00000000000E+00  0.54979798745E+03  0.54979798745E+03  0.00000000000E+00 0. -1.
          2   -1    0    0  501    0  0.00000000000E+00 -0.00000000000E+00 -0.22679941858E+03  0.22679941858E+03  0.00000000000E+00 0.  1.
         23    2    1    2    0    0  0.83446479297E+02 -0.21602977369E+03 -0.11899761551E+03  0.27760561748E+03  0.96292618249E+02 0.  0.
         13    1    3    3    0    0  0.26914479582E+01 -0.78469834980E+02  0.13477483226E+00  0.78516094262E+02  0.00000000000E+00 0.  1.
        -13    1    3    3    0    0  0.80755031338E+02 -0.13755993871E+03 -0.11913239035E+03  0.19908952322E+03  0.00000000000E+00 0. -1.
         22    1    1    2    0    0 -0.83446479297E+02  0.21602977369E+03  0.44199618438E+03  0.49899178855E+03  0.00000000000E+00 0. -1.
<mgrwt>
<rscale>  0 0.70624037E+03</rscale>
<asrwt>0</asrwt>
<pdfrwt beam="1">  1        2 0.34892218E-01 0.70624037E+03</pdfrwt>
<pdfrwt beam="2">  1       -2 0.84584305E-01 0.70624037E+03</pdfrwt>
<totfact> 0.18469565E+02</totfact>
</mgrwt>
</event>
<event>
 6    1  0.2003386E-005  0.2392177E+04  0.7818608E-02  0.8442438E-01
          2   -1    0    0  501    0  0.00000000000E+00  0.00000000000E+00  0.14958472328E+04  0.14958472328E+04  0.00000000000E+00 0. -1.
         -2   -1    0    0    0  501 -0.00000000000E+00 -0.00000000000E+00 -0.95639974440E+03  0.95639974440E+03  0.00000000000E+00 0.  1.
         23    2    1    2    0    0 -0.21665538150E+03  0.91957515592E+03 -0.47893284602E+03  0.10631262023E+04  0.91118764662E+02 0.  0.
         13    1    3    3    0    0 -0.15657884778E+03  0.79993788494E+03 -0.40485701291E+03  0.91012458281E+03  0.00000000000E+00 0.  1.
        -13    1    3    3    0    0 -0.60076533720E+02  0.11963727098E+03 -0.74075833118E+02  0.15300161948E+03  0.00000000000E+00 0. -1.
         22    1    1    2    0    0  0.21665538150E+03 -0.91957515592E+03  0.10183803344E+04  0.13891207749E+04  0.00000000000E+00 0. -1.
<mgrwt>
<rscale>  0 0.23921772E+04</rscale>
<asrwt>0</asrwt>
<pdfrwt beam="1">  1        2 0.23013034E+00 0.23921772E+04</pdfrwt>
<pdfrwt beam="2">  1       -2 0.14713842E+00 0.23921772E+04</pdfrwt>
<totfact> 0.36213329E+00</totfact>
</mgrwt>
</event>
<event>
 6    1  0.2003386E-005  0.1554408E+04  0.7818608E-02  0.8849057E-01
          2   -1    0    0  501    0  0.00000000000E+00  0.00000000000E+00  0.42462940567E+03  0.42462940567E+03  0.00000000000E+00 0. -1.
         -2   -1    0    0    0  501 -0.00000000000E+00 -0.00000000000E+00 -0.14225261669E+04  0.14225261669E+04  0.00000000000E+00 0.  1.
         23    2    1    2    0    0  0.40661732928E+03  0.59548547476E+03 -0.16474805949E+03  0.74530378474E+03  0.91625353060E+02 0.  0.
         11    1    3    3    0    0  0.26152964775E+03  0.43172841547E+03 -0.81939061635E+02  0.51137187174E+03  0.00000000000E+00 0.  1.
        -11    1    3    3    0    0  0.14508768153E+03  0.16375705929E+03 -0.82808997852E+02  0.23393191301E+03  0.00000000000E+00 0. -1.
         22    1    1    2    0    0 -0.40661732928E+03 -0.59548547476E+03 -0.83314870178E+03  0.11018517879E+04  0.00000000000E+00 0.  1.
<mgrwt>
<rscale>  0 0.15544085E+04</rscale>
<asrwt>0</asrwt>
<pdfrwt beam="1">  1        2 0.65327602E-01 0.15544085E+04</pdfrwt>
<pdfrwt beam="2">  1       -2 0.21885018E+00 0.15544085E+04</pdfrwt>
<totfact> 0.71821686E+00</totfact>
</mgrwt>
</event>
<event>
 6    1  0.2003386E-005  0.3457474E+04  0.7818608E-02  0.8123943E-01
         -2   -1    0    0    0  501 -0.00000000000E+00  0.00000000000E+00  0.23976883873E+04  0.23976883873E+04  0.00000000000E+00 0.  1.
          2   -1    0    0  501    0  0.00000000000E+00 -0.00000000000E+00 -0.12464220589E+04  0.12464220589E+04  0.00000000000E+00 0. -1.
         23    2    1    2    0    0  0.15484220329E+04 -0.74579208346E+03  0.76064340299E+03  0.18816113984E+04  0.89813387463E+02 0.  0.
         11    1    3    3    0    0  0.19986994196E+03 -0.72735234632E+02  0.11697479797E+03  0.24273753606E+03  0.00000000000E+00 0.  1.
        -11    1    3    3    0    0  0.13485520909E+04 -0.67305684883E+03  0.64366860502E+03  0.16388738624E+04  0.00000000000E+00 0. -1.
         22    1    1    2    0    0 -0.15484220329E+04  0.74579208346E+03  0.39062292545E+03  0.17624990478E+04  0.00000000000E+00 0.  1.
<mgrwt>
<rscale>  0 0.34574740E+04</rscale>
<asrwt>0</asrwt>
<pdfrwt beam="1">  1        2 0.19175724E+00 0.34574740E+04</pdfrwt>
<pdfrwt beam="2">  1       -2 0.36887514E+00 0.34574740E+04</pdfrwt>
<totfact> 0.17289508E-01</totfact>
</mgrwt>
</event>
<event>
 6    1  0.2003386E-005  0.1380607E+04  0.7818608E-02  0.8967977E-01
         -2   -1    0    0    0  501 -0.00000000000E+00  0.00000000000E+00  0.45983065676E+03  0.45983065676E+03  0.00000000000E+00 0.  1.
          2   -1    0    0  501    0  0.00000000000E+00 -0.00000000000E+00 -0.10362928233E+04  0.10362928233E+04  0.00000000000E+00 0. -1.
         23    2    1    2    0    0  0.11128064614E+03  0.26884689698E+03 -0.96429273914E+03  0.10112785675E+04  0.90342780933E+02 0.  0.
         13    1    3    3    0    0  0.21607659518E+02  0.29298909797E+02 -0.49794598140E+02  0.61683215457E+02  0.00000000000E+00 0. -1.
        -13    1    3    3    0    0  0.89672986618E+02  0.23954798718E+03 -0.91449814100E+03  0.94959535202E+03  0.00000000000E+00 0.  1.
         22    1    1    2    0    0 -0.11128064614E+03 -0.26884689698E+03  0.38783057260E+03  0.48484491259E+03  0.00000000000E+00 0.  1.
<mgrwt>
<rscale>  0 0.13806074E+04</rscale>
<asrwt>0</asrwt>
<pdfrwt beam="1">  1        2 0.15942966E+00 0.13806074E+04</pdfrwt>
<pdfrwt beam="2">  1       -2 0.70743179E-01 0.13806074E+04</pdfrwt>
<totfact> 0.42285853E+01</totfact>
</mgrwt>
</event>
<event>
 6    1  0.2003386E-005  0.2932694E+04  0.7818608E-02  0.8263216E-01
          2   -1    0    0  501    0  0.00000000000E+00  0.00000000000E+00  0.14948051385E+04  0.14948051385E+04  0.00000000000E+00 0. -1.
         -2   -1    0    0    0  501 -0.00000000000E+00 -0.00000000000E+00 -0.14384302630E+04  0.14384302630E+04  0.00000000000E+00 0.  1.
         23    2    1    2    0    0  0.22492281139E+03 -0.14476504608E+04  0.11634128452E+02  0.14675328866E+04  0.85060524235E+02 0.  0.
         13    1    3    3    0    0  0.10688366075E+03 -0.47758537654E+03 -0.19899612901E+02  0.48980394385E+03  0.00000000000E+00 0. -1.
        -13    1    3    3    0    0  0.11803915064E+03 -0.97006508423E+03  0.31533741353E+02  0.97772894279E+03  0.00000000000E+00 0.  1.
         22    1    1    2    0    0 -0.22492281139E+03  0.14476504608E+04  0.44740747065E+02  0.14657025149E+04  0.00000000000E+00 0. -1.
<mgrwt>
<rscale>  0 0.29326936E+04</rscale>
<asrwt>0</asrwt>
<pdfrwt beam="1">  1        2 0.22997002E+00 0.29326936E+04</pdfrwt>
<pdfrwt beam="2">  1       -2 0.22129696E+00 0.29326936E+04</pdfrwt>
<totfact> 0.10669306E+00</totfact>
</mgrwt>
</event>
<event>
 6    1  0.2003386E-005  0.4588355E+04  0.7818608E-02  0.7895349E-01
         -2   -1    0    0    0  501 -0.00000000000E+00  0.00000000000E+00  0.21122730548E+04  0.21122730548E+04  0.00000000000E+00 0. -1.
          2   -1    0    0  501    0  0.00000000000E+00 -0.00000000000E+00 -0.24917466469E+04  0.24917466469E+04  0.00000000000E+00 0.  1.
         23    2    1    2    0    0 -0.19593873013E+04 -0.62748464144E+03  0.82665224955E+03  0.22191349838E+04  0.90942634102E+02 0.  0.
         13    1    3    3    0    0 -0.91920239235E+03 -0.34203881265E+03  0.39522256274E+03  0.10574140445E+04  0.00000000000E+00 0.  1.
        -13    1    3    3    0    0 -0.10401849090E+04 -0.28544582879E+03  0.43142968680E+03  0.11617209393E+04  0.00000000000E+00 0. -1.
         22    1    1    2    0    0  0.19593873013E+04  0.62748464144E+03 -0.12061258416E+04  0.23848847179E+04  0.00000000000E+00 0.  1.
<mgrwt>
<rscale>  0 0.45883545E+04</rscale>
<asrwt>0</asrwt>
<pdfrwt beam="1">  1        2 0.38334564E+00 0.45883545E+04</pdfrwt>
<pdfrwt beam="2">  1       -2 0.32496508E+00 0.45883545E+04</pdfrwt>
<totfact> 0.59070781E-02</totfact>
</mgrwt>
</event>
<event>
 6    1  0.2003386E-005  0.7120775E+03  0.7818608E-02  0.9696798E-01
         -2   -1    0    0    0  501 -0.00000000000E+00  0.00000000000E+00  0.13833972318E+03  0.13833972318E+03  0.00000000000E+00 0.  1.
          2   -1    0    0  501    0  0.00000000000E+00 -0.00000000000E+00 -0.91632110482E+03  0.91632110482E+03  0.00000000000E+00 0. -1.
         23    2    1    2    0    0 -0.88401508082E+02  0.12350759670E+03 -0.86272116537E+03  0.88073617759E+03  0.91320601589E+02 0.  0.
         11    1    3    3    0    0 -0.23438537149E+02  0.34409683309E+02 -0.79032282095E+02  0.89328007602E+02  0.00000000000E+00 0.  1.
        -11    1    3    3    0    0 -0.64962970934E+02  0.89097913388E+02 -0.78368888327E+03  0.79140816999E+03  0.00000000000E+00 0. -1.
         22    1    1    2    0    0  0.88401508082E+02 -0.12350759670E+03  0.84739783734E+02  0.17392465041E+03  0.00000000000E+00 0.  1.
<mgrwt>
<rscale>  0 0.71207755E+03</rscale>
<asrwt>0</asrwt>
<pdfrwt beam="1">  1        2 0.14097248E+00 0.71207755E+03</pdfrwt>
<pdfrwt beam="2">  1       -2 0.21283033E-01 0.71207755E+03</pdfrwt>
<totfact> 0.55009881E+02</totfact>
</mgrwt>
</event>
<event>
 6    1  0.2003386E-005  0.2598874E+04  0.7818608E-02  0.8368584E-01
         -2   -1    0    0    0  501 -0.00000000000E+00  0.00000000000E+00  0.76615469239E+03  0.76615469239E+03  0.00000000000E+00 0.  1.
          2   -1    0    0  501    0  0.00000000000E+00 -0.00000000000E+00 -0.22039106658E+04  0.22039106658E+04  0.00000000000E+00 0. -1.
         23    2    1    2    0    0 -0.58333732968E+03  0.29661667308E+03 -0.20004949378E+04  0.21069668511E+04  0.95212523462E+02 0.  0.
         11    1    3    3    0    0 -0.24336755258E+03  0.72059792169E+02 -0.75413961482E+03  0.79570530848E+03  0.00000000000E+00 0. -1.
        -11    1    3    3    0    0 -0.33996977710E+03  0.22455688091E+03 -0.12463553230E+04  0.13112615426E+04  0.00000000000E+00 0.  1.
         22    1    1    2    0    0  0.58333732968E+03 -0.29661667308E+03  0.56273896436E+03  0.86309850710E+03  0.00000000000E+00 0.  1.
<mgrwt>
<rscale>  0 0.25988740E+04</rscale>
<asrwt>0</asrwt>
<pdfrwt beam="1">  1        2 0.33906318E+00 0.25988740E+04</pdfrwt>
<pdfrwt beam="2">  1       -2 0.11786995E+00 0.25988740E+04</pdfrwt>
<totfact> 0.25226777E+00</totfact>
</mgrwt>
</event>
<event>
 6    1  0.2003386E-005  0.1128585E+04  0.7818608E-02  0.9177770E-01
          4   -1    0    0  501    0  0.00000000000E+00  0.00000000000E+00  0.18651523810E+03  0.18651523810E+03  0.00000000000E+00 0. -1.
         -4   -1    0    0    0  501 -0.00000000000E+00 -0.00000000000E+00 -0.17072386457E+04  0.17072386457E+04  0.00000000000E+00 0.  1.
         23    2    1    2    0    0  0.33819626911E+03  0.40193331413E+03 -0.10868740880E+04  0.12124666187E+04  0.11337068776E+03 0.  0.
         13    1    3    3    0    0  0.17280268213E+03  0.13251356826E+03 -0.51235310597E+03  0.55671026390E+03  0.00000000000E+00 0. -1.
        -13    1    3    3    0    0  0.16539358698E+03  0.26941974586E+03 -0.57452098204E+03  0.65575635481E+03  0.00000000000E+00 0.  1.
         22    1    1    2    0    0 -0.33819626911E+03 -0.40193331413E+03 -0.43384931954E+03  0.68128726505E+03  0.00000000000E+00 0.  1.
<mgrwt>
<rscale>  0 0.11285850E+04</rscale>
<asrwt>0</asrwt>
<pdfrwt beam="1">  1        4 0.28694652E-01 0.11285850E+04</pdfrwt>
<pdfrwt beam="2">  1       -4 0.26265210E+00 0.11285850E+04</pdfrwt>
<totfact> 0.12324362E+00</totfact>
</mgrwt>
</event>
<event>
 6    1  0.2003386E-005  0.1382107E+04  0.7818608E-02  0.8966873E-01
         -2   -1    0    0    0  501 -0.00000000000E+00  0.00000000000E+00  0.19560245237E+03  0.19560245237E+03  0.00000000000E+00 0.  1.
          2   -1    0    0  501    0  0.00000000000E+00 -0.00000000000E+00 -0.24414558298E+04  0.24414558298E+04  0.00000000000E+00 0. -1.
         23    2    1    2    0    0  0.23411445543E+03 -0.61732747841E+03 -0.14974195125E+04  0.16390322083E+04  0.90876783605E+02 0.  0.
         13    1    3    3    0    0  0.94788671907E+02 -0.29546537820E+03 -0.59942622139E+03  0.67497887147E+03  0.00000000000E+00 0.  1.
        -13    1    3    3    0    0  0.13932578353E+03 -0.32186210021E+03 -0.89799329106E+03  0.96405333686E+03  0.00000000000E+00 0. -1.
         22    1    1    2    0    0 -0.23411445543E+03  0.61732747841E+03 -0.74843386496E+03  0.99802607384E+03  0.00000000000E+00 0.  1.
<mgrwt>
<rscale>  0 0.13821067E+04</rscale>
<asrwt>0</asrwt>
<pdfrwt beam="1">  1        2 0.37560859E+00 0.13821067E+04</pdfrwt>
<pdfrwt beam="2">  1       -2 0.30092685E-01 0.13821067E+04</pdfrwt>
<totfact> 0.37517553E+01</totfact>
</mgrwt>
</event>
<event>
 6    1  0.2003386E-005  0.9523836E+03  0.7818608E-02  0.9362369E-01
          2   -1    0    0  501    0  0.00000000000E+00  0.00000000000E+00  0.51928532514E+03  0.51928532514E+03  0.00000000000E+00 0. -1.
         -2   -1    0    0    0  501 -0.00000000000E+00 -0.00000000000E+00 -0.43667446607E+03  0.43667446607E+03  0.00000000000E+00 0.  1.
         23    2    1    2    0    0  0.38636748144E+03  0.24163660916E+03  0.16392130124E+03  0.49305648640E+03  0.92554979195E+02 0.  0.
         11    1    3    3    0    0  0.29725204588E+02  0.81238421998E+01  0.37253720449E+02  0.48346916005E+02  0.00000000000E+00 0. -1.
        -11    1    3    3    0    0  0.35664227686E+03  0.23351276696E+03  0.12666758079E+03  0.44470957039E+03  0.00000000000E+00 0.  1.
         22    1    1    2    0    0 -0.38636748144E+03 -0.24163660916E+03 -0.81310442166E+02  0.46290330482E+03  0.00000000000E+00 0.  1.
<mgrwt>
<rscale>  0 0.95238362E+03</rscale>
<asrwt>0</asrwt>
<pdfrwt beam="1">  1        2 0.79890050E-01 0.95238362E+03</pdfrwt>
<pdfrwt beam="2">  1       -2 0.67180687E-01 0.95238362E+03</pdfrwt>
<totfact> 0.11996059E+02</totfact>
</mgrwt>
</event>
<event>
 6    1  0.2003386E-005  0.2045905E+04  0.7818608E-02  0.8585454E-01
          2   -1    0    0  501    0  0.00000000000E+00  0.00000000000E+00  0.87899370299E+03  0.87899370299E+03  0.00000000000E+00 0. -1.
         -2   -1    0    0    0  501 -0.00000000000E+00 -0.00000000000E+00 -0.11904887517E+04  0.11904887517E+04  0.00000000000E+00 0.  1.
         23    2    1    2    0    0 -0.40240601150E+03  0.92956193771E+03 -0.28479385609E+03  0.10562061115E+04  0.91911997508E+02 0.  0.
         13    1    3    3    0    0 -0.29050664635E+03  0.70558409919E+03 -0.25258813602E+03  0.80376849842E+03  0.00000000000E+00 0.  1.
        -13    1    3    3    0    0 -0.11189936515E+03  0.22397783852E+03 -0.32205720073E+02  0.25243761303E+03  0.00000000000E+00 0. -1.
         22    1    1    2    0    0  0.40240601150E+03 -0.92956193771E+03 -0.26701192648E+02  0.10132763433E+04  0.00000000000E+00 0.  1.
<mgrwt>
<rscale>  0 0.20459053E+04</rscale>
<asrwt>0</asrwt>
<pdfrwt beam="1">  1        2 0.13522980E+00 0.20459053E+04</pdfrwt>
<pdfrwt beam="2">  1       -2 0.18315212E+00 0.20459053E+04</pdfrwt>
<totfact> 0.48366299E+00</totfact>
</mgrwt>
</event>
<event>
 6    1  0.2003386E-005  0.1173950E+04  0.7818608E-02  0.9135969E-01
         -2   -1    0    0    0  501 -0.00000000000E+00  0.00000000000E+00  0.61258562035E+03  0.61258562035E+03  0.00000000000E+00 0.  1.
          2   -1    0    0  501    0  0.00000000000E+00 -0.00000000000E+00 -0.56243475114E+03  0.56243475114E+03  0.00000000000E+00 0. -1.
         23    2    1    2    0    0 -0.37078345942E+02  0.17192437422E+03 -0.53183022014E+03  0.56704439946E+03  0.88108874220E+02 0.  0.
         13    1    3    3    0    0 -0.46763542547E+02  0.76368787866E+02 -0.16371137628E+03  0.18660234563E+03  0.00000000000E+00 0.  1.
        -13    1    3    3    0    0  0.96851966044E+01  0.95555586359E+02 -0.36811884386E+03  0.38044205383E+03  0.00000000000E+00 0. -1.
         22    1    1    2    0    0  0.37078345942E+02 -0.17192437422E+03  0.58198108936E+03  0.60797597202E+03  0.00000000000E+00 0.  1.
<mgrwt>
<rscale>  0 0.11739496E+04</rscale>
<asrwt>0</asrwt>
<pdfrwt beam="1">  1        2 0.86528423E-01 0.11739496E+04</pdfrwt>
<pdfrwt beam="2">  1       -2 0.94243942E-01 0.11739496E+04</pdfrwt>
<totfact> 0.50330421E+01</totfact>
</mgrwt>
</event>
<event>
 6    1  0.2003386E-005  0.3008206E+04  0.7818608E-02  0.8241391E-01
         -2   -1    0    0    0  501 -0.00000000000E+00  0.00000000000E+00  0.11108605534E+04  0.11108605534E+04  0.00000000000E+00 0.  1.
          2   -1    0    0  501    0  0.00000000000E+00 -0.00000000000E+00 -0.20365530332E+04  0.20365530332E+04  0.00000000000E+00 0. -1.
         23    2    1    2    0    0  0.99683886388E+03  0.10423516279E+04 -0.90447969858E+03  0.17049730787E+04  0.93086181330E+02 0.  0.
         13    1    3    3    0    0  0.55784642726E+03  0.55144952322E+03 -0.53968669814E+03  0.95212968929E+03  0.00000000000E+00 0.  1.
        -13    1    3    3    0    0  0.43899243662E+03  0.49090210468E+03 -0.36479300044E+03  0.75284338939E+03  0.00000000000E+00 0. -1.
         22    1    1    2    0    0 -0.99683886388E+03 -0.10423516279E+04 -0.21212781286E+02  0.14424405079E+04  0.00000000000E+00 0. -1.
<mgrwt>
<rscale>  0 0.30082064E+04</rscale>
<asrwt>0</asrwt>
<pdfrwt beam="1">  1        2 0.31331585E+00 0.30082064E+04</pdfrwt>
<pdfrwt beam="2">  1       -2 0.17090162E+00 0.30082064E+04</pdfrwt>
<totfact> 0.11453974E+00</totfact>
</mgrwt>
</event>
<event>
 6    1  0.2223857E-005  0.3444089E+04  0.7818608E-02  0.8127170E-01
         -2   -1    0    0    0  501 -0.00000000000E+00  0.00000000000E+00  0.20302073633E+04  0.20302073633E+04  0.00000000000E+00 0. -1.
          2   -1    0    0  501    0  0.00000000000E+00 -0.00000000000E+00 -0.14606569253E+04  0.14606569253E+04  0.00000000000E+00 0.  1.
         23    2    1    2    0    0  0.68770472374E+03 -0.14454557470E+04 -0.35734210016E+03  0.16411589389E+04  0.58559222416E+02 0.  0.
         13    1    3    3    0    0  0.33870621646E+03 -0.64744777256E+03 -0.17239606770E+03  0.75075357037E+03  0.00000000000E+00 0.  1.
        -13    1    3    3    0    0  0.34899850727E+03 -0.79800797441E+03 -0.18494603247E+03  0.89040536849E+03  0.00000000000E+00 0. -1.
         22    1    1    2    0    0 -0.68770472374E+03  0.14454557470E+04  0.92689253815E+03  0.18497053497E+04  0.00000000000E+00 0. -1.
<mgrwt>
<rscale>  0 0.34440885E+04</rscale>
<asrwt>0</asrwt>
<pdfrwt beam="1">  1        2 0.22471645E+00 0.34440885E+04</pdfrwt>
<pdfrwt beam="2">  1       -2 0.31233959E+00 0.34440885E+04</pdfrwt>
<totfact> 0.29440821E-01</totfact>
</mgrwt>
</event>
<event>
 6    1  0.2003386E-005  0.1315054E+04  0.7818608E-02  0.9017712E-01
         -2   -1    0    0    0  501 -0.00000000000E+00  0.00000000000E+00  0.82668573747E+03  0.82668573747E+03  0.00000000000E+00 0.  1.
          2   -1    0    0  501    0  0.00000000000E+00 -0.00000000000E+00 -0.52298179741E+03  0.52298179741E+03  0.00000000000E+00 0. -1.
         23    2    1    2    0    0  0.37891754939E+03 -0.51071636039E+03  0.31087835397E+03  0.71369490793E+03  0.91133751350E+02 0.  0.
         11    1    3    3    0    0  0.10560807265E+03 -0.80729714128E+02  0.65174697359E+02  0.14804760359E+03  0.00000000000E+00 0. -1.
        -11    1    3    3    0    0  0.27330947673E+03 -0.42998664627E+03  0.24570365661E+03  0.56564730434E+03  0.00000000000E+00 0.  1.
         22    1    1    2    0    0 -0.37891754939E+03  0.51071636039E+03 -0.71744139096E+01  0.63597262694E+03  0.00000000000E+00 0. -1.
<mgrwt>
<rscale>  0 0.13150538E+04</rscale>
<asrwt>0</asrwt>
<pdfrwt beam="1">  1        2 0.80458738E-01 0.13150538E+04</pdfrwt>
<pdfrwt beam="2">  1       -2 0.12718242E+00 0.13150538E+04</pdfrwt>
<totfact> 0.26249417E+01</totfact>
</mgrwt>
</event>
<event>
 6    1  0.2003386E-005  0.4486292E+04  0.7818608E-02  0.7913041E-01
          2   -1    0    0  501    0  0.00000000000E+00  0.00000000000E+00  0.21721266397E+04  0.21721266397E+04  0.00000000000E+00 0. -1.
         -2   -1    0    0    0  501 -0.00000000000E+00 -0.00000000000E+00 -0.23164871294E+04  0.23164871294E+04  0.00000000000E+00 0.  1.
         23    2    1    2    0    0 -0.14615191863E+04  0.10969473695E+04  0.12284032843E+04  0.22030477030E+04  0.71503074506E+02 0.  0.
         11    1    3    3    0    0 -0.47936846285E+03  0.31973417948E+03  0.39764615572E+03  0.70010465922E+03  0.00000000000E+00 0. -1.
        -11    1    3    3    0    0 -0.98215072343E+03  0.77721318998E+03  0.83075712853E+03  0.15029430438E+04  0.00000000000E+00 0.  1.
         22    1    1    2    0    0  0.14615191863E+04 -0.10969473695E+04 -0.13727637739E+04  0.22855660660E+04  0.00000000000E+00 0.  1.
<mgrwt>
<rscale>  0 0.44862917E+04</rscale>
<asrwt>0</asrwt>
<pdfrwt beam="1">  1        2 0.33417333E+00 0.44862917E+04</pdfrwt>
<pdfrwt beam="2">  1       -2 0.35638264E+00 0.44862917E+04</pdfrwt>
<totfact> 0.57573603E-02</totfact>
</mgrwt>
</event>
<event>
 6    1  0.2003386E-005  0.4196948E+04  0.7818608E-02  0.7965953E-01
         -2   -1    0    0    0  501 -0.00000000000E+00  0.00000000000E+00  0.30937651882E+04  0.30937651882E+04  0.00000000000E+00 0.  1.
          2   -1    0    0  501    0  0.00000000000E+00 -0.00000000000E+00 -0.14233769593E+04  0.14233769593E+04  0.00000000000E+00 0. -1.
         23    2    1    2    0    0  0.19647065175E+04  0.69863611800E+03  0.10792208348E+04  0.23497374753E+04  0.91566737866E+02 0.  0.
         11    1    3    3    0    0  0.13496351011E+03  0.28022980196E+02  0.57240543408E+02  0.14925453524E+03  0.00000000000E+00 0.  1.
        -11    1    3    3    0    0  0.18297430074E+04  0.67061313780E+03  0.10219802914E+04  0.22004829401E+04  0.00000000000E+00 0. -1.
         22    1    1    2    0    0 -0.19647065175E+04 -0.69863611800E+03  0.59116739406E+03  0.21674046722E+04  0.00000000000E+00 0.  1.
<mgrwt>
<rscale>  0 0.41969485E+04</rscale>
<asrwt>0</asrwt>
<pdfrwt beam="1">  1        2 0.21898107E+00 0.41969485E+04</pdfrwt>
<pdfrwt beam="2">  1       -2 0.47596387E+00 0.41969485E+04</pdfrwt>
<totfact> 0.25582740E-02</totfact>
</mgrwt>
</event>
<event>
 6    1  0.2003386E-005  0.1778767E+04  0.7818608E-02  0.8717673E-01
          1   -1    0    0  501    0  0.00000000000E+00  0.00000000000E+00  0.47205494684E+03  0.47205494684E+03  0.00000000000E+00 0. -1.
         -1   -1    0    0    0  501 -0.00000000000E+00 -0.00000000000E+00 -0.16756589161E+04  0.16756589161E+04  0.00000000000E+00 0.  1.
         23    2    1    2    0    0 -0.71211852578E+02 -0.21065481092E+03 -0.16403809887E+04  0.16575906722E+04  0.85501293099E+02 0.  0.
         11    1    3    3    0    0 -0.67831443756E+02 -0.12204568809E+03 -0.75693873488E+03  0.76970936275E+03  0.00000000000E+00 0. -1.
        -11    1    3    3    0    0 -0.33804088220E+01 -0.88609122832E+02 -0.88344225385E+03  0.88788130947E+03  0.00000000000E+00 0.  1.
         22    1    1    2    0    0  0.71211852578E+02  0.21065481092E+03  0.43677701948E+03  0.49012319070E+03  0.00000000000E+00 0. -1.
<mgrwt>
<rscale>  0 0.17787671E+04</rscale>
<asrwt>0</asrwt>
<pdfrwt beam="1">  1        1 0.72623839E-01 0.17787671E+04</pdfrwt>
<pdfrwt beam="2">  1       -1 0.25779367E+00 0.17787671E+04</pdfrwt>
<totfact> 0.28131446E+00</totfact>
</mgrwt>
</event>
<event>
 6    1  0.2003386E-005  0.2029900E+04  0.7818608E-02  0.8592767E-01
         -2   -1    0    0    0  501 -0.00000000000E+00  0.00000000000E+00  0.17751345614E+04  0.17751345614E+04  0.00000000000E+00 0.  1.
          2   -1    0    0  501    0  0.00000000000E+00 -0.00000000000E+00 -0.58030752285E+03  0.58030752285E+03  0.00000000000E+00 0. -1.
         23    2    1    2    0    0 -0.43170469854E+03  0.82515740243E+02  0.16575405445E+04  0.17172559181E+04  0.91375256799E+02 0.  0.
         13    1    3    3    0    0 -0.33525618213E+03  0.89042158471E+02  0.11752399174E+04  0.12253628349E+04  0.00000000000E+00 0. -1.
        -13    1    3    3    0    0 -0.96448516408E+02 -0.65264182284E+01  0.48230062703E+03  0.49189308318E+03  0.00000000000E+00 0.  1.
         22    1    1    2    0    0  0.43170469854E+03 -0.82515740243E+02 -0.46271350591E+03  0.63818616616E+03  0.00000000000E+00 0. -1.
<mgrwt>
<rscale>  0 0.20299004E+04</rscale>
<asrwt>0</asrwt>
<pdfrwt beam="1">  1        2 0.89278081E-01 0.20299004E+04</pdfrwt>
<pdfrwt beam="2">  1       -2 0.27309762E+00 0.20299004E+04</pdfrwt>
<totfact> 0.22211712E+00</totfact>
</mgrwt>
</event>
<event>
 6    1  0.2003386E-005  0.7393932E+03  0.7818608E-02  0.9652139E-01
         -2   -1    0    0    0  501 -0.00000000000E+00  0.00000000000E+00  0.12323750218E+03  0.12323750218E+03  0.00000000000E+00 0.  1.
          2   -1    0    0  501    0  0.00000000000E+00 -0.00000000000E+00 -0.11090420107E+04  0.11090420107E+04  0.00000000000E+00 0. -1.
         23    2    1    2    0    0 -0.32465106354E+03 -0.12549142636E+03 -0.67936073375E+03  0.76854014833E+03  0.89311487920E+02 0.  0.
         11    1    3    3    0    0 -0.19689204730E+02  0.17275641220E+01 -0.96746929253E+02  0.98745215482E+02  0.00000000000E+00 0.  1.
        -11    1    3    3    0    0 -0.30496185881E+03 -0.12721899048E+03 -0.58261380450E+03  0.66979493284E+03  0.00000000000E+00 0. -1.
         22    1    1    2    0    0  0.32465106354E+03  0.12549142636E+03 -0.30644377481E+03  0.46373936459E+03  0.00000000000E+00 0.  1.
<mgrwt>
<rscale>  0 0.73939318E+03</rscale>
<asrwt>0</asrwt>
<pdfrwt beam="1">  1        2 0.17062185E+00 0.73939318E+03</pdfrwt>
<pdfrwt beam="2">  1       -2 0.18959615E-01 0.73939318E+03</pdfrwt>
<totfact> 0.50755334E+02</totfact>
</mgrwt>
</event>
<event>
 6    1  0.2003386E-005  0.3762789E+04  0.7818608E-02  0.8054188E-01
          2   -1    0    0  501    0  0.00000000000E+00  0.00000000000E+00  0.15375421440E+04  0.15375421440E+04  0.00000000000E+00 0. -1.
         -2   -1    0    0    0  501 -0.00000000000E+00 -0.00000000000E+00 -0.23021449526E+04  0.23021449526E+04  0.00000000000E+00 0.  1.
         23    2    1    2    0    0  0.56743261514E+03 -0.11803388594E+04 -0.17592848445E+04  0.21951288130E+04  0.91256484351E+02 0.  0.
         11    1    3    3    0    0  0.29940989928E+03 -0.70713180100E+03 -0.98584386660E+03  0.12496278650E+04  0.00000000000E+00 0. -1.
        -11    1    3    3    0    0  0.26802271587E+03 -0.47320705838E+03 -0.77344097790E+03  0.94550094797E+03  0.00000000000E+00 0.  1.
         22    1    1    2    0    0 -0.56743261514E+03  0.11803388594E+04  0.99468203587E+03  0.16445582836E+04  0.00000000000E+00 0. -1.
<mgrwt>
<rscale>  0 0.37627888E+04</rscale>
<asrwt>0</asrwt>
<pdfrwt beam="1">  1        2 0.23654495E+00 0.37627888E+04</pdfrwt>
<pdfrwt beam="2">  1       -2 0.35417615E+00 0.37627888E+04</pdfrwt>
<totfact> 0.14230385E-01</totfact>
</mgrwt>
</event>
<event>
 6    1  0.2003386E-005  0.2216411E+04  0.7818608E-02  0.8511629E-01
         -2   -1    0    0    0  501 -0.00000000000E+00  0.00000000000E+00  0.35011931988E+03  0.35011931988E+03  0.00000000000E+00 0.  1.
          2   -1    0    0  501    0  0.00000000000E+00 -0.00000000000E+00 -0.35077158169E+04  0.35077158169E+04  0.00000000000E+00 0. -1.
         23    2    1    2    0    0 -0.60492587083E+03  0.48457552639E+03 -0.20731334856E+03  0.80743853861E+03  0.90716146095E+02 0.  0.
         13    1    3    3    0    0 -0.89010995120E+02  0.38299930231E+02 -0.41565219209E+02  0.10543960051E+03  0.00000000000E+00 0. -1.
        -13    1    3    3    0    0 -0.51591487571E+03  0.44627559616E+03 -0.16574812935E+03  0.70199893810E+03  0.00000000000E+00 0.  1.
         22    1    1    2    0    0  0.60492587083E+03 -0.48457552639E+03 -0.29502831484E+04  0.30503965981E+04  0.00000000000E+00 0. -1.
<mgrwt>
<rscale>  0 0.22164107E+04</rscale>
<asrwt>0</asrwt>
<pdfrwt beam="1">  1        2 0.53964861E+00 0.22164107E+04</pdfrwt>
<pdfrwt beam="2">  1       -2 0.53864508E-01 0.22164107E+04</pdfrwt>
<totfact> 0.23876128E+00</totfact>
</mgrwt>
</event>
<event>
 6    1  0.2003386E-005  0.3481364E+04  0.7818608E-02  0.8118221E-01
         -2   -1    0    0    0  501 -0.00000000000E+00  0.00000000000E+00  0.27259152398E+04  0.27259152398E+04  0.00000000000E+00 0. -1.
          2   -1    0    0  501    0  0.00000000000E+00 -0.00000000000E+00 -0.11115439312E+04  0.11115439312E+04  0.00000000000E+00 0.  1.
         23    2    1    2    0    0  0.50751089378E+03 -0.47242567177E+03 -0.95085721225E+03  0.11801765954E+04  0.89073204165E+02 0.  0.
         13    1    3    3    0    0  0.12445145901E+03 -0.16492758300E+03 -0.31424711364E+03  0.37608579037E+03  0.00000000000E+00 0.  1.
        -13    1    3    3    0    0  0.38305943477E+03 -0.30749808877E+03 -0.63661009861E+03  0.80409080508E+03  0.00000000000E+00 0. -1.
         22    1    1    2    0    0 -0.50751089378E+03  0.47242567177E+03  0.25652285208E+04  0.26572825756E+04  0.00000000000E+00 0. -1.
<mgrwt>
<rscale>  0 0.34813644E+04</rscale>
<asrwt>0</asrwt>
<pdfrwt beam="1">  1        2 0.17100676E+00 0.34813644E+04</pdfrwt>
<pdfrwt beam="2">  1       -2 0.41937157E+00 0.34813644E+04</pdfrwt>
<totfact> 0.97537916E-02</totfact>
</mgrwt>
</event>
<event>
 6    1  0.2003386E-005  0.1481597E+04  0.7818608E-02  0.8896784E-01
         -2   -1    0    0    0  501 -0.00000000000E+00  0.00000000000E+00  0.23357052017E+03  0.23357052017E+03  0.00000000000E+00 0.  1.
          2   -1    0    0  501    0  0.00000000000E+00 -0.00000000000E+00 -0.23495372887E+04  0.23495372887E+04  0.00000000000E+00 0. -1.
         23    2    1    2    0    0  0.16783570199E+03  0.47938064220E+03 -0.12892098079E+03  0.53217495148E+03  0.92816683377E+02 0.  0.
         11    1    3    3    0    0  0.50390908237E+02  0.27669406142E+03 -0.55357445594E+02  0.28664140322E+03  0.00000000000E+00 0. -1.
        -11    1    3    3    0    0  0.11744479375E+03  0.20268658078E+03 -0.73563535200E+02  0.24553354825E+03  0.00000000000E+00 0.  1.
         22    1    1    2    0    0 -0.16783570199E+03 -0.47938064220E+03 -0.19870457877E+04  0.20509328574E+04  0.00000000000E+00 0. -1.
<mgrwt>
<rscale>  0 0.14815973E+04</rscale>
<asrwt>0</asrwt>
<pdfrwt beam="1">  1        2 0.36146727E+00 0.14815973E+04</pdfrwt>
<pdfrwt beam="2">  1       -2 0.35933927E-01 0.14815973E+04</pdfrwt>
<totfact> 0.29996974E+01</totfact>
</mgrwt>
</event>
<event>
 6    1  0.2003386E-005  0.1789920E+04  0.7818608E-02  0.8711678E-01
          2   -1    0    0  501    0  0.00000000000E+00  0.00000000000E+00  0.12751531679E+04  0.12751531679E+04  0.00000000000E+00 0. -1.
         -2   -1    0    0    0  501 -0.00000000000E+00 -0.00000000000E+00 -0.62812317287E+03  0.62812317287E+03  0.00000000000E+00 0.  1.
         23    2    1    2    0    0 -0.20339735873E+03  0.16618933859E+03 -0.58281983402E+03  0.64569136003E+03  0.90823959898E+02 0.  0.
         11    1    3    3    0    0 -0.33906069491E+02  0.77445209025E+02 -0.21647733396E+03  0.23240012493E+03  0.00000000000E+00 0. -1.
        -11    1    3    3    0    0 -0.16949128924E+03  0.88744129565E+02 -0.36634250006E+03  0.41329123510E+03  0.00000000000E+00 0.  1.
         22    1    1    2    0    0  0.20339735873E+03 -0.16618933859E+03  0.12298498290E+04  0.12575849807E+04  0.00000000000E+00 0. -1.
<mgrwt>
<rscale>  0 0.17899198E+04</rscale>
<asrwt>0</asrwt>
<pdfrwt beam="1">  1        2 0.19617741E+00 0.17899198E+04</pdfrwt>
<pdfrwt beam="2">  1       -2 0.96634334E-01 0.17899198E+04</pdfrwt>
<totfact> 0.14465498E+01</totfact>
</mgrwt>
</event>
<event>
 6    1  0.2003386E-005  0.1367886E+04  0.7818608E-02  0.8977398E-01
         -2   -1    0    0    0  501 -0.00000000000E+00  0.00000000000E+00  0.21345049541E+03  0.21345049541E+03  0.00000000000E+00 0. -1.
          2   -1    0    0  501    0  0.00000000000E+00 -0.00000000000E+00 -0.21915044198E+04  0.21915044198E+04  0.00000000000E+00 0.  1.
         23    2    1    2    0    0 -0.54308080806E+03 -0.16371751083E+03 -0.33040930140E+03  0.66240707050E+03  0.88727860132E+02 0.  0.
         11    1    3    3    0    0 -0.26689104095E+03 -0.12327717970E+03 -0.14995840674E+03  0.33002365752E+03  0.00000000000E+00 0.  1.
        -11    1    3    3    0    0 -0.27618976710E+03 -0.40440331127E+02 -0.18045089467E+03  0.33238341297E+03  0.00000000000E+00 0. -1.
         22    1    1    2    0    0  0.54308080806E+03  0.16371751083E+03 -0.16476446230E+04  0.17425478447E+04  0.00000000000E+00 0.  1.
<mgrwt>
<rscale>  0 0.13678855E+04</rscale>
<asrwt>0</asrwt>
<pdfrwt beam="1">  1        2 0.33715453E+00 0.13678855E+04</pdfrwt>
<pdfrwt beam="2">  1       -2 0.32838538E-01 0.13678855E+04</pdfrwt>
<totfact> 0.44131458E+01</totfact>
</mgrwt>
</event>
<event>
 6    1  0.2003386E-005  0.1660162E+04  0.7818608E-02  0.8784417E-01
         -2   -1    0    0    0  501 -0.00000000000E+00  0.00000000000E+00  0.49232778771E+03  0.49232778771E+03  0.00000000000E+00 0.  1.
          2   -1    0    0  501    0  0.00000000000E+00 -0.00000000000E+00 -0.13995443546E+04  0.13995443546E+04  0.00000000000E+00 0. -1.
         23    2    1    2    0    0  0.80490988734E+03 -0.25717966089E+02 -0.23797766480E+03  0.84477040484E+03  0.91990909520E+02 0.  0.
         13    1    3    3    0    0  0.26351418880E+03 -0.39579502598E+02 -0.47458094144E+02  0.27066314013E+03  0.00000000000E+00 0.  1.
        -13    1    3    3    0    0  0.54139569854E+03  0.13861536508E+02 -0.19051957066E+03  0.57410726471E+03  0.00000000000E+00 0. -1.
         22    1    1    2    0    0 -0.80490988734E+03  0.25717966089E+02 -0.66923890204E+03  0.10471017374E+04  0.00000000000E+00 0.  1.
<mgrwt>
<rscale>  0 0.16601621E+04</rscale>
<asrwt>0</asrwt>
<pdfrwt beam="1">  1        2 0.21531451E+00 0.16601621E+04</pdfrwt>
<pdfrwt beam="2">  1       -2 0.75742738E-01 0.16601621E+04</pdfrwt>
<totfact> 0.21591035E+01</totfact>
</mgrwt>
</event>
<event>
 6    1  0.2003386E-005  0.3738099E+04  0.7818608E-02  0.8059571E-01
          2   -1    0    0  501    0  0.00000000000E+00  0.00000000000E+00  0.33929741434E+04  0.33929741434E+04  0.00000000000E+00 0.  1.
         -2   -1    0    0    0  501 -0.00000000000E+00 -0.00000000000E+00 -0.10295820782E+04  0.10295820782E+04  0.00000000000E+00 0. -1.
         23    2    1    2    0    0 -0.91764693849E+03  0.11335935640E+04 -0.19828064375E+03  0.14747982024E+04  0.92759107461E+02 0.  0.
         13    1    3    3    0    0 -0.27585744211E+03  0.30246283120E+03 -0.21421849840E+02  0.40992680844E+03  0.00000000000E+00 0. -1.
        -13    1    3    3    0    0 -0.64178949638E+03  0.83113073285E+03 -0.17685879391E+03  0.10648713940E+04  0.00000000000E+00 0.  1.
         22    1    1    2    0    0  0.91764693849E+03 -0.11335935640E+04  0.25616727089E+04  0.29477580192E+04  0.00000000000E+00 0.  1.
<mgrwt>
<rscale>  0 0.37380986E+04</rscale>
<asrwt>0</asrwt>
<pdfrwt beam="1">  1        2 0.52199602E+00 0.37380986E+04</pdfrwt>
<pdfrwt beam="2">  1       -2 0.15839724E+00 0.37380986E+04</pdfrwt>
<totfact> 0.20082366E-01</totfact>
</mgrwt>
</event>
<event>
 6    1  0.2003386E-005  0.5934623E+03  0.7818608E-02  0.9919063E-01
         -2   -1    0    0    0  501 -0.00000000000E+00  0.00000000000E+00  0.20965005771E+03  0.20965005771E+03  0.00000000000E+00 0.  1.
          2   -1    0    0  501    0  0.00000000000E+00 -0.00000000000E+00 -0.41998256053E+03  0.41998256053E+03  0.00000000000E+00 0. -1.
         23    2    1    2    0    0  0.14173310560E+03  0.25207003443E+03 -0.12505471308E+03  0.32813655375E+03  0.91691554485E+02 0.  0.
         11    1    3    3    0    0  0.48226619592E+02  0.16453297187E+03 -0.97076408269E+02  0.19702978128E+03  0.00000000000E+00 0. -1.
        -11    1    3    3    0    0  0.93506486006E+02  0.87537062558E+02 -0.27978304807E+02  0.13110677247E+03  0.00000000000E+00 0.  1.
         22    1    1    2    0    0 -0.14173310560E+03 -0.25207003443E+03 -0.85277789749E+02  0.30149606449E+03  0.00000000000E+00 0. -1.
<mgrwt>
<rscale>  0 0.59346228E+03</rscale>
<asrwt>0</asrwt>
<pdfrwt beam="1">  1        2 0.64612701E-01 0.59346228E+03</pdfrwt>
<pdfrwt beam="2">  1       -2 0.32253855E-01 0.59346228E+03</pdfrwt>
<totfact> 0.67728616E+02</totfact>
</mgrwt>
</event>
<event>
 6    1  0.2003386E-005  0.2899439E+04  0.7818608E-02  0.8273045E-01
          2   -1    0    0  501    0  0.00000000000E+00  0.00000000000E+00  0.25979447723E+04  0.25979447723E+04  0.00000000000E+00 0.  1.
         -2   -1    0    0    0  501 -0.00000000000E+00 -0.00000000000E+00 -0.80898030662E+03  0.80898030662E+03  0.00000000000E+00 0. -1.
         23    2    1    2    0    0  0.11757274232E+04  0.24423338084E+03  0.18467967051E+04  0.22047065107E+04  0.89932253791E+02 0.  0.
         13    1    3    3    0    0  0.72513247376E+03  0.11303040637E+03  0.10824597968E+04  0.13077890460E+04  0.00000000000E+00 0. -1.
        -13    1    3    3    0    0  0.45059494943E+03  0.13120297446E+03  0.76433690836E+03  0.89691746468E+03  0.00000000000E+00 0.  1.
         22    1    1    2    0    0 -0.11757274232E+04 -0.24423338084E+03 -0.57832239410E+02  0.12022185683E+04  0.00000000000E+00 0. -1.
<mgrwt>
<rscale>  0 0.28994387E+04</rscale>
<asrwt>0</asrwt>
<pdfrwt beam="1">  1        2 0.39968381E+00 0.28994387E+04</pdfrwt>
<pdfrwt beam="2">  1       -2 0.12445851E+00 0.28994387E+04</pdfrwt>
<totfact> 0.12763967E+00</totfact>
</mgrwt>
</event>
<event>
 6    1  0.2003386E-005  0.2550767E+04  0.7818608E-02  0.8385120E-01
          2   -1    0    0  501    0  0.00000000000E+00  0.00000000000E+00  0.19841839869E+04  0.19841839869E+04  0.00000000000E+00 0.  1.
         -2   -1    0    0    0  501 -0.00000000000E+00 -0.00000000000E+00 -0.81978414303E+03  0.81978414303E+03  0.00000000000E+00 0. -1.
         23    2    1    2    0    0 -0.67512264657E+03  0.36852352737E+03 -0.53315584866E+03  0.94029017830E+03  0.91050987359E+02 0.  0.
         11    1    3    3    0    0 -0.51934829809E+03  0.32340582831E+03 -0.43548345772E+03  0.75097258702E+03  0.00000000000E+00 0. -1.
        -11    1    3    3    0    0 -0.15577434848E+03  0.45117699067E+02 -0.97672390941E+02  0.18931759127E+03  0.00000000000E+00 0.  1.
         22    1    1    2    0    0  0.67512264657E+03 -0.36852352737E+03  0.16975556926E+04  0.18636779517E+04  0.00000000000E+00 0.  1.
<mgrwt>
<rscale>  0 0.25507666E+04</rscale>
<asrwt>0</asrwt>
<pdfrwt beam="1">  1        2 0.30525907E+00 0.25507666E+04</pdfrwt>
<pdfrwt beam="2">  1       -2 0.12612064E+00 0.25507666E+04</pdfrwt>
<totfact> 0.28391178E+00</totfact>
</mgrwt>
</event>
<event>
 6    1  0.2003386E-005  0.2083960E+04  0.7818608E-02  0.8568342E-01
         -2   -1    0    0    0  501 -0.00000000000E+00  0.00000000000E+00  0.88901646923E+03  0.88901646923E+03  0.00000000000E+00 0.  1.
          2   -1    0    0  501    0  0.00000000000E+00 -0.00000000000E+00 -0.12212621833E+04  0.12212621833E+04  0.00000000000E+00 0. -1.
         23    2    1    2    0    0 -0.20507059489E+03 -0.19937400414E+03 -0.11789992567E+04  0.12165250487E+04  0.89944451550E+02 0.  0.
         13    1    3    3    0    0 -0.56316310610E+02 -0.15935914847E+02 -0.33638649195E+03  0.34144011509E+03  0.00000000000E+00 0. -1.
        -13    1    3    3    0    0 -0.14875428428E+03 -0.18343808929E+03 -0.84261276474E+03  0.87508493359E+03  0.00000000000E+00 0.  1.
         22    1    1    2    0    0  0.20507059489E+03  0.19937400414E+03  0.84675354263E+03  0.89375360384E+03  0.00000000000E+00 0.  1.
<mgrwt>
<rscale>  0 0.20839599E+04</rscale>
<asrwt>0</asrwt>
<pdfrwt beam="1">  1        2 0.18788649E+00 0.20839599E+04</pdfrwt>
<pdfrwt beam="2">  1       -2 0.13677176E+00 0.20839599E+04</pdfrwt>
<totfact> 0.64774432E+00</totfact>
</mgrwt>
</event>
<event>
 6    1  0.2003386E-005  0.1781786E+04  0.7818608E-02  0.8716046E-01
         -2   -1    0    0    0  501 -0.00000000000E+00  0.00000000000E+00  0.28632133144E+03  0.28632133144E+03  0.00000000000E+00 0.  1.
          2   -1    0    0  501    0  0.00000000000E+00 -0.00000000000E+00 -0.27720262387E+04  0.27720262387E+04  0.00000000000E+00 0. -1.
         23    2    1    2    0    0  0.75879212567E+03  0.45663175170E+03 -0.13765979217E+04  0.16390532553E+04  0.84827407754E+02 0.  0.
         13    1    3    3    0    0  0.22136381207E+03  0.17823895984E+03 -0.42407942427E+03  0.51050408635E+03  0.00000000000E+00 0. -1.
        -13    1    3    3    0    0  0.53742831360E+03  0.27839279186E+03 -0.95251849742E+03  0.11285491690E+04  0.00000000000E+00 0.  1.
         22    1    1    2    0    0 -0.75879212567E+03 -0.45663175170E+03 -0.11091069855E+04  0.14192943148E+04  0.00000000000E+00 0. -1.
<mgrwt>
<rscale>  0 0.17817859E+04</rscale>
<asrwt>0</asrwt>
<pdfrwt beam="1">  1        2 0.42646558E+00 0.17817859E+04</pdfrwt>
<pdfrwt beam="2">  1       -2 0.44049435E-01 0.17817859E+04</pdfrwt>
<totfact> 0.11137628E+01</totfact>
</mgrwt>
</event>
<event>
 6    1  0.2003386E-005  0.3164002E+04  0.7818608E-02  0.8198389E-01
          2   -1    0    0  501    0  0.00000000000E+00  0.00000000000E+00  0.50959752488E+03  0.50959752488E+03  0.00000000000E+00 0. -1.
         -2   -1    0    0    0  501 -0.00000000000E+00 -0.00000000000E+00 -0.49111852101E+04  0.49111852101E+04  0.00000000000E+00 0.  1.
         23    2    1    2    0    0  0.13569144867E+04 -0.74584954863E+03 -0.16574804717E+04  0.22699680986E+04  0.89471678940E+02 0.  0.
         13    1    3    3    0    0  0.75699950411E+03 -0.37496660664E+03 -0.94155428261E+03  0.12649793170E+04  0.00000000000E+00 0.  1.
        -13    1    3    3    0    0  0.59991498258E+03 -0.37088294199E+03 -0.71592618907E+03  0.10049887816E+04  0.00000000000E+00 0. -1.
         22    1    1    2    0    0 -0.13569144867E+04  0.74584954863E+03 -0.27441072135E+04  0.31508146363E+04  0.00000000000E+00 0. -1.
<mgrwt>
<rscale>  0 0.31640024E+04</rscale>
<asrwt>0</asrwt>
<pdfrwt beam="1">  1        2 0.78399616E-01 0.31640024E+04</pdfrwt>
<pdfrwt beam="2">  1       -2 0.75556699E+00 0.31640024E+04</pdfrwt>
<totfact> 0.68659816E-03</totfact>
</mgrwt>
</event>
<event>
 6    1  0.2003386E-005  0.1557665E+04  0.7818608E-02  0.8846986E-01
         -2   -1    0    0    0  501 -0.00000000000E+00  0.00000000000E+00  0.23824192788E+03  0.23824192788E+03  0.00000000000E+00 0.  1.
          2   -1    0    0  501    0  0.00000000000E+00 -0.00000000000E+00 -0.25460687512E+04  0.25460687512E+04  0.00000000000E+00 0. -1.
         23    2    1    2    0    0  0.64276894518E+03 -0.10169512744E+03 -0.40195314169E+03  0.77039700016E+03  0.91931463087E+02 0.  0.
         13    1    3    3    0    0  0.14189068639E+03 -0.56220497911E+02 -0.11730231687E+03  0.19249297341E+03  0.00000000000E+00 0. -1.
        -13    1    3    3    0    0  0.50087825879E+03 -0.45474629533E+02 -0.28465082482E+03  0.57790402675E+03  0.00000000000E+00 0.  1.
         22    1    1    2    0    0 -0.64276894518E+03  0.10169512744E+03 -0.19058736816E+04  0.20139136789E+04  0.00000000000E+00 0. -1.
<mgrwt>
<rscale>  0 0.15576653E+04</rscale>
<asrwt>0</asrwt>
<pdfrwt beam="1">  1        2 0.39170287E+00 0.15576653E+04</pdfrwt>
<pdfrwt beam="2">  1       -2 0.36652606E-01 0.15576653E+04</pdfrwt>
<totfact> 0.22131366E+01</totfact>
</mgrwt>
</event>
<event>
 6    1  0.2003386E-005  0.3578997E+04  0.7818608E-02  0.8095320E-01
          1   -1    0    0  501    0  0.00000000000E+00  0.00000000000E+00  0.13050242059E+04  0.13050242059E+04  0.00000000000E+00 0. -1.
         -1   -1    0    0    0  501 -0.00000000000E+00 -0.00000000000E+00 -0.24538279040E+04  0.24538279040E+04  0.00000000000E+00 0.  1.
         23    2    1    2    0    0  0.11069722766E+04 -0.83721069309E+03 -0.17592130816E+04  0.22426367619E+04  0.90992381499E+02 0.  0.
         11    1    3    3    0    0  0.51835994183E+03 -0.39175460430E+03 -0.75059849133E+03  0.99275716793E+03  0.00000000000E+00 0.  1.
        -11    1    3    3    0    0  0.58861233481E+03 -0.44545608879E+03 -0.10086145903E+04  0.12498795940E+04  0.00000000000E+00 0. -1.
         22    1    1    2    0    0 -0.11069722766E+04  0.83721069309E+03  0.61040938358E+03  0.15162153480E+04  0.00000000000E+00 0. -1.
<mgrwt>
<rscale>  0 0.35789970E+04</rscale>
<asrwt>0</asrwt>
<pdfrwt beam="1">  1        1 0.20077296E+00 0.35789970E+04</pdfrwt>
<pdfrwt beam="2">  1       -1 0.37751198E+00 0.35789970E+04</pdfrwt>
<totfact> 0.73894710E-02</totfact>
</mgrwt>
</event>
<event>
 6    1  0.2003386E-005  0.3396376E+04  0.7818608E-02  0.8138796E-01
         -2   -1    0    0    0  501 -0.00000000000E+00  0.00000000000E+00  0.10208226162E+04  0.10208226162E+04  0.00000000000E+00 0.  1.
          2   -1    0    0  501    0  0.00000000000E+00 -0.00000000000E+00 -0.28250183482E+04  0.28250183482E+04  0.00000000000E+00 0. -1.
         23    2    1    2    0    0  0.95358040748E+03 -0.18014048347E+03 -0.24788780872E+04  0.26639092964E+04  0.99045348648E+02 0.  0.
         11    1    3    3    0    0  0.33637370093E+03 -0.99385645729E+02 -0.98225159767E+03  0.10429971114E+04  0.00000000000E+00 0.  1.
        -11    1    3    3    0    0  0.61720670655E+03 -0.80754837741E+02 -0.14966264895E+04  0.16209121850E+04  0.00000000000E+00 0. -1.
         22    1    1    2    0    0 -0.95358040748E+03  0.18014048347E+03  0.67468235519E+03  0.11819316680E+04  0.00000000000E+00 0.  1.
<mgrwt>
<rscale>  0 0.33963761E+04</rscale>
<asrwt>0</asrwt>
<pdfrwt beam="1">  1        2 0.43461821E+00 0.33963761E+04</pdfrwt>
<pdfrwt beam="2">  1       -2 0.15704963E+00 0.33963761E+04</pdfrwt>
<totfact> 0.49004262E-01</totfact>
</mgrwt>
</event>
<event>
 6    1  0.2003386E-005  0.1457737E+04  0.7818608E-02  0.8913054E-01
          2   -1    0    0  501    0  0.00000000000E+00  0.00000000000E+00  0.32002358024E+04  0.32002358024E+04  0.00000000000E+00 0. -1.
         -2   -1    0    0    0  501 -0.00000000000E+00 -0.00000000000E+00 -0.16600326289E+03  0.16600326289E+03  0.00000000000E+00 0.  1.
         23    2    1    2    0    0 -0.41106772505E+03 -0.47113461826E+03  0.67074931067E+03  0.92144920190E+03  0.90661407560E+02 0.  0.
         13    1    3    3    0    0 -0.14391733496E+03 -0.18998809674E+03  0.31630212339E+03  0.39604887257E+03  0.00000000000E+00 0. -1.
        -13    1    3    3    0    0 -0.26715039009E+03 -0.28114652152E+03  0.35444718728E+03  0.52540032933E+03  0.00000000000E+00 0.  1.
         22    1    1    2    0    0  0.41106772505E+03  0.47113461826E+03  0.23634832288E+04  0.24447898634E+04  0.00000000000E+00 0. -1.
<mgrwt>
<rscale>  0 0.14577374E+04</rscale>
<asrwt>0</asrwt>
<pdfrwt beam="1">  1        2 0.49234393E+00 0.14577374E+04</pdfrwt>
<pdfrwt beam="2">  1       -2 0.25538966E-01 0.14577374E+04</pdfrwt>
<totfact> 0.17525397E+01</totfact>
</mgrwt>
</event>
<event>
 6    1  0.2003386E-005  0.8205112E+03  0.7818608E-02  0.9530794E-01
         -2   -1    0    0    0  501 -0.00000000000E+00  0.00000000000E+00  0.13010840932E+03  0.13010840932E+03  0.00000000000E+00 0.  1.
          2   -1    0    0  501    0  0.00000000000E+00 -0.00000000000E+00 -0.12936107721E+04  0.12936107721E+04  0.00000000000E+00 0. -1.
         23    2    1    2    0    0 -0.33629797111E+03  0.66385205003E+02 -0.96148300636E+03  0.10258308287E+04  0.10186263719E+03 0.  0.
         11    1    3    3    0    0 -0.61198408889E+02  0.41577983178E+02 -0.12888846826E+03  0.14861430344E+03  0.00000000000E+00 0. -1.
        -11    1    3    3    0    0 -0.27509956222E+03  0.24807221825E+02 -0.83259453810E+03  0.87721652530E+03  0.00000000000E+00 0.  1.
         22    1    1    2    0    0  0.33629797111E+03 -0.66385205003E+02 -0.20201935639E+03  0.39788835264E+03  0.00000000000E+00 0.  1.
<mgrwt>
<rscale>  0 0.82051116E+03</rscale>
<asrwt>0</asrwt>
<pdfrwt beam="1">  1        2 0.19901705E+00 0.82051116E+03</pdfrwt>
<pdfrwt beam="2">  1       -2 0.20016677E-01 0.82051116E+03</pdfrwt>
<totfact> 0.35744729E+02</totfact>
</mgrwt>
</event>
<event>
 6    1  0.2003386E-005  0.2813303E+04  0.7818608E-02  0.8299150E-01
         -2   -1    0    0    0  501 -0.00000000000E+00  0.00000000000E+00  0.69188746191E+03  0.69188746191E+03  0.00000000000E+00 0.  1.
          2   -1    0    0  501    0  0.00000000000E+00 -0.00000000000E+00 -0.28598125187E+04  0.28598125187E+04  0.00000000000E+00 0. -1.
         23    2    1    2    0    0  0.11611706582E+04  0.56515765219E+03 -0.17843942561E+04  0.22045487848E+04  0.90840597930E+02 0.  0.
         13    1    3    3    0    0  0.50635762248E+03  0.25131832204E+03 -0.70523647000E+03  0.90383484081E+03  0.00000000000E+00 0.  1.
        -13    1    3    3    0    0  0.65481303571E+03  0.31383933015E+03 -0.10791577861E+04  0.13007139440E+04  0.00000000000E+00 0. -1.
         22    1    1    2    0    0 -0.11611706582E+04 -0.56515765219E+03 -0.38353080073E+03  0.13471511958E+04  0.00000000000E+00 0.  1.
<mgrwt>
<rscale>  0 0.28133030E+04</rscale>
<asrwt>0</asrwt>
<pdfrwt beam="1">  1        2 0.43997115E+00 0.28133030E+04</pdfrwt>
<pdfrwt beam="2">  1       -2 0.10644423E+00 0.28133030E+04</pdfrwt>
<totfact> 0.13142361E+00</totfact>
</mgrwt>
</event>
<event>
 6    1  0.2003386E-005  0.1795605E+04  0.7818608E-02  0.8708640E-01
          2   -1    0    0  501    0  0.00000000000E+00  0.00000000000E+00  0.11431375261E+04  0.11431375261E+04  0.00000000000E+00 0. -1.
         -2   -1    0    0    0  501 -0.00000000000E+00 -0.00000000000E+00 -0.70512036785E+03  0.70512036785E+03  0.00000000000E+00 0.  1.
         23    2    1    2    0    0 -0.87513976836E+03  0.54598346721E+02  0.32063901567E+02  0.88200293780E+03  0.89724550007E+02 0.  0.
         11    1    3    3    0    0 -0.66821392596E+03  0.79686618021E+02  0.21380287561E+02  0.67328814384E+03  0.00000000000E+00 0. -1.
        -11    1    3    3    0    0 -0.20692584240E+03 -0.25088271299E+02  0.10683614006E+02  0.20871479396E+03  0.00000000000E+00 0.  1.
         22    1    1    2    0    0  0.87513976836E+03 -0.54598346721E+02  0.40595325666E+03  0.96625495612E+03  0.00000000000E+00 0. -1.
<mgrwt>
<rscale>  0 0.17956052E+04</rscale>
<asrwt>0</asrwt>
<pdfrwt beam="1">  1        2 0.17586731E+00 0.17956052E+04</pdfrwt>
<pdfrwt beam="2">  1       -2 0.10848006E+00 0.17956052E+04</pdfrwt>
<totfact> 0.13157009E+01</totfact>
</mgrwt>
</event>
<event>
 6    1  0.2003386E-005  0.4087197E+04  0.7818608E-02  0.7987184E-01
          2   -1    0    0  501    0  0.00000000000E+00  0.00000000000E+00  0.19063361256E+04  0.19063361256E+04  0.00000000000E+00 0. -1.
         -2   -1    0    0    0  501 -0.00000000000E+00 -0.00000000000E+00 -0.21907441087E+04  0.21907441087E+04  0.00000000000E+00 0.  1.
         23    2    1    2    0    0 -0.12647879014E+04  0.15420434308E+04 -0.58465132913E+03  0.20802182051E+04  0.88905715548E+02 0.  0.
         11    1    3    3    0    0 -0.26257216494E+03  0.27372624463E+03 -0.91721770512E+02  0.39023464990E+03  0.00000000000E+00 0.  1.
        -11    1    3    3    0    0 -0.10022157365E+04  0.12683171861E+04 -0.49292955862E+03  0.16899835552E+04  0.00000000000E+00 0. -1.
         22    1    1    2    0    0  0.12647879014E+04 -0.15420434308E+04  0.30024334601E+03  0.20168620292E+04  0.00000000000E+00 0. -1.
<mgrwt>
<rscale>  0 0.40871969E+04</rscale>
<asrwt>0</asrwt>
<pdfrwt beam="1">  1        2 0.29328248E+00 0.40871969E+04</pdfrwt>
<pdfrwt beam="2">  1       -2 0.33703756E+00 0.40871969E+04</pdfrwt>
<totfact> 0.11070363E-01</totfact>
</mgrwt>
</event>
<event>
 6    1  0.2003386E-005  0.1450709E+04  0.7818608E-02  0.8917909E-01
         -2   -1    0    0    0  501 -0.00000000000E+00  0.00000000000E+00  0.63934657668E+03  0.63934657668E+03  0.00000000000E+00 0.  1.
          2   -1    0    0  501    0  0.00000000000E+00 -0.00000000000E+00 -0.82293216023E+03  0.82293216023E+03  0.00000000000E+00 0. -1.
         23    2    1    2    0    0  0.17881249480E+01  0.13012851160E+03 -0.80842345743E+03  0.82403192294E+03  0.92431036918E+02 0.  0.
         13    1    3    3    0    0  0.32197101303E+02  0.77348840398E+01 -0.14568762154E+03  0.14940336286E+03  0.00000000000E+00 0.  1.
        -13    1    3    3    0    0 -0.30408976355E+02  0.12239362756E+03 -0.66273583589E+03  0.67462856008E+03  0.00000000000E+00 0. -1.
         22    1    1    2    0    0 -0.17881249480E+01 -0.13012851160E+03  0.62483787387E+03  0.63824681397E+03  0.00000000000E+00 0.  1.
<mgrwt>
<rscale>  0 0.14507086E+04</rscale>
<asrwt>0</asrwt>
<pdfrwt beam="1">  1        2 0.12660495E+00 0.14507086E+04</pdfrwt>
<pdfrwt beam="2">  1       -2 0.98361012E-01 0.14507086E+04</pdfrwt>
<totfact> 0.27630320E+01</totfact>
</mgrwt>
</event>
<event>
 6    1  0.2003386E-005  0.3111336E+04  0.7818608E-02  0.8212634E-01
         -2   -1    0    0    0  501 -0.00000000000E+00  0.00000000000E+00  0.13206235985E+04  0.13206235985E+04  0.00000000000E+00 0.  1.
          2   -1    0    0  501    0  0.00000000000E+00 -0.00000000000E+00 -0.18325454846E+04  0.18325454846E+04  0.00000000000E+00 0. -1.
         23    2    1    2    0    0  0.99618936143E+03  0.91357367784E+03  0.52122250090E+03  0.14518762120E+04  0.96236847577E+02 0.  0.
         11    1    3    3    0    0  0.10127426408E+03  0.89751158816E+02  0.84212327616E+02  0.15938463915E+03  0.00000000000E+00 0.  1.
        -11    1    3    3    0    0  0.89491509736E+03  0.82382251903E+03  0.43701017329E+03  0.12924915728E+04  0.00000000000E+00 0. -1.
         22    1    1    2    0    0 -0.99618936143E+03 -0.91357367784E+03 -0.10331443870E+04  0.17012928711E+04  0.00000000000E+00 0. -1.
<mgrwt>
<rscale>  0 0.31113359E+04</rscale>
<asrwt>0</asrwt>
<pdfrwt beam="1">  1        2 0.28193007E+00 0.31113359E+04</pdfrwt>
<pdfrwt beam="2">  1       -2 0.20317286E+00 0.31113359E+04</pdfrwt>
<totfact> 0.89024980E-01</totfact>
</mgrwt>
</event>
<event>
 6    1  0.2003386E-005  0.1401853E+04  0.7818608E-02  0.8952478E-01
          2   -1    0    0  501    0  0.00000000000E+00  0.00000000000E+00  0.12307684287E+04  0.12307684287E+04  0.00000000000E+00 0. -1.
         -2   -1    0    0    0  501 -0.00000000000E+00 -0.00000000000E+00 -0.39917983540E+03  0.39917983540E+03  0.00000000000E+00 0.  1.
         23    2    1    2    0    0 -0.62029697355E+03  0.30246462053E+03  0.53786437954E+03  0.87993020042E+03  0.93412444386E+02 0.  0.
         13    1    3    3    0    0 -0.16869794692E+03  0.12037044557E+03  0.19353378880E+03  0.28355487806E+03  0.00000000000E+00 0. -1.
        -13    1    3    3    0    0 -0.45159902662E+03  0.18209417496E+03  0.34433059075E+03  0.59637532236E+03  0.00000000000E+00 0.  1.
         22    1    1    2    0    0  0.62029697355E+03 -0.30246462053E+03  0.29372421372E+03  0.75001806364E+03  0.00000000000E+00 0.  1.
<mgrwt>
<rscale>  0 0.14018530E+04</rscale>
<asrwt>0</asrwt>
<pdfrwt beam="1">  1        2 0.18934899E+00 0.14018530E+04</pdfrwt>
<pdfrwt beam="2">  1       -2 0.61412283E-01 0.14018530E+04</pdfrwt>
<totfact> 0.43560614E+01</totfact>
</mgrwt>
</event>
<event>
 6    1  0.2003386E-005  0.2876922E+04  0.7818608E-02  0.8279777E-01
          2   -1    0    0  501    0  0.00000000000E+00  0.00000000000E+00  0.20740754711E+04  0.20740754711E+04  0.00000000000E+00 0. -1.
         -2   -1    0    0    0  501 -0.00000000000E+00 -0.00000000000E+00 -0.99763523377E+03  0.99763523377E+03  0.00000000000E+00 0.  1.
         23    2    1    2    0    0  0.21755639326E+03  0.10152579518E+04  0.15995737602E+04  0.19090636494E+04  0.88364644623E+02 0.  0.
         13    1    3    3    0    0  0.11166570286E+03  0.65844744796E+03  0.10832136575E+04  0.12725463051E+04  0.00000000000E+00 0. -1.
        -13    1    3    3    0    0  0.10589069040E+03  0.35681050381E+03  0.51636010272E+03  0.63651734432E+03  0.00000000000E+00 0.  1.
         22    1    1    2    0    0 -0.21755639326E+03 -0.10152579518E+04 -0.52313352283E+03  0.11626470555E+04  0.00000000000E+00 0.  1.
<mgrwt>
<rscale>  0 0.28769225E+04</rscale>
<asrwt>0</asrwt>
<pdfrwt beam="1">  1        2 0.31908853E+00 0.28769225E+04</pdfrwt>
<pdfrwt beam="2">  1       -2 0.15348234E+00 0.28769225E+04</pdfrwt>
<totfact> 0.14806856E+00</totfact>
</mgrwt>
</event>
<event>
 6    1  0.2003386E-005  0.3585339E+04  0.7818608E-02  0.8093858E-01
         -2   -1    0    0    0  501 -0.00000000000E+00  0.00000000000E+00  0.17260487099E+04  0.17260487099E+04  0.00000000000E+00 0.  1.
          2   -1    0    0  501    0  0.00000000000E+00 -0.00000000000E+00 -0.18618612981E+04  0.18618612981E+04  0.00000000000E+00 0. -1.
         23    2    1    2    0    0 -0.12229707669E+04  0.34192440253E+03  0.11967281612E+04  0.17471942117E+04  0.89216185250E+02 0.  0.
         13    1    3    3    0    0 -0.65615252357E+03  0.22302733914E+03  0.62051942946E+03  0.93022668771E+03  0.00000000000E+00 0.  1.
        -13    1    3    3    0    0 -0.56681824335E+03  0.11889706339E+03  0.57620873175E+03  0.81696752397E+03  0.00000000000E+00 0. -1.
         22    1    1    2    0    0  0.12229707669E+04 -0.34192440253E+03 -0.13325407495E+04  0.18407157963E+04  0.00000000000E+00 0. -1.
<mgrwt>
<rscale>  0 0.35853386E+04</rscale>
<asrwt>0</asrwt>
<pdfrwt beam="1">  1        2 0.28644020E+00 0.35853386E+04</pdfrwt>
<pdfrwt beam="2">  1       -2 0.26554596E+00 0.35853386E+04</pdfrwt>
<totfact> 0.33573219E-01</totfact>
</mgrwt>
</event>
<event>
 6    1  0.2003386E-005  0.1052572E+04  0.7818608E-02  0.9252692E-01
         -2   -1    0    0    0  501 -0.00000000000E+00  0.00000000000E+00  0.22059575131E+03  0.22059575131E+03  0.00000000000E+00 0.  1.
          2   -1    0    0  501    0  0.00000000000E+00 -0.00000000000E+00 -0.12555871596E+04  0.12555871596E+04  0.00000000000E+00 0. -1.
         23    2    1    2    0    0  0.28460182407E+03  0.41153260897E+03 -0.73153537826E+03  0.89099674508E+03  0.91509035590E+02 0.  0.
         13    1    3    3    0    0  0.19150949056E+03  0.32513985924E+03 -0.49391949735E+03  0.62156921006E+03  0.00000000000E+00 0. -1.
        -13    1    3    3    0    0  0.93092333509E+02  0.86392749726E+02 -0.23761588091E+03  0.26942753501E+03  0.00000000000E+00 0.  1.
         22    1    1    2    0    0 -0.28460182407E+03 -0.41153260897E+03 -0.30345603002E+03  0.58518616581E+03  0.00000000000E+00 0.  1.
<mgrwt>
<rscale>  0 0.10525725E+04</rscale>
<asrwt>0</asrwt>
<pdfrwt beam="1">  1        2 0.19316726E+00 0.10525725E+04</pdfrwt>
<pdfrwt beam="2">  1       -2 0.33937808E-01 0.10525725E+04</pdfrwt>
<totfact> 0.14183736E+02</totfact>
</mgrwt>
</event>
<event>
 6    1  0.2003386E-005  0.3428815E+03  0.7818608E-02  0.1065575E+00
         -2   -1    0    0    0  501 -0.00000000000E+00  0.00000000000E+00  0.44195107100E+02  0.44195107100E+02  0.00000000000E+00 0.  1.
          2   -1    0    0  501    0  0.00000000000E+00 -0.00000000000E+00 -0.66504932985E+03  0.66504932985E+03  0.00000000000E+00 0. -1.
         23    2    1    2    0    0  0.13995480545E+03  0.75379923453E+02 -0.36039712568E+03  0.40410941792E+03  0.90270997687E+02 0.  0.
         13    1    3    3    0    0  0.33188268968E+02 -0.19990128844E+02 -0.94256005231E+02  0.10190810061E+03  0.00000000000E+00 0.  1.
        -13    1    3    3    0    0  0.10676653648E+03  0.95370052297E+02 -0.26614112045E+03  0.30220131730E+03  0.00000000000E+00 0. -1.
         22    1    1    2    0    0 -0.13995480545E+03 -0.75379923453E+02 -0.26045709708E+03  0.30513501904E+03  0.00000000000E+00 0. -1.
<mgrwt>
<rscale>  0 0.34288147E+03</rscale>
<asrwt>0</asrwt>
<pdfrwt beam="1">  1        2 0.10231527E+00 0.34288147E+03</pdfrwt>
<pdfrwt beam="2">  1       -2 0.67992479E-02 0.34288147E+03</pdfrwt>
<totfact> 0.54631714E+03</totfact>
</mgrwt>
</event>
<event>
 6    1  0.2003386E-005  0.7202926E+04  0.7818608E-02  0.7556862E-01
         -2   -1    0    0    0  501 -0.00000000000E+00  0.00000000000E+00  0.33506821840E+04  0.33506821840E+04  0.00000000000E+00 0.  1.
          2   -1    0    0  501    0  0.00000000000E+00 -0.00000000000E+00 -0.38710130222E+04  0.38710130222E+04  0.00000000000E+00 0. -1.
         23    2    1    2    0    0 -0.18995142893E+04 -0.63213734766E+03  0.27407222939E+04  0.33951798604E+04  0.89081034199E+02 0.  0.
         13    1    3    3    0    0 -0.13299400993E+03 -0.40362309725E+02  0.23048943559E+03  0.26915033466E+03  0.00000000000E+00 0.  1.
        -13    1    3    3    0    0 -0.17665202794E+04 -0.59177503794E+03  0.25102328583E+04  0.31260295257E+04  0.00000000000E+00 0. -1.
         22    1    1    2    0    0  0.18995142893E+04  0.63213734766E+03 -0.32610531320E+04  0.38265153458E+04  0.00000000000E+00 0. -1.
<mgrwt>
<rscale>  0 0.72029256E+04</rscale>
<asrwt>0</asrwt>
<pdfrwt beam="1">  1        2 0.59554046E+00 0.72029256E+04</pdfrwt>
<pdfrwt beam="2">  1       -2 0.51548957E+00 0.72029256E+04</pdfrwt>
<totfact> 0.35829446E-04</totfact>
</mgrwt>
</event>
<event>
 6    1  0.2003386E-005  0.1091099E+04  0.7818608E-02  0.9213911E-01
         -1   -1    0    0    0  501 -0.00000000000E+00  0.00000000000E+00  0.67542093426E+03  0.67542093426E+03  0.00000000000E+00 0.  1.
          1   -1    0    0  501    0  0.00000000000E+00 -0.00000000000E+00 -0.44064998024E+03  0.44064998024E+03  0.00000000000E+00 0. -1.
         23    2    1    2    0    0  0.39070919397E+03  0.10369400340E+03 -0.25075134821E+03  0.48429719983E+03  0.90892345854E+02 0.  0.
         13    1    3    3    0    0  0.11885330169E+03  0.75001084553E+02 -0.95581607601E+02  0.16996209495E+03  0.00000000000E+00 0.  1.
        -13    1    3    3    0    0  0.27185589227E+03  0.28692918850E+02 -0.15516974061E+03  0.31433510488E+03  0.00000000000E+00 0. -1.
         22    1    1    2    0    0 -0.39070919397E+03 -0.10369400340E+03  0.48552230224E+03  0.63177371468E+03  0.00000000000E+00 0.  1.
<mgrwt>
<rscale>  0 0.10910989E+04</rscale>
<asrwt>0</asrwt>
<pdfrwt beam="1">  1        1 0.67792305E-01 0.10910989E+04</pdfrwt>
<pdfrwt beam="2">  1       -1 0.10391091E+00 0.10910989E+04</pdfrwt>
<totfact> 0.45843471E+01</totfact>
</mgrwt>
</event>
<event>
 6    1  0.2003386E-005  0.1566424E+04  0.7818608E-02  0.8841444E-01
         -2   -1    0    0    0  501 -0.00000000000E+00  0.00000000000E+00  0.59729744544E+03  0.59729744544E+03  0.00000000000E+00 0.  1.
          2   -1    0    0  501    0  0.00000000000E+00 -0.00000000000E+00 -0.10269948152E+04  0.10269948152E+04  0.00000000000E+00 0. -1.
         23    2    1    2    0    0  0.51522502007E+03 -0.50096672622E+03  0.10179524850E+03  0.73047522938E+03  0.82506399918E+02 0.  0.
         11    1    3    3    0    0  0.18246928571E+03 -0.12662734196E+03  0.20235377156E+02  0.22302240795E+03  0.00000000000E+00 0. -1.
        -11    1    3    3    0    0  0.33275573436E+03 -0.37433938426E+03  0.81559871346E+02  0.50745282143E+03  0.00000000000E+00 0.  1.
         22    1    1    2    0    0 -0.51522502007E+03  0.50096672622E+03 -0.53149261823E+03  0.89381703123E+03  0.00000000000E+00 0. -1.
<mgrwt>
<rscale>  0 0.15664244E+04</rscale>
<asrwt>0</asrwt>
<pdfrwt beam="1">  1        2 0.15799920E+00 0.15664244E+04</pdfrwt>
<pdfrwt beam="2">  1       -2 0.91891916E-01 0.15664244E+04</pdfrwt>
<totfact> 0.23442389E+01</totfact>
</mgrwt>
</event>
<event>
 6    1  0.2003386E-005  0.1854192E+04  0.7818608E-02  0.8678000E-01
         -1   -1    0    0    0  501 -0.00000000000E+00  0.00000000000E+00  0.14314635926E+04  0.14314635926E+04  0.00000000000E+00 0.  1.
          1   -1    0    0  501    0  0.00000000000E+00 -0.00000000000E+00 -0.60043919427E+03  0.60043919427E+03  0.00000000000E+00 0. -1.
         23    2    1    2    0    0  0.31760657242E+03  0.14674660709E+03 -0.52170795365E+03  0.63465788434E+03  0.90570081748E+02 0.  0.
         13    1    3    3    0    0  0.19474698864E+03  0.10553887335E+03 -0.39808857416E+03  0.45556487600E+03  0.00000000000E+00 0.  1.
        -13    1    3    3    0    0  0.12285958378E+03  0.41207733731E+02 -0.12361937950E+03  0.17909300833E+03  0.00000000000E+00 0. -1.
         22    1    1    2    0    0 -0.31760657242E+03 -0.14674660709E+03  0.13527323520E+04  0.13972449026E+04  0.00000000000E+00 0.  1.
<mgrwt>
<rscale>  0 0.18541918E+04</rscale>
<asrwt>0</asrwt>
<pdfrwt beam="1">  1        1 0.92375261E-01 0.18541918E+04</pdfrwt>
<pdfrwt beam="2">  1       -1 0.22022517E+00 0.18541918E+04</pdfrwt>
<totfact> 0.35235548E+00</totfact>
</mgrwt>
</event>
<event>
 6    1  0.2003386E-005  0.1141198E+04  0.7818608E-02  0.9165943E-01
         -2   -1    0    0    0  501 -0.00000000000E+00  0.00000000000E+00  0.41274234450E+03  0.41274234450E+03  0.00000000000E+00 0.  1.
          2   -1    0    0  501    0  0.00000000000E+00 -0.00000000000E+00 -0.78882889536E+03  0.78882889536E+03  0.00000000000E+00 0. -1.
         23    2    1    2    0    0 -0.16851762420E+03  0.24496686094E+01  0.38024847067E+03  0.42668618042E+03  0.95226081374E+02 0.  0.
         11    1    3    3    0    0 -0.12665725122E+03 -0.38345979465E+02  0.22827741241E+03  0.26386180179E+03  0.00000000000E+00 0. -1.
        -11    1    3    3    0    0 -0.41860372977E+02  0.40795648074E+02  0.15197105826E+03  0.16282437863E+03  0.00000000000E+00 0.  1.
         22    1    1    2    0    0  0.16851762420E+03 -0.24496686094E+01 -0.75633502154E+03  0.77488505944E+03  0.00000000000E+00 0. -1.
<mgrwt>
<rscale>  0 0.11411978E+04</rscale>
<asrwt>0</asrwt>
<pdfrwt beam="1">  1        2 0.12135829E+00 0.11411978E+04</pdfrwt>
<pdfrwt beam="2">  1       -2 0.63498823E-01 0.11411978E+04</pdfrwt>
<totfact> 0.79822228E+01</totfact>
</mgrwt>
</event>
<event>
 6    1  0.2499039E-005  0.4112819E+04  0.7818608E-02  0.7982166E-01
          1   -1    0    0  501    0  0.00000000000E+00  0.00000000000E+00  0.26770451996E+04  0.26770451996E+04  0.00000000000E+00 0. -1.
         -1   -1    0    0    0  501 -0.00000000000E+00 -0.00000000000E+00 -0.15796597350E+04  0.15796597350E+04  0.00000000000E+00 0.  1.
         23    2    1    2    0    0 -0.17257565593E+04 -0.10032835272E+04  0.10558191114E+04  0.22600724447E+04  0.91432605960E+02 0.  0.
         13    1    3    3    0    0 -0.73627260090E+03 -0.38577340612E+03  0.40956433551E+03  0.92663984840E+03  0.00000000000E+00 0.  1.
        -13    1    3    3    0    0 -0.98948395837E+03 -0.61751012112E+03  0.64625477587E+03  0.13334325963E+04  0.00000000000E+00 0. -1.
         22    1    1    2    0    0  0.17257565593E+04  0.10032835272E+04  0.41566353283E+02  0.19966324899E+04  0.00000000000E+00 0.  1.
<mgrwt>
<rscale>  0 0.41128192E+04</rscale>
<asrwt>0</asrwt>
<pdfrwt beam="1">  1        1 0.41185311E+00 0.41128192E+04</pdfrwt>
<pdfrwt beam="2">  1       -1 0.24302458E+00 0.41128192E+04</pdfrwt>
<totfact> 0.61177394E-02</totfact>
</mgrwt>
</event>
<event>
 6    1  0.2003386E-005  0.1759491E+04  0.7818608E-02  0.8728144E-01
          2   -1    0    0  501    0  0.00000000000E+00  0.00000000000E+00  0.23465727538E+04  0.23465727538E+04  0.00000000000E+00 0. -1.
         -2   -1    0    0    0  501 -0.00000000000E+00 -0.00000000000E+00 -0.32982216917E+03  0.32982216917E+03  0.00000000000E+00 0.  1.
         23    2    1    2    0    0 -0.15504900068E+03  0.67279420726E+03  0.18348103589E+04  0.19623959848E+04  0.88185657645E+02 0.  0.
         11    1    3    3    0    0 -0.10101448946E+03  0.24792885135E+03  0.71506479684E+03  0.76353801876E+03  0.00000000000E+00 0.  1.
        -11    1    3    3    0    0 -0.54034511223E+02  0.42486535591E+03  0.11197455621E+04  0.11988579661E+04  0.00000000000E+00 0. -1.
         22    1    1    2    0    0  0.15504900068E+03 -0.67279420726E+03  0.18194022574E+03  0.71399893815E+03  0.00000000000E+00 0.  1.
<mgrwt>
<rscale>  0 0.17594905E+04</rscale>
<asrwt>0</asrwt>
<pdfrwt beam="1">  1        2 0.36101118E+00 0.17594905E+04</pdfrwt>
<pdfrwt beam="2">  1       -2 0.50741874E-01 0.17594905E+04</pdfrwt>
<totfact> 0.14844929E+01</totfact>
</mgrwt>
</event>
<event>
 6    1  0.2003386E-005  0.1798202E+04  0.7818608E-02  0.8707256E-01
         -2   -1    0    0    0  501 -0.00000000000E+00  0.00000000000E+00  0.23425220009E+04  0.23425220009E+04  0.00000000000E+00 0.  1.
          2   -1    0    0  501    0  0.00000000000E+00 -0.00000000000E+00 -0.34509060380E+03  0.34509060380E+03  0.00000000000E+00 0. -1.
         23    2    1    2    0    0  0.10394370383E+03  0.57897500255E+03  0.20125147110E+04  0.20991877128E+04  0.10177054683E+03 0.  0.
         11    1    3    3    0    0  0.59443288905E+02  0.33699049073E+03  0.98939935883E+03  0.10469036186E+04  0.00000000000E+00 0. -1.
        -11    1    3    3    0    0  0.44500414929E+02  0.24198451183E+03  0.10231153522E+04  0.10522840941E+04  0.00000000000E+00 0.  1.
         22    1    1    2    0    0 -0.10394370383E+03 -0.57897500255E+03 -0.15083313879E+02  0.58842489198E+03  0.00000000000E+00 0. -1.
<mgrwt>
<rscale>  0 0.17982017E+04</rscale>
<asrwt>0</asrwt>
<pdfrwt beam="1">  1        2 0.53090864E-01 0.17982017E+04</pdfrwt>
<pdfrwt beam="2">  1       -2 0.36038799E+00 0.17982017E+04</pdfrwt>
<totfact> 0.11901473E+00</totfact>
</mgrwt>
</event>
<event>
 6    1  0.2003386E-005  0.2522629E+04  0.7818608E-02  0.8394968E-01
          2   -1    0    0  501    0  0.00000000000E+00  0.00000000000E+00  0.16525112182E+04  0.16525112182E+04  0.00000000000E+00 0. -1.
         -2   -1    0    0    0  501 -0.00000000000E+00 -0.00000000000E+00 -0.96272515604E+03  0.96272515604E+03  0.00000000000E+00 0.  1.
         23    2    1    2    0    0  0.57780560412E+03  0.98409524365E+03  0.89833097256E+03  0.14551528668E+04  0.90380112231E+02 0.  0.
         11    1    3    3    0    0  0.43497032463E+03  0.76272941849E+03  0.73598370790E+03  0.11456995101E+04  0.00000000000E+00 0. -1.
        -11    1    3    3    0    0  0.14283527948E+03  0.22136582515E+03  0.16234726465E+03  0.30945335667E+03  0.00000000000E+00 0.  1.
         22    1    1    2    0    0 -0.57780560412E+03 -0.98409524365E+03 -0.20854491037E+03  0.11600835075E+04  0.00000000000E+00 0.  1.
<mgrwt>
<rscale>  0 0.25226289E+04</rscale>
<asrwt>0</asrwt>
<pdfrwt beam="1">  1        2 0.25423249E+00 0.25226289E+04</pdfrwt>
<pdfrwt beam="2">  1       -2 0.14811156E+00 0.25226289E+04</pdfrwt>
<totfact> 0.28754789E+00</totfact>
</mgrwt>
</event>
<event>
 6    1  0.2003386E-005  0.1207752E+04  0.7818608E-02  0.9106098E-01
          1   -1    0    0  501    0  0.00000000000E+00  0.00000000000E+00  0.56282751466E+03  0.56282751466E+03  0.00000000000E+00 0.  1.
         -1   -1    0    0    0  501 -0.00000000000E+00 -0.00000000000E+00 -0.64791803375E+03  0.64791803375E+03  0.00000000000E+00 0. -1.
         23    2    1    2    0    0 -0.12124589604E+03 -0.31984578531E+03  0.45144500438E+03  0.57444981400E+03  0.95854593727E+02 0.  0.
         13    1    3    3    0    0 -0.12875129766E+03 -0.26765067581E+03  0.41506975035E+03  0.51038875239E+03  0.00000000000E+00 0. -1.
        -13    1    3    3    0    0  0.75054016130E+01 -0.52195109501E+02  0.36375254029E+02  0.64061061612E+02  0.00000000000E+00 0.  1.
         22    1    1    2    0    0  0.12124589604E+03  0.31984578531E+03 -0.53653552347E+03  0.63629573442E+03  0.00000000000E+00 0. -1.
<mgrwt>
<rscale>  0 0.12077518E+04</rscale>
<asrwt>0</asrwt>
<pdfrwt beam="1">  1        1 0.86588848E-01 0.12077518E+04</pdfrwt>
<pdfrwt beam="2">  1       -1 0.99679698E-01 0.12077518E+04</pdfrwt>
<totfact> 0.35675531E+01</totfact>
</mgrwt>
</event>
<event>
 6    1  0.2003386E-005  0.1899560E+04  0.7818608E-02  0.8655075E-01
         -2   -1    0    0    0  501 -0.00000000000E+00  0.00000000000E+00  0.29582795904E+03  0.29582795904E+03  0.00000000000E+00 0.  1.
          2   -1    0    0  501    0  0.00000000000E+00 -0.00000000000E+00 -0.30493467342E+04  0.30493467342E+04  0.00000000000E+00 0. -1.
         23    2    1    2    0    0 -0.62784996868E+03  0.10804585889E+02 -0.12989738261E+03  0.64745314835E+03  0.89498195858E+02 0.  0.
         11    1    3    3    0    0 -0.17173415370E+03  0.19418160227E+02 -0.73406559317E+02  0.18777168968E+03  0.00000000000E+00 0. -1.
        -11    1    3    3    0    0 -0.45611581498E+03 -0.86135743383E+01 -0.56490823291E+02  0.45968145868E+03  0.00000000000E+00 0.  1.
         22    1    1    2    0    0  0.62784996868E+03 -0.10804585889E+02 -0.26236213926E+04  0.26977215449E+04  0.00000000000E+00 0. -1.
<mgrwt>
<rscale>  0 0.18995600E+04</rscale>
<asrwt>0</asrwt>
<pdfrwt beam="1">  1        2 0.46913030E+00 0.18995600E+04</pdfrwt>
<pdfrwt beam="2">  1       -2 0.45511991E-01 0.18995600E+04</pdfrwt>
<totfact> 0.69732955E+00</totfact>
</mgrwt>
</event>
<event>
 6    1  0.2003386E-005  0.2011413E+04  0.7818608E-02  0.8601303E-01
          2   -1    0    0  501    0  0.00000000000E+00  0.00000000000E+00  0.19905703816E+04  0.19905703816E+04  0.00000000000E+00 0. -1.
         -2   -1    0    0    0  501 -0.00000000000E+00 -0.00000000000E+00 -0.50811827207E+03  0.50811827207E+03  0.00000000000E+00 0.  1.
         23    2    1    2    0    0 -0.55526943467E+03 -0.12813959452E+03  0.17689514070E+04  0.18608597203E+04  0.94159002026E+02 0.  0.
         13    1    3    3    0    0 -0.14593131896E+03 -0.69341970083E+02  0.57781866094E+03  0.59998221940E+03  0.00000000000E+00 0. -1.
        -13    1    3    3    0    0 -0.40933811571E+03 -0.58797624435E+02  0.11911327461E+04  0.12608775009E+04  0.00000000000E+00 0.  1.
         22    1    1    2    0    0  0.55526943467E+03  0.12813959452E+03 -0.28649929746E+03  0.63782893334E+03  0.00000000000E+00 0.  1.
<mgrwt>
<rscale>  0 0.20114126E+04</rscale>
<asrwt>0</asrwt>
<pdfrwt beam="1">  1        2 0.30624159E+00 0.20114126E+04</pdfrwt>
<pdfrwt beam="2">  1       -2 0.78172043E-01 0.20114126E+04</pdfrwt>
<totfact> 0.91380124E+00</totfact>
</mgrwt>
</event>
<event>
 6    1  0.2003386E-005  0.1418818E+04  0.7818608E-02  0.8940308E-01
         -2   -1    0    0    0  501 -0.00000000000E+00  0.00000000000E+00  0.25175429584E+03  0.25175429584E+03  0.00000000000E+00 0.  1.
          2   -1    0    0  501    0  0.00000000000E+00 -0.00000000000E+00 -0.19990183925E+04  0.19990183925E+04  0.00000000000E+00 0. -1.
         23    2    1    2    0    0 -0.34113363779E+03 -0.60517802064E+03 -0.67083530314E+03  0.96963587167E+03  0.86954724956E+02 0.  0.
         11    1    3    3    0    0 -0.39485626302E+02 -0.14122724613E+03 -0.14688871377E+03  0.20755853143E+03  0.00000000000E+00 0.  1.
        -11    1    3    3    0    0 -0.30164801148E+03 -0.46395077450E+03 -0.52394658937E+03  0.76207734024E+03  0.00000000000E+00 0. -1.
         22    1    1    2    0    0  0.34113363779E+03  0.60517802064E+03 -0.10764287935E+04  0.12811368166E+04  0.00000000000E+00 0.  1.
<mgrwt>
<rscale>  0 0.14188185E+04</rscale>
<asrwt>0</asrwt>
<pdfrwt beam="1">  1        2 0.30754130E+00 0.14188185E+04</pdfrwt>
<pdfrwt beam="2">  1       -2 0.38731429E-01 0.14188185E+04</pdfrwt>
<totfact> 0.40979547E+01</totfact>
</mgrwt>
</event>
<event>
 6    1  0.2003386E-005  0.1130398E+04  0.7818608E-02  0.9176060E-01
          4   -1    0    0  501    0  0.00000000000E+00  0.00000000000E+00  0.17625159503E+03  0.17625159503E+03  0.00000000000E+00 0. -1.
         -4   -1    0    0    0  501 -0.00000000000E+00 -0.00000000000E+00 -0.18124651704E+04  0.18124651704E+04  0.00000000000E+00 0.  1.
         23    2    1    2    0    0 -0.25278060118E+03 -0.39829557154E+03 -0.28763183352E+03  0.56000751961E+03  0.91317882836E+02 0.  0.
         13    1    3    3    0    0 -0.33380145692E+02 -0.54410710799E+02 -0.55795339158E+01  0.64077225087E+02  0.00000000000E+00 0. -1.
        -13    1    3    3    0    0 -0.21940045549E+03 -0.34388486074E+03 -0.28205229961E+03  0.49593029453E+03  0.00000000000E+00 0.  1.
         22    1    1    2    0    0  0.25278060118E+03  0.39829557154E+03 -0.13485817419E+04  0.14287092458E+04  0.00000000000E+00 0.  1.
<mgrwt>
<rscale>  0 0.11303979E+04</rscale>
<asrwt>0</asrwt>
<pdfrwt beam="1">  1        4 0.27115631E-01 0.11303979E+04</pdfrwt>
<pdfrwt beam="2">  1       -4 0.27884078E+00 0.11303979E+04</pdfrwt>
<totfact> 0.10928115E+00</totfact>
</mgrwt>
</event>
<event>
 6    1  0.2003386E-005  0.2229008E+04  0.7818608E-02  0.8506451E-01
          2   -1    0    0  501    0  0.00000000000E+00  0.00000000000E+00  0.23967169101E+04  0.23967169101E+04  0.00000000000E+00 0. -1.
         -2   -1    0    0    0  501 -0.00000000000E+00 -0.00000000000E+00 -0.51825847871E+03  0.51825847871E+03  0.00000000000E+00 0.  1.
         23    2    1    2    0    0  0.44105306606E+03  0.10211745508E+04  0.97972617796E+03  0.14849247136E+04  0.88389767288E+02 0.  0.
         11    1    3    3    0    0  0.18493902345E+03  0.32854759600E+03  0.34939876593E+03  0.51402865957E+03  0.00000000000E+00 0. -1.
        -11    1    3    3    0    0  0.25611404261E+03  0.69262695483E+03  0.63032741203E+03  0.97089605403E+03  0.00000000000E+00 0.  1.
         22    1    1    2    0    0 -0.44105306606E+03 -0.10211745508E+04  0.89873225347E+03  0.14300506752E+04  0.00000000000E+00 0. -1.
<mgrwt>
<rscale>  0 0.22290077E+04</rscale>
<asrwt>0</asrwt>
<pdfrwt beam="1">  1        2 0.36872567E+00 0.22290077E+04</pdfrwt>
<pdfrwt beam="2">  1       -2 0.79732075E-01 0.22290077E+04</pdfrwt>
<totfact> 0.50706906E+00</totfact>
</mgrwt>
</event>
<event>
 6    1  0.2003386E-005  0.1592579E+04  0.7818608E-02  0.8825120E-01
          2   -1    0    0  501    0  0.00000000000E+00  0.00000000000E+00  0.24597298642E+04  0.24597298642E+04  0.00000000000E+00 0. -1.
         -2   -1    0    0    0  501 -0.00000000000E+00 -0.00000000000E+00 -0.25778316170E+03  0.25778316170E+03  0.00000000000E+00 0.  1.
         23    2    1    2    0    0 -0.20105502841E+03 -0.53703093906E+03  0.16814861054E+03  0.60442049768E+03  0.90690842074E+02 0.  0.
         11    1    3    3    0    0 -0.11286738101E+02 -0.13424726486E+03  0.50662725934E+02  0.14393203389E+03  0.00000000000E+00 0.  1.
        -11    1    3    3    0    0 -0.18976829031E+03 -0.40278367420E+03  0.11748588460E+03  0.46048846380E+03  0.00000000000E+00 0. -1.
         22    1    1    2    0    0  0.20105502841E+03  0.53703093906E+03  0.20337980919E+04  0.21130925282E+04  0.00000000000E+00 0.  1.
<mgrwt>
<rscale>  0 0.15925790E+04</rscale>
<asrwt>0</asrwt>
<pdfrwt beam="1">  1        2 0.37841996E+00 0.15925790E+04</pdfrwt>
<pdfrwt beam="2">  1       -2 0.39658950E-01 0.15925790E+04</pdfrwt>
<totfact> 0.21237209E+01</totfact>
</mgrwt>
</event>
<event>
 6    1  0.2003386E-005  0.4583444E+04  0.7818608E-02  0.7896189E-01
          2   -1    0    0  501    0  0.00000000000E+00  0.00000000000E+00  0.11023764644E+04  0.11023764644E+04  0.00000000000E+00 0.  1.
         -2   -1    0    0    0  501 -0.00000000000E+00 -0.00000000000E+00 -0.47642424504E+04  0.47642424504E+04  0.00000000000E+00 0. -1.
         23    2    1    2    0    0  0.25803059579E+03  0.82659062118E+02 -0.47432330411E+04  0.47518243073E+04  0.90345203343E+02 0.  0.
         11    1    3    3    0    0  0.21040301905E+03  0.75295436411E+02 -0.31768778255E+04  0.31847278614E+04  0.00000000000E+00 0. -1.
        -11    1    3    3    0    0  0.47627576732E+02  0.73636257065E+01 -0.15663552157E+04  0.15670964459E+04  0.00000000000E+00 0.  1.
         22    1    1    2    0    0 -0.25803059579E+03 -0.82659062118E+02  0.10813670552E+04  0.11147946075E+04  0.00000000000E+00 0.  1.
<mgrwt>
<rscale>  0 0.45834436E+04</rscale>
<asrwt>0</asrwt>
<pdfrwt beam="1">  1        2 0.16959638E+00 0.45834436E+04</pdfrwt>
<pdfrwt beam="2">  1       -2 0.73296036E+00 0.45834436E+04</pdfrwt>
<totfact> 0.27882214E-03</totfact>
</mgrwt>
</event>
<event>
 6    1  0.2003386E-005  0.3501541E+04  0.7818608E-02  0.8113425E-01
          2   -1    0    0  501    0  0.00000000000E+00  0.00000000000E+00  0.29543227127E+04  0.29543227127E+04  0.00000000000E+00 0. -1.
         -2   -1    0    0    0  501 -0.00000000000E+00 -0.00000000000E+00 -0.10375296935E+04  0.10375296935E+04  0.00000000000E+00 0.  1.
         23    2    1    2    0    0 -0.31979575151E+03  0.91181619299E+02  0.29175870224E+04  0.29372567268E+04  0.67673003186E+02 0.  0.
         13    1    3    3    0    0 -0.76143579016E+02 -0.67442879447E+01  0.71270206638E+03  0.71678976379E+03  0.00000000000E+00 0. -1.
        -13    1    3    3    0    0 -0.24365217249E+03  0.97925907243E+02  0.22048849560E+04  0.22204669630E+04  0.00000000000E+00 0.  1.
         22    1    1    2    0    0  0.31979575151E+03 -0.91181619299E+02 -0.10007940032E+04  0.10545956795E+04  0.00000000000E+00 0.  1.
<mgrwt>
<rscale>  0 0.35015411E+04</rscale>
<asrwt>0</asrwt>
<pdfrwt beam="1">  1        2 0.45451118E+00 0.35015411E+04</pdfrwt>
<pdfrwt beam="2">  1       -2 0.15961995E+00 0.35015411E+04</pdfrwt>
<totfact> 0.38706498E-01</totfact>
</mgrwt>
</event>
<event>
 6    1  0.2003386E-005  0.3304775E+04  0.7818608E-02  0.8161681E-01
         -2   -1    0    0    0  501 -0.00000000000E+00  0.00000000000E+00  0.14706734067E+04  0.14706734067E+04  0.00000000000E+00 0.  1.
          2   -1    0    0  501    0  0.00000000000E+00 -0.00000000000E+00 -0.18565544139E+04  0.18565544139E+04  0.00000000000E+00 0. -1.
         23    2    1    2    0    0  0.11763220850E+04 -0.11342570625E+04 -0.43170823490E+03  0.16924884328E+04  0.88726341467E+02 0.  0.
         13    1    3    3    0    0  0.41327345959E+03 -0.45762812814E+03 -0.16889857526E+03  0.63933182683E+03  0.00000000000E+00 0.  1.
        -13    1    3    3    0    0  0.76304862543E+03 -0.67662893431E+03 -0.26280965964E+03  0.10531566060E+04  0.00000000000E+00 0. -1.
         22    1    1    2    0    0 -0.11763220850E+04  0.11342570625E+04  0.45827227728E+02  0.16347393879E+04  0.00000000000E+00 0.  1.
<mgrwt>
<rscale>  0 0.33047755E+04</rscale>
<asrwt>0</asrwt>
<pdfrwt beam="1">  1        2 0.28562376E+00 0.33047755E+04</pdfrwt>
<pdfrwt beam="2">  1       -2 0.22625745E+00 0.33047755E+04</pdfrwt>
<totfact> 0.60484553E-01</totfact>
</mgrwt>
</event>
<event>
 6    1  0.2003386E-005  0.2232050E+04  0.7818608E-02  0.8505205E-01
          2   -1    0    0  501    0  0.00000000000E+00  0.00000000000E+00  0.13053666039E+04  0.13053666039E+04  0.00000000000E+00 0. -1.
         -2   -1    0    0    0  501 -0.00000000000E+00 -0.00000000000E+00 -0.95414739721E+03  0.95414739721E+03  0.00000000000E+00 0.  1.
         23    2    1    2    0    0 -0.10740445154E+04  0.23585930085E+03 -0.58554483178E+01  0.11033550414E+04  0.90315171149E+02 0.  0.
         13    1    3    3    0    0 -0.56092984774E+03  0.16417608481E+03  0.17594689662E+02  0.58472699101E+03  0.00000000000E+00 0.  1.
        -13    1    3    3    0    0 -0.51311466770E+03  0.71683216038E+02 -0.23450137980E+02  0.51862805038E+03  0.00000000000E+00 0. -1.
         22    1    1    2    0    0  0.10740445154E+04 -0.23585930085E+03  0.35707465501E+03  0.11561589597E+04  0.00000000000E+00 0.  1.
<mgrwt>
<rscale>  0 0.22320503E+04</rscale>
<asrwt>0</asrwt>
<pdfrwt beam="1">  1        2 0.20082563E+00 0.22320503E+04</pdfrwt>
<pdfrwt beam="2">  1       -2 0.14679191E+00 0.22320503E+04</pdfrwt>
<totfact> 0.47475775E+00</totfact>
</mgrwt>
</event>
<event>
 6    1  0.2003386E-005  0.8035600E+03  0.7818608E-02  0.9554878E-01
         -1   -1    0    0    0  501 -0.00000000000E+00  0.00000000000E+00  0.25725336947E+03  0.25725336947E+03  0.00000000000E+00 0.  1.
          1   -1    0    0  501    0  0.00000000000E+00 -0.00000000000E+00 -0.62750261125E+03  0.62750261125E+03  0.00000000000E+00 0. -1.
         23    2    1    2    0    0 -0.25102787648E+03 -0.20114733645E+03  0.68493873784E+02  0.34072402654E+03  0.89029241169E+02 0.  0.
         13    1    3    3    0    0 -0.24935033408E+03 -0.17696978247E+03  0.49102065915E+02  0.30968517222E+03  0.00000000000E+00 0. -1.
        -13    1    3    3    0    0 -0.16775423944E+01 -0.24177553980E+02  0.19391807868E+02  0.31038854317E+02  0.00000000000E+00 0.  1.
         22    1    1    2    0    0  0.25102787648E+03  0.20114733645E+03 -0.43874311556E+03  0.54403195419E+03  0.00000000000E+00 0. -1.
<mgrwt>
<rscale>  0 0.80355998E+03</rscale>
<asrwt>0</asrwt>
<pdfrwt beam="1">  1        1 0.96538863E-01 0.80355998E+03</pdfrwt>
<pdfrwt beam="2">  1       -1 0.39577442E-01 0.80355998E+03</pdfrwt>
<totfact> 0.20133235E+02</totfact>
</mgrwt>
</event>
<event>
 6    1  0.2003386E-005  0.1061999E+04  0.7818608E-02  0.9243043E-01
          2   -1    0    0  501    0  0.00000000000E+00  0.00000000000E+00  0.32607484235E+04  0.32607484235E+04  0.00000000000E+00 0. -1.
         -2   -1    0    0    0  501 -0.00000000000E+00 -0.00000000000E+00 -0.86471041131E+02  0.86471041131E+02  0.00000000000E+00 0.  1.
         23    2    1    2    0    0  0.19885285558E+03  0.31933889741E+03  0.27625816765E+04  0.27895339405E+04  0.90123784104E+02 0.  0.
         13    1    3    3    0    0  0.18860134523E+03  0.23350177542E+03  0.21035841261E+04  0.21248905200E+04  0.00000000000E+00 0. -1.
        -13    1    3    3    0    0  0.10251510352E+02  0.85837121992E+02  0.65899755036E+03  0.66464342046E+03  0.00000000000E+00 0.  1.
         22    1    1    2    0    0 -0.19885285558E+03 -0.31933889741E+03  0.41169570592E+03  0.55768552415E+03  0.00000000000E+00 0.  1.
<mgrwt>
<rscale>  0 0.10619987E+04</rscale>
<asrwt>0</asrwt>
<pdfrwt beam="1">  1        2 0.50165351E+00 0.10619987E+04</pdfrwt>
<pdfrwt beam="2">  1       -2 0.13303240E-01 0.10619987E+04</pdfrwt>
<totfact> 0.51992565E+01</totfact>
</mgrwt>
</event>
<event>
 6    1  0.2003386E-005  0.2000229E+04  0.7818608E-02  0.8606514E-01
         -2   -1    0    0    0  501 -0.00000000000E+00  0.00000000000E+00  0.30137943681E+04  0.30137943681E+04  0.00000000000E+00 0.  1.
          2   -1    0    0  501    0  0.00000000000E+00 -0.00000000000E+00 -0.33188368997E+03  0.33188368997E+03  0.00000000000E+00 0. -1.
         23    2    1    2    0    0  0.91006977739E+03 -0.37157457194E+03  0.10552050581E+04  0.14450292645E+04  0.91417714071E+02 0.  0.
         13    1    3    3    0    0  0.37592573604E+03 -0.19969451114E+03  0.43355862879E+03  0.60759455346E+03  0.00000000000E+00 0. -1.
        -13    1    3    3    0    0  0.53414404135E+03 -0.17188006079E+03  0.62164642935E+03  0.83743471108E+03  0.00000000000E+00 0.  1.
         22    1    1    2    0    0 -0.91006977739E+03  0.37157457194E+03  0.16267056200E+04  0.19006487935E+04  0.00000000000E+00 0.  1.
<mgrwt>
<rscale>  0 0.20002292E+04</rscale>
<asrwt>0</asrwt>
<pdfrwt beam="1">  1        2 0.51059031E-01 0.20002292E+04</pdfrwt>
<pdfrwt beam="2">  1       -2 0.46366065E+00 0.20002292E+04</pdfrwt>
<totfact> 0.25722446E-01</totfact>
</mgrwt>
</event>
<event>
 6    1  0.2003386E-005  0.2046794E+04  0.7818608E-02  0.8585050E-01
          2   -1    0    0  501    0  0.00000000000E+00  0.00000000000E+00  0.60624679100E+03  0.60624679100E+03  0.00000000000E+00 0. -1.
         -2   -1    0    0    0  501 -0.00000000000E+00 -0.00000000000E+00 -0.17275818065E+04  0.17275818065E+04  0.00000000000E+00 0.  1.
         23    2    1    2    0    0 -0.68394973020E+03  0.70026619128E+03 -0.89422542718E+03  0.13289710269E+04  0.91459847212E+02 0.  0.
         13    1    3    3    0    0 -0.37897577185E+03  0.38560287054E+03 -0.55494505308E+03  0.77477494884E+03  0.00000000000E+00 0.  1.
        -13    1    3    3    0    0 -0.30497395836E+03  0.31466332074E+03 -0.33928037410E+03  0.55419607806E+03  0.00000000000E+00 0. -1.
         22    1    1    2    0    0  0.68394973020E+03 -0.70026619128E+03 -0.22710958834E+03  0.10048575706E+04  0.00000000000E+00 0. -1.
<mgrwt>
<rscale>  0 0.20467935E+04</rscale>
<asrwt>0</asrwt>
<pdfrwt beam="1">  1        2 0.93268739E-01 0.20467935E+04</pdfrwt>
<pdfrwt beam="2">  1       -2 0.26578181E+00 0.20467935E+04</pdfrwt>
<totfact> 0.23315875E+00</totfact>
</mgrwt>
</event>
<event>
 6    1  0.2003386E-005  0.1025055E+04  0.7818608E-02  0.9281484E-01
          2   -1    0    0  501    0  0.00000000000E+00  0.00000000000E+00  0.51639143597E+03  0.51639143597E+03  0.00000000000E+00 0. -1.
         -2   -1    0    0    0  501 -0.00000000000E+00 -0.00000000000E+00 -0.50869271455E+03  0.50869271455E+03  0.00000000000E+00 0.  1.
         23    2    1    2    0    0  0.41398484941E+03 -0.15685078699E+03  0.25411012511E+03  0.51842429935E+03  0.90587932693E+02 0.  0.
         13    1    3    3    0    0  0.26538170050E+03 -0.14018163307E+03  0.19333356630E+03  0.35701009099E+03  0.00000000000E+00 0. -1.
        -13    1    3    3    0    0  0.14860314891E+03 -0.16669153915E+02  0.60776558809E+02  0.16141420835E+03  0.00000000000E+00 0.  1.
         22    1    1    2    0    0 -0.41398484941E+03  0.15685078699E+03 -0.24641140370E+03  0.50665985117E+03  0.00000000000E+00 0.  1.
<mgrwt>
<rscale>  0 0.10250552E+04</rscale>
<asrwt>0</asrwt>
<pdfrwt beam="1">  1        2 0.79444837E-01 0.10250552E+04</pdfrwt>
<pdfrwt beam="2">  1       -2 0.78260417E-01 0.10250552E+04</pdfrwt>
<totfact> 0.85932101E+01</totfact>
</mgrwt>
</event>
<event>
 6    1  0.2003386E-005  0.2005815E+04  0.7818608E-02  0.8603907E-01
          1   -1    0    0  501    0  0.00000000000E+00  0.00000000000E+00  0.13569495425E+04  0.13569495425E+04  0.00000000000E+00 0. -1.
         -1   -1    0    0    0  501 -0.00000000000E+00 -0.00000000000E+00 -0.74123870408E+03  0.74123870408E+03  0.00000000000E+00 0.  1.
         23    2    1    2    0    0 -0.58468715429E+03  0.56949170437E+03  0.91422870973E+03  0.12291124217E+04  0.93398832096E+02 0.  0.
         11    1    3    3    0    0 -0.28670537050E+03  0.24195352085E+03  0.47664758071E+03  0.60657595725E+03  0.00000000000E+00 0.  1.
        -11    1    3    3    0    0 -0.29798178380E+03  0.32753818352E+03  0.43758112903E+03  0.62253646449E+03  0.00000000000E+00 0. -1.
         22    1    1    2    0    0  0.58468715429E+03 -0.56949170437E+03 -0.29851787135E+03  0.86907582480E+03  0.00000000000E+00 0.  1.
<mgrwt>
<rscale>  0 0.20058151E+04</rscale>
<asrwt>0</asrwt>
<pdfrwt beam="1">  1        1 0.20876147E+00 0.20058151E+04</pdfrwt>
<pdfrwt beam="2">  1       -1 0.11403672E+00 0.20058151E+04</pdfrwt>
<totfact> 0.53509068E+00</totfact>
</mgrwt>
</event>
<event>
 6    1  0.2003386E-005  0.1194539E+04  0.7818608E-02  0.9117650E-01
         -2   -1    0    0    0  501 -0.00000000000E+00  0.00000000000E+00  0.92589747465E+03  0.92589747465E+03  0.00000000000E+00 0.  1.
          2   -1    0    0  501    0  0.00000000000E+00 -0.00000000000E+00 -0.38528130005E+03  0.38528130005E+03  0.00000000000E+00 0. -1.
         23    2    1    2    0    0 -0.28190822219E+03 -0.26882675958E+03 -0.22002492942E+03  0.45659410276E+03  0.91253124364E+02 0.  0.
         13    1    3    3    0    0 -0.80757771618E+02 -0.13706983424E+03 -0.76142492054E+02  0.17637357011E+03  0.00000000000E+00 0. -1.
        -13    1    3    3    0    0 -0.20115045057E+03 -0.13175692534E+03 -0.14388243736E+03  0.28022053265E+03  0.00000000000E+00 0.  1.
         22    1    1    2    0    0  0.28190822219E+03  0.26882675958E+03  0.76064110402E+03  0.85458467194E+03  0.00000000000E+00 0.  1.
<mgrwt>
<rscale>  0 0.11945392E+04</rscale>
<asrwt>0</asrwt>
<pdfrwt beam="1">  1        2 0.59274046E-01 0.11945392E+04</pdfrwt>
<pdfrwt beam="2">  1       -2 0.14244576E+00 0.11945392E+04</pdfrwt>
<totfact> 0.28084534E+01</totfact>
</mgrwt>
</event>
<event>
 6    1  0.2003386E-005  0.2215287E+04  0.7818608E-02  0.8512092E-01
          2   -1    0    0  501    0  0.00000000000E+00  0.00000000000E+00  0.16292458344E+04  0.16292458344E+04  0.00000000000E+00 0. -1.
         -2   -1    0    0    0  501 -0.00000000000E+00 -0.00000000000E+00 -0.75303161841E+03  0.75303161841E+03  0.00000000000E+00 0.  1.
         23    2    1    2    0    0 -0.72581172433E+02  0.10948925059E+04  0.58585649796E+03  0.12472156790E+04  0.90892726910E+02 0.  0.
         11    1    3    3    0    0  0.13031479964E+02  0.41635569243E+03  0.24142904265E+03  0.48146636925E+03  0.00000000000E+00 0.  1.
        -11    1    3    3    0    0 -0.85612652398E+02  0.67853681343E+03  0.34442745531E+03  0.76574930977E+03  0.00000000000E+00 0. -1.
         22    1    1    2    0    0  0.72581172433E+02 -0.10948925059E+04  0.29035771807E+03  0.11350617738E+04  0.00000000000E+00 0.  1.
<mgrwt>
<rscale>  0 0.22152866E+04</rscale>
<asrwt>0</asrwt>
<pdfrwt beam="1">  1        2 0.25065320E+00 0.22152866E+04</pdfrwt>
<pdfrwt beam="2">  1       -2 0.11585102E+00 0.22152866E+04</pdfrwt>
<totfact> 0.56784165E+00</totfact>
</mgrwt>
</event>
<event>
 6    1  0.2003386E-005  0.2109311E+04  0.7818608E-02  0.8557153E-01
          2   -1    0    0  501    0  0.00000000000E+00  0.00000000000E+00  0.26523513175E+04  0.26523513175E+04  0.00000000000E+00 0. -1.
         -2   -1    0    0    0  501 -0.00000000000E+00 -0.00000000000E+00 -0.41936297447E+03  0.41936297447E+03  0.00000000000E+00 0.  1.
         23    2    1    2    0    0 -0.19599329994E+03  0.90226187637E+03  0.18549446882E+04  0.20740134990E+04  0.90677068883E+02 0.  0.
         13    1    3    3    0    0 -0.12414066159E+03  0.65005058464E+03  0.14088265986E+04  0.15565246710E+04  0.00000000000E+00 0. -1.
        -13    1    3    3    0    0 -0.71852638348E+02  0.25221129173E+03  0.44611808956E+03  0.51748882804E+03  0.00000000000E+00 0.  1.
         22    1    1    2    0    0  0.19599329994E+03 -0.90226187637E+03  0.37804365481E+03  0.99770079288E+03  0.00000000000E+00 0.  1.
<mgrwt>
<rscale>  0 0.21093107E+04</rscale>
<asrwt>0</asrwt>
<pdfrwt beam="1">  1        2 0.40805404E+00 0.21093107E+04</pdfrwt>
<pdfrwt beam="2">  1       -2 0.64517382E-01 0.21093107E+04</pdfrwt>
<totfact> 0.57936609E+00</totfact>
</mgrwt>
</event>
<event>
 6    1  0.2003386E-005  0.8045158E+03  0.7818608E-02  0.9553504E-01
         -2   -1    0    0    0  501 -0.00000000000E+00  0.00000000000E+00  0.52308007762E+02  0.52308007762E+02  0.00000000000E+00 0.  1.
          2   -1    0    0  501    0  0.00000000000E+00 -0.00000000000E+00 -0.30934345727E+04  0.30934345727E+04  0.00000000000E+00 0. -1.
         23    2    1    2    0    0 -0.24374082769E+03 -0.64773681450E+02 -0.27397324690E+04  0.27527494228E+04  0.88826584844E+02 0.  0.
         11    1    3    3    0    0 -0.17460652561E+03 -0.31300192478E+02 -0.22552589315E+04  0.22622245664E+04  0.00000000000E+00 0. -1.
        -11    1    3    3    0    0 -0.69134302084E+02 -0.33473488972E+02 -0.48447353752E+03  0.49052485640E+03  0.00000000000E+00 0.  1.
         22    1    1    2    0    0  0.24374082769E+03  0.64773681450E+02 -0.30139409592E+03  0.39299315763E+03  0.00000000000E+00 0.  1.
<mgrwt>
<rscale>  0 0.80451575E+03</rscale>
<asrwt>0</asrwt>
<pdfrwt beam="1">  1        2 0.47591307E+00 0.80451575E+03</pdfrwt>
<pdfrwt beam="2">  1       -2 0.80473849E-02 0.80451575E+03</pdfrwt>
<totfact> 0.15583557E+02</totfact>
</mgrwt>
</event>
<event>
 6    1  0.2003386E-005  0.1130172E+04  0.7818608E-02  0.9176273E-01
          3   -1    0    0  501    0  0.00000000000E+00  0.00000000000E+00  0.62938919343E+03  0.62938919343E+03  0.00000000000E+00 0. -1.
         -3   -1    0    0    0  501 -0.00000000000E+00 -0.00000000000E+00 -0.50735239104E+03  0.50735239104E+03  0.00000000000E+00 0.  1.
         23    2    1    2    0    0 -0.36095933485E+03 -0.18032182537E+03 -0.33117437838E+03  0.52994015362E+03  0.91391987634E+02 0.  0.
         11    1    3    3    0    0 -0.20724649761E+03 -0.59696114758E+02 -0.14374683760E+03  0.25918697925E+03  0.00000000000E+00 0.  1.
        -11    1    3    3    0    0 -0.15371283724E+03 -0.12062571061E+03 -0.18742754077E+03  0.27075317437E+03  0.00000000000E+00 0. -1.
         22    1    1    2    0    0  0.36095933485E+03  0.18032182537E+03  0.45321118076E+03  0.60680143086E+03  0.00000000000E+00 0. -1.
<mgrwt>
<rscale>  0 0.11301719E+04</rscale>
<asrwt>0</asrwt>
<pdfrwt beam="1">  1        3 0.96829106E-01 0.11301719E+04</pdfrwt>
<pdfrwt beam="2">  1       -3 0.78054214E-01 0.11301719E+04</pdfrwt>
<totfact> 0.37634846E+00</totfact>
</mgrwt>
</event>
<event>
 6    1  0.2003386E-005  0.1183603E+04  0.7818608E-02  0.9127331E-01
         -2   -1    0    0    0  501 -0.00000000000E+00  0.00000000000E+00  0.77264526621E+03  0.77264526621E+03  0.00000000000E+00 0.  1.
          2   -1    0    0  501    0  0.00000000000E+00 -0.00000000000E+00 -0.45328580049E+03  0.45328580049E+03  0.00000000000E+00 0. -1.
         23    2    1    2    0    0  0.54051290146E+03 -0.77510930489E+02  0.38733224570E+03  0.67567436315E+03  0.91364300828E+02 0.  0.
         11    1    3    3    0    0  0.27662251357E+03  0.64332871013E+01  0.19105119574E+03  0.33624687596E+03  0.00000000000E+00 0.  1.
        -11    1    3    3    0    0  0.26389038789E+03 -0.83944217591E+02  0.19628104996E+03  0.33942748719E+03  0.00000000000E+00 0. -1.
         22    1    1    2    0    0 -0.54051290146E+03  0.77510930489E+02 -0.67972779982E+02  0.55025670356E+03  0.00000000000E+00 0. -1.
<mgrwt>
<rscale>  0 0.11836032E+04</rscale>
<asrwt>0</asrwt>
<pdfrwt beam="1">  1        2 0.69736277E-01 0.11836032E+04</pdfrwt>
<pdfrwt beam="2">  1       -2 0.11886850E+00 0.11836032E+04</pdfrwt>
<totfact> 0.37026019E+01</totfact>
</mgrwt>
</event>
<event>
 6    1  0.2003386E-005  0.2082679E+04  0.7818608E-02  0.8568912E-01
         -2   -1    0    0    0  501 -0.00000000000E+00  0.00000000000E+00  0.17087535132E+04  0.17087535132E+04  0.00000000000E+00 0.  1.
          2   -1    0    0  501    0  0.00000000000E+00 -0.00000000000E+00 -0.63460778376E+03  0.63460778376E+03  0.00000000000E+00 0. -1.
         23    2    1    2    0    0  0.26690328539E+03  0.94988339389E+03  0.90562448020E+03  0.13424041364E+04  0.91527812992E+02 0.  0.
         13    1    3    3    0    0  0.75481058728E+01  0.10309241208E+03  0.12166593588E+03  0.15964842399E+03  0.00000000000E+00 0.  1.
        -13    1    3    3    0    0  0.25935517951E+03  0.84679098182E+03  0.78395854433E+03  0.11827557124E+04  0.00000000000E+00 0. -1.
         22    1    1    2    0    0 -0.26690328539E+03 -0.94988339389E+03  0.16852124919E+03  0.10009571605E+04  0.00000000000E+00 0. -1.
<mgrwt>
<rscale>  0 0.20826793E+04</rscale>
<asrwt>0</asrwt>
<pdfrwt beam="1">  1        2 0.97631967E-01 0.20826793E+04</pdfrwt>
<pdfrwt beam="2">  1       -2 0.26288515E+00 0.20826793E+04</pdfrwt>
<totfact> 0.22896465E+00</totfact>
</mgrwt>
</event>
<event>
 6    1  0.2003386E-005  0.2827856E+04  0.7818608E-02  0.8294672E-01
          2   -1    0    0  501    0  0.00000000000E+00  0.00000000000E+00  0.11373544723E+04  0.11373544723E+04  0.00000000000E+00 0. -1.
         -2   -1    0    0    0  501 -0.00000000000E+00 -0.00000000000E+00 -0.17577565766E+04  0.17577565766E+04  0.00000000000E+00 0.  1.
         23    2    1    2    0    0 -0.13136279825E+04  0.48472451667E+02 -0.83950257763E+03  0.15624546519E+04  0.92368319018E+02 0.  0.
         13    1    3    3    0    0 -0.74258275162E+03  0.37456968755E+02 -0.42156435333E+03  0.85472139993E+03  0.00000000000E+00 0. -1.
        -13    1    3    3    0    0 -0.57104523087E+03  0.11015482912E+02 -0.41793822431E+03  0.70773325194E+03  0.00000000000E+00 0.  1.
         22    1    1    2    0    0  0.13136279825E+04 -0.48472451667E+02  0.21910047333E+03  0.13326563970E+04  0.00000000000E+00 0. -1.
<mgrwt>
<rscale>  0 0.28278559E+04</rscale>
<asrwt>0</asrwt>
<pdfrwt beam="1">  1        2 0.17497761E+00 0.28278559E+04</pdfrwt>
<pdfrwt beam="2">  1       -2 0.27042409E+00 0.28278559E+04</pdfrwt>
<totfact> 0.86436383E-01</totfact>
</mgrwt>
</event>
<event>
 6    1  0.2461278E-005  0.3674044E+04  0.7818608E-02  0.8073738E-01
         -2   -1    0    0    0  501 -0.00000000000E+00  0.00000000000E+00  0.13328816487E+04  0.13328816487E+04  0.00000000000E+00 0.  1.
          2   -1    0    0  501    0  0.00000000000E+00 -0.00000000000E+00 -0.25318453855E+04  0.25318453855E+04  0.00000000000E+00 0. -1.
         23    2    1    2    0    0 -0.16942146684E+04  0.33767061592E+02  0.14333279007E+03  0.17029537985E+04  0.89463925734E+02 0.  0.
         13    1    3    3    0    0 -0.68090460643E+03 -0.19144018650E+01  0.98803012355E+02  0.68803835885E+03  0.00000000000E+00 0. -1.
        -13    1    3    3    0    0 -0.10133100619E+04  0.35681463457E+02  0.44529777720E+02  0.10149154396E+04  0.00000000000E+00 0.  1.
         22    1    1    2    0    0  0.16942146684E+04 -0.33767061592E+02 -0.13422965269E+04  0.21617732358E+04  0.00000000000E+00 0. -1.
<mgrwt>
<rscale>  0 0.36740442E+04</rscale>
<asrwt>0</asrwt>
<pdfrwt beam="1">  1        2 0.38951467E+00 0.36740442E+04</pdfrwt>
<pdfrwt beam="2">  1       -2 0.20505872E+00 0.36740442E+04</pdfrwt>
<totfact> 0.33304870E-01</totfact>
</mgrwt>
</event>
<event>
 6    1  0.2003386E-005  0.7308128E+03  0.7818608E-02  0.9665942E-01
          2   -1    0    0  501    0  0.00000000000E+00  0.00000000000E+00  0.16676587706E+04  0.16676587706E+04  0.00000000000E+00 0. -1.
         -2   -1    0    0    0  501 -0.00000000000E+00 -0.00000000000E+00 -0.80065450462E+02  0.80065450462E+02  0.00000000000E+00 0.  1.
         23    2    1    2    0    0 -0.12355753996E+03  0.33752942491E+03  0.80121747820E+03  0.88309739800E+03  0.93375524759E+02 0.  0.
         11    1    3    3    0    0 -0.90658715025E+02  0.22687183416E+03  0.63799791291E+03  0.68317726003E+03  0.00000000000E+00 0.  1.
        -11    1    3    3    0    0 -0.32898824936E+02  0.11065759076E+03  0.16321956529E+03  0.19992013797E+03  0.00000000000E+00 0. -1.
         22    1    1    2    0    0  0.12355753996E+03 -0.33752942491E+03  0.78637584191E+03  0.86462682303E+03  0.00000000000E+00 0.  1.
<mgrwt>
<rscale>  0 0.73081284E+03</rscale>
<asrwt>0</asrwt>
<pdfrwt beam="1">  1        2 0.25656286E+00 0.73081284E+03</pdfrwt>
<pdfrwt beam="2">  1       -2 0.12317763E-01 0.73081284E+03</pdfrwt>
<totfact> 0.50663025E+02</totfact>
</mgrwt>
</event>
<event>
 6    1  0.2003386E-005  0.1062129E+04  0.7818608E-02  0.9242911E-01
         -2   -1    0    0    0  501 -0.00000000000E+00  0.00000000000E+00  0.44590575807E+03  0.44590575807E+03  0.00000000000E+00 0.  1.
          2   -1    0    0  501    0  0.00000000000E+00 -0.00000000000E+00 -0.63248668031E+03  0.63248668031E+03  0.00000000000E+00 0. -1.
         23    2    1    2    0    0 -0.64570702567E+02 -0.35547877039E+03 -0.48606194734E+03  0.60911276034E+03  0.65020045608E+02 0.  0.
         11    1    3    3    0    0  0.10158684589E+02 -0.75398800125E+02 -0.12143944628E+03  0.14330288568E+03  0.00000000000E+00 0. -1.
        -11    1    3    3    0    0 -0.74729387155E+02 -0.28007997026E+03 -0.36462250106E+03  0.46580987466E+03  0.00000000000E+00 0.  1.
         22    1    1    2    0    0  0.64570702567E+02  0.35547877039E+03  0.29948102510E+03  0.46927967804E+03  0.00000000000E+00 0.  1.
<mgrwt>
<rscale>  0 0.10621289E+04</rscale>
<asrwt>0</asrwt>
<pdfrwt beam="1">  1        2 0.97305643E-01 0.10621289E+04</pdfrwt>
<pdfrwt beam="2">  1       -2 0.68600886E-01 0.10621289E+04</pdfrwt>
<totfact> 0.89952694E+01</totfact>
</mgrwt>
</event>
<event>
 6    1  0.2003386E-005  0.3050474E+04  0.7818608E-02  0.8229463E-01
          2   -1    0    0  501    0  0.00000000000E+00  0.00000000000E+00  0.14192953068E+04  0.14192953068E+04  0.00000000000E+00 0. -1.
         -2   -1    0    0    0  501 -0.00000000000E+00 -0.00000000000E+00 -0.16390866008E+04  0.16390866008E+04  0.00000000000E+00 0.  1.
         23    2    1    2    0    0 -0.10465425603E+04 -0.18129971531E+03  0.98567961742E+03  0.14517453478E+04  0.88765585871E+02 0.  0.
         13    1    3    3    0    0 -0.21650381276E+03 -0.31160579134E+02  0.15668994404E+03  0.26906620225E+03  0.00000000000E+00 0. -1.
        -13    1    3    3    0    0 -0.83003874754E+03 -0.15013913617E+03  0.82898967338E+03  0.11826791455E+04  0.00000000000E+00 0.  1.
         22    1    1    2    0    0  0.10465425603E+04  0.18129971531E+03 -0.12054709114E+04  0.16066365599E+04  0.00000000000E+00 0.  1.
<mgrwt>
<rscale>  0 0.30504740E+04</rscale>
<asrwt>0</asrwt>
<pdfrwt beam="1">  1        2 0.21835312E+00 0.30504740E+04</pdfrwt>
<pdfrwt beam="2">  1       -2 0.25216717E+00 0.30504740E+04</pdfrwt>
<totfact> 0.74947565E-01</totfact>
</mgrwt>
</event>
<event>
 6    1  0.2003386E-005  0.7184202E+03  0.7818608E-02  0.9686240E-01
         -2   -1    0    0    0  501 -0.00000000000E+00  0.00000000000E+00  0.24797042223E+03  0.24797042223E+03  0.00000000000E+00 0.  1.
          2   -1    0    0  501    0  0.00000000000E+00 -0.00000000000E+00 -0.52035193345E+03  0.52035193345E+03  0.00000000000E+00 0. -1.
         23    2    1    2    0    0 -0.17092042120E+03 -0.21247941801E+03  0.10220065120E+03  0.30499408128E+03  0.90637315989E+02 0.  0.
         13    1    3    3    0    0 -0.75552395808E+02 -0.77572132200E+02  0.87334009124E+02  0.13911444697E+03  0.00000000000E+00 0. -1.
        -13    1    3    3    0    0 -0.95368025389E+02 -0.13490728581E+03  0.14866642073E+02  0.16587963431E+03  0.00000000000E+00 0.  1.
         22    1    1    2    0    0  0.17092042120E+03  0.21247941801E+03 -0.37458216241E+03  0.46332827440E+03  0.00000000000E+00 0. -1.
<mgrwt>
<rscale>  0 0.71842018E+03</rscale>
<asrwt>0</asrwt>
<pdfrwt beam="1">  1        2 0.80054144E-01 0.71842018E+03</pdfrwt>
<pdfrwt beam="2">  1       -2 0.38149296E-01 0.71842018E+03</pdfrwt>
<totfact> 0.38411536E+02</totfact>
</mgrwt>
</event>
<event>
 6    1  0.2003386E-005  0.1131901E+04  0.7818608E-02  0.9174645E-01
          4   -1    0    0  501    0  0.00000000000E+00  0.00000000000E+00  0.16306585406E+03  0.16306585406E+03  0.00000000000E+00 0. -1.
         -4   -1    0    0    0  501 -0.00000000000E+00 -0.00000000000E+00 -0.19642382114E+04  0.19642382114E+04  0.00000000000E+00 0.  1.
         23    2    1    2    0    0  0.25665091956E+03 -0.30738488329E+03 -0.16488592984E+03  0.44273040016E+03  0.92019978192E+02 0.  0.
         13    1    3    3    0    0  0.15896026378E+03 -0.24352011652E+03 -0.91512441623E+02  0.30486872517E+03  0.00000000000E+00 0.  1.
        -13    1    3    3    0    0  0.97690655775E+02 -0.63864766764E+02 -0.73373488218E+02  0.13786167500E+03  0.00000000000E+00 0. -1.
         22    1    1    2    0    0 -0.25665091956E+03  0.30738488329E+03 -0.16362864275E+04  0.16845736653E+04  0.00000000000E+00 0.  1.
<mgrwt>
<rscale>  0 0.11319014E+04</rscale>
<asrwt>0</asrwt>
<pdfrwt beam="1">  1        4 0.25087053E-01 0.11319014E+04</pdfrwt>
<pdfrwt beam="2">  1       -4 0.30219051E+00 0.11319014E+04</pdfrwt>
<totfact> 0.90984562E-01</totfact>
</mgrwt>
</event>
<event>
 6    1  0.2003386E-005  0.2724603E+04  0.7818608E-02  0.8327066E-01
         -2   -1    0    0    0  501 -0.00000000000E+00  0.00000000000E+00  0.51777705994E+03  0.51777705994E+03  0.00000000000E+00 0.  1.
          2   -1    0    0  501    0  0.00000000000E+00 -0.00000000000E+00 -0.35842932762E+04  0.35842932762E+04  0.00000000000E+00 0. -1.
         23    2    1    2    0    0  0.86426039209E+02 -0.10628712089E+04 -0.26218812197E+03  0.11018335576E+04  0.90166015017E+02 0.  0.
         13    1    3    3    0    0  0.35029875024E+02 -0.19972460780E+03 -0.19287021665E+02  0.20368848841E+03  0.00000000000E+00 0.  1.
        -13    1    3    3    0    0  0.51396164185E+02 -0.86314660112E+03 -0.24290110030E+03  0.89814506916E+03  0.00000000000E+00 0. -1.
         22    1    1    2    0    0 -0.86426039209E+02  0.10628712089E+04 -0.28043280943E+04  0.30002367785E+04  0.00000000000E+00 0. -1.
<mgrwt>
<rscale>  0 0.27246026E+04</rscale>
<asrwt>0</asrwt>
<pdfrwt beam="1">  1        2 0.55142975E+00 0.27246026E+04</pdfrwt>
<pdfrwt beam="2">  1       -2 0.79658007E-01 0.27246026E+04</pdfrwt>
<totfact> 0.86605103E-01</totfact>
</mgrwt>
</event>
<event>
 6    1  0.2003386E-005  0.3504880E+04  0.7818608E-02  0.8112635E-01
          2   -1    0    0  501    0  0.00000000000E+00  0.00000000000E+00  0.99719621681E+03  0.99719621681E+03  0.00000000000E+00 0. -1.
         -2   -1    0    0    0  501 -0.00000000000E+00 -0.00000000000E+00 -0.30796799162E+04  0.30796799162E+04  0.00000000000E+00 0.  1.
         23    2    1    2    0    0 -0.70360340298E+03 -0.13613832003E+03  0.81677550413E+03  0.10903572029E+04  0.90361578213E+02 0.  0.
         13    1    3    3    0    0 -0.42385752489E+03 -0.69667317826E+02  0.55241084806E+03  0.69976173204E+03  0.00000000000E+00 0.  1.
        -13    1    3    3    0    0 -0.27974587810E+03 -0.66471002208E+02  0.26436465607E+03  0.39059547082E+03  0.00000000000E+00 0. -1.
         22    1    1    2    0    0  0.70360340298E+03  0.13613832003E+03 -0.28992592036E+04  0.29865189302E+04  0.00000000000E+00 0.  1.
<mgrwt>
<rscale>  0 0.35048795E+04</rscale>
<asrwt>0</asrwt>
<pdfrwt beam="1">  1        2 0.15341480E+00 0.35048795E+04</pdfrwt>
<pdfrwt beam="2">  1       -2 0.47379691E+00 0.35048795E+04</pdfrwt>
<totfact> 0.50264551E-02</totfact>
</mgrwt>
</event>
<event>
 6    1  0.2003386E-005  0.1944442E+04  0.7818608E-02  0.8633045E-01
         -2   -1    0    0    0  501 -0.00000000000E+00  0.00000000000E+00  0.37748847909E+03  0.37748847909E+03  0.00000000000E+00 0. -1.
          2   -1    0    0  501    0  0.00000000000E+00 -0.00000000000E+00 -0.25039543391E+04  0.25039543391E+04  0.00000000000E+00 0.  1.
         23    2    1    2    0    0 -0.61441659866E+03 -0.40314980894E+03 -0.20040314970E+04  0.21364410072E+04  0.90556121809E+02 0.  0.
         11    1    3    3    0    0 -0.32776321973E+03 -0.16105966316E+03 -0.99810678771E+03  0.10628198827E+04  0.00000000000E+00 0.  1.
        -11    1    3    3    0    0 -0.28665337893E+03 -0.24209014579E+03 -0.10059247093E+04  0.10736211245E+04  0.00000000000E+00 0. -1.
         22    1    1    2    0    0  0.61441659866E+03  0.40314980894E+03 -0.12243436307E+03  0.74500181102E+03  0.00000000000E+00 0. -1.
<mgrwt>
<rscale>  0 0.19444422E+04</rscale>
<asrwt>0</asrwt>
<pdfrwt beam="1">  1        2 0.38522374E+00 0.19444422E+04</pdfrwt>
<pdfrwt beam="2">  1       -2 0.58075151E-01 0.19444422E+04</pdfrwt>
<totfact> 0.89721378E+00</totfact>
</mgrwt>
</event>
<event>
 6    1  0.2003386E-005  0.1087010E+04  0.7818608E-02  0.9217946E-01
          2   -1    0    0  501    0  0.00000000000E+00  0.00000000000E+00  0.80363510209E+03  0.80363510209E+03  0.00000000000E+00 0. -1.
         -2   -1    0    0    0  501 -0.00000000000E+00 -0.00000000000E+00 -0.36757702395E+03  0.36757702395E+03  0.00000000000E+00 0.  1.
         23    2    1    2    0    0 -0.37379901838E+03  0.37135634133E+03  0.93484517217E+02  0.54273151136E+03  0.90481490233E+02 0.  0.
         13    1    3    3    0    0 -0.25274831821E+03  0.28889476304E+03  0.36556125573E+02  0.38558818289E+03  0.00000000000E+00 0. -1.
        -13    1    3    3    0    0 -0.12105070017E+03  0.82461578284E+02  0.56928391643E+02  0.15714332846E+03  0.00000000000E+00 0.  1.
         22    1    1    2    0    0  0.37379901838E+03 -0.37135634133E+03  0.34257356092E+03  0.62848061468E+03  0.00000000000E+00 0. -1.
<mgrwt>
<rscale>  0 0.10870102E+04</rscale>
<asrwt>0</asrwt>
<pdfrwt beam="1">  1        2 0.12363617E+00 0.10870102E+04</pdfrwt>
<pdfrwt beam="2">  1       -2 0.56550312E-01 0.10870102E+04</pdfrwt>
<totfact> 0.99829689E+01</totfact>
</mgrwt>
</event>
<event>
 6    1  0.2003386E-005  0.4574427E+04  0.7818608E-02  0.7897735E-01
         -2   -1    0    0    0  501 -0.00000000000E+00  0.00000000000E+00  0.14199969205E+04  0.14199969205E+04  0.00000000000E+00 0.  1.
          2   -1    0    0  501    0  0.00000000000E+00 -0.00000000000E+00 -0.36840537245E+04  0.36840537245E+04  0.00000000000E+00 0. -1.
         23    2    1    2    0    0 -0.14587128080E+04  0.76290735700E+03  0.63772238057E+03  0.17678562371E+04  0.93568951930E+02 0.  0.
         11    1    3    3    0    0 -0.57172523149E+03  0.35062381985E+03  0.26429971971E+03  0.72087526328E+03  0.00000000000E+00 0. -1.
        -11    1    3    3    0    0 -0.88698757651E+03  0.41228353715E+03  0.37342266086E+03  0.10469809738E+04  0.00000000000E+00 0.  1.
         22    1    1    2    0    0  0.14587128080E+04 -0.76290735700E+03 -0.29017791845E+04  0.33361944079E+04  0.00000000000E+00 0. -1.
<mgrwt>
<rscale>  0 0.45744267E+04</rscale>
<asrwt>0</asrwt>
<pdfrwt beam="1">  1        2 0.56677749E+00 0.45744267E+04</pdfrwt>
<pdfrwt beam="2">  1       -2 0.21846107E+00 0.45744267E+04</pdfrwt>
<totfact> 0.45537384E-02</totfact>
</mgrwt>
</event>
<event>
 6    1  0.2003386E-005  0.3196783E+04  0.7818608E-02  0.8189667E-01
         -2   -1    0    0    0  501 -0.00000000000E+00  0.00000000000E+00  0.13436090289E+04  0.13436090289E+04  0.00000000000E+00 0.  1.
          2   -1    0    0  501    0  0.00000000000E+00 -0.00000000000E+00 -0.19014872484E+04  0.19014872484E+04  0.00000000000E+00 0. -1.
         23    2    1    2    0    0 -0.85800248830E+03 -0.11895737704E+04 -0.92097642042E+03  0.17341051031E+04  0.87572350605E+02 0.  0.
         13    1    3    3    0    0 -0.24468965896E+03 -0.36358443938E+03 -0.23146718102E+03  0.49562458540E+03  0.00000000000E+00 0. -1.
        -13    1    3    3    0    0 -0.61331282934E+03 -0.82598933099E+03 -0.68950923940E+03  0.12384805177E+04  0.00000000000E+00 0.  1.
         22    1    1    2    0    0  0.85800248830E+03  0.11895737704E+04  0.36309820088E+03  0.15109911742E+04  0.00000000000E+00 0. -1.
<mgrwt>
<rscale>  0 0.31967830E+04</rscale>
<asrwt>0</asrwt>
<pdfrwt beam="1">  1        2 0.29253650E+00 0.31967830E+04</pdfrwt>
<pdfrwt beam="2">  1       -2 0.20670908E+00 0.31967830E+04</pdfrwt>
<totfact> 0.76770932E-01</totfact>
</mgrwt>
</event>
<event>
 6    1  0.2003386E-005  0.3768897E+04  0.7818608E-02  0.8052863E-01
         -2   -1    0    0    0  501 -0.00000000000E+00  0.00000000000E+00  0.11286502892E+04  0.11286502892E+04  0.00000000000E+00 0.  1.
          2   -1    0    0  501    0  0.00000000000E+00 -0.00000000000E+00 -0.31463646508E+04  0.31463646508E+04  0.00000000000E+00 0. -1.
         23    2    1    2    0    0  0.15733813386E+04  0.86108386175E+03 -0.35805400501E+03  0.18313564629E+04  0.93110525617E+02 0.  0.
         11    1    3    3    0    0  0.11495539574E+04  0.66840956138E+03 -0.24285696253E+03  0.13517489216E+04  0.00000000000E+00 0. -1.
        -11    1    3    3    0    0  0.42382738120E+03  0.19267430037E+03 -0.11519704248E+03  0.47960754130E+03  0.00000000000E+00 0.  1.
         22    1    1    2    0    0 -0.15733813386E+04 -0.86108386175E+03 -0.16596603565E+04  0.24436584771E+04  0.00000000000E+00 0. -1.
<mgrwt>
<rscale>  0 0.37688966E+04</rscale>
<asrwt>0</asrwt>
<pdfrwt beam="1">  1        2 0.48405610E+00 0.37688966E+04</pdfrwt>
<pdfrwt beam="2">  1       -2 0.17363851E+00 0.37688966E+04</pdfrwt>
<totfact> 0.22665846E-01</totfact>
</mgrwt>
</event>
<event>
 6    1  0.2003386E-005  0.4803099E+04  0.7818608E-02  0.7859620E-01
          2   -1    0    0  501    0  0.00000000000E+00  0.00000000000E+00  0.18117326608E+04  0.18117326608E+04  0.00000000000E+00 0. -1.
         -2   -1    0    0    0  501 -0.00000000000E+00 -0.00000000000E+00 -0.31833835924E+04  0.31833835924E+04  0.00000000000E+00 0.  1.
         23    2    1    2    0    0  0.22256801164E+04 -0.89972995294E+03 -0.70167475240E+03  0.25027210098E+04  0.89994590827E+02 0.  0.
         11    1    3    3    0    0  0.16652539616E+04 -0.70605111432E+03 -0.50332319402E+03  0.18774752117E+04  0.00000000000E+00 0. -1.
        -11    1    3    3    0    0  0.56042615474E+03 -0.19367883862E+03 -0.19835155838E+03  0.62524579819E+03  0.00000000000E+00 0.  1.
         22    1    1    2    0    0 -0.22256801164E+04  0.89972995294E+03 -0.66997617916E+03  0.24923952434E+04  0.00000000000E+00 0. -1.
<mgrwt>
<rscale>  0 0.48030990E+04</rscale>
<asrwt>0</asrwt>
<pdfrwt beam="1">  1        2 0.27872810E+00 0.48030990E+04</pdfrwt>
<pdfrwt beam="2">  1       -2 0.48975132E+00 0.48030990E+04</pdfrwt>
<totfact> 0.12082659E-02</totfact>
</mgrwt>
</event>
<event>
 6    1  0.2003386E-005  0.3753957E+04  0.7818608E-02  0.8056108E-01
         -1   -1    0    0    0  501 -0.00000000000E+00  0.00000000000E+00  0.13250632328E+04  0.13250632328E+04  0.00000000000E+00 0.  1.
          1   -1    0    0  501    0  0.00000000000E+00 -0.00000000000E+00 -0.26587778915E+04  0.26587778915E+04  0.00000000000E+00 0. -1.
         23    2    1    2    0    0  0.75006954188E+03 -0.70587606689E+03 -0.23310622475E+04  0.25501160627E+04  0.91517168813E+02 0.  0.
         11    1    3    3    0    0  0.21237623308E+03 -0.17470083373E+03 -0.71433599337E+03  0.76544102131E+03  0.00000000000E+00 0. -1.
        -11    1    3    3    0    0  0.53769330880E+03 -0.53117523316E+03 -0.16167262541E+04  0.17846750414E+04  0.00000000000E+00 0.  1.
         22    1    1    2    0    0 -0.75006954188E+03  0.70587606689E+03  0.99734758881E+03  0.14337250616E+04  0.00000000000E+00 0.  1.
<mgrwt>
<rscale>  0 0.37539573E+04</rscale>
<asrwt>0</asrwt>
<pdfrwt beam="1">  1        1 0.40904275E+00 0.37539573E+04</pdfrwt>
<pdfrwt beam="2">  1       -1 0.20385588E+00 0.37539573E+04</pdfrwt>
<totfact> 0.11864005E-01</totfact>
</mgrwt>
</event>
<event>
 6    1  0.2003386E-005  0.4356874E+04  0.7818608E-02  0.7936185E-01
         -2   -1    0    0    0  501 -0.00000000000E+00  0.00000000000E+00  0.13148090888E+04  0.13148090888E+04  0.00000000000E+00 0.  1.
          2   -1    0    0  501    0  0.00000000000E+00 -0.00000000000E+00 -0.36093353515E+04  0.36093353515E+04  0.00000000000E+00 0. -1.
         23    2    1    2    0    0  0.13932239162E+04  0.76582752745E+03 -0.28294275193E+04  0.32467404828E+04  0.89994405922E+02 0.  0.
         13    1    3    3    0    0  0.22625819145E+03  0.16263486954E+03 -0.50850157347E+03  0.57984197865E+03  0.00000000000E+00 0.  1.
        -13    1    3    3    0    0  0.11669657247E+04  0.60319265792E+03 -0.23209259458E+04  0.26668985041E+04  0.00000000000E+00 0. -1.
         22    1    1    2    0    0 -0.13932239162E+04 -0.76582752745E+03  0.53490125659E+03  0.16774039575E+04  0.00000000000E+00 0.  1.
<mgrwt>
<rscale>  0 0.43568736E+04</rscale>
<asrwt>0</asrwt>
<pdfrwt beam="1">  1        2 0.55528236E+00 0.43568736E+04</pdfrwt>
<pdfrwt beam="2">  1       -2 0.20227832E+00 0.43568736E+04</pdfrwt>
<totfact> 0.66806558E-02</totfact>
</mgrwt>
</event>
<event>
 6    1  0.2003386E-005  0.1304911E+04  0.7818608E-02  0.9025680E-01
         -2   -1    0    0    0  501 -0.00000000000E+00  0.00000000000E+00  0.30382880719E+03  0.30382880719E+03  0.00000000000E+00 0.  1.
          2   -1    0    0  501    0  0.00000000000E+00 -0.00000000000E+00 -0.14011109267E+04  0.14011109267E+04  0.00000000000E+00 0. -1.
         23    2    1    2    0    0 -0.25628842762E+03  0.29593035552E+03  0.12534647001E+03  0.42116436361E+03  0.91701418621E+02 0.  0.
         13    1    3    3    0    0 -0.24023338254E+03  0.26733871748E+03  0.85294102608E+02  0.36940107185E+03  0.00000000000E+00 0. -1.
        -13    1    3    3    0    0 -0.16055045086E+02  0.28591638043E+02  0.40052367400E+02  0.51763291752E+02  0.00000000000E+00 0.  1.
         22    1    1    2    0    0  0.25628842762E+03 -0.29593035552E+03 -0.12226285895E+04  0.12837753703E+04  0.00000000000E+00 0. -1.
<mgrwt>
<rscale>  0 0.13049105E+04</rscale>
<asrwt>0</asrwt>
<pdfrwt beam="1">  1        2 0.21555552E+00 0.13049105E+04</pdfrwt>
<pdfrwt beam="2">  1       -2 0.46742894E-01 0.13049105E+04</pdfrwt>
<totfact> 0.61408376E+01</totfact>
</mgrwt>
</event>
<event>
 6    1  0.2003386E-005  0.3284826E+04  0.7818608E-02  0.8166767E-01
         -1   -1    0    0    0  501 -0.00000000000E+00  0.00000000000E+00  0.13992049431E+04  0.13992049431E+04  0.00000000000E+00 0.  1.
          1   -1    0    0  501    0  0.00000000000E+00 -0.00000000000E+00 -0.19278950116E+04  0.19278950116E+04  0.00000000000E+00 0. -1.
         23    2    1    2    0    0  0.70850693567E+03 -0.11451421152E+04 -0.12156358987E+04  0.18154031877E+04  0.67716717050E+02 0.  0.
         13    1    3    3    0    0  0.48100514836E+03 -0.72640210591E+03 -0.81001369186E+03  0.11895999971E+04  0.00000000000E+00 0. -1.
        -13    1    3    3    0    0  0.22750178731E+03 -0.41874000925E+03 -0.40562220685E+03  0.62580319052E+03  0.00000000000E+00 0.  1.
         22    1    1    2    0    0 -0.70850693567E+03  0.11451421152E+04  0.68694583020E+03  0.15116967670E+04  0.00000000000E+00 0.  1.
<mgrwt>
<rscale>  0 0.32848259E+04</rscale>
<asrwt>0</asrwt>
<pdfrwt beam="1">  1        1 0.29659923E+00 0.32848259E+04</pdfrwt>
<pdfrwt beam="2">  1       -1 0.21526230E+00 0.32848259E+04</pdfrwt>
<totfact> 0.32815467E-01</totfact>
</mgrwt>
</event>
<event>
 6    1  0.2003386E-005  0.4193138E+04  0.7818608E-02  0.7966679E-01
         -2   -1    0    0    0  501 -0.00000000000E+00  0.00000000000E+00  0.16347675746E+04  0.16347675746E+04  0.00000000000E+00 0.  1.
          2   -1    0    0  501    0  0.00000000000E+00 -0.00000000000E+00 -0.26888232985E+04  0.26888232985E+04  0.00000000000E+00 0. -1.
         23    2    1    2    0    0  0.73229919571E+03 -0.19632039620E+04 -0.56319553303E+03  0.21715277617E+04  0.88947752359E+02 0.  0.
         13    1    3    3    0    0  0.52664667017E+03 -0.13097608086E+04 -0.35677582717E+03  0.14560628701E+04  0.00000000000E+00 0.  1.
        -13    1    3    3    0    0  0.20565252554E+03 -0.65344315346E+03 -0.20641970586E+03  0.71546489154E+03  0.00000000000E+00 0. -1.
         22    1    1    2    0    0 -0.73229919571E+03  0.19632039620E+04 -0.49086019085E+03  0.21520631114E+04  0.00000000000E+00 0. -1.
<mgrwt>
<rscale>  0 0.41931378E+04</rscale>
<asrwt>0</asrwt>
<pdfrwt beam="1">  1        2 0.41366512E+00 0.41931378E+04</pdfrwt>
<pdfrwt beam="2">  1       -2 0.25150271E+00 0.41931378E+04</pdfrwt>
<totfact> 0.13173729E-01</totfact>
</mgrwt>
</event>
<event>
 6    1  0.2003386E-005  0.8945673E+03  0.7818608E-02  0.9432398E-01
          2   -1    0    0  501    0  0.00000000000E+00  0.00000000000E+00  0.27014972630E+03  0.27014972630E+03  0.00000000000E+00 0. -1.
         -2   -1    0    0    0  501 -0.00000000000E+00 -0.00000000000E+00 -0.74056220506E+03  0.74056220506E+03  0.00000000000E+00 0.  1.
         23    2    1    2    0    0 -0.16187255588E+03 -0.10887895242E+03  0.21248648499E+03  0.30049481997E+03  0.84197861593E+02 0.  0.
         13    1    3    3    0    0 -0.11650799624E+03 -0.84175576378E+02  0.95380005299E+02  0.17250213406E+03  0.00000000000E+00 0. -1.
        -13    1    3    3    0    0 -0.45364559640E+02 -0.24703376045E+02  0.11710647969E+03  0.12799268590E+03  0.00000000000E+00 0.  1.
         22    1    1    2    0    0  0.16187255588E+03  0.10887895242E+03 -0.68289896375E+03  0.71021711140E+03  0.00000000000E+00 0.  1.
<mgrwt>
<rscale>  0 0.89456733E+03</rscale>
<asrwt>0</asrwt>
<pdfrwt beam="1">  1        2 0.41561496E-01 0.89456733E+03</pdfrwt>
<pdfrwt beam="2">  1       -2 0.11393265E+00 0.89456733E+03</pdfrwt>
<totfact> 0.74684700E+01</totfact>
</mgrwt>
</event>
<event>
 6    1  0.2003386E-005  0.2551613E+04  0.7818608E-02  0.8384825E-01
         -2   -1    0    0    0  501 -0.00000000000E+00  0.00000000000E+00  0.13754602590E+04  0.13754602590E+04  0.00000000000E+00 0.  1.
          2   -1    0    0  501    0  0.00000000000E+00 -0.00000000000E+00 -0.11833728621E+04  0.11833728621E+04  0.00000000000E+00 0. -1.
         23    2    1    2    0    0 -0.75258779845E+03 -0.31455779287E+03  0.10778615785E+04  0.13547023557E+04  0.89988280116E+02 0.  0.
         11    1    3    3    0    0 -0.47159103119E+03 -0.16678504451E+03  0.60275118460E+03  0.78327794703E+03  0.00000000000E+00 0. -1.
        -11    1    3    3    0    0 -0.28099676727E+03 -0.14777274836E+03  0.47511039391E+03  0.57142440863E+03  0.00000000000E+00 0.  1.
         22    1    1    2    0    0  0.75258779845E+03  0.31455779287E+03 -0.88577418167E+03  0.12041307655E+04  0.00000000000E+00 0. -1.
<mgrwt>
<rscale>  0 0.25516131E+04</rscale>
<asrwt>0</asrwt>
<pdfrwt beam="1">  1        2 0.18205736E+00 0.25516131E+04</pdfrwt>
<pdfrwt beam="2">  1       -2 0.21160927E+00 0.25516131E+04</pdfrwt>
<totfact> 0.19244054E+00</totfact>
</mgrwt>
</event>
<event>
 6    1  0.2003386E-005  0.1276484E+04  0.7818608E-02  0.9048424E-01
         -2   -1    0    0    0  501 -0.00000000000E+00  0.00000000000E+00  0.16855020353E+03  0.16855020353E+03  0.00000000000E+00 0.  1.
          2   -1    0    0  501    0  0.00000000000E+00 -0.00000000000E+00 -0.24168052335E+04  0.24168052335E+04  0.00000000000E+00 0. -1.
         23    2    1    2    0    0 -0.14350590621E+03 -0.47641112797E+03 -0.33024007142E+03  0.60385527575E+03  0.89561047919E+02 0.  0.
         13    1    3    3    0    0 -0.80748886750E+02 -0.21544123121E+03 -0.20293196694E+03  0.30678443576E+03  0.00000000000E+00 0. -1.
        -13    1    3    3    0    0 -0.62757019458E+02 -0.26096989675E+03 -0.12730810448E+03  0.29707083999E+03  0.00000000000E+00 0.  1.
         22    1    1    2    0    0  0.14350590621E+03  0.47641112797E+03 -0.19180149585E+04  0.19815001613E+04  0.00000000000E+00 0. -1.
<mgrwt>
<rscale>  0 0.12764843E+04</rscale>
<asrwt>0</asrwt>
<pdfrwt beam="1">  1        2 0.37181616E+00 0.12764843E+04</pdfrwt>
<pdfrwt beam="2">  1       -2 0.25930803E-01 0.12764843E+04</pdfrwt>
<totfact> 0.51451761E+01</totfact>
</mgrwt>
</event>
<event>
 6    1  0.2003386E-005  0.3036654E+04  0.7818608E-02  0.8233341E-01
          2   -1    0    0  501    0  0.00000000000E+00  0.00000000000E+00  0.34538953252E+04  0.34538953252E+04  0.00000000000E+00 0. -1.
         -2   -1    0    0    0  501 -0.00000000000E+00 -0.00000000000E+00 -0.66745409994E+03  0.66745409994E+03  0.00000000000E+00 0.  1.
         23    2    1    2    0    0 -0.12269691645E+04 -0.80987285316E+03  0.19019315028E+04  0.24056265985E+04  0.91370241044E+02 0.  0.
         11    1    3    3    0    0 -0.10287437480E+04 -0.69838396536E+03  0.15588027358E+04  0.19939708702E+04  0.00000000000E+00 0.  1.
        -11    1    3    3    0    0 -0.19822541643E+03 -0.11148888781E+03  0.34312876709E+03  0.41165572828E+03  0.00000000000E+00 0. -1.
         22    1    1    2    0    0  0.12269691645E+04  0.80987285316E+03  0.88450972238E+03  0.17157228266E+04  0.00000000000E+00 0. -1.
<mgrwt>
<rscale>  0 0.30366538E+04</rscale>
<asrwt>0</asrwt>
<pdfrwt beam="1">  1        2 0.53136850E+00 0.30366538E+04</pdfrwt>
<pdfrwt beam="2">  1       -2 0.10268525E+00 0.30366538E+04</pdfrwt>
<totfact> 0.57880410E-01</totfact>
</mgrwt>
</event>
<event>
 6    1  0.2003386E-005  0.1891177E+04  0.7818608E-02  0.8659261E-01
          2   -1    0    0  501    0  0.00000000000E+00  0.00000000000E+00  0.12982160967E+04  0.12982160967E+04  0.00000000000E+00 0. -1.
         -2   -1    0    0    0  501 -0.00000000000E+00 -0.00000000000E+00 -0.68874321835E+03  0.68874321835E+03  0.00000000000E+00 0.  1.
         23    2    1    2    0    0 -0.91055280231E+03  0.15321998727E+03  0.50848780254E+03  0.10580993924E+04  0.91824335833E+02 0.  0.
         11    1    3    3    0    0 -0.67476620476E+03  0.89343124713E+02  0.41073604863E+03  0.79498158889E+03  0.00000000000E+00 0.  1.
        -11    1    3    3    0    0 -0.23578659755E+03  0.63876862560E+02  0.97751753908E+02  0.26311780355E+03  0.00000000000E+00 0. -1.
         22    1    1    2    0    0  0.91055280231E+03 -0.15321998727E+03  0.10098507582E+03  0.92885992261E+03  0.00000000000E+00 0.  1.
<mgrwt>
<rscale>  0 0.18911769E+04</rscale>
<asrwt>0</asrwt>
<pdfrwt beam="1">  1        2 0.19972555E+00 0.18911769E+04</pdfrwt>
<pdfrwt beam="2">  1       -2 0.10596049E+00 0.18911769E+04</pdfrwt>
<totfact> 0.11171121E+01</totfact>
</mgrwt>
</event>
<event>
 6    1  0.2003386E-005  0.3871471E+04  0.7818608E-02  0.8030989E-01
         -2   -1    0    0    0  501 -0.00000000000E+00  0.00000000000E+00  0.20088203432E+04  0.20088203432E+04  0.00000000000E+00 0.  1.
          2   -1    0    0  501    0  0.00000000000E+00 -0.00000000000E+00 -0.18653097880E+04  0.18653097880E+04  0.00000000000E+00 0. -1.
         23    2    1    2    0    0 -0.36427170551E+03  0.12641178497E+04 -0.13476764912E+04  0.18855812581E+04  0.92178861997E+02 0.  0.
         13    1    3    3    0    0 -0.23037079531E+03  0.93730675506E+03 -0.10070606732E+04  0.13949142827E+04  0.00000000000E+00 0.  1.
        -13    1    3    3    0    0 -0.13390091020E+03  0.32681109467E+03 -0.34061581794E+03  0.49066697543E+03  0.00000000000E+00 0. -1.
         22    1    1    2    0    0  0.36427170551E+03 -0.12641178497E+04  0.14911870463E+04  0.19885488731E+04  0.00000000000E+00 0.  1.
<mgrwt>
<rscale>  0 0.38714712E+04</rscale>
<asrwt>0</asrwt>
<pdfrwt beam="1">  1        2 0.28697074E+00 0.38714712E+04</pdfrwt>
<pdfrwt beam="2">  1       -2 0.30904928E+00 0.38714712E+04</pdfrwt>
<totfact> 0.17696584E-01</totfact>
</mgrwt>
</event>
<event>
 6    1  0.2003386E-005  0.1666828E+04  0.7818608E-02  0.8780513E-01
         -2   -1    0    0    0  501 -0.00000000000E+00  0.00000000000E+00  0.18765135845E+04  0.18765135845E+04  0.00000000000E+00 0. -1.
          2   -1    0    0  501    0  0.00000000000E+00 -0.00000000000E+00 -0.37014307411E+03  0.37014307411E+03  0.00000000000E+00 0.  1.
         23    2    1    2    0    0 -0.16459910783E+03  0.61495318584E+03  0.14751152651E+04  0.16092892783E+04  0.92664173866E+02 0.  0.
         11    1    3    3    0    0 -0.96520893052E+02  0.29213324346E+03  0.60523761024E+03  0.67894821569E+03  0.00000000000E+00 0.  1.
        -11    1    3    3    0    0 -0.68078214782E+02  0.32281994238E+03  0.86987765481E+03  0.93034106266E+03  0.00000000000E+00 0. -1.
         22    1    1    2    0    0  0.16459910783E+03 -0.61495318584E+03  0.31255245337E+02  0.63736738027E+03  0.00000000000E+00 0.  1.
<mgrwt>
<rscale>  0 0.16668275E+04</rscale>
<asrwt>0</asrwt>
<pdfrwt beam="1">  1        2 0.56945089E-01 0.16668275E+04</pdfrwt>
<pdfrwt beam="2">  1       -2 0.28869439E+00 0.16668275E+04</pdfrwt>
<totfact> 0.30912040E+00</totfact>
</mgrwt>
</event>
<event>
 6    1  0.2003386E-005  0.2540723E+04  0.7818608E-02  0.8388620E-01
          2   -1    0    0  501    0  0.00000000000E+00  0.00000000000E+00  0.98003022504E+03  0.98003022504E+03  0.00000000000E+00 0. -1.
         -2   -1    0    0    0  501 -0.00000000000E+00 -0.00000000000E+00 -0.16467019981E+04  0.16467019981E+04  0.00000000000E+00 0.  1.
         23    2    1    2    0    0 -0.38022955537E+03 -0.55614894290E+03 -0.14450552644E+04  0.15972872169E+04  0.96257855352E+02 0.  0.
         13    1    3    3    0    0 -0.28876835687E+03 -0.48109872087E+03 -0.11570141298E+04  0.12858945679E+04  0.00000000000E+00 0.  1.
        -13    1    3    3    0    0 -0.91461198505E+02 -0.75050222038E+02 -0.28804113453E+03  0.31139264898E+03  0.00000000000E+00 0. -1.
         22    1    1    2    0    0  0.38022955537E+03  0.55614894290E+03  0.77838349127E+03  0.10294450063E+04  0.00000000000E+00 0. -1.
<mgrwt>
<rscale>  0 0.25407225E+04</rscale>
<asrwt>0</asrwt>
<pdfrwt beam="1">  1        2 0.15077388E+00 0.25407225E+04</pdfrwt>
<pdfrwt beam="2">  1       -2 0.25333877E+00 0.25407225E+04</pdfrwt>
<totfact> 0.14136512E+00</totfact>
</mgrwt>
</event>
<event>
 6    1  0.2003386E-005  0.3541663E+04  0.7818608E-02  0.8103987E-01
         -2   -1    0    0    0  501 -0.00000000000E+00  0.00000000000E+00  0.25005355491E+04  0.25005355491E+04  0.00000000000E+00 0.  1.
          2   -1    0    0  501    0  0.00000000000E+00 -0.00000000000E+00 -0.12540689151E+04  0.12540689151E+04  0.00000000000E+00 0. -1.
         23    2    1    2    0    0 -0.13021209859E+04 -0.59681054907E+03  0.17253037368E+04  0.22443108290E+04  0.92499836687E+02 0.  0.
         13    1    3    3    0    0 -0.12487375751E+04 -0.58522586581E+03  0.16369011359E+04  0.21403925281E+04  0.00000000000E+00 0. -1.
        -13    1    3    3    0    0 -0.53383410758E+02 -0.11584683263E+02  0.88402600862E+02  0.10391830094E+03  0.00000000000E+00 0.  1.
         22    1    1    2    0    0  0.13021209859E+04  0.59681054907E+03 -0.47883710275E+03  0.15102936351E+04  0.00000000000E+00 0. -1.
<mgrwt>
<rscale>  0 0.35416628E+04</rscale>
<asrwt>0</asrwt>
<pdfrwt beam="1">  1        2 0.19293368E+00 0.35416628E+04</pdfrwt>
<pdfrwt beam="2">  1       -2 0.38469778E+00 0.35416628E+04</pdfrwt>
<totfact> 0.13438645E-01</totfact>
</mgrwt>
</event>
<event>
 6    1  0.2003386E-005  0.1328970E+04  0.7818608E-02  0.9006902E-01
          2   -1    0    0  501    0  0.00000000000E+00  0.00000000000E+00  0.13002913938E+04  0.13002913938E+04  0.00000000000E+00 0. -1.
         -2   -1    0    0    0  501 -0.00000000000E+00 -0.00000000000E+00 -0.33957049837E+03  0.33957049837E+03  0.00000000000E+00 0.  1.
         23    2    1    2    0    0  0.53139553505E+03  0.17175252145E+03  0.45384255071E+02  0.56761131116E+03  0.90789463355E+02 0.  0.
         11    1    3    3    0    0  0.39473259359E+03  0.12676443202E+03  0.73390663818E+02  0.42103352741E+03  0.00000000000E+00 0.  1.
        -11    1    3    3    0    0  0.13666294145E+03  0.44988089434E+02 -0.28006408747E+02  0.14657778375E+03  0.00000000000E+00 0. -1.
         22    1    1    2    0    0 -0.53139553505E+03 -0.17175252145E+03  0.91533664036E+03  0.10722505810E+04  0.00000000000E+00 0. -1.
<mgrwt>
<rscale>  0 0.13289704E+04</rscale>
<asrwt>0</asrwt>
<pdfrwt beam="1">  1        2 0.20004483E+00 0.13289704E+04</pdfrwt>
<pdfrwt beam="2">  1       -2 0.52241616E-01 0.13289704E+04</pdfrwt>
<totfact> 0.55896265E+01</totfact>
</mgrwt>
</event>
<event>
 6    1  0.2003386E-005  0.3143114E+04  0.7818608E-02  0.8204004E-01
         -2   -1    0    0    0  501 -0.00000000000E+00  0.00000000000E+00  0.12069533574E+04  0.12069533574E+04  0.00000000000E+00 0.  1.
          2   -1    0    0  501    0  0.00000000000E+00 -0.00000000000E+00 -0.20463024945E+04  0.20463024945E+04  0.00000000000E+00 0. -1.
         23    2    1    2    0    0 -0.88022615232E+03 -0.11843390599E+04 -0.97565154069E+03  0.17713532122E+04  0.91319140286E+02 0.  0.
         11    1    3    3    0    0 -0.77022269735E+02 -0.14389536764E+03 -0.12677451336E+03  0.20666418195E+03  0.00000000000E+00 0.  1.
        -11    1    3    3    0    0 -0.80320388259E+03 -0.10404436923E+04 -0.84887702732E+03  0.15646890302E+04  0.00000000000E+00 0. -1.
         22    1    1    2    0    0  0.88022615232E+03  0.11843390599E+04  0.13630240361E+03  0.14819026396E+04  0.00000000000E+00 0.  1.
<mgrwt>
<rscale>  0 0.31431142E+04</rscale>
<asrwt>0</asrwt>
<pdfrwt beam="1">  1        2 0.31481577E+00 0.31431142E+04</pdfrwt>
<pdfrwt beam="2">  1       -2 0.18568513E+00 0.31431142E+04</pdfrwt>
<totfact> 0.88298146E-01</totfact>
</mgrwt>
</event>
<event>
 6    1  0.2003386E-005  0.1004268E+04  0.7818608E-02  0.9303876E-01
         -1   -1    0    0    0  501 -0.00000000000E+00  0.00000000000E+00  0.16704786641E+03  0.16704786641E+03  0.00000000000E+00 0.  1.
          1   -1    0    0  501    0  0.00000000000E+00 -0.00000000000E+00 -0.15093803464E+04  0.15093803464E+04  0.00000000000E+00 0. -1.
         23    2    1    2    0    0 -0.38958103851E+03  0.87834497127E+02 -0.18071578072E+03  0.44807906029E+03  0.92889000540E+02 0.  0.
         13    1    3    3    0    0 -0.18701741532E+03  0.60468088285E+02 -0.41820574671E+02  0.20094990370E+03  0.00000000000E+00 0.  1.
        -13    1    3    3    0    0 -0.20256362319E+03  0.27366408842E+02 -0.13889520605E+03  0.24712915659E+03  0.00000000000E+00 0. -1.
         22    1    1    2    0    0  0.38958103851E+03 -0.87834497127E+02 -0.11616166992E+04  0.12283491525E+04  0.00000000000E+00 0. -1.
<mgrwt>
<rscale>  0 0.10042684E+04</rscale>
<asrwt>0</asrwt>
<pdfrwt beam="1">  1        1 0.23221237E+00 0.10042684E+04</pdfrwt>
<pdfrwt beam="2">  1       -1 0.25699670E-01 0.10042684E+04</pdfrwt>
<totfact> 0.86286749E+01</totfact>
</mgrwt>
</event>
<event>
 6    1  0.2003386E-005  0.2880735E+04  0.7818608E-02  0.8278633E-01
         -2   -1    0    0    0  501 -0.00000000000E+00  0.00000000000E+00  0.16089269644E+04  0.16089269644E+04  0.00000000000E+00 0.  1.
          2   -1    0    0  501    0  0.00000000000E+00 -0.00000000000E+00 -0.12894671989E+04  0.12894671989E+04  0.00000000000E+00 0. -1.
         23    2    1    2    0    0 -0.11223481641E+04 -0.72354136911E+03 -0.37930153700E+03  0.13912628245E+04  0.92547698985E+02 0.  0.
         11    1    3    3    0    0 -0.10104310424E+04 -0.68259324507E+03 -0.34543351741E+03  0.12673708000E+04  0.00000000000E+00 0. -1.
        -11    1    3    3    0    0 -0.11191712168E+03 -0.40948124043E+02 -0.33868019586E+02  0.12389202451E+03  0.00000000000E+00 0.  1.
         22    1    1    2    0    0  0.11223481641E+04  0.72354136911E+03  0.69876130256E+03  0.15071313388E+04  0.00000000000E+00 0.  1.
<mgrwt>
<rscale>  0 0.28807350E+04</rscale>
<asrwt>0</asrwt>
<pdfrwt beam="1">  1        2 0.19837957E+00 0.28807350E+04</pdfrwt>
<pdfrwt beam="2">  1       -2 0.24752722E+00 0.28807350E+04</pdfrwt>
<totfact> 0.96467995E-01</totfact>
</mgrwt>
</event>
<event>
 6    1  0.2003386E-005  0.2922312E+04  0.7818608E-02  0.8266270E-01
          2   -1    0    0  501    0  0.00000000000E+00  0.00000000000E+00  0.72461454934E+03  0.72461454934E+03  0.00000000000E+00 0. -1.
         -2   -1    0    0    0  501 -0.00000000000E+00 -0.00000000000E+00 -0.29463618186E+04  0.29463618186E+04  0.00000000000E+00 0.  1.
         23    2    1    2    0    0 -0.89140132514E+03  0.10990785225E+02  0.34014770530E+03  0.95840876868E+03  0.90165329526E+02 0.  0.
         13    1    3    3    0    0 -0.30386920766E+03  0.16536966416E+02  0.72906747553E+02  0.31293028051E+03  0.00000000000E+00 0. -1.
        -13    1    3    3    0    0 -0.58753211748E+03 -0.55461811909E+01  0.26724095775E+03  0.64547848817E+03  0.00000000000E+00 0.  1.
         22    1    1    2    0    0  0.89140132514E+03 -0.10990785225E+02 -0.25618949746E+04  0.27125675992E+04  0.00000000000E+00 0.  1.
<mgrwt>
<rscale>  0 0.29223119E+04</rscale>
<asrwt>0</asrwt>
<pdfrwt beam="1">  1        2 0.11147916E+00 0.29223119E+04</pdfrwt>
<pdfrwt beam="2">  1       -2 0.45328643E+00 0.29223119E+04</pdfrwt>
<totfact> 0.11133545E-01</totfact>
</mgrwt>
</event>
<event>
 6    1  0.2003386E-005  0.2659493E+04  0.7818608E-02  0.8348269E-01
         -2   -1    0    0    0  501 -0.00000000000E+00  0.00000000000E+00  0.22548831880E+04  0.22548831880E+04  0.00000000000E+00 0.  1.
          2   -1    0    0  501    0  0.00000000000E+00 -0.00000000000E+00 -0.78417648255E+03  0.78417648255E+03  0.00000000000E+00 0. -1.
         23    2    1    2    0    0  0.31509762224E+03 -0.26265524371E+03  0.21797474904E+04  0.22199057636E+04  0.91696176491E+02 0.  0.
         11    1    3    3    0    0  0.35248593009E+02 -0.76439835508E+02  0.44488812242E+03  0.45278135256E+03  0.00000000000E+00 0. -1.
        -11    1    3    3    0    0  0.27984902923E+03 -0.18621540820E+03  0.17348593680E+04  0.17671244110E+04  0.00000000000E+00 0.  1.
         22    1    1    2    0    0 -0.31509762224E+03  0.26265524371E+03 -0.70904078493E+03  0.81915390696E+03  0.00000000000E+00 0. -1.
<mgrwt>
<rscale>  0 0.26594935E+04</rscale>
<asrwt>0</asrwt>
<pdfrwt beam="1">  1        2 0.12064254E+00 0.26594935E+04</pdfrwt>
<pdfrwt beam="2">  1       -2 0.34690510E+00 0.26594935E+04</pdfrwt>
<totfact> 0.50673647E-01</totfact>
</mgrwt>
</event>
<event>
 6    1  0.2003386E-005  0.2170360E+04  0.7818608E-02  0.8530867E-01
          2   -1    0    0  501    0  0.00000000000E+00  0.00000000000E+00  0.18548617118E+04  0.18548617118E+04  0.00000000000E+00 0. -1.
         -2   -1    0    0    0  501 -0.00000000000E+00 -0.00000000000E+00 -0.63488034210E+03  0.63488034210E+03  0.00000000000E+00 0.  1.
         23    2    1    2    0    0  0.78913941867E+03  0.37093296818E+03  0.13484508766E+04  0.16083586508E+04  0.90363124007E+02 0.  0.
         13    1    3    3    0    0  0.32289478368E+03  0.19067294985E+03  0.52777336839E+03  0.64742717236E+03  0.00000000000E+00 0. -1.
        -13    1    3    3    0    0  0.46624463499E+03  0.18026001832E+03  0.82067750820E+03  0.96093147847E+03  0.00000000000E+00 0.  1.
         22    1    1    2    0    0 -0.78913941867E+03 -0.37093296818E+03 -0.12846950690E+03  0.88138340305E+03  0.00000000000E+00 0.  1.
<mgrwt>
<rscale>  0 0.21703596E+04</rscale>
<asrwt>0</asrwt>
<pdfrwt beam="1">  1        2 0.28536334E+00 0.21703596E+04</pdfrwt>
<pdfrwt beam="2">  1       -2 0.97673900E-01 0.21703596E+04</pdfrwt>
<totfact> 0.64362833E+00</totfact>
</mgrwt>
</event>
<event>
 6    1  0.2003386E-005  0.1795284E+04  0.7818608E-02  0.8708811E-01
          2   -1    0    0  501    0  0.00000000000E+00  0.00000000000E+00  0.13657339314E+04  0.13657339314E+04  0.00000000000E+00 0. -1.
         -2   -1    0    0    0  501 -0.00000000000E+00 -0.00000000000E+00 -0.58998415302E+03  0.58998415302E+03  0.00000000000E+00 0.  1.
         23    2    1    2    0    0  0.26147386702E+03 -0.28090714294E+03 -0.49234910599E+03  0.63082103686E+03  0.90830238817E+02 0.  0.
         11    1    3    3    0    0  0.10640946384E+03 -0.64872452632E+02 -0.19971320257E+03  0.23540767274E+03  0.00000000000E+00 0. -1.
        -11    1    3    3    0    0  0.15506440318E+03 -0.21603469031E+03 -0.29263590342E+03  0.39541336412E+03  0.00000000000E+00 0.  1.
         22    1    1    2    0    0 -0.26147386702E+03  0.28090714294E+03  0.12680988844E+04  0.13248970476E+04  0.00000000000E+00 0. -1.
<mgrwt>
<rscale>  0 0.17952842E+04</rscale>
<asrwt>0</asrwt>
<pdfrwt beam="1">  1        2 0.21011291E+00 0.17952842E+04</pdfrwt>
<pdfrwt beam="2">  1       -2 0.90766793E-01 0.17952842E+04</pdfrwt>
<totfact> 0.14820750E+01</totfact>
</mgrwt>
</event>
<event>
 6    1  0.2003386E-005  0.1633438E+04  0.7818608E-02  0.8800265E-01
         -2   -1    0    0    0  501 -0.00000000000E+00  0.00000000000E+00  0.53148215442E+03  0.53148215442E+03  0.00000000000E+00 0.  1.
          2   -1    0    0  501    0  0.00000000000E+00 -0.00000000000E+00 -0.12550371381E+04  0.12550371381E+04  0.00000000000E+00 0. -1.
         23    2    1    2    0    0  0.61637373795E+03  0.45351031759E+03 -0.58755289587E+02  0.77283944847E+03  0.90776847633E+02 0.  0.
         11    1    3    3    0    0  0.45335656255E+03  0.28439128488E+03 -0.27571335283E+02  0.53588315354E+03  0.00000000000E+00 0. -1.
        -11    1    3    3    0    0  0.16301717540E+03  0.16911903271E+03 -0.31183954304E+02  0.23695629493E+03  0.00000000000E+00 0.  1.
         22    1    1    2    0    0 -0.61637373795E+03 -0.45351031759E+03 -0.66479969412E+03  0.10136798441E+04  0.00000000000E+00 0. -1.
<mgrwt>
<rscale>  0 0.16334379E+04</rscale>
<asrwt>0</asrwt>
<pdfrwt beam="1">  1        2 0.19308264E+00 0.16334379E+04</pdfrwt>
<pdfrwt beam="2">  1       -2 0.81766486E-01 0.16334379E+04</pdfrwt>
<totfact> 0.22111426E+01</totfact>
</mgrwt>
</event>
<event>
 6    1  0.2003386E-005  0.2502311E+04  0.7818608E-02  0.8402163E-01
          2   -1    0    0  501    0  0.00000000000E+00  0.00000000000E+00  0.15103888382E+04  0.15103888382E+04  0.00000000000E+00 0. -1.
         -2   -1    0    0    0  501 -0.00000000000E+00 -0.00000000000E+00 -0.10364150168E+04  0.10364150168E+04  0.00000000000E+00 0.  1.
         23    2    1    2    0    0 -0.44475107062E+03 -0.75668017756E+03  0.11425367173E+04  0.14434703825E+04  0.88590004073E+02 0.  0.
         11    1    3    3    0    0 -0.22990669277E+03 -0.47074556562E+03  0.70548652032E+03  0.87873187338E+03  0.00000000000E+00 0. -1.
        -11    1    3    3    0    0 -0.21484437785E+03 -0.28593461194E+03  0.43705019695E+03  0.56473850909E+03  0.00000000000E+00 0.  1.
         22    1    1    2    0    0  0.44475107062E+03  0.75668017756E+03 -0.66856289581E+03  0.11033334725E+04  0.00000000000E+00 0.  1.
<mgrwt>
<rscale>  0 0.25023107E+04</rscale>
<asrwt>0</asrwt>
<pdfrwt beam="1">  1        2 0.23236751E+00 0.25023107E+04</pdfrwt>
<pdfrwt beam="2">  1       -2 0.15944846E+00 0.25023107E+04</pdfrwt>
<totfact> 0.28399886E+00</totfact>
</mgrwt>
</event>
<event>
 6    1  0.2003386E-005  0.1322805E+04  0.7818608E-02  0.9011673E-01
          2   -1    0    0  501    0  0.00000000000E+00  0.00000000000E+00  0.80999817779E+03  0.80999817779E+03  0.00000000000E+00 0. -1.
         -2   -1    0    0    0  501 -0.00000000000E+00 -0.00000000000E+00 -0.54006730917E+03  0.54006730917E+03  0.00000000000E+00 0.  1.
         23    2    1    2    0    0 -0.47734811857E+03 -0.22675237072E+03  0.53606403144E+03  0.75836900708E+03  0.92092568470E+02 0.  0.
         11    1    3    3    0    0 -0.10796553462E+03 -0.40698819269E+02  0.17347040393E+03  0.20833850243E+03  0.00000000000E+00 0. -1.
        -11    1    3    3    0    0 -0.36938258396E+03 -0.18605355146E+03  0.36259362751E+03  0.55003050465E+03  0.00000000000E+00 0.  1.
         22    1    1    2    0    0  0.47734811857E+03  0.22675237072E+03 -0.26613316282E+03  0.59169647987E+03  0.00000000000E+00 0.  1.
<mgrwt>
<rscale>  0 0.13228054E+04</rscale>
<asrwt>0</asrwt>
<pdfrwt beam="1">  1        2 0.12461510E+00 0.13228054E+04</pdfrwt>
<pdfrwt beam="2">  1       -2 0.83087279E-01 0.13228054E+04</pdfrwt>
<totfact> 0.42087142E+01</totfact>
</mgrwt>
</event>
<event>
 6    1  0.2003386E-005  0.3274772E+04  0.7818608E-02  0.8169345E-01
         -1   -1    0    0    0  501 -0.00000000000E+00  0.00000000000E+00  0.28278174767E+04  0.28278174767E+04  0.00000000000E+00 0.  1.
          1   -1    0    0  501    0  0.00000000000E+00 -0.00000000000E+00 -0.94809244005E+03  0.94809244005E+03  0.00000000000E+00 0. -1.
         23    2    1    2    0    0 -0.12804552240E+04 -0.83198987048E+03  0.26324901982E+03  0.15522266124E+04  0.91294492727E+02 0.  0.
         11    1    3    3    0    0 -0.42576186054E+03 -0.32791406930E+03  0.85279444415E+02  0.54412625591E+03  0.00000000000E+00 0. -1.
        -11    1    3    3    0    0 -0.85469336347E+03 -0.50407580119E+03  0.17796957540E+03  0.10081003565E+04  0.00000000000E+00 0.  1.
         22    1    1    2    0    0  0.12804552240E+04  0.83198987048E+03  0.16164760169E+04  0.22236833044E+04  0.00000000000E+00 0.  1.
<mgrwt>
<rscale>  0 0.32747717E+04</rscale>
<asrwt>0</asrwt>
<pdfrwt beam="1">  1        1 0.14586038E+00 0.32747717E+04</pdfrwt>
<pdfrwt beam="2">  1       -1 0.43504884E+00 0.32747717E+04</pdfrwt>
<totfact> 0.56697784E-02</totfact>
</mgrwt>
</event>
<event>
 6    1  0.2003386E-005  0.7648315E+03  0.7818608E-02  0.9612365E-01
         -2   -1    0    0    0  501 -0.00000000000E+00  0.00000000000E+00  0.12816755581E+03  0.12816755581E+03  0.00000000000E+00 0.  1.
          2   -1    0    0  501    0  0.00000000000E+00 -0.00000000000E+00 -0.11410205732E+04  0.11410205732E+04  0.00000000000E+00 0. -1.
         23    2    1    2    0    0  0.25472115927E+03  0.10564989469E+03 -0.94019795626E+03  0.98401532676E+03  0.90935125897E+02 0.  0.
         13    1    3    3    0    0  0.17134579347E+03  0.99462427839E+02 -0.54049304185E+03  0.57566038928E+03  0.00000000000E+00 0.  1.
        -13    1    3    3    0    0  0.83375365801E+02  0.61874668519E+01 -0.39970491441E+03  0.40835493749E+03  0.00000000000E+00 0. -1.
         22    1    1    2    0    0 -0.25472115927E+03 -0.10564989469E+03 -0.72655061118E+02  0.28517280223E+03  0.00000000000E+00 0.  1.
<mgrwt>
<rscale>  0 0.76483153E+03</rscale>
<asrwt>0</asrwt>
<pdfrwt beam="1">  1        2 0.17554162E+00 0.76483153E+03</pdfrwt>
<pdfrwt beam="2">  1       -2 0.19718086E-01 0.76483153E+03</pdfrwt>
<totfact> 0.45280472E+02</totfact>
</mgrwt>
</event>
<event>
 6    1  0.2003386E-005  0.3066503E+04  0.7818608E-02  0.8224991E-01
         -1   -1    0    0    0  501 -0.00000000000E+00  0.00000000000E+00  0.15207011461E+04  0.15207011461E+04  0.00000000000E+00 0.  1.
          1   -1    0    0  501    0  0.00000000000E+00 -0.00000000000E+00 -0.15459054052E+04  0.15459054052E+04  0.00000000000E+00 0. -1.
         23    2    1    2    0    0  0.13440329324E+03 -0.13027256906E+04  0.78209420323E+03  0.15281367670E+04  0.91499539506E+02 0.  0.
         11    1    3    3    0    0 -0.13221102808E+02 -0.12483641351E+03  0.82625347814E+02  0.15028598005E+03  0.00000000000E+00 0.  1.
        -11    1    3    3    0    0  0.14762439604E+03 -0.11778892770E+04  0.69946885541E+03  0.13778507869E+04  0.00000000000E+00 0. -1.
         22    1    1    2    0    0 -0.13440329324E+03  0.13027256906E+04 -0.80729846235E+03  0.15384697844E+04  0.00000000000E+00 0. -1.
<mgrwt>
<rscale>  0 0.30665030E+04</rscale>
<asrwt>0</asrwt>
<pdfrwt beam="1">  1        1 0.23783160E+00 0.30665030E+04</pdfrwt>
<pdfrwt beam="2">  1       -1 0.23395402E+00 0.30665030E+04</pdfrwt>
<totfact> 0.45725622E-01</totfact>
</mgrwt>
</event>
<event>
 6    1  0.2003386E-005  0.3101496E+04  0.7818608E-02  0.8215327E-01
          2   -1    0    0  501    0  0.00000000000E+00  0.00000000000E+00  0.35008471656E+04  0.35008471656E+04  0.00000000000E+00 0. -1.
         -2   -1    0    0    0  501 -0.00000000000E+00 -0.00000000000E+00 -0.68692497970E+03  0.68692497970E+03  0.00000000000E+00 0.  1.
         23    2    1    2    0    0  0.70519671989E+03 -0.12330665990E+03  0.32634580554E+04  0.33424382206E+04  0.96061611354E+02 0.  0.
         13    1    3    3    0    0  0.39167348688E+03 -0.10307062897E+03  0.19901708349E+04  0.20309632264E+04  0.00000000000E+00 0.  1.
        -13    1    3    3    0    0  0.31352323301E+03 -0.20236030926E+02  0.12732872205E+04  0.13114749942E+04  0.00000000000E+00 0. -1.
         22    1    1    2    0    0 -0.70519671989E+03  0.12330665990E+03 -0.44953586955E+03  0.84533392463E+03  0.00000000000E+00 0.  1.
<mgrwt>
<rscale>  0 0.31014960E+04</rscale>
<asrwt>0</asrwt>
<pdfrwt beam="1">  1        2 0.53859186E+00 0.31014960E+04</pdfrwt>
<pdfrwt beam="2">  1       -2 0.10568077E+00 0.31014960E+04</pdfrwt>
<totfact> 0.49828110E-01</totfact>
</mgrwt>
</event>
<event>
 6    1  0.2003386E-005  0.1371049E+04  0.7818608E-02  0.8975046E-01
         -2   -1    0    0    0  501 -0.00000000000E+00  0.00000000000E+00  0.48203759391E+03  0.48203759391E+03  0.00000000000E+00 0.  1.
          2   -1    0    0  501    0  0.00000000000E+00 -0.00000000000E+00 -0.97491099904E+03  0.97491099904E+03  0.00000000000E+00 0. -1.
         23    2    1    2    0    0 -0.39259066648E+03 -0.53028127497E+03 -0.43071637510E+03  0.79423511159E+03  0.99835638487E+02 0.  0.
         11    1    3    3    0    0 -0.20471314438E+03 -0.24799873374E+03 -0.15390764997E+03  0.35650863683E+03  0.00000000000E+00 0.  1.
        -11    1    3    3    0    0 -0.18787752210E+03 -0.28228254123E+03 -0.27680872513E+03  0.43772647476E+03  0.00000000000E+00 0. -1.
         22    1    1    2    0    0  0.39259066648E+03  0.53028127497E+03 -0.62157030029E+02  0.66271348136E+03  0.00000000000E+00 0.  1.
<mgrwt>
<rscale>  0 0.13710489E+04</rscale>
<asrwt>0</asrwt>
<pdfrwt beam="1">  1        2 0.14998631E+00 0.13710489E+04</pdfrwt>
<pdfrwt beam="2">  1       -2 0.74159630E-01 0.13710489E+04</pdfrwt>
<totfact> 0.41765054E+01</totfact>
</mgrwt>
</event>
<event>
 6    1  0.2003386E-005  0.2777519E+04  0.7818608E-02  0.8310282E-01
         -2   -1    0    0    0  501 -0.00000000000E+00  0.00000000000E+00  0.50001766451E+03  0.50001766451E+03  0.00000000000E+00 0.  1.
          2   -1    0    0  501    0  0.00000000000E+00 -0.00000000000E+00 -0.38571709433E+04  0.38571709433E+04  0.00000000000E+00 0. -1.
         23    2    1    2    0    0  0.88372932856E+03 -0.10667621376E+04 -0.17982010432E+04  0.22716932093E+04  0.90022557397E+02 0.  0.
         11    1    3    3    0    0  0.20424690628E+03 -0.29396597984E+03 -0.42355162151E+03  0.55455276766E+03  0.00000000000E+00 0.  1.
        -11    1    3    3    0    0  0.67948242229E+03 -0.77279615780E+03 -0.13746494217E+04  0.17171404416E+04  0.00000000000E+00 0. -1.
         22    1    1    2    0    0 -0.88372932856E+03  0.10667621376E+04 -0.15589522355E+04  0.20854953985E+04  0.00000000000E+00 0. -1.
<mgrwt>
<rscale>  0 0.27775195E+04</rscale>
<asrwt>0</asrwt>
<pdfrwt beam="1">  1        2 0.59341090E+00 0.27775195E+04</pdfrwt>
<pdfrwt beam="2">  1       -2 0.76925796E-01 0.27775195E+04</pdfrwt>
<totfact> 0.58435714E-01</totfact>
</mgrwt>
</event>
<event>
 6    1  0.2003386E-005  0.1786903E+04  0.7818608E-02  0.8713295E-01
          2   -1    0    0  501    0  0.00000000000E+00  0.00000000000E+00  0.36793264267E+04  0.36793264267E+04  0.00000000000E+00 0. -1.
         -2   -1    0    0    0  501 -0.00000000000E+00 -0.00000000000E+00 -0.21695700526E+03  0.21695700526E+03  0.00000000000E+00 0.  1.
         23    2    1    2    0    0  0.12750490900E+03  0.13151619568E+02  0.36585756119E+04  0.36619176152E+04  0.89636183663E+02 0.  0.
         13    1    3    3    0    0  0.10312994949E+03 -0.29085621316E+02  0.23750442083E+04  0.23774601471E+04  0.00000000000E+00 0. -1.
        -13    1    3    3    0    0  0.24374959512E+02  0.42237240884E+02  0.12835314036E+04  0.12844574680E+04  0.00000000000E+00 0.  1.
         22    1    1    2    0    0 -0.12750490900E+03 -0.13151619568E+02 -0.19620619045E+03  0.23436581680E+03  0.00000000000E+00 0.  1.
<mgrwt>
<rscale>  0 0.17869031E+04</rscale>
<asrwt>0</asrwt>
<pdfrwt beam="1">  1        2 0.56605017E+00 0.17869031E+04</pdfrwt>
<pdfrwt beam="2">  1       -2 0.33378004E-01 0.17869031E+04</pdfrwt>
<totfact> 0.48424468E+00</totfact>
</mgrwt>
</event>
<event>
 6    1  0.2003386E-005  0.5246989E+04  0.7818608E-02  0.7791497E-01
          2   -1    0    0  501    0  0.00000000000E+00  0.00000000000E+00  0.30211845839E+04  0.30211845839E+04  0.00000000000E+00 0. -1.
         -2   -1    0    0    0  501 -0.00000000000E+00 -0.00000000000E+00 -0.22781543066E+04  0.22781543066E+04  0.00000000000E+00 0.  1.
         23    2    1    2    0    0  0.25746920281E+03 -0.25518091204E+04 -0.18222796080E+03  0.25727800731E+04  0.89275402535E+02 0.  0.
         13    1    3    3    0    0  0.12442132707E+03 -0.92556800569E+03 -0.96283716660E+02  0.93884362589E+03  0.00000000000E+00 0.  1.
        -13    1    3    3    0    0  0.13304787573E+03 -0.16262411147E+04 -0.85944244136E+02  0.16339364472E+04  0.00000000000E+00 0. -1.
         22    1    1    2    0    0 -0.25746920281E+03  0.25518091204E+04  0.92525823803E+03  0.27265588174E+04  0.00000000000E+00 0. -1.
<mgrwt>
<rscale>  0 0.52469895E+04</rscale>
<asrwt>0</asrwt>
<pdfrwt beam="1">  1        2 0.46479763E+00 0.52469895E+04</pdfrwt>
<pdfrwt beam="2">  1       -2 0.35048528E+00 0.52469895E+04</pdfrwt>
<totfact> 0.18616419E-02</totfact>
</mgrwt>
</event>
<event>
 6    1  0.2003386E-005  0.2423314E+04  0.7818608E-02  0.8430826E-01
          2   -1    0    0  501    0  0.00000000000E+00  0.00000000000E+00  0.13515546997E+04  0.13515546997E+04  0.00000000000E+00 0. -1.
         -2   -1    0    0    0  501 -0.00000000000E+00 -0.00000000000E+00 -0.10862400826E+04  0.10862400826E+04  0.00000000000E+00 0.  1.
         23    2    1    2    0    0  0.82410466361E+03 -0.41129020209E+03  0.92218517586E+03  0.13065180443E+04  0.90861293341E+02 0.  0.
         13    1    3    3    0    0  0.21668335132E+03 -0.79993413279E+02  0.27483303161E+03  0.35900392223E+03  0.00000000000E+00 0. -1.
        -13    1    3    3    0    0  0.60742131228E+03 -0.33129678881E+03  0.64735214424E+03  0.94751412208E+03  0.00000000000E+00 0.  1.
         22    1    1    2    0    0 -0.82410466361E+03  0.41129020209E+03 -0.65687055880E+03  0.11312767380E+04  0.00000000000E+00 0.  1.
<mgrwt>
<rscale>  0 0.24233142E+04</rscale>
<asrwt>0</asrwt>
<pdfrwt beam="1">  1        2 0.20793149E+00 0.24233142E+04</pdfrwt>
<pdfrwt beam="2">  1       -2 0.16711386E+00 0.24233142E+04</pdfrwt>
<totfact> 0.30957559E+00</totfact>
</mgrwt>
</event>
<event>
 6    1  0.2003386E-005  0.4591538E+04  0.7818608E-02  0.7894804E-01
          2   -1    0    0  501    0  0.00000000000E+00  0.00000000000E+00  0.25550645251E+04  0.25550645251E+04  0.00000000000E+00 0. -1.
         -2   -1    0    0    0  501 -0.00000000000E+00 -0.00000000000E+00 -0.20627872946E+04  0.20627872946E+04  0.00000000000E+00 0.  1.
         23    2    1    2    0    0 -0.93046613966E+03  0.14763794975E+04 -0.12526615986E+04  0.21500035312E+04  0.88828181942E+02 0.  0.
         13    1    3    3    0    0 -0.46513635249E+03  0.81708571056E+03 -0.65735905792E+03  0.11472148081E+04  0.00000000000E+00 0.  1.
        -13    1    3    3    0    0 -0.46532978717E+03  0.65929378691E+03 -0.59530254070E+03  0.10027887231E+04  0.00000000000E+00 0. -1.
         22    1    1    2    0    0  0.93046613966E+03 -0.14763794975E+04  0.17449388292E+04  0.24678482885E+04  0.00000000000E+00 0. -1.
<mgrwt>
<rscale>  0 0.45915377E+04</rscale>
<asrwt>0</asrwt>
<pdfrwt beam="1">  1        2 0.39308685E+00 0.45915377E+04</pdfrwt>
<pdfrwt beam="2">  1       -2 0.31735189E+00 0.45915377E+04</pdfrwt>
<totfact> 0.60464485E-02</totfact>
</mgrwt>
</event>
<event>
 6    1  0.2003386E-005  0.3144218E+04  0.7818608E-02  0.8203706E-01
         -2   -1    0    0    0  501 -0.00000000000E+00  0.00000000000E+00  0.11644823198E+04  0.11644823198E+04  0.00000000000E+00 0.  1.
          2   -1    0    0  501    0  0.00000000000E+00 -0.00000000000E+00 -0.21224256673E+04  0.21224256673E+04  0.00000000000E+00 0. -1.
         23    2    1    2    0    0 -0.94354027651E+03 -0.14251860801E+03 -0.17837183625E+04  0.20249713078E+04  0.90982382904E+02 0.  0.
         13    1    3    3    0    0 -0.83809926030E+03 -0.15095190744E+03 -0.16168096875E+04  0.18273670715E+04  0.00000000000E+00 0.  1.
        -13    1    3    3    0    0 -0.10544101621E+03  0.84332994299E+01 -0.16690867500E+03  0.19760423636E+03  0.00000000000E+00 0. -1.
         22    1    1    2    0    0  0.94354027651E+03  0.14251860801E+03  0.82577501498E+03  0.12619366792E+04  0.00000000000E+00 0.  1.
<mgrwt>
<rscale>  0 0.31442183E+04</rscale>
<asrwt>0</asrwt>
<pdfrwt beam="1">  1        2 0.32652702E+00 0.31442183E+04</pdfrwt>
<pdfrwt beam="2">  1       -2 0.17915113E+00 0.31442183E+04</pdfrwt>
<totfact> 0.88760150E-01</totfact>
</mgrwt>
</event>
<event>
 6    1  0.2003386E-005  0.2015849E+04  0.7818608E-02  0.8599246E-01
         -4   -1    0    0    0  501 -0.00000000000E+00  0.00000000000E+00  0.94586910697E+03  0.94586910697E+03  0.00000000000E+00 0.  1.
          4   -1    0    0  501    0  0.00000000000E+00 -0.00000000000E+00 -0.10740513358E+04  0.10740513358E+04  0.00000000000E+00 0. -1.
         23    2    1    2    0    0  0.64914927281E+03 -0.28498957418E+03  0.65072975184E+03  0.96667891805E+03  0.91679250085E+02 0.  0.
         11    1    3    3    0    0  0.26705042456E+03 -0.97461842751E+02  0.20586509022E+03  0.35099170278E+03  0.00000000000E+00 0. -1.
        -11    1    3    3    0    0  0.38209884824E+03 -0.18752773143E+03  0.44486466162E+03  0.61568721527E+03  0.00000000000E+00 0.  1.
         22    1    1    2    0    0 -0.64914927281E+03  0.28498957418E+03 -0.77891198066E+03  0.10532415247E+04  0.00000000000E+00 0. -1.
<mgrwt>
<rscale>  0 0.20158492E+04</rscale>
<asrwt>0</asrwt>
<pdfrwt beam="1">  1        4 0.16523867E+00 0.20158492E+04</pdfrwt>
<pdfrwt beam="2">  1       -4 0.14551832E+00 0.20158492E+04</pdfrwt>
<totfact> 0.13717899E-01</totfact>
</mgrwt>
</event>
<event>
 6    1  0.2003386E-005  0.1244900E+04  0.7818608E-02  0.9074439E-01
         -2   -1    0    0    0  501 -0.00000000000E+00  0.00000000000E+00  0.21336746058E+03  0.21336746058E+03  0.00000000000E+00 0.  1.
          2   -1    0    0  501    0  0.00000000000E+00 -0.00000000000E+00 -0.18158537229E+04  0.18158537229E+04  0.00000000000E+00 0. -1.
         23    2    1    2    0    0 -0.36305397386E+03 -0.27901685681E+03 -0.12451347020E+03  0.48194545867E+03  0.84316229434E+02 0.  0.
         13    1    3    3    0    0 -0.50506965769E+02 -0.40978689563E+02 -0.50076899825E+02  0.82084727481E+02  0.00000000000E+00 0. -1.
        -13    1    3    3    0    0 -0.31254700809E+03 -0.23803816725E+03 -0.74436570372E+02  0.39986073118E+03  0.00000000000E+00 0.  1.
         22    1    1    2    0    0  0.36305397386E+03  0.27901685681E+03 -0.14779727921E+04  0.15472757248E+04  0.00000000000E+00 0. -1.
<mgrwt>
<rscale>  0 0.12449002E+04</rscale>
<asrwt>0</asrwt>
<pdfrwt beam="1">  1        2 0.27936211E+00 0.12449002E+04</pdfrwt>
<pdfrwt beam="2">  1       -2 0.32825764E-01 0.12449002E+04</pdfrwt>
<totfact> 0.72029555E+01</totfact>
</mgrwt>
</event>
<event>
 6    1  0.2003386E-005  0.4232809E+03  0.7818608E-02  0.1036004E+00
          1   -1    0    0  501    0  0.00000000000E+00  0.00000000000E+00  0.54089909669E+03  0.54089909669E+03  0.00000000000E+00 0. -1.
         -1   -1    0    0    0  501 -0.00000000000E+00 -0.00000000000E+00 -0.82809692357E+02  0.82809692357E+02  0.00000000000E+00 0.  1.
         23    2    1    2    0    0  0.18665269477E+03  0.58862384964E+02  0.16654784470E+03  0.27256709425E+03  0.90832964646E+02 0.  0.
         11    1    3    3    0    0  0.64088005774E+02  0.84690853311E+01  0.11188063343E+03  0.12921406281E+03  0.00000000000E+00 0. -1.
        -11    1    3    3    0    0  0.12256468900E+03  0.50393299633E+02  0.54667211272E+02  0.14335303145E+03  0.00000000000E+00 0.  1.
         22    1    1    2    0    0 -0.18665269477E+03 -0.58862384964E+02  0.29154155963E+03  0.35114169479E+03  0.00000000000E+00 0. -1.
<mgrwt>
<rscale>  0 0.42328094E+03</rscale>
<asrwt>0</asrwt>
<pdfrwt beam="1">  1        1 0.83215243E-01 0.42328094E+03</pdfrwt>
<pdfrwt beam="2">  1       -1 0.12739953E-01 0.42328094E+03</pdfrwt>
<totfact> 0.16983562E+03</totfact>
</mgrwt>
</event>
<event>
 6    1  0.2003386E-005  0.2849021E+04  0.7818608E-02  0.8288209E-01
          2   -1    0    0  501    0  0.00000000000E+00  0.00000000000E+00  0.23633746921E+04  0.23633746921E+04  0.00000000000E+00 0. -1.
         -2   -1    0    0    0  501 -0.00000000000E+00 -0.00000000000E+00 -0.85861544383E+03  0.85861544383E+03  0.00000000000E+00 0.  1.
         23    2    1    2    0    0  0.75915144389E+02  0.38014341254E+03 -0.79530592363E+03  0.88948677726E+03  0.91668377954E+02 0.  0.
         11    1    3    3    0    0  0.26418842819E+02  0.28391223083E+03 -0.63491884560E+03  0.69600722020E+03  0.00000000000E+00 0. -1.
        -11    1    3    3    0    0  0.49496301570E+02  0.96231181707E+02 -0.16038707803E+03  0.19347955706E+03  0.00000000000E+00 0.  1.
         22    1    1    2    0    0 -0.75915144389E+02 -0.38014341254E+03  0.23000651719E+04  0.23325033587E+04  0.00000000000E+00 0. -1.
<mgrwt>
<rscale>  0 0.28490209E+04</rscale>
<asrwt>0</asrwt>
<pdfrwt beam="1">  1        2 0.36359610E+00 0.28490209E+04</pdfrwt>
<pdfrwt beam="2">  1       -2 0.13209468E+00 0.28490209E+04</pdfrwt>
<totfact> 0.15076871E+00</totfact>
</mgrwt>
</event>
<event>
 6    1  0.2003386E-005  0.2758614E+04  0.7818608E-02  0.8316233E-01
         -2   -1    0    0    0  501 -0.00000000000E+00  0.00000000000E+00  0.78681403971E+03  0.78681403971E+03  0.00000000000E+00 0. -1.
          2   -1    0    0  501    0  0.00000000000E+00 -0.00000000000E+00 -0.24179641227E+04  0.24179641227E+04  0.00000000000E+00 0.  1.
         23    2    1    2    0    0 -0.50822189649E+03 -0.11965577031E+04 -0.28637061002E+03  0.13343579786E+04  0.91995955933E+02 0.  0.
         11    1    3    3    0    0 -0.29078258228E+03 -0.57252275427E+03 -0.12683446853E+03  0.65454090531E+03  0.00000000000E+00 0. -1.
        -11    1    3    3    0    0 -0.21743931421E+03 -0.62403494886E+03 -0.15953614149E+03  0.67981707334E+03  0.00000000000E+00 0.  1.
         22    1    1    2    0    0  0.50822189649E+03  0.11965577031E+04 -0.13447794730E+04  0.18704201838E+04  0.00000000000E+00 0.  1.
<mgrwt>
<rscale>  0 0.27586142E+04</rscale>
<asrwt>0</asrwt>
<pdfrwt beam="1">  1        2 0.37199449E+00 0.27586142E+04</pdfrwt>
<pdfrwt beam="2">  1       -2 0.12104831E+00 0.27586142E+04</pdfrwt>
<totfact> 0.17609723E+00</totfact>
</mgrwt>
</event>
<event>
 6    1  0.2003386E-005  0.2072202E+04  0.7818608E-02  0.8573588E-01
         -2   -1    0    0    0  501 -0.00000000000E+00  0.00000000000E+00  0.20214500208E+04  0.20214500208E+04  0.00000000000E+00 0.  1.
          2   -1    0    0  501    0  0.00000000000E+00 -0.00000000000E+00 -0.53105715280E+03  0.53105715280E+03  0.00000000000E+00 0. -1.
         23    2    1    2    0    0  0.29464857238E+03 -0.75742918876E+03 -0.40607336935E+02  0.81916404983E+03  0.94148964562E+02 0.  0.
         13    1    3    3    0    0  0.26429751170E+03 -0.57697355810E+03 -0.43905235917E+02  0.63614411196E+03  0.00000000000E+00 0. -1.
        -13    1    3    3    0    0  0.30351060688E+02 -0.18045563066E+03  0.32978989829E+01  0.18301993788E+03  0.00000000000E+00 0.  1.
         22    1    1    2    0    0 -0.29464857238E+03  0.75742918876E+03  0.15310002049E+04  0.17333431237E+04  0.00000000000E+00 0.  1.
<mgrwt>
<rscale>  0 0.20722022E+04</rscale>
<asrwt>0</asrwt>
<pdfrwt beam="1">  1        2 0.81701102E-01 0.20722022E+04</pdfrwt>
<pdfrwt beam="2">  1       -2 0.31099231E+00 0.20722022E+04</pdfrwt>
<totfact> 0.14437543E+00</totfact>
</mgrwt>
</event>
<event>
 6    1  0.2003386E-005  0.2301086E+04  0.7818608E-02  0.8477493E-01
         -2   -1    0    0    0  501 -0.00000000000E+00  0.00000000000E+00  0.91348379133E+03  0.91348379133E+03  0.00000000000E+00 0.  1.
          2   -1    0    0  501    0  0.00000000000E+00 -0.00000000000E+00 -0.14491219958E+04  0.14491219958E+04  0.00000000000E+00 0. -1.
         23    2    1    2    0    0  0.81424080865E+03  0.36472095130E+03  0.47475057843E+03  0.10146833267E+04  0.90469193236E+02 0.  0.
         13    1    3    3    0    0  0.41437861116E+03  0.18470572149E+03  0.19020258436E+03  0.49193786197E+03  0.00000000000E+00 0.  1.
        -13    1    3    3    0    0  0.39986219749E+03  0.18001522981E+03  0.28454799407E+03  0.52274546470E+03  0.00000000000E+00 0. -1.
         22    1    1    2    0    0 -0.81424080865E+03 -0.36472095130E+03 -0.10103887829E+04  0.13479224604E+04  0.00000000000E+00 0. -1.
<mgrwt>
<rscale>  0 0.23010862E+04</rscale>
<asrwt>0</asrwt>
<pdfrwt beam="1">  1        2 0.22294185E+00 0.23010862E+04</pdfrwt>
<pdfrwt beam="2">  1       -2 0.14053597E+00 0.23010862E+04</pdfrwt>
<totfact> 0.43739350E+00</totfact>
</mgrwt>
</event>
<event>
 6    1  0.2003386E-005  0.2268210E+04  0.7818608E-02  0.8490562E-01
         -2   -1    0    0    0  501 -0.00000000000E+00  0.00000000000E+00  0.79763662898E+03  0.79763662898E+03  0.00000000000E+00 0.  1.
          2   -1    0    0  501    0  0.00000000000E+00 -0.00000000000E+00 -0.16125067959E+04  0.16125067959E+04  0.00000000000E+00 0. -1.
         23    2    1    2    0    0 -0.17983729257E+03  0.42563756886E+03  0.69038758720E+03  0.83556103640E+03  0.89545704315E+02 0.  0.
         13    1    3    3    0    0 -0.11381179986E+03  0.20819937069E+03  0.28516293021E+03  0.37096900209E+03  0.00000000000E+00 0. -1.
        -13    1    3    3    0    0 -0.66025492704E+02  0.21743819817E+03  0.40522465699E+03  0.46459203431E+03  0.00000000000E+00 0.  1.
         22    1    1    2    0    0  0.17983729257E+03 -0.42563756886E+03 -0.15052577541E+04  0.15745823885E+04  0.00000000000E+00 0. -1.
<mgrwt>
<rscale>  0 0.22682103E+04</rscale>
<asrwt>0</asrwt>
<pdfrwt beam="1">  1        2 0.24807797E+00 0.22682103E+04</pdfrwt>
<pdfrwt beam="2">  1       -2 0.12271333E+00 0.22682103E+04</pdfrwt>
<totfact> 0.50099257E+00</totfact>
</mgrwt>
</event>
<event>
 6    1  0.2003386E-005  0.1700593E+04  0.7818608E-02  0.8761026E-01
         -2   -1    0    0    0  501 -0.00000000000E+00  0.00000000000E+00  0.19090058670E+04  0.19090058670E+04  0.00000000000E+00 0.  1.
          2   -1    0    0  501    0  0.00000000000E+00 -0.00000000000E+00 -0.37873352397E+03  0.37873352397E+03  0.00000000000E+00 0. -1.
         23    2    1    2    0    0 -0.46026246970E+02  0.76541096744E+03  0.28275604213E+03  0.82340702246E+03  0.10037818879E+03 0.  0.
         11    1    3    3    0    0  0.27313339667E+02  0.12441102197E+03  0.60540057812E+02  0.14102914419E+03  0.00000000000E+00 0. -1.
        -11    1    3    3    0    0 -0.73339586637E+02  0.64099994547E+03  0.22221598432E+03  0.68237787827E+03  0.00000000000E+00 0.  1.
         22    1    1    2    0    0  0.46026246970E+02 -0.76541096744E+03  0.12475163009E+04  0.14643323686E+04  0.00000000000E+00 0.  1.
<mgrwt>
<rscale>  0 0.17005934E+04</rscale>
<asrwt>0</asrwt>
<pdfrwt beam="1">  1        2 0.58266697E-01 0.17005934E+04</pdfrwt>
<pdfrwt beam="2">  1       -2 0.29369321E+00 0.17005934E+04</pdfrwt>
<totfact> 0.28006780E+00</totfact>
</mgrwt>
</event>
<event>
 6    1  0.2003386E-005  0.2609328E+04  0.7818608E-02  0.8365040E-01
          2   -1    0    0  501    0  0.00000000000E+00  0.00000000000E+00  0.11692342127E+04  0.11692342127E+04  0.00000000000E+00 0. -1.
         -2   -1    0    0    0  501 -0.00000000000E+00 -0.00000000000E+00 -0.14557801285E+04  0.14557801285E+04  0.00000000000E+00 0.  1.
         23    2    1    2    0    0 -0.10747007215E+04 -0.44867477805E+03  0.44449521217E+03  0.12499827678E+04  0.92683488735E+02 0.  0.
         11    1    3    3    0    0 -0.52795031812E+03 -0.26192819989E+03  0.25234353518E+03  0.64110465608E+03  0.00000000000E+00 0.  1.
        -11    1    3    3    0    0 -0.54675040334E+03 -0.18674657816E+03  0.19215167699E+03  0.60887811175E+03  0.00000000000E+00 0. -1.
         22    1    1    2    0    0  0.10747007215E+04  0.44867477805E+03 -0.73104112794E+03  0.13750315734E+04  0.00000000000E+00 0.  1.
<mgrwt>
<rscale>  0 0.26093278E+04</rscale>
<asrwt>0</asrwt>
<pdfrwt beam="1">  1        2 0.17988219E+00 0.26093278E+04</pdfrwt>
<pdfrwt beam="2">  1       -2 0.22396617E+00 0.26093278E+04</pdfrwt>
<totfact> 0.16297154E+00</totfact>
</mgrwt>
</event>
<event>
 6    1  0.2003386E-005  0.2138855E+04  0.7818608E-02  0.8544318E-01
         -2   -1    0    0    0  501 -0.00000000000E+00  0.00000000000E+00  0.38209593320E+03  0.38209593320E+03  0.00000000000E+00 0.  1.
          2   -1    0    0  501    0  0.00000000000E+00 -0.00000000000E+00 -0.29931618765E+04  0.29931618765E+04  0.00000000000E+00 0. -1.
         23    2    1    2    0    0  0.88010625322E+03  0.21735877140E+02 -0.22605800481E+04  0.24276820460E+04  0.91424817372E+02 0.  0.
         11    1    3    3    0    0  0.40122777099E+03  0.24207649452E+02 -0.91393409384E+03  0.99842138518E+03  0.00000000000E+00 0. -1.
        -11    1    3    3    0    0  0.47887848222E+03 -0.24717723120E+01 -0.13466459543E+04  0.14292606608E+04  0.00000000000E+00 0.  1.
         22    1    1    2    0    0 -0.88010625322E+03 -0.21735877140E+02 -0.35048589524E+03  0.94757576376E+03  0.00000000000E+00 0.  1.
<mgrwt>
<rscale>  0 0.21388548E+04</rscale>
<asrwt>0</asrwt>
<pdfrwt beam="1">  1        2 0.46048643E+00 0.21388548E+04</pdfrwt>
<pdfrwt beam="2">  1       -2 0.58783991E-01 0.21388548E+04</pdfrwt>
<totfact> 0.43753287E+00</totfact>
</mgrwt>
</event>
<event>
 6    1  0.2003386E-005  0.1278887E+04  0.7818608E-02  0.9046478E-01
          1   -1    0    0  501    0  0.00000000000E+00  0.00000000000E+00  0.14226996847E+04  0.14226996847E+04  0.00000000000E+00 0.  1.
         -1   -1    0    0    0  501 -0.00000000000E+00 -0.00000000000E+00 -0.28740266105E+03  0.28740266105E+03  0.00000000000E+00 0. -1.
         23    2    1    2    0    0  0.12098264833E+03 -0.27295855218E+03 -0.18069200490E+03  0.36066902185E+03  0.91045978956E+02 0.  0.
         11    1    3    3    0    0  0.12176679581E+03 -0.26030117318E+03 -0.14317237821E+03  0.32106414188E+03  0.00000000000E+00 0.  1.
        -11    1    3    3    0    0 -0.78414747957E+00 -0.12657379001E+02 -0.37519626692E+02  0.39604879971E+02  0.00000000000E+00 0. -1.
         22    1    1    2    0    0 -0.12098264833E+03  0.27295855218E+03  0.13159890286E+04  0.13494333239E+04  0.00000000000E+00 0.  1.
<mgrwt>
<rscale>  0 0.12788865E+04</rscale>
<asrwt>0</asrwt>
<pdfrwt beam="1">  1        1 0.21887687E+00 0.12788865E+04</pdfrwt>
<pdfrwt beam="2">  1       -1 0.44215795E-01 0.12788865E+04</pdfrwt>
<totfact> 0.36875336E+01</totfact>
</mgrwt>
</event>
<event>
 6    1  0.2003386E-005  0.4692888E+04  0.7818608E-02  0.7877711E-01
         -2   -1    0    0    0  501 -0.00000000000E+00  0.00000000000E+00  0.32072128993E+04  0.32072128993E+04  0.00000000000E+00 0.  1.
          2   -1    0    0  501    0  0.00000000000E+00 -0.00000000000E+00 -0.17166925896E+04  0.17166925896E+04  0.00000000000E+00 0. -1.
         23    2    1    2    0    0 -0.15642325361E+04 -0.15955730078E+04 -0.29700018042E+01  0.22363061957E+04  0.91541955141E+02 0.  0.
         11    1    3    3    0    0 -0.20332872597E+03 -0.16699780577E+03 -0.86072879974E+01  0.26325828257E+03  0.00000000000E+00 0. -1.
        -11    1    3    3    0    0 -0.13609038102E+04 -0.14285752020E+04  0.56372861932E+01  0.19730479131E+04  0.00000000000E+00 0.  1.
         22    1    1    2    0    0  0.15642325361E+04  0.15955730078E+04  0.14934903114E+04  0.26875992932E+04  0.00000000000E+00 0.  1.
<mgrwt>
<rscale>  0 0.46928876E+04</rscale>
<asrwt>0</asrwt>
<pdfrwt beam="1">  1        2 0.26410655E+00 0.46928876E+04</pdfrwt>
<pdfrwt beam="2">  1       -2 0.49341737E+00 0.46928876E+04</pdfrwt>
<totfact> 0.13046079E-02</totfact>
</mgrwt>
</event>
<event>
 6    1  0.2421926E-005  0.2311695E+04  0.7818608E-02  0.8473324E-01
          2   -1    0    0  501    0  0.00000000000E+00  0.00000000000E+00  0.15262297621E+04  0.15262297621E+04  0.00000000000E+00 0. -1.
         -2   -1    0    0    0  501 -0.00000000000E+00 -0.00000000000E+00 -0.87534911479E+03  0.87534911479E+03  0.00000000000E+00 0.  1.
         23    2    1    2    0    0 -0.72277300364E+03  0.63156158465E+02  0.12584269400E+04  0.14552691956E+04  0.88207444881E+02 0.  0.
         13    1    3    3    0    0 -0.29899288070E+03  0.66092124812E+02  0.49310727280E+03  0.58044783931E+03  0.00000000000E+00 0.  1.
        -13    1    3    3    0    0 -0.42378012294E+03 -0.29359663465E+01  0.76531966716E+03  0.87482135630E+03  0.00000000000E+00 0. -1.
         22    1    1    2    0    0  0.72277300364E+03 -0.63156158465E+02 -0.60754629267E+03  0.94630968127E+03  0.00000000000E+00 0.  1.
<mgrwt>
<rscale>  0 0.23116954E+04</rscale>
<asrwt>0</asrwt>
<pdfrwt beam="1">  1        2 0.23480458E+00 0.23116954E+04</pdfrwt>
<pdfrwt beam="2">  1       -2 0.13466909E+00 0.23116954E+04</pdfrwt>
<totfact> 0.44122325E+00</totfact>
</mgrwt>
</event>
<event>
 6    1  0.2003386E-005  0.1497536E+04  0.7818608E-02  0.8886093E-01
          2   -1    0    0  501    0  0.00000000000E+00  0.00000000000E+00  0.33466188739E+04  0.33466188739E+04  0.00000000000E+00 0. -1.
         -2   -1    0    0    0  501 -0.00000000000E+00 -0.00000000000E+00 -0.16752828539E+03  0.16752828539E+03  0.00000000000E+00 0.  1.
         23    2    1    2    0    0  0.73739674461E+03 -0.11214772996E+03  0.16289793301E+04  0.17939215969E+04  0.90829320087E+02 0.  0.
         11    1    3    3    0    0  0.54947517444E+03 -0.67256062343E+02  0.11157620085E+04  0.12455405272E+04  0.00000000000E+00 0. -1.
        -11    1    3    3    0    0  0.18792157017E+03 -0.44891667613E+02  0.51321732160E+03  0.54838106964E+03  0.00000000000E+00 0.  1.
         22    1    1    2    0    0 -0.73739674461E+03  0.11214772996E+03  0.15501112584E+04  0.17202255624E+04  0.00000000000E+00 0. -1.
<mgrwt>
<rscale>  0 0.14975357E+04</rscale>
<asrwt>0</asrwt>
<pdfrwt beam="1">  1        2 0.51486439E+00 0.14975357E+04</pdfrwt>
<pdfrwt beam="2">  1       -2 0.25773585E-01 0.14975357E+04</pdfrwt>
<totfact> 0.13756043E+01</totfact>
</mgrwt>
</event>
<event>
 6    1  0.2003386E-005  0.2052757E+04  0.7818608E-02  0.8582344E-01
         -2   -1    0    0    0  501 -0.00000000000E+00  0.00000000000E+00  0.85846128080E+03  0.85846128080E+03  0.00000000000E+00 0.  1.
          2   -1    0    0  501    0  0.00000000000E+00 -0.00000000000E+00 -0.12271412196E+04  0.12271412196E+04  0.00000000000E+00 0. -1.
         23    2    1    2    0    0 -0.55390691726E+03 -0.76053853471E+03  0.22709053266E+03  0.97197141678E+03  0.89031394654E+02 0.  0.
         11    1    3    3    0    0 -0.34369362599E+02 -0.92443273874E+02  0.19042201695E+02  0.10044708764E+03  0.00000000000E+00 0. -1.
        -11    1    3    3    0    0 -0.51953755466E+03 -0.66809526084E+03  0.20804833097E+03  0.87152432914E+03  0.00000000000E+00 0.  1.
         22    1    1    2    0    0  0.55390691726E+03  0.76053853471E+03 -0.59577047148E+03  0.11136310836E+04  0.00000000000E+00 0. -1.
<mgrwt>
<rscale>  0 0.20527574E+04</rscale>
<asrwt>0</asrwt>
<pdfrwt beam="1">  1        2 0.18879096E+00 0.20527574E+04</pdfrwt>
<pdfrwt beam="2">  1       -2 0.13207097E+00 0.20527574E+04</pdfrwt>
<totfact> 0.70441081E+00</totfact>
</mgrwt>
</event>
<event>
 6    1  0.2003386E-005  0.1609591E+04  0.7818608E-02  0.8814678E-01
          1   -1    0    0  501    0  0.00000000000E+00  0.00000000000E+00  0.10048412074E+04  0.10048412074E+04  0.00000000000E+00 0. -1.
         -1   -1    0    0    0  501 -0.00000000000E+00 -0.00000000000E+00 -0.64457502602E+03  0.64457502602E+03  0.00000000000E+00 0.  1.
         23    2    1    2    0    0 -0.37963997595E+03 -0.42427740123E+03 -0.39865647832E+03  0.70067947966E+03  0.88808338417E+02 0.  0.
         11    1    3    3    0    0 -0.24120900646E+03 -0.21889453721E+03 -0.26044135004E+03  0.41704472185E+03  0.00000000000E+00 0.  1.
        -11    1    3    3    0    0 -0.13843096949E+03 -0.20538286402E+03 -0.13821512828E+03  0.28363475780E+03  0.00000000000E+00 0. -1.
         22    1    1    2    0    0  0.37963997595E+03  0.42427740123E+03  0.75892265966E+03  0.94873675373E+03  0.00000000000E+00 0. -1.
<mgrwt>
<rscale>  0 0.16095907E+04</rscale>
<asrwt>0</asrwt>
<pdfrwt beam="1">  1        1 0.15459095E+00 0.16095907E+04</pdfrwt>
<pdfrwt beam="2">  1       -1 0.99165389E-01 0.16095907E+04</pdfrwt>
<totfact> 0.13975576E+01</totfact>
</mgrwt>
</event>
<event>
 6    1  0.2003386E-005  0.1107860E+04  0.7818608E-02  0.9197565E-01
          1   -1    0    0  501    0  0.00000000000E+00  0.00000000000E+00  0.83206442219E+03  0.83206442219E+03  0.00000000000E+00 0. -1.
         -1   -1    0    0    0  501 -0.00000000000E+00 -0.00000000000E+00 -0.36876736983E+03  0.36876736983E+03  0.00000000000E+00 0.  1.
         23    2    1    2    0    0  0.43832373968E+03 -0.18120966480E+03  0.53514110099E+03  0.72111707398E+03  0.93108501393E+02 0.  0.
         13    1    3    3    0    0  0.28044677565E+03 -0.66586939915E+02  0.31636110471E+03  0.42798196588E+03  0.00000000000E+00 0. -1.
        -13    1    3    3    0    0  0.15787696402E+03 -0.11462272489E+03  0.21877999628E+03  0.29313510810E+03  0.00000000000E+00 0.  1.
         22    1    1    2    0    0 -0.43832373968E+03  0.18120966480E+03 -0.71844048628E+02  0.47971471804E+03  0.00000000000E+00 0.  1.
<mgrwt>
<rscale>  0 0.11078596E+04</rscale>
<asrwt>0</asrwt>
<pdfrwt beam="1">  1        1 0.12800991E+00 0.11078596E+04</pdfrwt>
<pdfrwt beam="2">  1       -1 0.56733442E-01 0.11078596E+04</pdfrwt>
<totfact> 0.64969898E+01</totfact>
</mgrwt>
</event>
<event>
 6    1  0.2003386E-005  0.2274378E+04  0.7818608E-02  0.8488092E-01
          2   -1    0    0  501    0  0.00000000000E+00  0.00000000000E+00  0.10747787806E+04  0.10747787806E+04  0.00000000000E+00 0. -1.
         -2   -1    0    0    0  501 -0.00000000000E+00 -0.00000000000E+00 -0.12032236809E+04  0.12032236809E+04  0.00000000000E+00 0.  1.
         23    2    1    2    0    0 -0.81442124689E+03  0.69024866285E+03 -0.45076732191E+03  0.11628267232E+04  0.96174974191E+02 0.  0.
         13    1    3    3    0    0 -0.47727426790E+03  0.40187079162E+03 -0.31451411156E+03  0.69872024897E+03  0.00000000000E+00 0. -1.
        -13    1    3    3    0    0 -0.33714697900E+03  0.28837787123E+03 -0.13625321035E+03  0.46410647420E+03  0.00000000000E+00 0.  1.
         22    1    1    2    0    0  0.81442124689E+03 -0.69024866285E+03  0.32232242164E+03  0.11151757384E+04  0.00000000000E+00 0. -1.
<mgrwt>
<rscale>  0 0.22743784E+04</rscale>
<asrwt>0</asrwt>
<pdfrwt beam="1">  1        2 0.16535058E+00 0.22743784E+04</pdfrwt>
<pdfrwt beam="2">  1       -2 0.18511134E+00 0.22743784E+04</pdfrwt>
<totfact> 0.34316687E+00</totfact>
</mgrwt>
</event>
<event>
 6    1  0.2003386E-005  0.1244150E+04  0.7818608E-02  0.9075066E-01
          2   -1    0    0  501    0  0.00000000000E+00  0.00000000000E+00  0.24445700871E+04  0.24445700871E+04  0.00000000000E+00 0.  1.
         -2   -1    0    0    0  501 -0.00000000000E+00 -0.00000000000E+00 -0.15830080411E+03  0.15830080411E+03  0.00000000000E+00 0. -1.
         23    2    1    2    0    0 -0.92161626699E+02 -0.60912952891E+03  0.11216615635E+04  0.12853566830E+04  0.12035194718E+03 0.  0.
         13    1    3    3    0    0 -0.74197052519E+02 -0.15272496344E+03  0.27024627442E+03  0.31916009446E+03  0.00000000000E+00 0. -1.
        -13    1    3    3    0    0 -0.17964574180E+02 -0.45640456547E+03  0.85141528904E+03  0.96619658855E+03  0.00000000000E+00 0.  1.
         22    1    1    2    0    0  0.92161626699E+02  0.60912952891E+03  0.11646077196E+04  0.13175142082E+04  0.00000000000E+00 0.  1.
<mgrwt>
<rscale>  0 0.12441502E+04</rscale>
<asrwt>0</asrwt>
<pdfrwt beam="1">  1        2 0.37608768E+00 0.12441502E+04</pdfrwt>
<pdfrwt beam="2">  1       -2 0.24353972E-01 0.12441502E+04</pdfrwt>
<totfact> 0.55744641E+01</totfact>
</mgrwt>
</event>
<event>
 6    1  0.2003386E-005  0.3920209E+04  0.7818608E-02  0.8020839E-01
         -2   -1    0    0    0  501 -0.00000000000E+00  0.00000000000E+00  0.17636862651E+04  0.17636862651E+04  0.00000000000E+00 0.  1.
          2   -1    0    0  501    0  0.00000000000E+00 -0.00000000000E+00 -0.21783970276E+04  0.21783970276E+04  0.00000000000E+00 0. -1.
         23    2    1    2    0    0  0.14684761861E+04 -0.38835753446E+03  0.10365814009E+04  0.18412518317E+04  0.91996866283E+02 0.  0.
         11    1    3    3    0    0  0.11850936245E+04 -0.34125574927E+03  0.81128347021E+03  0.14761718241E+04  0.00000000000E+00 0.  1.
        -11    1    3    3    0    0  0.28338256160E+03 -0.47101785192E+02  0.22529793073E+03  0.36508000764E+03  0.00000000000E+00 0. -1.
         22    1    1    2    0    0 -0.14684761861E+04  0.38835753446E+03 -0.14512921635E+04  0.21008314610E+04  0.00000000000E+00 0. -1.
<mgrwt>
<rscale>  0 0.39202086E+04</rscale>
<asrwt>0</asrwt>
<pdfrwt beam="1">  1        2 0.33513800E+00 0.39202086E+04</pdfrwt>
<pdfrwt beam="2">  1       -2 0.27133635E+00 0.39202086E+04</pdfrwt>
<totfact> 0.20055991E-01</totfact>
</mgrwt>
</event>
<event>
 6    1  0.2003386E-005  0.2584089E+04  0.7818608E-02  0.8373626E-01
         -2   -1    0    0    0  501 -0.00000000000E+00  0.00000000000E+00  0.50728702965E+03  0.50728702965E+03  0.00000000000E+00 0.  1.
          2   -1    0    0  501    0  0.00000000000E+00 -0.00000000000E+00 -0.32907983816E+04  0.32907983816E+04  0.00000000000E+00 0. -1.
         23    2    1    2    0    0 -0.12787621878E+04  0.11923721025E+03 -0.12134025876E+04  0.17696151065E+04  0.98699241762E+02 0.  0.
         11    1    3    3    0    0 -0.11267676150E+04  0.88443088981E+02 -0.11029735225E+04  0.15792333677E+04  0.00000000000E+00 0.  1.
        -11    1    3    3    0    0 -0.15199457281E+03  0.30794121271E+02 -0.11042906509E+03  0.19038173884E+03  0.00000000000E+00 0. -1.
         22    1    1    2    0    0  0.12787621878E+04 -0.11923721025E+03 -0.15701087643E+04  0.20284703047E+04  0.00000000000E+00 0. -1.
<mgrwt>
<rscale>  0 0.25840893E+04</rscale>
<asrwt>0</asrwt>
<pdfrwt beam="1">  1        2 0.50627669E+00 0.25840893E+04</pdfrwt>
<pdfrwt beam="2">  1       -2 0.78044156E-01 0.25840893E+04</pdfrwt>
<totfact> 0.14626835E+00</totfact>
</mgrwt>
</event>
<event>
 6    1  0.2003386E-005  0.1655969E+04  0.7818608E-02  0.8786883E-01
          2   -1    0    0  501    0  0.00000000000E+00  0.00000000000E+00  0.47891229477E+03  0.47891229477E+03  0.00000000000E+00 0. -1.
         -2   -1    0    0    0  501 -0.00000000000E+00 -0.00000000000E+00 -0.14314908468E+04  0.14314908468E+04  0.00000000000E+00 0.  1.
         23    2    1    2    0    0  0.24970152413E+03  0.54096918089E+03 -0.11356572504E+04  0.12870923719E+04  0.10904530067E+03 0.  0.
         13    1    3    3    0    0  0.60125322591E+02  0.85625927536E+02 -0.28750263700E+03  0.30594872146E+03  0.00000000000E+00 0.  1.
        -13    1    3    3    0    0  0.18957620154E+03  0.45534325336E+03 -0.84815461339E+03  0.98114365043E+03  0.00000000000E+00 0. -1.
         22    1    1    2    0    0 -0.24970152413E+03 -0.54096918089E+03  0.18307869834E+03  0.62331076969E+03  0.00000000000E+00 0. -1.
<mgrwt>
<rscale>  0 0.16559693E+04</rscale>
<asrwt>0</asrwt>
<pdfrwt beam="1">  1        2 0.73678814E-01 0.16559693E+04</pdfrwt>
<pdfrwt beam="2">  1       -2 0.22022936E+00 0.16559693E+04</pdfrwt>
<totfact> 0.60846389E+00</totfact>
</mgrwt>
</event>
<event>
 6    1  0.2003386E-005  0.2552750E+04  0.7818608E-02  0.8384430E-01
         -2   -1    0    0    0  501 -0.00000000000E+00  0.00000000000E+00  0.53194386020E+03  0.53194386020E+03  0.00000000000E+00 0. -1.
          2   -1    0    0  501    0  0.00000000000E+00 -0.00000000000E+00 -0.30626042949E+04  0.30626042949E+04  0.00000000000E+00 0.  1.
         23    2    1    2    0    0  0.71673493876E+03  0.10402569311E+04 -0.10269944439E+04  0.16306604630E+04  0.92154775890E+02 0.  0.
         13    1    3    3    0    0  0.50925950634E+03  0.70252997116E+03 -0.75231823105E+03  0.11484234088E+04  0.00000000000E+00 0.  1.
        -13    1    3    3    0    0  0.20747543242E+03  0.33772695995E+03 -0.27467621281E+03  0.48223705417E+03  0.00000000000E+00 0. -1.
         22    1    1    2    0    0 -0.71673493876E+03 -0.10402569311E+04 -0.15036659908E+04  0.19638876921E+04  0.00000000000E+00 0.  1.
<mgrwt>
<rscale>  0 0.25527503E+04</rscale>
<asrwt>0</asrwt>
<pdfrwt beam="1">  1        2 0.47116989E+00 0.25527503E+04</pdfrwt>
<pdfrwt beam="2">  1       -2 0.81837518E-01 0.25527503E+04</pdfrwt>
<totfact> 0.18541142E+00</totfact>
</mgrwt>
</event>
<event>
 6    1  0.2003386E-005  0.2296959E+04  0.7818608E-02  0.8479121E-01
         -2   -1    0    0    0  501 -0.00000000000E+00  0.00000000000E+00  0.62425073850E+03  0.62425073850E+03  0.00000000000E+00 0.  1.
          2   -1    0    0  501    0  0.00000000000E+00 -0.00000000000E+00 -0.21129418497E+04  0.21129418497E+04  0.00000000000E+00 0. -1.
         23    2    1    2    0    0  0.40817495593E+03 -0.65043871999E+03  0.26877612571E+03  0.81928528807E+03  0.96490695862E+02 0.  0.
         11    1    3    3    0    0  0.11944254730E+03 -0.25062027388E+03  0.13252151202E+03  0.30763451519E+03  0.00000000000E+00 0.  1.
        -11    1    3    3    0    0  0.28873240863E+03 -0.39981844611E+03  0.13625461369E+03  0.51165077288E+03  0.00000000000E+00 0. -1.
         22    1    1    2    0    0 -0.40817495593E+03  0.65043871999E+03 -0.17574672369E+04  0.19179073001E+04  0.00000000000E+00 0. -1.
<mgrwt>
<rscale>  0 0.22969593E+04</rscale>
<asrwt>0</asrwt>
<pdfrwt beam="1">  1        2 0.32506798E+00 0.22969593E+04</pdfrwt>
<pdfrwt beam="2">  1       -2 0.96038575E-01 0.22969593E+04</pdfrwt>
<totfact> 0.47607299E+00</totfact>
</mgrwt>
</event>
<event>
 6    1  0.2003386E-005  0.3800922E+04  0.7818608E-02  0.8045957E-01
         -1   -1    0    0    0  501 -0.00000000000E+00  0.00000000000E+00  0.16063260148E+04  0.16063260148E+04  0.00000000000E+00 0. -1.
          1   -1    0    0  501    0  0.00000000000E+00 -0.00000000000E+00 -0.22484553966E+04  0.22484553966E+04  0.00000000000E+00 0.  1.
         23    2    1    2    0    0 -0.13833478698E+04 -0.12573307345E+04  0.20014257512E+02  0.18716106916E+04  0.89409762951E+02 0.  0.
         11    1    3    3    0    0 -0.61273398591E+03 -0.49941396997E+03  0.20270468880E+02  0.79073898526E+03  0.00000000000E+00 0.  1.
        -11    1    3    3    0    0 -0.77061388391E+03 -0.75791676449E+03 -0.25621136770E+00  0.10808717064E+04  0.00000000000E+00 0. -1.
         22    1    1    2    0    0  0.13833478698E+04  0.12573307345E+04 -0.66214363927E+03  0.19831707198E+04  0.00000000000E+00 0. -1.
<mgrwt>
<rscale>  0 0.38009222E+04</rscale>
<asrwt>0</asrwt>
<pdfrwt beam="1">  1        1 0.34591621E+00 0.38009222E+04</pdfrwt>
<pdfrwt beam="2">  1       -1 0.24712708E+00 0.38009222E+04</pdfrwt>
<totfact> 0.11693633E-01</totfact>
</mgrwt>
</event>
<event>
 6    1  0.2003386E-005  0.3526316E+04  0.7818608E-02  0.8107582E-01
          2   -1    0    0  501    0  0.00000000000E+00  0.00000000000E+00  0.23111688578E+04  0.23111688578E+04  0.00000000000E+00 0.  1.
         -2   -1    0    0    0  501 -0.00000000000E+00 -0.00000000000E+00 -0.13450881341E+04  0.13450881341E+04  0.00000000000E+00 0. -1.
         23    2    1    2    0    0 -0.75800988714E+03 -0.95888540551E+03 -0.83248848786E+03  0.14816555528E+04  0.90696664220E+02 0.  0.
         13    1    3    3    0    0 -0.46704434212E+02 -0.67269184404E+02 -0.84563551884E+02  0.11771763527E+03  0.00000000000E+00 0.  1.
        -13    1    3    3    0    0 -0.71130545293E+03 -0.89161622111E+03 -0.74792493598E+03  0.13639379176E+04  0.00000000000E+00 0. -1.
         22    1    1    2    0    0  0.75800988714E+03  0.95888540551E+03  0.17985692116E+04  0.21746014391E+04  0.00000000000E+00 0.  1.
<mgrwt>
<rscale>  0 0.35263158E+04</rscale>
<asrwt>0</asrwt>
<pdfrwt beam="1">  1        2 0.35556444E+00 0.35263158E+04</pdfrwt>
<pdfrwt beam="2">  1       -2 0.20693664E+00 0.35263158E+04</pdfrwt>
<totfact> 0.43903326E-01</totfact>
</mgrwt>
</event>
<event>
 6    1  0.2003386E-005  0.3731570E+04  0.7818608E-02  0.8061001E-01
          2   -1    0    0  501    0  0.00000000000E+00  0.00000000000E+00  0.33857216584E+04  0.33857216584E+04  0.00000000000E+00 0. -1.
         -2   -1    0    0    0  501 -0.00000000000E+00 -0.00000000000E+00 -0.10281865558E+04  0.10281865558E+04  0.00000000000E+00 0.  1.
         23    2    1    2    0    0  0.30786688842E+03 -0.14052978193E+04  0.25826849758E+04  0.29577707044E+04  0.92205605945E+02 0.  0.
         13    1    3    3    0    0  0.18000523202E+03 -0.10101437080E+04  0.18604022249E+04  0.21245914037E+04  0.00000000000E+00 0. -1.
        -13    1    3    3    0    0  0.12786165641E+03 -0.39515411132E+03  0.72228275095E+03  0.83317930075E+03  0.00000000000E+00 0.  1.
         22    1    1    2    0    0 -0.30786688842E+03  0.14052978193E+04 -0.22514987328E+03  0.14561375098E+04  0.00000000000E+00 0.  1.
<mgrwt>
<rscale>  0 0.37315699E+04</rscale>
<asrwt>0</asrwt>
<pdfrwt beam="1">  1        2 0.52088025E+00 0.37315699E+04</pdfrwt>
<pdfrwt beam="2">  1       -2 0.15818255E+00 0.37315699E+04</pdfrwt>
<totfact> 0.20398547E-01</totfact>
</mgrwt>
</event>
<event>
 6    1  0.2003386E-005  0.5277489E+04  0.7818608E-02  0.7787071E-01
         -2   -1    0    0    0  501 -0.00000000000E+00  0.00000000000E+00  0.19946604362E+04  0.19946604362E+04  0.00000000000E+00 0.  1.
          2   -1    0    0  501    0  0.00000000000E+00 -0.00000000000E+00 -0.34908064754E+04  0.34908064754E+04  0.00000000000E+00 0. -1.
         23    2    1    2    0    0 -0.75486457619E+03  0.23188045078E+04 -0.17939773901E+04  0.30287661998E+04  0.91623923314E+02 0.  0.
         11    1    3    3    0    0 -0.21329938727E+03  0.75666389597E+03 -0.61446187173E+03  0.99779771091E+03  0.00000000000E+00 0.  1.
        -11    1    3    3    0    0 -0.54156518891E+03  0.15621406118E+04 -0.11795155184E+04  0.20309684889E+04  0.00000000000E+00 0. -1.
         22    1    1    2    0    0  0.75486457619E+03 -0.23188045078E+04  0.29783135099E+03  0.24567007118E+04  0.00000000000E+00 0. -1.
<mgrwt>
<rscale>  0 0.52774894E+04</rscale>
<asrwt>0</asrwt>
<pdfrwt beam="1">  1        2 0.53704714E+00 0.52774894E+04</pdfrwt>
<pdfrwt beam="2">  1       -2 0.30687084E+00 0.52774894E+04</pdfrwt>
<totfact> 0.16916835E-02</totfact>
</mgrwt>
</event>
<event>
 6    1  0.2003386E-005  0.2386835E+04  0.7818608E-02  0.8444449E-01
          2   -1    0    0  501    0  0.00000000000E+00  0.00000000000E+00  0.12173805752E+04  0.12173805752E+04  0.00000000000E+00 0. -1.
         -2   -1    0    0    0  501 -0.00000000000E+00 -0.00000000000E+00 -0.11699265550E+04  0.11699265550E+04  0.00000000000E+00 0.  1.
         23    2    1    2    0    0  0.77091994113E+03  0.85737958155E+03 -0.27747011677E+03  0.11893951980E+04  0.90851355856E+02 0.  0.
         13    1    3    3    0    0  0.53257872299E+03  0.58388616930E+03 -0.14684399095E+03  0.80381982593E+03  0.00000000000E+00 0. -1.
        -13    1    3    3    0    0  0.23834121814E+03  0.27349341225E+03 -0.13062612582E+03  0.38557537208E+03  0.00000000000E+00 0.  1.
         22    1    1    2    0    0 -0.77091994113E+03 -0.85737958155E+03  0.32492413693E+03  0.11979119322E+04  0.00000000000E+00 0.  1.
<mgrwt>
<rscale>  0 0.23868354E+04</rscale>
<asrwt>0</asrwt>
<pdfrwt beam="1">  1        2 0.18728932E+00 0.23868354E+04</pdfrwt>
<pdfrwt beam="2">  1       -2 0.17998870E+00 0.23868354E+04</pdfrwt>
<totfact> 0.30193161E+00</totfact>
</mgrwt>
</event>
<event>
 6    1  0.2003386E-005  0.3109377E+04  0.7818608E-02  0.8213169E-01
          2   -1    0    0  501    0  0.00000000000E+00  0.00000000000E+00  0.12773786995E+04  0.12773786995E+04  0.00000000000E+00 0. -1.
         -2   -1    0    0    0  501 -0.00000000000E+00 -0.00000000000E+00 -0.18921997946E+04  0.18921997946E+04  0.00000000000E+00 0.  1.
         23    2    1    2    0    0 -0.23275519892E+03  0.13542338736E+03 -0.18671366906E+04  0.18886378915E+04  0.90769968983E+02 0.  0.
         13    1    3    3    0    0 -0.14251183106E+03  0.89904231771E+02 -0.14339405961E+04  0.14438067827E+04  0.00000000000E+00 0. -1.
        -13    1    3    3    0    0 -0.90243367855E+02  0.45519155593E+02 -0.43319609457E+03  0.44483110876E+03  0.00000000000E+00 0.  1.
         22    1    1    2    0    0  0.23275519892E+03 -0.13542338736E+03  0.12523155955E+04  0.12809406026E+04  0.00000000000E+00 0. -1.
<mgrwt>
<rscale>  0 0.31093766E+04</rscale>
<asrwt>0</asrwt>
<pdfrwt beam="1">  1        2 0.19651980E+00 0.31093766E+04</pdfrwt>
<pdfrwt beam="2">  1       -2 0.29110766E+00 0.31093766E+04</pdfrwt>
<totfact> 0.52082884E-01</totfact>
</mgrwt>
</event>
<event>
 6    1  0.2003386E-005  0.3095036E+04  0.7818608E-02  0.8217102E-01
         -2   -1    0    0    0  501 -0.00000000000E+00  0.00000000000E+00  0.99215365084E+03  0.99215365084E+03  0.00000000000E+00 0.  1.
          2   -1    0    0  501    0  0.00000000000E+00 -0.00000000000E+00 -0.24137513396E+04  0.24137513396E+04  0.00000000000E+00 0. -1.
         23    2    1    2    0    0 -0.86379082423E+03 -0.87437860310E+03  0.31993590444E+03  0.12743300361E+04  0.10433373607E+03 0.  0.
         11    1    3    3    0    0 -0.33328104918E+02 -0.99147299823E+01  0.82755587094E+01  0.35742821937E+02  0.00000000000E+00 0.  1.
        -11    1    3    3    0    0 -0.83046271931E+03 -0.86446387312E+03  0.31166034573E+03  0.12385872142E+04  0.00000000000E+00 0. -1.
         22    1    1    2    0    0  0.86379082423E+03  0.87437860310E+03 -0.17415335932E+04  0.21315749543E+04  0.00000000000E+00 0. -1.
<mgrwt>
<rscale>  0 0.30950362E+04</rscale>
<asrwt>0</asrwt>
<pdfrwt beam="1">  1        2 0.37134636E+00 0.30950362E+04</pdfrwt>
<pdfrwt beam="2">  1       -2 0.15263902E+00 0.30950362E+04</pdfrwt>
<totfact> 0.94829695E-01</totfact>
</mgrwt>
</event>
<event>
 6    1  0.2003386E-005  0.6024393E+04  0.7818608E-02  0.7687385E-01
         -2   -1    0    0    0  501 -0.00000000000E+00  0.00000000000E+00  0.25130888391E+04  0.25130888391E+04  0.00000000000E+00 0.  1.
          2   -1    0    0  501    0  0.00000000000E+00 -0.00000000000E+00 -0.36104290844E+04  0.36104290844E+04  0.00000000000E+00 0. -1.
         23    2    1    2    0    0  0.38397197880E+03  0.22872341272E+04 -0.25013759318E+04  0.34123944218E+04  0.93164930825E+02 0.  0.
         13    1    3    3    0    0  0.20910176080E+03  0.12294430587E+04 -0.12767051396E+04  0.17847212092E+04  0.00000000000E+00 0.  1.
        -13    1    3    3    0    0  0.17487021800E+03  0.10577910685E+04 -0.12246707921E+04  0.16276732126E+04  0.00000000000E+00 0. -1.
         22    1    1    2    0    0 -0.38397197880E+03 -0.22872341272E+04  0.14040356864E+04  0.27111235018E+04  0.00000000000E+00 0.  1.
<mgrwt>
<rscale>  0 0.60243934E+04</rscale>
<asrwt>0</asrwt>
<pdfrwt beam="1">  1        2 0.55545063E+00 0.60243934E+04</pdfrwt>
<pdfrwt beam="2">  1       -2 0.38662905E+00 0.60243934E+04</pdfrwt>
<totfact> 0.41274240E-03</totfact>
</mgrwt>
</event>
<event>
 6    1  0.2003386E-005  0.2064113E+04  0.7818608E-02  0.8577219E-01
          2   -1    0    0  501    0  0.00000000000E+00  0.00000000000E+00  0.29552756922E+04  0.29552756922E+04  0.00000000000E+00 0. -1.
         -2   -1    0    0    0  501 -0.00000000000E+00 -0.00000000000E+00 -0.36041994987E+03  0.36041994987E+03  0.00000000000E+00 0.  1.
         23    2    1    2    0    0  0.25608106864E+03 -0.68899666590E+03  0.14099051377E+03  0.75410463661E+03  0.92203897140E+02 0.  0.
         13    1    3    3    0    0  0.19895006549E+03 -0.56183911743E+03  0.77909592088E+02  0.60109419143E+03  0.00000000000E+00 0.  1.
        -13    1    3    3    0    0  0.57131003152E+02 -0.12715754847E+03  0.63080921681E+02  0.15301044518E+03  0.00000000000E+00 0. -1.
         22    1    1    2    0    0 -0.25608106864E+03  0.68899666590E+03  0.24538652285E+04  0.25615910054E+04  0.00000000000E+00 0. -1.
<mgrwt>
<rscale>  0 0.20641127E+04</rscale>
<asrwt>0</asrwt>
<pdfrwt beam="1">  1        2 0.45465778E+00 0.20641127E+04</pdfrwt>
<pdfrwt beam="2">  1       -2 0.55449225E-01 0.20641127E+04</pdfrwt>
<totfact> 0.52553964E+00</totfact>
</mgrwt>
</event>
<event>
 6    1  0.2003386E-005  0.1016273E+04  0.7818608E-02  0.9290875E-01
          2   -1    0    0  501    0  0.00000000000E+00  0.00000000000E+00  0.10282578042E+04  0.10282578042E+04  0.00000000000E+00 0. -1.
         -2   -1    0    0    0  501 -0.00000000000E+00 -0.00000000000E+00 -0.25110705475E+03  0.25110705475E+03  0.00000000000E+00 0.  1.
         23    2    1    2    0    0 -0.31805427148E+01 -0.47727358717E+03  0.59326149838E+03  0.76788128197E+03  0.99409581467E+02 0.  0.
         13    1    3    3    0    0 -0.23833201257E+02 -0.87841307007E+02  0.67694265785E+02  0.11343116996E+03  0.00000000000E+00 0.  1.
        -13    1    3    3    0    0  0.20652658542E+02 -0.38943228016E+03  0.52556723259E+03  0.65445011201E+03  0.00000000000E+00 0. -1.
         22    1    1    2    0    0  0.31805427148E+01  0.47727358717E+03  0.18388925107E+03  0.51148357698E+03  0.00000000000E+00 0.  1.
<mgrwt>
<rscale>  0 0.10162732E+04</rscale>
<asrwt>0</asrwt>
<pdfrwt beam="1">  1        2 0.15819351E+00 0.10162732E+04</pdfrwt>
<pdfrwt beam="2">  1       -2 0.38631855E-01 0.10162732E+04</pdfrwt>
<totfact> 0.15243153E+02</totfact>
</mgrwt>
</event>
<event>
 6    1  0.2003386E-005  0.3514210E+04  0.7818608E-02  0.8110431E-01
         -2   -1    0    0    0  501 -0.00000000000E+00  0.00000000000E+00  0.10761722585E+04  0.10761722585E+04  0.00000000000E+00 0.  1.
          2   -1    0    0  501    0  0.00000000000E+00 -0.00000000000E+00 -0.28688883063E+04  0.28688883063E+04  0.00000000000E+00 0. -1.
         23    2    1    2    0    0  0.99952358633E+03 -0.12359372681E+04 -0.17344714802E+04  0.23544692409E+04  0.92443281862E+02 0.  0.
         11    1    3    3    0    0  0.88856456632E+03 -0.10578165678E+04 -0.14788086090E+04  0.20237089172E+04  0.00000000000E+00 0. -1.
        -11    1    3    3    0    0  0.11095902001E+03 -0.17812070027E+03 -0.25566287117E+03  0.33076032361E+03  0.00000000000E+00 0.  1.
         22    1    1    2    0    0 -0.99952358633E+03  0.12359372681E+04 -0.58244567690E+02  0.15905913240E+04  0.00000000000E+00 0.  1.
<mgrwt>
<rscale>  0 0.35142100E+04</rscale>
<asrwt>0</asrwt>
<pdfrwt beam="1">  1        2 0.44136743E+00 0.35142100E+04</pdfrwt>
<pdfrwt beam="2">  1       -2 0.16556496E+00 0.35142100E+04</pdfrwt>
<totfact> 0.39499270E-01</totfact>
</mgrwt>
</event>
<event>
 6    1  0.2003386E-005  0.3380343E+04  0.7818608E-02  0.8142748E-01
          2   -1    0    0  501    0  0.00000000000E+00  0.00000000000E+00  0.19012574588E+04  0.19012574588E+04  0.00000000000E+00 0. -1.
         -2   -1    0    0    0  501 -0.00000000000E+00 -0.00000000000E+00 -0.15025210800E+04  0.15025210800E+04  0.00000000000E+00 0.  1.
         23    2    1    2    0    0 -0.11024049047E+04  0.78102185754E+03  0.12200963698E+04  0.18226637577E+04  0.90422929505E+02 0.  0.
         13    1    3    3    0    0 -0.44506818610E+03  0.35430415693E+03  0.55551979071E+03  0.79512223196E+03  0.00000000000E+00 0. -1.
        -13    1    3    3    0    0 -0.65733671865E+03  0.42671770061E+03  0.66457657908E+03  0.10275415258E+04  0.00000000000E+00 0.  1.
         22    1    1    2    0    0  0.11024049047E+04 -0.78102185754E+03 -0.82135999107E+03  0.15811147811E+04  0.00000000000E+00 0.  1.
<mgrwt>
<rscale>  0 0.33803428E+04</rscale>
<asrwt>0</asrwt>
<pdfrwt beam="1">  1        2 0.29250115E+00 0.33803428E+04</pdfrwt>
<pdfrwt beam="2">  1       -2 0.23115709E+00 0.33803428E+04</pdfrwt>
<totfact> 0.52898592E-01</totfact>
</mgrwt>
</event>
<event>
 6    1  0.2003386E-005  0.1801938E+04  0.7818608E-02  0.8705269E-01
          2   -1    0    0  501    0  0.00000000000E+00  0.00000000000E+00  0.21137191281E+04  0.21137191281E+04  0.00000000000E+00 0. -1.
         -2   -1    0    0    0  501 -0.00000000000E+00 -0.00000000000E+00 -0.38403653245E+03  0.38403653245E+03  0.00000000000E+00 0.  1.
         23    2    1    2    0    0  0.62318536021E+03  0.64708420856E+03  0.84040852121E+03  0.12336803678E+04  0.92751287543E+02 0.  0.
         11    1    3    3    0    0  0.47196809936E+03  0.49618826754E+03  0.69201153072E+03  0.97356902288E+03  0.00000000000E+00 0.  1.
        -11    1    3    3    0    0  0.15121726085E+03  0.15089594102E+03  0.14839699049E+03  0.26011134497E+03  0.00000000000E+00 0. -1.
         22    1    1    2    0    0 -0.62318536021E+03 -0.64708420856E+03  0.88927407443E+03  0.12640752927E+04  0.00000000000E+00 0.  1.
<mgrwt>
<rscale>  0 0.18019383E+04</rscale>
<asrwt>0</asrwt>
<pdfrwt beam="1">  1        2 0.32518755E+00 0.18019383E+04</pdfrwt>
<pdfrwt beam="2">  1       -2 0.59082545E-01 0.18019383E+04</pdfrwt>
<totfact> 0.14582390E+01</totfact>
</mgrwt>
</event>
<event>
 6    1  0.2003386E-005  0.3304492E+04  0.7818608E-02  0.8161753E-01
         -2   -1    0    0    0  501 -0.00000000000E+00  0.00000000000E+00  0.94740189370E+03  0.94740189370E+03  0.00000000000E+00 0.  1.
          2   -1    0    0  501    0  0.00000000000E+00 -0.00000000000E+00 -0.28814776827E+04  0.28814776827E+04  0.00000000000E+00 0. -1.
         23    2    1    2    0    0 -0.98423468312E+03 -0.11180730550E+04 -0.14263593514E+03  0.14990594078E+04  0.89603741300E+02 0.  0.
         11    1    3    3    0    0 -0.50959087341E+03 -0.64626520902E+03 -0.80601014843E+02  0.82694504185E+03  0.00000000000E+00 0.  1.
        -11    1    3    3    0    0 -0.47464380971E+03 -0.47180784599E+03 -0.62034920295E+02  0.67211436600E+03  0.00000000000E+00 0. -1.
         22    1    1    2    0    0  0.98423468312E+03  0.11180730550E+04 -0.17914398539E+04  0.23298201686E+04  0.00000000000E+00 0. -1.
<mgrwt>
<rscale>  0 0.33044923E+04</rscale>
<asrwt>0</asrwt>
<pdfrwt beam="1">  1        2 0.44330426E+00 0.33044923E+04</pdfrwt>
<pdfrwt beam="2">  1       -2 0.14575414E+00 0.33044923E+04</pdfrwt>
<totfact> 0.55627931E-01</totfact>
</mgrwt>
</event>
<event>
 6    1  0.2003386E-005  0.2174847E+04  0.7818608E-02  0.8528971E-01
         -2   -1    0    0    0  501 -0.00000000000E+00  0.00000000000E+00  0.83199499882E+03  0.83199499882E+03  0.00000000000E+00 0.  1.
          2   -1    0    0  501    0  0.00000000000E+00 -0.00000000000E+00 -0.14212699741E+04  0.14212699741E+04  0.00000000000E+00 0. -1.
         23    2    1    2    0    0  0.66171659017E+03 -0.85152090309E+03 -0.42315044749E+03  0.11621398413E+04  0.92498732082E+02 0.  0.
         11    1    3    3    0    0  0.25093918634E+03 -0.38331856144E+03 -0.20814232240E+03  0.50321647545E+03  0.00000000000E+00 0.  1.
        -11    1    3    3    0    0  0.41077740383E+03 -0.46820234165E+03 -0.21500812509E+03  0.65892336586E+03  0.00000000000E+00 0. -1.
         22    1    1    2    0    0 -0.66171659017E+03  0.85152090309E+03 -0.16612452779E+03  0.10911251316E+04  0.00000000000E+00 0. -1.
<mgrwt>
<rscale>  0 0.21748467E+04</rscale>
<asrwt>0</asrwt>
<pdfrwt beam="1">  1        2 0.21865692E+00 0.21748467E+04</pdfrwt>
<pdfrwt beam="2">  1       -2 0.12799923E+00 0.21748467E+04</pdfrwt>
<totfact> 0.58222843E+00</totfact>
</mgrwt>
</event>
<event>
 6    1  0.2003386E-005  0.2808715E+04  0.7818608E-02  0.8300568E-01
         -2   -1    0    0    0  501 -0.00000000000E+00  0.00000000000E+00  0.94252714048E+03  0.94252714048E+03  0.00000000000E+00 0.  1.
          2   -1    0    0  501    0  0.00000000000E+00 -0.00000000000E+00 -0.20924808856E+04  0.20924808856E+04  0.00000000000E+00 0. -1.
         23    2    1    2    0    0  0.13716748765E+04 -0.18008582210E+03 -0.82675581234E+03  0.16143110936E+04  0.92478447742E+02 0.  0.
         11    1    3    3    0    0  0.11002320087E+04 -0.10958949605E+03 -0.64357798153E+03  0.12793408259E+04  0.00000000000E+00 0.  1.
        -11    1    3    3    0    0  0.27144286787E+03 -0.70496326052E+02 -0.18317783081E+03  0.33497026764E+03  0.00000000000E+00 0. -1.
         22    1    1    2    0    0 -0.13716748765E+04  0.18008582210E+03 -0.32319793275E+03  0.14206969325E+04  0.00000000000E+00 0. -1.
<mgrwt>
<rscale>  0 0.28087150E+04</rscale>
<asrwt>0</asrwt>
<pdfrwt beam="1">  1        2 0.32192013E+00 0.28087150E+04</pdfrwt>
<pdfrwt beam="2">  1       -2 0.14500418E+00 0.28087150E+04</pdfrwt>
<totfact> 0.16903844E+00</totfact>
</mgrwt>
</event>
<event>
 6    1  0.2003386E-005  0.2400077E+04  0.7818608E-02  0.8439475E-01
         -2   -1    0    0    0  501 -0.00000000000E+00  0.00000000000E+00  0.50718366554E+03  0.50718366554E+03  0.00000000000E+00 0.  1.
          2   -1    0    0  501    0  0.00000000000E+00 -0.00000000000E+00 -0.28393894338E+04  0.28393894338E+04  0.00000000000E+00 0. -1.
         23    2    1    2    0    0 -0.87676330120E+03  0.21607737262E+03 -0.22660386835E+04  0.24411552950E+04  0.94363878521E+02 0.  0.
         13    1    3    3    0    0 -0.34719054563E+03  0.40445773123E+02 -0.83615894634E+03  0.90627750666E+03  0.00000000000E+00 0. -1.
        -13    1    3    3    0    0 -0.52957275557E+03  0.17563159949E+03 -0.14298797372E+04  0.15348777883E+04  0.00000000000E+00 0.  1.
         22    1    1    2    0    0  0.87676330120E+03 -0.21607737262E+03 -0.66167084661E+02  0.90541780432E+03  0.00000000000E+00 0.  1.
<mgrwt>
<rscale>  0 0.24000766E+04</rscale>
<asrwt>0</asrwt>
<pdfrwt beam="1">  1        2 0.43682914E+00 0.24000766E+04</pdfrwt>
<pdfrwt beam="2">  1       -2 0.78028257E-01 0.24000766E+04</pdfrwt>
<totfact> 0.28775149E+00</totfact>
</mgrwt>
</event>
<event>
 6    1  0.2003386E-005  0.3863155E+04  0.7818608E-02  0.8032736E-01
          2   -1    0    0  501    0  0.00000000000E+00  0.00000000000E+00  0.28470616032E+04  0.28470616032E+04  0.00000000000E+00 0. -1.
         -2   -1    0    0    0  501 -0.00000000000E+00 -0.00000000000E+00 -0.13104707952E+04  0.13104707952E+04  0.00000000000E+00 0.  1.
         23    2    1    2    0    0 -0.17780344576E+04 -0.70424814274E+03  0.48559325556E+03  0.19753390443E+04  0.93763272025E+02 0.  0.
         13    1    3    3    0    0 -0.10200599378E+04 -0.36434445173E+03  0.24564736168E+03  0.11106807743E+04  0.00000000000E+00 0.  1.
        -13    1    3    3    0    0 -0.75797451984E+03 -0.33990369101E+03  0.23994589388E+03  0.86465827000E+03  0.00000000000E+00 0. -1.
         22    1    1    2    0    0  0.17780344576E+04  0.70424814274E+03  0.10509975524E+04  0.21821933540E+04  0.00000000000E+00 0. -1.
<mgrwt>
<rscale>  0 0.38631547E+04</rscale>
<asrwt>0</asrwt>
<pdfrwt beam="1">  1        2 0.43800948E+00 0.38631547E+04</pdfrwt>
<pdfrwt beam="2">  1       -2 0.20161089E+00 0.38631547E+04</pdfrwt>
<totfact> 0.22407777E-01</totfact>
</mgrwt>
</event>
<event>
 6    1  0.2003386E-005  0.3926361E+04  0.7818608E-02  0.8019569E-01
          2   -1    0    0  501    0  0.00000000000E+00  0.00000000000E+00  0.26398329822E+04  0.26398329822E+04  0.00000000000E+00 0. -1.
         -2   -1    0    0    0  501 -0.00000000000E+00 -0.00000000000E+00 -0.14599700708E+04  0.14599700708E+04  0.00000000000E+00 0.  1.
         23    2    1    2    0    0 -0.10786960389E+04  0.12390748672E+04  0.17105182512E+04  0.23733944222E+04  0.90756404298E+02 0.  0.
         13    1    3    3    0    0 -0.30286359790E+03  0.40982275500E+03  0.54478705852E+03  0.74597184167E+03  0.00000000000E+00 0.  1.
        -13    1    3    3    0    0 -0.77583244100E+03  0.82925211215E+03  0.11657311927E+04  0.16274225806E+04  0.00000000000E+00 0. -1.
         22    1    1    2    0    0  0.10786960389E+04 -0.12390748672E+04 -0.53065533976E+03  0.17264086308E+04  0.00000000000E+00 0.  1.
<mgrwt>
<rscale>  0 0.39263607E+04</rscale>
<asrwt>0</asrwt>
<pdfrwt beam="1">  1        2 0.40612815E+00 0.39263607E+04</pdfrwt>
<pdfrwt beam="2">  1       -2 0.22461078E+00 0.39263607E+04</pdfrwt>
<totfact> 0.21143881E-01</totfact>
</mgrwt>
</event>
<event>
 6    1  0.2003386E-005  0.3027633E+04  0.7818608E-02  0.8235884E-01
         -2   -1    0    0    0  501 -0.00000000000E+00  0.00000000000E+00  0.54164659725E+03  0.54164659725E+03  0.00000000000E+00 0.  1.
          2   -1    0    0  501    0  0.00000000000E+00 -0.00000000000E+00 -0.42308775851E+04  0.42308775851E+04  0.00000000000E+00 0. -1.
         23    2    1    2    0    0  0.97328533164E+03  0.15515382324E+03 -0.36547886154E+04  0.37863480709E+04  0.87148409349E+02 0.  0.
         13    1    3    3    0    0  0.71967275175E+03  0.13512018183E+03 -0.28314293277E+04  0.29245817429E+04  0.00000000000E+00 0. -1.
        -13    1    3    3    0    0  0.25361257989E+03  0.20033641407E+02 -0.82335928773E+03  0.86176632804E+03  0.00000000000E+00 0.  1.
         22    1    1    2    0    0 -0.97328533164E+03 -0.15515382324E+03 -0.34442372414E+02  0.98617611138E+03  0.00000000000E+00 0.  1.
<mgrwt>
<rscale>  0 0.30276330E+04</rscale>
<asrwt>0</asrwt>
<pdfrwt beam="1">  1        2 0.65090426E+00 0.30276330E+04</pdfrwt>
<pdfrwt beam="2">  1       -2 0.83330244E-01 0.30276330E+04</pdfrwt>
<totfact> 0.23507697E-01</totfact>
</mgrwt>
</event>
<event>
 6    1  0.2003386E-005  0.2750402E+04  0.7818608E-02  0.8318834E-01
          2   -1    0    0  501    0  0.00000000000E+00  0.00000000000E+00  0.13691910345E+04  0.13691910345E+04  0.00000000000E+00 0. -1.
         -2   -1    0    0    0  501 -0.00000000000E+00 -0.00000000000E+00 -0.13812370930E+04  0.13812370930E+04  0.00000000000E+00 0.  1.
         23    2    1    2    0    0 -0.37123572043E+03  0.21805939527E+03 -0.13104308360E+04  0.13825213724E+04  0.93650995557E+02 0.  0.
         11    1    3    3    0    0 -0.27850484285E+03  0.12520152349E+03 -0.99741623170E+03  0.10431104967E+04  0.00000000000E+00 0. -1.
        -11    1    3    3    0    0 -0.92730877573E+02  0.92857871786E+02 -0.31301460434E+03  0.33941087570E+03  0.00000000000E+00 0.  1.
         22    1    1    2    0    0  0.37123572043E+03 -0.21805939527E+03  0.12983847776E+04  0.13679067551E+04  0.00000000000E+00 0. -1.
<mgrwt>
<rscale>  0 0.27504017E+04</rscale>
<asrwt>0</asrwt>
<pdfrwt beam="1">  1        2 0.21064478E+00 0.27504017E+04</pdfrwt>
<pdfrwt beam="2">  1       -2 0.21249801E+00 0.27504017E+04</pdfrwt>
<totfact> 0.14532514E+00</totfact>
</mgrwt>
</event>
<event>
 6    1  0.2003386E-005  0.1641074E+04  0.7818608E-02  0.8795704E-01
          2   -1    0    0  501    0  0.00000000000E+00  0.00000000000E+00  0.10449903730E+04  0.10449903730E+04  0.00000000000E+00 0. -1.
         -2   -1    0    0    0  501 -0.00000000000E+00 -0.00000000000E+00 -0.64429417654E+03  0.64429417654E+03  0.00000000000E+00 0.  1.
         23    2    1    2    0    0 -0.59301885251E+03  0.46879698524E+03 -0.12085765854E+03  0.77088354971E+03  0.90625056007E+02 0.  0.
         13    1    3    3    0    0 -0.56130324085E+03  0.41769970854E+03 -0.97775378246E+02  0.70646613457E+03  0.00000000000E+00 0. -1.
        -13    1    3    3    0    0 -0.31715611664E+02  0.51097276703E+02 -0.23082280298E+02  0.64417415141E+02  0.00000000000E+00 0.  1.
         22    1    1    2    0    0  0.59301885251E+03 -0.46879698524E+03  0.52155385497E+03  0.91840099980E+03  0.00000000000E+00 0. -1.
<mgrwt>
<rscale>  0 0.16410743E+04</rscale>
<asrwt>0</asrwt>
<pdfrwt beam="1">  1        2 0.16076775E+00 0.16410743E+04</pdfrwt>
<pdfrwt beam="2">  1       -2 0.99122181E-01 0.16410743E+04</pdfrwt>
<totfact> 0.19014264E+01</totfact>
</mgrwt>
</event>
<event>
 6    1  0.2003386E-005  0.7718326E+03  0.7818608E-02  0.9601708E-01
         -1   -1    0    0    0  501 -0.00000000000E+00  0.00000000000E+00  0.43370016130E+03  0.43370016130E+03  0.00000000000E+00 0.  1.
          1   -1    0    0  501    0  0.00000000000E+00 -0.00000000000E+00 -0.34339714119E+03  0.34339714119E+03  0.00000000000E+00 0. -1.
         23    2    1    2    0    0  0.64121576282E+02  0.22463587980E+03 -0.25682319857E+03  0.35868426884E+03  0.90129874928E+02 0.  0.
         13    1    3    3    0    0 -0.21681285663E+02  0.72544113576E+02 -0.81054271544E+02  0.11091673227E+03  0.00000000000E+00 0. -1.
        -13    1    3    3    0    0  0.85802861945E+02  0.15209176622E+03 -0.17576892703E+03  0.24776753657E+03  0.00000000000E+00 0.  1.
         22    1    1    2    0    0 -0.64121576282E+02 -0.22463587980E+03  0.34712621867E+03  0.41841303365E+03  0.00000000000E+00 0.  1.
<mgrwt>
<rscale>  0 0.77183261E+03</rscale>
<asrwt>0</asrwt>
<pdfrwt beam="1">  1        1 0.52830330E-01 0.77183261E+03</pdfrwt>
<pdfrwt beam="2">  1       -1 0.66723101E-01 0.77183261E+03</pdfrwt>
<totfact> 0.16932887E+02</totfact>
</mgrwt>
</event>
<event>
 6    1  0.2003386E-005  0.1192919E+04  0.7818608E-02  0.9119077E-01
          2   -1    0    0  501    0  0.00000000000E+00  0.00000000000E+00  0.80956567864E+03  0.80956567864E+03  0.00000000000E+00 0. -1.
         -2   -1    0    0    0  501 -0.00000000000E+00 -0.00000000000E+00 -0.43945062329E+03  0.43945062329E+03  0.00000000000E+00 0.  1.
         23    2    1    2    0    0  0.24290826059E+03 -0.12287483712E+03  0.73759949595E+03  0.79168987285E+03  0.92828819232E+02 0.  0.
         11    1    3    3    0    0  0.98360318668E+02 -0.57084587248E+02  0.43889785012E+03  0.45339246270E+03  0.00000000000E+00 0. -1.
        -11    1    3    3    0    0  0.14454794192E+03 -0.65790249873E+02  0.29870164583E+03  0.33829741015E+03  0.00000000000E+00 0.  1.
         22    1    1    2    0    0 -0.24290826059E+03  0.12287483712E+03 -0.36748444060E+03  0.45732642909E+03  0.00000000000E+00 0.  1.
<mgrwt>
<rscale>  0 0.11929193E+04</rscale>
<asrwt>0</asrwt>
<pdfrwt beam="1">  1        2 0.12454857E+00 0.11929193E+04</pdfrwt>
<pdfrwt beam="2">  1       -2 0.67607788E-01 0.11929193E+04</pdfrwt>
<totfact> 0.67140507E+01</totfact>
</mgrwt>
</event>
<event>
 6    1  0.2003386E-005  0.4201563E+03  0.7818608E-02  0.1037015E+00
         -2   -1    0    0    0  501 -0.00000000000E+00  0.00000000000E+00  0.31020818387E+03  0.31020818387E+03  0.00000000000E+00 0.  1.
          2   -1    0    0  501    0  0.00000000000E+00 -0.00000000000E+00 -0.14226841435E+03  0.14226841435E+03  0.00000000000E+00 0. -1.
         23    2    1    2    0    0 -0.97075566164E+02  0.85692174216E+02  0.25208502570E+03  0.29805108735E+03  0.92308050698E+02 0.  0.
         11    1    3    3    0    0 -0.22830114061E+02  0.80527178661E+02  0.14911476087E+03  0.17100015357E+03  0.00000000000E+00 0. -1.
        -11    1    3    3    0    0 -0.74245452102E+02  0.51649955554E+01  0.10297026483E+03  0.12705093379E+03  0.00000000000E+00 0.  1.
         22    1    1    2    0    0  0.97075566164E+02 -0.85692174216E+02 -0.84145256174E+02  0.15442551086E+03  0.00000000000E+00 0. -1.
<mgrwt>
<rscale>  0 0.42015629E+03</rscale>
<asrwt>0</asrwt>
<pdfrwt beam="1">  1        2 0.21887448E-01 0.42015629E+03</pdfrwt>
<pdfrwt beam="2">  1       -2 0.47724336E-01 0.42015629E+03</pdfrwt>
<totfact> 0.10629943E+03</totfact>
</mgrwt>
</event>
<event>
 6    1  0.2003386E-005  0.3638881E+03  0.7818608E-02  0.1057055E+00
          2   -1    0    0  501    0  0.00000000000E+00  0.00000000000E+00  0.61784429202E+03  0.61784429202E+03  0.00000000000E+00 0. -1.
         -2   -1    0    0    0  501 -0.00000000000E+00 -0.00000000000E+00 -0.53579252554E+02  0.53579252554E+02  0.00000000000E+00 0.  1.
         23    2    1    2    0    0  0.10594116844E+03 -0.12814488912E+03  0.38063626242E+03  0.42370561721E+03  0.83653105203E+02 0.  0.
         13    1    3    3    0    0  0.87378114753E+02 -0.92182258126E+02  0.18813576563E+03  0.22699685011E+03  0.00000000000E+00 0.  1.
        -13    1    3    3    0    0  0.18563053691E+02 -0.35962630990E+02  0.19250049679E+03  0.19670876710E+03  0.00000000000E+00 0. -1.
         22    1    1    2    0    0 -0.10594116844E+03  0.12814488912E+03  0.18362877705E+03  0.24771792737E+03  0.00000000000E+00 0. -1.
<mgrwt>
<rscale>  0 0.36388809E+03</rscale>
<asrwt>0</asrwt>
<pdfrwt beam="1">  1        2 0.95052963E-01 0.36388809E+03</pdfrwt>
<pdfrwt beam="2">  1       -2 0.82429624E-02 0.36388809E+03</pdfrwt>
<totfact> 0.44174256E+03</totfact>
</mgrwt>
</event>
<event>
 6    1  0.2003386E-005  0.3991017E+04  0.7818608E-02  0.8006361E-01
          2   -1    0    0  501    0  0.00000000000E+00  0.00000000000E+00  0.36672922816E+04  0.36672922816E+04  0.00000000000E+00 0. -1.
         -2   -1    0    0    0  501 -0.00000000000E+00 -0.00000000000E+00 -0.10858292819E+04  0.10858292819E+04  0.00000000000E+00 0.  1.
         23    2    1    2    0    0  0.67475815175E+03 -0.14034478110E+04  0.27755658014E+04  0.31838414040E+04  0.90090210309E+02 0.  0.
         13    1    3    3    0    0  0.19730964768E+03 -0.37130752260E+03  0.67699090663E+03  0.79694231978E+03  0.00000000000E+00 0.  1.
        -13    1    3    3    0    0  0.47744850406E+03 -0.10321402884E+04  0.20985748948E+04  0.23868990842E+04  0.00000000000E+00 0. -1.
         22    1    1    2    0    0 -0.67475815175E+03  0.14034478110E+04 -0.19410280170E+03  0.15692801596E+04  0.00000000000E+00 0.  1.
<mgrwt>
<rscale>  0 0.39910166E+04</rscale>
<asrwt>0</asrwt>
<pdfrwt beam="1">  1        2 0.56419881E+00 0.39910166E+04</pdfrwt>
<pdfrwt beam="2">  1       -2 0.16705066E+00 0.39910166E+04</pdfrwt>
<totfact> 0.10872364E-01</totfact>
</mgrwt>
</event>
<event>
 6    1  0.2003386E-005  0.2260521E+04  0.7818608E-02  0.8493652E-01
          2   -1    0    0  501    0  0.00000000000E+00  0.00000000000E+00  0.21725782226E+04  0.21725782226E+04  0.00000000000E+00 0. -1.
         -2   -1    0    0    0  501 -0.00000000000E+00 -0.00000000000E+00 -0.58800614989E+03  0.58800614989E+03  0.00000000000E+00 0.  1.
         23    2    1    2    0    0 -0.10549076216E+04  0.39310785975E+03  0.88843549087E+03  0.14369643288E+04  0.90470887055E+02 0.  0.
         11    1    3    3    0    0 -0.26406518495E+03  0.12538556066E+03  0.27007672910E+03  0.39798668361E+03  0.00000000000E+00 0. -1.
        -11    1    3    3    0    0 -0.79084243663E+03  0.26772229909E+03  0.61835876177E+03  0.10389776452E+04  0.00000000000E+00 0.  1.
         22    1    1    2    0    0  0.10549076216E+04 -0.39310785975E+03  0.69613658187E+03  0.13236200437E+04  0.00000000000E+00 0.  1.
<mgrwt>
<rscale>  0 0.22605215E+04</rscale>
<asrwt>0</asrwt>
<pdfrwt beam="1">  1        2 0.33424280E+00 0.22605215E+04</pdfrwt>
<pdfrwt beam="2">  1       -2 0.90462485E-01 0.22605215E+04</pdfrwt>
<totfact> 0.50817077E+00</totfact>
</mgrwt>
</event>
<event>
 6    1  0.2003386E-005  0.1769203E+04  0.7818608E-02  0.8722851E-01
          2   -1    0    0  501    0  0.00000000000E+00  0.00000000000E+00  0.77111333756E+03  0.77111333756E+03  0.00000000000E+00 0. -1.
         -2   -1    0    0    0  501 -0.00000000000E+00 -0.00000000000E+00 -0.10147921290E+04  0.10147921290E+04  0.00000000000E+00 0.  1.
         23    2    1    2    0    0  0.57011085709E+03  0.31021918373E+03 -0.72557065869E+03  0.97752306761E+03  0.88522514826E+02 0.  0.
         11    1    3    3    0    0  0.26403363726E+03  0.15646213494E+03 -0.40701482403E+03  0.50975997121E+03  0.00000000000E+00 0. -1.
        -11    1    3    3    0    0  0.30607721983E+03  0.15375704879E+03 -0.31855583466E+03  0.46776309640E+03  0.00000000000E+00 0.  1.
         22    1    1    2    0    0 -0.57011085709E+03 -0.31021918373E+03  0.48189186721E+03  0.80838239900E+03  0.00000000000E+00 0. -1.
<mgrwt>
<rscale>  0 0.17692029E+04</rscale>
<asrwt>0</asrwt>
<pdfrwt beam="1">  1        2 0.11863282E+00 0.17692029E+04</pdfrwt>
<pdfrwt beam="2">  1       -2 0.15612187E+00 0.17692029E+04</pdfrwt>
<totfact> 0.92101533E+00</totfact>
</mgrwt>
</event>
<event>
 6    1  0.2003386E-005  0.7492145E+03  0.7818608E-02  0.9636584E-01
         -2   -1    0    0    0  501 -0.00000000000E+00  0.00000000000E+00  0.37217687395E+03  0.37217687395E+03  0.00000000000E+00 0.  1.
          2   -1    0    0  501    0  0.00000000000E+00 -0.00000000000E+00 -0.37705345293E+03  0.37705345293E+03  0.00000000000E+00 0. -1.
         23    2    1    2    0    0  0.25957805976E+03  0.26209198830E+03  0.77374964701E+01  0.38013400565E+03  0.91482315021E+02 0.  0.
         13    1    3    3    0    0  0.18944928300E+03  0.14986577082E+03  0.37607506547E+02  0.24446902593E+03  0.00000000000E+00 0.  1.
        -13    1    3    3    0    0  0.70128776764E+02  0.11222621748E+03 -0.29870010077E+02  0.13566497972E+03  0.00000000000E+00 0. -1.
         22    1    1    2    0    0 -0.25957805976E+03 -0.26209198830E+03 -0.12614075450E+02  0.36909632122E+03  0.00000000000E+00 0.  1.
<mgrwt>
<rscale>  0 0.74921446E+03</rscale>
<asrwt>0</asrwt>
<pdfrwt beam="1">  1        2 0.58008224E-01 0.74921446E+03</pdfrwt>
<pdfrwt beam="2">  1       -2 0.57257980E-01 0.74921446E+03</pdfrwt>
<totfact> 0.24508627E+02</totfact>
</mgrwt>
</event>
<event>
 6    1  0.2003386E-005  0.3325207E+04  0.7818608E-02  0.8156511E-01
          1   -1    0    0  501    0  0.00000000000E+00  0.00000000000E+00  0.99229070595E+03  0.99229070595E+03  0.00000000000E+00 0. -1.
         -1   -1    0    0    0  501 -0.00000000000E+00 -0.00000000000E+00 -0.27857259778E+04  0.27857259778E+04  0.00000000000E+00 0.  1.
         23    2    1    2    0    0 -0.12832566245E+04 -0.41072416075E+03 -0.20017155355E+04  0.24146302496E+04  0.90179023126E+02 0.  0.
         11    1    3    3    0    0 -0.10740797738E+04 -0.34551911015E+03 -0.17327436945E+04  0.20677116643E+04  0.00000000000E+00 0.  1.
        -11    1    3    3    0    0 -0.20917685073E+03 -0.65205050597E+02 -0.26897184109E+03  0.34691858526E+03  0.00000000000E+00 0. -1.
         22    1    1    2    0    0  0.12832566245E+04  0.41072416075E+03  0.20828026372E+03  0.13633864342E+04  0.00000000000E+00 0. -1.
<mgrwt>
<rscale>  0 0.33252068E+04</rscale>
<asrwt>0</asrwt>
<pdfrwt beam="1">  1        1 0.15266011E+00 0.33252068E+04</pdfrwt>
<pdfrwt beam="2">  1       -1 0.42857322E+00 0.33252068E+04</pdfrwt>
<totfact> 0.57734479E-02</totfact>
</mgrwt>
</event>
<event>
 6    1  0.2003386E-005  0.2902457E+04  0.7818608E-02  0.8272147E-01
         -2   -1    0    0    0  501 -0.00000000000E+00  0.00000000000E+00  0.81514601850E+03  0.81514601850E+03  0.00000000000E+00 0.  1.
          2   -1    0    0  501    0  0.00000000000E+00 -0.00000000000E+00 -0.25836652245E+04  0.25836652245E+04  0.00000000000E+00 0. -1.
         23    2    1    2    0    0 -0.11787129675E+04 -0.73426136759E+03 -0.39755543710E+03  0.14473897940E+04  0.91558039243E+02 0.  0.
         11    1    3    3    0    0 -0.10366021346E+04 -0.61197743504E+03 -0.33101708974E+03  0.12484521137E+04  0.00000000000E+00 0.  1.
        -11    1    3    3    0    0 -0.14211083294E+03 -0.12228393254E+03 -0.66538347353E+02  0.19893768036E+03  0.00000000000E+00 0. -1.
         22    1    1    2    0    0  0.11787129675E+04  0.73426136759E+03 -0.13709637689E+04  0.19514214490E+04  0.00000000000E+00 0. -1.
<mgrwt>
<rscale>  0 0.29024572E+04</rscale>
<asrwt>0</asrwt>
<pdfrwt beam="1">  1        2 0.39748695E+00 0.29024572E+04</pdfrwt>
<pdfrwt beam="2">  1       -2 0.12540708E+00 0.29024572E+04</pdfrwt>
<totfact> 0.12763836E+00</totfact>
</mgrwt>
</event>
<event>
 6    1  0.2003386E-005  0.3517656E+04  0.7818608E-02  0.8109619E-01
         -2   -1    0    0    0  501 -0.00000000000E+00  0.00000000000E+00  0.13018809794E+04  0.13018809794E+04  0.00000000000E+00 0.  1.
          2   -1    0    0  501    0  0.00000000000E+00 -0.00000000000E+00 -0.23761581176E+04  0.23761581176E+04  0.00000000000E+00 0. -1.
         23    2    1    2    0    0  0.14887704062E+04 -0.54783965380E+03  0.25390732568E+03  0.16090684401E+04  0.89814845506E+02 0.  0.
         13    1    3    3    0    0  0.59234219591E+03 -0.25052040682E+03  0.70700781676E+02  0.64701495487E+03  0.00000000000E+00 0. -1.
        -13    1    3    3    0    0  0.89642821026E+03 -0.29731924698E+03  0.18320654401E+03  0.96205348528E+03  0.00000000000E+00 0.  1.
         22    1    1    2    0    0 -0.14887704062E+04  0.54783965380E+03 -0.13281844639E+04  0.20689706568E+04  0.00000000000E+00 0. -1.
<mgrwt>
<rscale>  0 0.35176555E+04</rscale>
<asrwt>0</asrwt>
<pdfrwt beam="1">  1        2 0.36556279E+00 0.35176555E+04</pdfrwt>
<pdfrwt beam="2">  1       -2 0.20028938E+00 0.35176555E+04</pdfrwt>
<totfact> 0.44573370E-01</totfact>
</mgrwt>
</event>
<event>
 6    1  0.2003386E-005  0.6835031E+03  0.7818608E-02  0.9745868E-01
          1   -1    0    0  501    0  0.00000000000E+00  0.00000000000E+00  0.89888650820E+03  0.89888650820E+03  0.00000000000E+00 0. -1.
         -1   -1    0    0    0  501 -0.00000000000E+00 -0.00000000000E+00 -0.12993199752E+03  0.12993199752E+03  0.00000000000E+00 0.  1.
         23    2    1    2    0    0 -0.29603238461E+03  0.36812947996E+02  0.15606601921E+03  0.34718614965E+03  0.84801263430E+02 0.  0.
         11    1    3    3    0    0 -0.23564277983E+03  0.41859398103E+02  0.15760895874E+03  0.28656641948E+03  0.00000000000E+00 0.  1.
        -11    1    3    3    0    0 -0.60389604779E+02 -0.50464501071E+01 -0.15429395309E+01  0.60619730174E+02  0.00000000000E+00 0. -1.
         22    1    1    2    0    0  0.29603238461E+03 -0.36812947996E+02  0.61288849146E+03  0.68163235607E+03  0.00000000000E+00 0. -1.
<mgrwt>
<rscale>  0 0.68350309E+03</rscale>
<asrwt>0</asrwt>
<pdfrwt beam="1">  1        1 0.13829023E+00 0.68350309E+03</pdfrwt>
<pdfrwt beam="2">  1       -1 0.19989539E-01 0.68350309E+03</pdfrwt>
<totfact> 0.37770380E+02</totfact>
</mgrwt>
</event>
<event>
 6    1  0.2003386E-005  0.3645728E+04  0.7818608E-02  0.8080097E-01
         -2   -1    0    0    0  501 -0.00000000000E+00  0.00000000000E+00  0.17764483917E+04  0.17764483917E+04  0.00000000000E+00 0.  1.
          2   -1    0    0  501    0  0.00000000000E+00 -0.00000000000E+00 -0.18704928078E+04  0.18704928078E+04  0.00000000000E+00 0. -1.
         23    2    1    2    0    0 -0.11924916020E+04 -0.50992767405E+03 -0.13267497327E+04  0.18576327155E+04  0.92043462500E+02 0.  0.
         11    1    3    3    0    0 -0.72632225656E+03 -0.35843374236E+03 -0.81603935895E+03  0.11497560626E+04  0.00000000000E+00 0. -1.
        -11    1    3    3    0    0 -0.46616934543E+03 -0.15149393169E+03 -0.51071037372E+03  0.70787665294E+03  0.00000000000E+00 0.  1.
         22    1    1    2    0    0  0.11924916020E+04  0.50992767405E+03  0.12327053165E+04  0.17893084840E+04  0.00000000000E+00 0.  1.
<mgrwt>
<rscale>  0 0.36457284E+04</rscale>
<asrwt>0</asrwt>
<pdfrwt beam="1">  1        2 0.28776812E+00 0.36457284E+04</pdfrwt>
<pdfrwt beam="2">  1       -2 0.27329975E+00 0.36457284E+04</pdfrwt>
<totfact> 0.29626699E-01</totfact>
</mgrwt>
</event>
<event>
 6    1  0.2003386E-005  0.4509227E+03  0.7818608E-02  0.1027447E+00
         -2   -1    0    0    0  501 -0.00000000000E+00  0.00000000000E+00  0.21810563283E+03  0.21810563283E+03  0.00000000000E+00 0.  1.
          2   -1    0    0  501    0  0.00000000000E+00 -0.00000000000E+00 -0.23306515907E+03  0.23306515907E+03  0.00000000000E+00 0. -1.
         23    2    1    2    0    0  0.44295039145E+02  0.14224417584E+03 -0.16472806218E+03  0.23992195661E+03  0.90729018183E+02 0.  0.
         13    1    3    3    0    0 -0.70881665989E+00  0.55382866585E+02 -0.12038164010E+03  0.13251227719E+03  0.00000000000E+00 0.  1.
        -13    1    3    3    0    0  0.45003855805E+02  0.86861309253E+02 -0.44346422087E+02  0.10740967943E+03  0.00000000000E+00 0. -1.
         22    1    1    2    0    0 -0.44295039145E+02 -0.14224417584E+03  0.14976853594E+03  0.21124883529E+03  0.00000000000E+00 0.  1.
<mgrwt>
<rscale>  0 0.45092272E+03</rscale>
<asrwt>0</asrwt>
<pdfrwt beam="1">  1        2 0.35856178E-01 0.45092272E+03</pdfrwt>
<pdfrwt beam="2">  1       -2 0.33554713E-01 0.45092272E+03</pdfrwt>
<totfact> 0.12060921E+03</totfact>
</mgrwt>
</event>
<event>
 6    1  0.2003386E-005  0.3967190E+04  0.7818608E-02  0.8011198E-01
         -2   -1    0    0    0  501 -0.00000000000E+00  0.00000000000E+00  0.27774599232E+04  0.27774599232E+04  0.00000000000E+00 0.  1.
          2   -1    0    0  501    0  0.00000000000E+00 -0.00000000000E+00 -0.14166355187E+04  0.14166355187E+04  0.00000000000E+00 0. -1.
         23    2    1    2    0    0  0.13047505980E+04  0.43499813856E+03  0.21899410404E+04  0.25881589863E+04  0.10548779456E+03 0.  0.
         11    1    3    3    0    0  0.23709753449E+03  0.38305705897E+02  0.40043825440E+03  0.46694042827E+03  0.00000000000E+00 0.  1.
        -11    1    3    3    0    0  0.10676530635E+04  0.39669243267E+03  0.17895027860E+04  0.21212185581E+04  0.00000000000E+00 0. -1.
         22    1    1    2    0    0 -0.13047505980E+04 -0.43499813856E+03 -0.82911663583E+03  0.16059364556E+04  0.00000000000E+00 0. -1.
<mgrwt>
<rscale>  0 0.39671896E+04</rscale>
<asrwt>0</asrwt>
<pdfrwt beam="1">  1        2 0.21794393E+00 0.39671896E+04</pdfrwt>
<pdfrwt beam="2">  1       -2 0.42730153E+00 0.39671896E+04</pdfrwt>
<totfact> 0.54915294E-02</totfact>
</mgrwt>
</event>
<event>
 6    1  0.2003386E-005  0.2166291E+04  0.7818608E-02  0.8532591E-01
         -1   -1    0    0    0  501 -0.00000000000E+00  0.00000000000E+00  0.16917802457E+04  0.16917802457E+04  0.00000000000E+00 0.  1.
          1   -1    0    0  501    0  0.00000000000E+00 -0.00000000000E+00 -0.69347314931E+03  0.69347314931E+03  0.00000000000E+00 0. -1.
         23    2    1    2    0    0 -0.19254764386E+03  0.88074980161E+03 -0.15718323781E+03  0.91966384791E+03  0.90995685123E+02 0.  0.
         13    1    3    3    0    0 -0.10684300349E+03  0.28930763578E+03 -0.60182998815E+02  0.31422337415E+03  0.00000000000E+00 0.  1.
        -13    1    3    3    0    0 -0.85704640370E+02  0.59144216582E+03 -0.97000238994E+02  0.60544047375E+03  0.00000000000E+00 0. -1.
         22    1    1    2    0    0  0.19254764386E+03 -0.88074980161E+03  0.11554903342E+04  0.14655895471E+04  0.00000000000E+00 0.  1.
<mgrwt>
<rscale>  0 0.21662910E+04</rscale>
<asrwt>0</asrwt>
<pdfrwt beam="1">  1        1 0.10668818E+00 0.21662910E+04</pdfrwt>
<pdfrwt beam="2">  1       -1 0.26027388E+00 0.21662910E+04</pdfrwt>
<totfact> 0.15100339E+00</totfact>
</mgrwt>
</event>
<event>
 6    1  0.2003386E-005  0.2747486E+04  0.7818608E-02  0.8319760E-01
          2   -1    0    0  501    0  0.00000000000E+00  0.00000000000E+00  0.14609884420E+04  0.14609884420E+04  0.00000000000E+00 0. -1.
         -2   -1    0    0    0  501 -0.00000000000E+00 -0.00000000000E+00 -0.12917079148E+04  0.12917079148E+04  0.00000000000E+00 0.  1.
         23    2    1    2    0    0 -0.16712135220E+02 -0.82649366092E+03 -0.10125928622E+04  0.13104079752E+04  0.91943949255E+02 0.  0.
         11    1    3    3    0    0  0.28738905982E+02 -0.47711987732E+03 -0.62098362272E+03  0.78363892307E+03  0.00000000000E+00 0.  1.
        -11    1    3    3    0    0 -0.45451041202E+02 -0.34937378360E+03 -0.39160923952E+03  0.52676905214E+03  0.00000000000E+00 0. -1.
         22    1    1    2    0    0  0.16712135220E+02  0.82649366092E+03  0.11818733894E+04  0.14422883816E+04  0.00000000000E+00 0. -1.
<mgrwt>
<rscale>  0 0.27474864E+04</rscale>
<asrwt>0</asrwt>
<pdfrwt beam="1">  1        2 0.22476745E+00 0.27474864E+04</pdfrwt>
<pdfrwt beam="2">  1       -2 0.19872430E+00 0.27474864E+04</pdfrwt>
<totfact> 0.15828897E+00</totfact>
</mgrwt>
</event>
<event>
 6    1  0.2003386E-005  0.2864368E+04  0.7818608E-02  0.8283559E-01
          2   -1    0    0  501    0  0.00000000000E+00  0.00000000000E+00  0.11498589984E+04  0.11498589984E+04  0.00000000000E+00 0. -1.
         -2   -1    0    0    0  501 -0.00000000000E+00 -0.00000000000E+00 -0.17838288230E+04  0.17838288230E+04  0.00000000000E+00 0.  1.
         23    2    1    2    0    0  0.12226488511E+04 -0.61675611061E+03  0.10706376780E+03  0.13766428323E+04  0.91785207661E+02 0.  0.
         11    1    3    3    0    0  0.59168286858E+03 -0.34824024713E+03  0.42061306615E+02  0.68784376148E+03  0.00000000000E+00 0.  1.
        -11    1    3    3    0    0  0.63096598250E+03 -0.26851586348E+03  0.65002461182E+02  0.68879907083E+03  0.00000000000E+00 0. -1.
         22    1    1    2    0    0 -0.12226488511E+04  0.61675611061E+03 -0.74103359237E+03  0.15570449891E+04  0.00000000000E+00 0.  1.
<mgrwt>
<rscale>  0 0.28643684E+04</rscale>
<asrwt>0</asrwt>
<pdfrwt beam="1">  1        2 0.17690138E+00 0.28643684E+04</pdfrwt>
<pdfrwt beam="2">  1       -2 0.27443520E+00 0.28643684E+04</pdfrwt>
<totfact> 0.80037809E-01</totfact>
</mgrwt>
</event>
<event>
 6    1  0.2003386E-005  0.3647215E+04  0.7818608E-02  0.8079761E-01
          2   -1    0    0  501    0  0.00000000000E+00  0.00000000000E+00  0.23049017585E+04  0.23049017585E+04  0.00000000000E+00 0. -1.
         -2   -1    0    0    0  501 -0.00000000000E+00 -0.00000000000E+00 -0.14428135714E+04  0.14428135714E+04  0.00000000000E+00 0.  1.
         23    2    1    2    0    0  0.13521841886E+04  0.71795195164E+03 -0.58461873734E+03  0.16413397675E+04  0.91433471329E+02 0.  0.
         11    1    3    3    0    0  0.61655494535E+03  0.34455322291E+03 -0.31572046120E+03  0.77365129980E+03  0.00000000000E+00 0.  1.
        -11    1    3    3    0    0  0.73562924321E+03  0.37339872872E+03 -0.26889827615E+03  0.86768846771E+03  0.00000000000E+00 0. -1.
         22    1    1    2    0    0 -0.13521841886E+04 -0.71795195164E+03  0.14467069245E+04  0.21063755624E+04  0.00000000000E+00 0. -1.
<mgrwt>
<rscale>  0 0.36472146E+04</rscale>
<asrwt>0</asrwt>
<pdfrwt beam="1">  1        2 0.35460027E+00 0.36472146E+04</pdfrwt>
<pdfrwt beam="2">  1       -2 0.22197132E+00 0.36472146E+04</pdfrwt>
<totfact> 0.35123898E-01</totfact>
</mgrwt>
</event>
<event>
 6    1  0.2003386E-005  0.3670604E+04  0.7818608E-02  0.8074508E-01
          1   -1    0    0  501    0  0.00000000000E+00  0.00000000000E+00  0.23222479857E+04  0.23222479857E+04  0.00000000000E+00 0. -1.
         -1   -1    0    0    0  501 -0.00000000000E+00 -0.00000000000E+00 -0.14504624323E+04  0.14504624323E+04  0.00000000000E+00 0.  1.
         23    2    1    2    0    0 -0.52897669965E+03 -0.53196357764E+03 -0.12840816244E+04  0.14900442388E+04  0.92545225044E+02 0.  0.
         11    1    3    3    0    0 -0.25223383116E+03 -0.28808323137E+03 -0.57625698683E+03  0.69187135267E+03  0.00000000000E+00 0. -1.
        -11    1    3    3    0    0 -0.27674286848E+03 -0.24388034626E+03 -0.70782463762E+03  0.79817288614E+03  0.00000000000E+00 0.  1.
         22    1    1    2    0    0  0.52897669965E+03  0.53196357764E+03  0.21558671779E+04  0.22826661792E+04  0.00000000000E+00 0. -1.
<mgrwt>
<rscale>  0 0.36706040E+04</rscale>
<asrwt>0</asrwt>
<pdfrwt beam="1">  1        1 0.35726892E+00 0.36706040E+04</pdfrwt>
<pdfrwt beam="2">  1       -1 0.22314807E+00 0.36706040E+04</pdfrwt>
<totfact> 0.15152356E-01</totfact>
</mgrwt>
</event>
<event>
 6    1  0.2003386E-005  0.6414853E+03  0.7818608E-02  0.9822889E-01
         -2   -1    0    0    0  501 -0.00000000000E+00  0.00000000000E+00  0.46016919110E+02  0.46016919110E+02  0.00000000000E+00 0.  1.
          2   -1    0    0  501    0  0.00000000000E+00 -0.00000000000E+00 -0.22356088988E+04  0.22356088988E+04  0.00000000000E+00 0. -1.
         23    2    1    2    0    0 -0.13127597628E+03 -0.10986399328E+03 -0.20543934942E+04  0.20634925801E+04  0.90363267532E+02 0.  0.
         11    1    3    3    0    0 -0.10987779209E+03 -0.11993884340E+03 -0.19319661479E+04  0.19388016020E+04  0.00000000000E+00 0. -1.
        -11    1    3    3    0    0 -0.21398184181E+02  0.10074850122E+02 -0.12242734626E+03  0.12469097803E+03  0.00000000000E+00 0.  1.
         22    1    1    2    0    0  0.13127597628E+03  0.10986399328E+03 -0.13519848551E+03  0.21813323784E+03  0.00000000000E+00 0.  1.
<mgrwt>
<rscale>  0 0.64148526E+03</rscale>
<asrwt>0</asrwt>
<pdfrwt beam="1">  1        2 0.34393979E+00 0.64148526E+03</pdfrwt>
<pdfrwt beam="2">  1       -2 0.70795269E-02 0.64148526E+03</pdfrwt>
<totfact> 0.61217827E+02</totfact>
</mgrwt>
</event>
<event>
 6    1  0.2003386E-005  0.2013275E+04  0.7818608E-02  0.8600439E-01
          2   -1    0    0  501    0  0.00000000000E+00  0.00000000000E+00  0.79611854926E+03  0.79611854926E+03  0.00000000000E+00 0. -1.
         -2   -1    0    0    0  501 -0.00000000000E+00 -0.00000000000E+00 -0.12728244459E+04  0.12728244459E+04  0.00000000000E+00 0.  1.
         23    2    1    2    0    0  0.52094007842E+03 -0.24025801335E+02 -0.11211844273E+04  0.12399023563E+04  0.91364810894E+02 0.  0.
         11    1    3    3    0    0  0.27228848223E+03 -0.40897122012E+01 -0.47942407745E+03  0.55136665599E+03  0.00000000000E+00 0. -1.
        -11    1    3    3    0    0  0.24865159618E+03 -0.19936089134E+02 -0.64176034988E+03  0.68853570032E+03  0.00000000000E+00 0.  1.
         22    1    1    2    0    0 -0.52094007842E+03  0.24025801335E+02  0.64447853066E+03  0.82904063888E+03  0.00000000000E+00 0. -1.
<mgrwt>
<rscale>  0 0.20132751E+04</rscale>
<asrwt>0</asrwt>
<pdfrwt beam="1">  1        2 0.12247978E+00 0.20132751E+04</pdfrwt>
<pdfrwt beam="2">  1       -2 0.19581914E+00 0.20132751E+04</pdfrwt>
<totfact> 0.45579416E+00</totfact>
</mgrwt>
</event>
<event>
 6    1  0.2782292E-005  0.2740058E+04  0.7818608E-02  0.8322123E-01
          2   -1    0    0  501    0  0.00000000000E+00  0.00000000000E+00  0.16418946679E+04  0.16418946679E+04  0.00000000000E+00 0. -1.
         -2   -1    0    0    0  501 -0.00000000000E+00 -0.00000000000E+00 -0.11431792229E+04  0.11431792229E+04  0.00000000000E+00 0.  1.
         23    2    1    2    0    0 -0.65586734668E+03  0.66295987236E+02 -0.96944093912E+03  0.11757136756E+04  0.89049301555E+02 0.  0.
         13    1    3    3    0    0 -0.26658048735E+03  0.63087505051E+02 -0.44524067912E+03  0.52276615410E+03  0.00000000000E+00 0.  1.
        -13    1    3    3    0    0 -0.38928685933E+03  0.32084821845E+01 -0.52420026000E+03  0.65294752146E+03  0.00000000000E+00 0. -1.
         22    1    1    2    0    0  0.65586734668E+03 -0.66295987236E+02  0.14681563841E+04  0.16093602153E+04  0.00000000000E+00 0. -1.
<mgrwt>
<rscale>  0 0.27400583E+04</rscale>
<asrwt>0</asrwt>
<pdfrwt beam="1">  1        2 0.25259918E+00 0.27400583E+04</pdfrwt>
<pdfrwt beam="2">  1       -2 0.17587373E+00 0.27400583E+04</pdfrwt>
<totfact> 0.17902118E+00</totfact>
</mgrwt>
</event>
<event>
 6    1  0.2003386E-005  0.2689924E+04  0.7818608E-02  0.8338282E-01
         -1   -1    0    0    0  501 -0.00000000000E+00  0.00000000000E+00  0.94727166301E+03  0.94727166301E+03  0.00000000000E+00 0.  1.
          1   -1    0    0  501    0  0.00000000000E+00 -0.00000000000E+00 -0.19096142330E+04  0.19096142330E+04  0.00000000000E+00 0. -1.
         23    2    1    2    0    0  0.36755237770E+03 -0.33064401185E+03  0.84494708243E+03  0.98319539311E+03  0.91199758759E+02 0.  0.
         13    1    3    3    0    0  0.41340543947E+02 -0.54463999022E+01  0.81773812886E+02  0.91791395673E+02  0.00000000000E+00 0. -1.
        -13    1    3    3    0    0  0.32621183375E+03 -0.32519761195E+03  0.76317326954E+03  0.89140399743E+03  0.00000000000E+00 0.  1.
         22    1    1    2    0    0 -0.36755237770E+03  0.33064401185E+03 -0.18072896525E+04  0.18736905029E+04  0.00000000000E+00 0. -1.
<mgrwt>
<rscale>  0 0.26899245E+04</rscale>
<asrwt>0</asrwt>
<pdfrwt beam="1">  1        1 0.29378680E+00 0.26899245E+04</pdfrwt>
<pdfrwt beam="2">  1       -1 0.14573410E+00 0.26899245E+04</pdfrwt>
<totfact> 0.11306017E+00</totfact>
</mgrwt>
</event>
<event>
 6    1  0.2003386E-005  0.2717305E+04  0.7818608E-02  0.8329412E-01
          2   -1    0    0  501    0  0.00000000000E+00  0.00000000000E+00  0.15408647957E+04  0.15408647957E+04  0.00000000000E+00 0. -1.
         -2   -1    0    0    0  501 -0.00000000000E+00 -0.00000000000E+00 -0.11979878224E+04  0.11979878224E+04  0.00000000000E+00 0.  1.
         23    2    1    2    0    0  0.96215236133E+03 -0.71064922833E+03  0.81788338809E+03  0.14518442318E+04  0.90326877629E+02 0.  0.
         11    1    3    3    0    0  0.76289030025E+03 -0.58536717525E+03  0.61807682980E+03  0.11430989929E+04  0.00000000000E+00 0.  1.
        -11    1    3    3    0    0  0.19926206109E+03 -0.12528205308E+03  0.19980655829E+03  0.30874523891E+03  0.00000000000E+00 0. -1.
         22    1    1    2    0    0 -0.96215236133E+03  0.71064922833E+03 -0.47500641489E+03  0.12870083863E+04  0.00000000000E+00 0.  1.
<mgrwt>
<rscale>  0 0.27173055E+04</rscale>
<asrwt>0</asrwt>
<pdfrwt beam="1">  1        2 0.23705612E+00 0.27173055E+04</pdfrwt>
<pdfrwt beam="2">  1       -2 0.18430582E+00 0.27173055E+04</pdfrwt>
<totfact> 0.17865757E+00</totfact>
</mgrwt>
</event>
<event>
 6    1  0.2003386E-005  0.5677160E+03  0.7818608E-02  0.9974746E-01
          2   -1    0    0  501    0  0.00000000000E+00  0.00000000000E+00  0.86769790863E+02  0.86769790863E+02  0.00000000000E+00 0. -1.
         -2   -1    0    0    0  501 -0.00000000000E+00 -0.00000000000E+00 -0.92861082204E+03  0.92861082204E+03  0.00000000000E+00 0.  1.
         23    2    1    2    0    0 -0.17733243992E+03 -0.18540662124E+03 -0.61545843187E+03  0.67322349882E+03  0.92835276445E+02 0.  0.
         13    1    3    3    0    0  0.33202329728E+01 -0.58997117879E+01 -0.80010019933E+02  0.80295914191E+02  0.00000000000E+00 0.  1.
        -13    1    3    3    0    0 -0.18065267290E+03 -0.17950690945E+03 -0.53544841193E+03  0.59292758462E+03  0.00000000000E+00 0. -1.
         22    1    1    2    0    0  0.17733243992E+03  0.18540662124E+03 -0.22638259931E+03  0.34215711408E+03  0.00000000000E+00 0. -1.
<mgrwt>
<rscale>  0 0.56771601E+03</rscale>
<asrwt>0</asrwt>
<pdfrwt beam="1">  1        2 0.13349198E-01 0.56771601E+03</pdfrwt>
<pdfrwt beam="2">  1       -2 0.14286321E+00 0.56771601E+03</pdfrwt>
<totfact> 0.16018532E+02</totfact>
</mgrwt>
</event>
<event>
 6    1  0.2003386E-005  0.9435239E+03  0.7818608E-02  0.9372752E-01
         -2   -1    0    0    0  501 -0.00000000000E+00  0.00000000000E+00  0.86857730525E+02  0.86857730525E+02  0.00000000000E+00 0.  1.
          2   -1    0    0  501    0  0.00000000000E+00 -0.00000000000E+00 -0.25623431914E+04  0.25623431914E+04  0.00000000000E+00 0. -1.
         23    2    1    2    0    0  0.98978806559E+02  0.44884388138E+03 -0.10122826180E+04  0.11155059739E+04  0.91541494697E+02 0.  0.
         13    1    3    3    0    0  0.11081317709E+03  0.35492089202E+03 -0.84732327233E+03  0.92531352937E+03  0.00000000000E+00 0.  1.
        -13    1    3    3    0    0 -0.11834370534E+02  0.93922989360E+02 -0.16495934565E+03  0.19019244457E+03  0.00000000000E+00 0. -1.
         22    1    1    2    0    0 -0.98978806559E+02 -0.44884388138E+03 -0.14632028429E+04  0.15336949480E+04  0.00000000000E+00 0. -1.
<mgrwt>
<rscale>  0 0.94352385E+03</rscale>
<asrwt>0</asrwt>
<pdfrwt beam="1">  1        2 0.39420658E+00 0.94352385E+03</pdfrwt>
<pdfrwt beam="2">  1       -2 0.13362730E-01 0.94352385E+03</pdfrwt>
<totfact> 0.13901840E+02</totfact>
</mgrwt>
</event>
<event>
 6    1  0.2003386E-005  0.2624770E+04  0.7818608E-02  0.8359836E-01
         -2   -1    0    0    0  501 -0.00000000000E+00  0.00000000000E+00  0.13204631330E+04  0.13204631330E+04  0.00000000000E+00 0.  1.
          2   -1    0    0  501    0  0.00000000000E+00 -0.00000000000E+00 -0.13043563505E+04  0.13043563505E+04  0.00000000000E+00 0. -1.
         23    2    1    2    0    0  0.81837428689E+03  0.10224131090E+04 -0.51008574317E+02  0.13134959117E+04  0.87204337208E+02 0.  0.
         13    1    3    3    0    0  0.53140723045E+03  0.59647461562E+03 -0.37028238207E+02  0.79971663862E+03  0.00000000000E+00 0. -1.
        -13    1    3    3    0    0  0.28696705644E+03  0.42593849339E+03 -0.13980336110E+02  0.51377927307E+03  0.00000000000E+00 0.  1.
         22    1    1    2    0    0 -0.81837428689E+03 -0.10224131090E+04  0.67115356882E+02  0.13113235718E+04  0.00000000000E+00 0. -1.
<mgrwt>
<rscale>  0 0.26247701E+04</rscale>
<asrwt>0</asrwt>
<pdfrwt beam="1">  1        2 0.20067021E+00 0.26247701E+04</pdfrwt>
<pdfrwt beam="2">  1       -2 0.20314817E+00 0.26247701E+04</pdfrwt>
<totfact> 0.18401714E+00</totfact>
</mgrwt>
</event>
<event>
 6    1  0.2003386E-005  0.3597994E+04  0.7818608E-02  0.8090951E-01
         -2   -1    0    0    0  501 -0.00000000000E+00  0.00000000000E+00  0.14618514317E+04  0.14618514317E+04  0.00000000000E+00 0.  1.
          2   -1    0    0  501    0  0.00000000000E+00 -0.00000000000E+00 -0.22138987787E+04  0.22138987787E+04  0.00000000000E+00 0. -1.
         23    2    1    2    0    0  0.23292322637E+03 -0.13779438001E+04  0.77924692061E+03  0.16026258824E+04  0.90562742004E+02 0.  0.
         11    1    3    3    0    0  0.89020427521E+01 -0.24370292908E+03  0.12125903901E+03  0.27234925840E+03  0.00000000000E+00 0. -1.
        -11    1    3    3    0    0  0.22402118362E+03 -0.11342408710E+04  0.65798788160E+03  0.13302766240E+04  0.00000000000E+00 0.  1.
         22    1    1    2    0    0 -0.23292322637E+03  0.13779438001E+04 -0.15312942676E+04  0.20731243280E+04  0.00000000000E+00 0. -1.
<mgrwt>
<rscale>  0 0.35979945E+04</rscale>
<asrwt>0</asrwt>
<pdfrwt beam="1">  1        2 0.34059981E+00 0.35979945E+04</pdfrwt>
<pdfrwt beam="2">  1       -2 0.22490022E+00 0.35979945E+04</pdfrwt>
<totfact> 0.38051141E-01</totfact>
</mgrwt>
</event>
<event>
 6    1  0.2003386E-005  0.5254162E+04  0.7818608E-02  0.7790453E-01
          2   -1    0    0  501    0  0.00000000000E+00  0.00000000000E+00  0.42875350954E+04  0.42875350954E+04  0.00000000000E+00 0. -1.
         -2   -1    0    0    0  501 -0.00000000000E+00 -0.00000000000E+00 -0.16096789338E+04  0.16096789338E+04  0.00000000000E+00 0.  1.
         23    2    1    2    0    0  0.76231256840E+03 -0.57210880572E+03 -0.14073816408E+04  0.17022650618E+04  0.92489569672E+02 0.  0.
         11    1    3    3    0    0  0.32404000041E+03 -0.24926236897E+03 -0.52363902444E+03  0.66432783952E+03  0.00000000000E+00 0. -1.
        -11    1    3    3    0    0  0.43827256799E+03 -0.32284643675E+03 -0.88374261631E+03  0.10379372223E+04  0.00000000000E+00 0.  1.
         22    1    1    2    0    0 -0.76231256840E+03  0.57210880572E+03  0.40852378023E+04  0.41949489674E+04  0.00000000000E+00 0. -1.
<mgrwt>
<rscale>  0 0.52541621E+04</rscale>
<asrwt>0</asrwt>
<pdfrwt beam="1">  1        2 0.65962078E+00 0.52541621E+04</pdfrwt>
<pdfrwt beam="2">  1       -2 0.24764292E+00 0.52541621E+04</pdfrwt>
<totfact> 0.91580697E-03</totfact>
</mgrwt>
</event>
<event>
 6    1  0.2003386E-005  0.1089025E+04  0.7818608E-02  0.9215955E-01
          2   -1    0    0  501    0  0.00000000000E+00  0.00000000000E+00  0.10172067329E+04  0.10172067329E+04  0.00000000000E+00 0. -1.
         -2   -1    0    0    0  501 -0.00000000000E+00 -0.00000000000E+00 -0.29147867378E+03  0.29147867378E+03  0.00000000000E+00 0.  1.
         23    2    1    2    0    0  0.84041642261E+02 -0.14378116075E+03  0.98352167380E+03  0.10017757007E+04  0.92215247714E+02 0.  0.
         11    1    3    3    0    0  0.76066906470E+02 -0.46387930400E+02  0.37368446118E+03  0.38415893960E+03  0.00000000000E+00 0. -1.
        -11    1    3    3    0    0  0.79747357913E+01 -0.97393230348E+02  0.60983721262E+03  0.61761676113E+03  0.00000000000E+00 0.  1.
         22    1    1    2    0    0 -0.84041642261E+02  0.14378116075E+03 -0.25779361470E+03  0.30690970594E+03  0.00000000000E+00 0.  1.
<mgrwt>
<rscale>  0 0.10890254E+04</rscale>
<asrwt>0</asrwt>
<pdfrwt beam="1">  1        2 0.15649334E+00 0.10890254E+04</pdfrwt>
<pdfrwt beam="2">  1       -2 0.44842873E-01 0.10890254E+04</pdfrwt>
<totfact> 0.11500359E+02</totfact>
</mgrwt>
</event>
<event>
 6    1  0.2003386E-005  0.3653171E+04  0.7818608E-02  0.8078420E-01
         -2   -1    0    0    0  501 -0.00000000000E+00  0.00000000000E+00  0.14997419392E+04  0.14997419392E+04  0.00000000000E+00 0.  1.
          2   -1    0    0  501    0  0.00000000000E+00 -0.00000000000E+00 -0.22246585286E+04  0.22246585286E+04  0.00000000000E+00 0. -1.
         23    2    1    2    0    0 -0.13221186261E+04  0.33724403535E+03  0.87416500678E+03  0.16223079027E+04  0.77377460046E+02 0.  0.
         13    1    3    3    0    0 -0.27178722424E+03  0.43886888002E+02  0.19889185334E+03  0.33963557458E+03  0.00000000000E+00 0. -1.
        -13    1    3    3    0    0 -0.10503314019E+04  0.29335714735E+03  0.67527315344E+03  0.12826723282E+04  0.00000000000E+00 0.  1.
         22    1    1    2    0    0  0.13221186261E+04 -0.33724403535E+03 -0.15990815961E+04  0.21020925650E+04  0.00000000000E+00 0. -1.
<mgrwt>
<rscale>  0 0.36531705E+04</rscale>
<asrwt>0</asrwt>
<pdfrwt beam="1">  1        2 0.34225516E+00 0.36531705E+04</pdfrwt>
<pdfrwt beam="2">  1       -2 0.23072953E+00 0.36531705E+04</pdfrwt>
<totfact> 0.34338156E-01</totfact>
</mgrwt>
</event>
<event>
 6    1  0.2003386E-005  0.2696088E+04  0.7818608E-02  0.8336276E-01
          2   -1    0    0  501    0  0.00000000000E+00  0.00000000000E+00  0.92286033128E+03  0.92286033128E+03  0.00000000000E+00 0. -1.
         -2   -1    0    0    0  501 -0.00000000000E+00 -0.00000000000E+00 -0.19691192045E+04  0.19691192045E+04  0.00000000000E+00 0.  1.
         23    2    1    2    0    0 -0.99812839325E+03  0.44836327151E+03  0.31808223678E+03  0.11430608478E+04  0.90121472642E+02 0.  0.
         13    1    3    3    0    0 -0.47673976644E+03  0.23149267963E+03  0.11012259661E+03  0.54129165143E+03  0.00000000000E+00 0. -1.
        -13    1    3    3    0    0 -0.52138862680E+03  0.21687059188E+03  0.20795964017E+03  0.60176919639E+03  0.00000000000E+00 0.  1.
         22    1    1    2    0    0  0.99812839325E+03 -0.44836327151E+03 -0.13643411100E+04  0.17489186880E+04  0.00000000000E+00 0.  1.
<mgrwt>
<rscale>  0 0.26960875E+04</rscale>
<asrwt>0</asrwt>
<pdfrwt beam="1">  1        2 0.14197851E+00 0.26960875E+04</pdfrwt>
<pdfrwt beam="2">  1       -2 0.30294141E+00 0.26960875E+04</pdfrwt>
<totfact> 0.75731813E-01</totfact>
</mgrwt>
</event>
<event>
 6    1  0.2003386E-005  0.1891782E+04  0.7818608E-02  0.8658958E-01
         -2   -1    0    0    0  501 -0.00000000000E+00  0.00000000000E+00  0.27182679794E+03  0.27182679794E+03  0.00000000000E+00 0.  1.
          2   -1    0    0  501    0  0.00000000000E+00 -0.00000000000E+00 -0.32914704418E+04  0.32914704418E+04  0.00000000000E+00 0. -1.
         23    2    1    2    0    0  0.73326903521E+03 -0.29705558108E+03 -0.24818742703E+04  0.26066774640E+04  0.95613866296E+02 0.  0.
         13    1    3    3    0    0  0.29502704443E+03 -0.13377082834E+03 -0.11662178896E+04  0.12103717435E+04  0.00000000000E+00 0. -1.
        -13    1    3    3    0    0  0.43824199079E+03 -0.16328475273E+03 -0.13156563807E+04  0.13963057204E+04  0.00000000000E+00 0.  1.
         22    1    1    2    0    0 -0.73326903521E+03  0.29705558108E+03 -0.53776937358E+03  0.95661977578E+03  0.00000000000E+00 0.  1.
<mgrwt>
<rscale>  0 0.18917821E+04</rscale>
<asrwt>0</asrwt>
<pdfrwt beam="1">  1        2 0.50638003E+00 0.18917821E+04</pdfrwt>
<pdfrwt beam="2">  1       -2 0.41819510E-01 0.18917821E+04</pdfrwt>
<totfact> 0.57603571E+00</totfact>
</mgrwt>
</event>
<event>
 6    1  0.2003386E-005  0.2094993E+04  0.7818608E-02  0.8563452E-01
          1   -1    0    0  501    0  0.00000000000E+00  0.00000000000E+00  0.30269348212E+04  0.30269348212E+04  0.00000000000E+00 0. -1.
         -1   -1    0    0    0  501 -0.00000000000E+00 -0.00000000000E+00 -0.36249508592E+03  0.36249508592E+03  0.00000000000E+00 0.  1.
         23    2    1    2    0    0  0.72291771267E+03  0.74974305761E+03  0.14829193301E+04  0.18144012917E+04  0.90981513656E+02 0.  0.
         13    1    3    3    0    0  0.16317884935E+03  0.22549735016E+03  0.37865904046E+03  0.46995644557E+03  0.00000000000E+00 0.  1.
        -13    1    3    3    0    0  0.55973886331E+03  0.52424570744E+03  0.11042602897E+04  0.13444448461E+04  0.00000000000E+00 0. -1.
         22    1    1    2    0    0 -0.72291771267E+03 -0.74974305761E+03  0.11815204052E+04  0.15750286155E+04  0.00000000000E+00 0. -1.
<mgrwt>
<rscale>  0 0.20949931E+04</rscale>
<asrwt>0</asrwt>
<pdfrwt beam="1">  1        1 0.46568226E+00 0.20949931E+04</pdfrwt>
<pdfrwt beam="2">  1       -1 0.55768477E-01 0.20949931E+04</pdfrwt>
<totfact> 0.17117563E+00</totfact>
</mgrwt>
</event>
<event>
 6    1  0.2003386E-005  0.5462485E+03  0.7818608E-02  0.1002366E+00
         -2   -1    0    0    0  501 -0.00000000000E+00  0.00000000000E+00  0.31449882709E+03  0.31449882709E+03  0.00000000000E+00 0.  1.
          2   -1    0    0  501    0  0.00000000000E+00 -0.00000000000E+00 -0.23719281753E+03  0.23719281753E+03  0.00000000000E+00 0. -1.
         23    2    1    2    0    0 -0.11784747871E+03 -0.22937084519E+02  0.27991570187E+03  0.31618193038E+03  0.84876821689E+02 0.  0.
         11    1    3    3    0    0 -0.11855657315E+03 -0.39318092159E+02  0.20973502127E+03  0.24411135278E+03  0.00000000000E+00 0. -1.
        -11    1    3    3    0    0  0.70909443817E+00  0.16381007640E+02  0.70180680602E+02  0.72070577603E+02  0.00000000000E+00 0.  1.
         22    1    1    2    0    0  0.11784747871E+03  0.22937084519E+02 -0.20260969231E+03  0.23550971425E+03  0.00000000000E+00 0. -1.
<mgrwt>
<rscale>  0 0.54624853E+03</rscale>
<asrwt>0</asrwt>
<pdfrwt beam="1">  1        2 0.36491202E-01 0.54624853E+03</pdfrwt>
<pdfrwt beam="2">  1       -2 0.48384435E-01 0.54624853E+03</pdfrwt>
<totfact> 0.58171952E+02</totfact>
</mgrwt>
</event>
<event>
 6    1  0.2003386E-005  0.4003357E+04  0.7818608E-02  0.8003870E-01
          1   -1    0    0  501    0  0.00000000000E+00  0.00000000000E+00  0.33993801405E+04  0.33993801405E+04  0.00000000000E+00 0. -1.
         -1   -1    0    0    0  501 -0.00000000000E+00 -0.00000000000E+00 -0.11786609617E+04  0.11786609617E+04  0.00000000000E+00 0.  1.
         23    2    1    2    0    0 -0.56175218973E+03 -0.82898619974E+03  0.30915492805E+04  0.32509658564E+04  0.91205285916E+02 0.  0.
         11    1    3    3    0    0 -0.43815847054E+03 -0.67447144245E+03  0.23687674551E+04  0.25015902599E+04  0.00000000000E+00 0. -1.
        -11    1    3    3    0    0 -0.12359371919E+03 -0.15451475729E+03  0.72278182536E+03  0.74937559656E+03  0.00000000000E+00 0.  1.
         22    1    1    2    0    0  0.56175218973E+03  0.82898619974E+03 -0.87083010167E+03  0.13270752458E+04  0.00000000000E+00 0.  1.
<mgrwt>
<rscale>  0 0.40033569E+04</rscale>
<asrwt>0</asrwt>
<pdfrwt beam="1">  1        1 0.52298156E+00 0.40033569E+04</pdfrwt>
<pdfrwt beam="2">  1       -1 0.18133246E+00 0.40033569E+04</pdfrwt>
<totfact> 0.47647334E-02</totfact>
</mgrwt>
</event>
<event>
 6    1  0.2003386E-005  0.3265351E+04  0.7818608E-02  0.8171768E-01
          2   -1    0    0  501    0  0.00000000000E+00  0.00000000000E+00  0.77347078766E+03  0.77347078766E+03  0.00000000000E+00 0. -1.
         -2   -1    0    0    0  501 -0.00000000000E+00 -0.00000000000E+00 -0.34463221522E+04  0.34463221522E+04  0.00000000000E+00 0.  1.
         23    2    1    2    0    0 -0.77618147383E+03 -0.95767615401E+03 -0.27181144277E+04  0.29862411407E+04  0.99442506350E+02 0.  0.
         13    1    3    3    0    0 -0.39899221396E+03 -0.44302952879E+03 -0.14068991735E+04  0.15280167651E+04  0.00000000000E+00 0. -1.
        -13    1    3    3    0    0 -0.37718925987E+03 -0.51464662521E+03 -0.13112152542E+04  0.14582243756E+04  0.00000000000E+00 0.  1.
         22    1    1    2    0    0  0.77618147383E+03  0.95767615401E+03  0.45263063185E+02  0.12335517991E+04  0.00000000000E+00 0. -1.
<mgrwt>
<rscale>  0 0.32653511E+04</rscale>
<asrwt>0</asrwt>
<pdfrwt beam="1">  1        2 0.11899551E+00 0.32653511E+04</pdfrwt>
<pdfrwt beam="2">  1       -2 0.53020339E+00 0.32653511E+04</pdfrwt>
<totfact> 0.32800802E-02</totfact>
</mgrwt>
</event>
<event>
 6    1  0.2003386E-005  0.3072836E+04  0.7818608E-02  0.8223233E-01
         -2   -1    0    0    0  501 -0.00000000000E+00  0.00000000000E+00  0.11486992978E+04  0.11486992978E+04  0.00000000000E+00 0.  1.
          2   -1    0    0  501    0  0.00000000000E+00 -0.00000000000E+00 -0.20550026781E+04  0.20550026781E+04  0.00000000000E+00 0. -1.
         23    2    1    2    0    0  0.10230195962E+04  0.88393881566E+03 -0.12114066834E+04  0.18176987473E+04  0.92766692765E+02 0.  0.
         13    1    3    3    0    0  0.37202194071E+03  0.26482173118E+03 -0.42073333469E+03  0.62092464325E+03  0.00000000000E+00 0. -1.
        -13    1    3    3    0    0  0.65099765544E+03  0.61911708448E+03 -0.79067334873E+03  0.11967741040E+04  0.00000000000E+00 0.  1.
         22    1    1    2    0    0 -0.10230195962E+04 -0.88393881566E+03  0.30510330312E+03  0.13860032285E+04  0.00000000000E+00 0.  1.
<mgrwt>
<rscale>  0 0.30728359E+04</rscale>
<asrwt>0</asrwt>
<pdfrwt beam="1">  1        2 0.31615425E+00 0.30728359E+04</pdfrwt>
<pdfrwt beam="2">  1       -2 0.17672297E+00 0.30728359E+04</pdfrwt>
<totfact> 0.10124229E+00</totfact>
</mgrwt>
</event>
<event>
 6    1  0.2003386E-005  0.1685470E+04  0.7818608E-02  0.8769695E-01
          2   -1    0    0  501    0  0.00000000000E+00  0.00000000000E+00  0.96447526585E+03  0.96447526585E+03  0.00000000000E+00 0. -1.
         -2   -1    0    0    0  501 -0.00000000000E+00 -0.00000000000E+00 -0.73636167918E+03  0.73636167918E+03  0.00000000000E+00 0.  1.
         23    2    1    2    0    0  0.18957650213E+03  0.26465949037E+03 -0.66736152691E+03  0.74802029161E+03  0.90438117342E+02 0.  0.
         13    1    3    3    0    0  0.87926729591E+02  0.51941762321E+02 -0.20182945636E+03  0.22619501742E+03  0.00000000000E+00 0.  1.
        -13    1    3    3    0    0  0.10164977254E+03  0.21271772805E+03 -0.46553207055E+03  0.52182527420E+03  0.00000000000E+00 0. -1.
         22    1    1    2    0    0 -0.18957650213E+03 -0.26465949037E+03  0.89547511357E+03  0.95281665342E+03  0.00000000000E+00 0. -1.
<mgrwt>
<rscale>  0 0.16854704E+04</rscale>
<asrwt>0</asrwt>
<pdfrwt beam="1">  1        2 0.14838081E+00 0.16854704E+04</pdfrwt>
<pdfrwt beam="2">  1       -2 0.11328641E+00 0.16854704E+04</pdfrwt>
<totfact> 0.15478534E+01</totfact>
</mgrwt>
</event>
<event>
 6    1  0.2003386E-005  0.7979669E+03  0.7818608E-02  0.9562965E-01
         -2   -1    0    0    0  501 -0.00000000000E+00  0.00000000000E+00  0.53006331265E+03  0.53006331265E+03  0.00000000000E+00 0.  1.
          2   -1    0    0  501    0  0.00000000000E+00 -0.00000000000E+00 -0.30031848801E+03  0.30031848801E+03  0.00000000000E+00 0. -1.
         23    2    1    2    0    0  0.54384570052E+02  0.11552328410E+03 -0.27114949356E+03  0.31346940128E+03  0.91856992411E+02 0.  0.
         11    1    3    3    0    0  0.31785048295E+02  0.10301844670E+03 -0.26615668690E+03  0.28716279640E+03  0.00000000000E+00 0. -1.
        -11    1    3    3    0    0  0.22599521757E+02  0.12504837399E+02 -0.49928066580E+01  0.26306604880E+02  0.00000000000E+00 0.  1.
         22    1    1    2    0    0 -0.54384570052E+02 -0.11552328410E+03  0.50089431820E+03  0.51691239938E+03  0.00000000000E+00 0.  1.
<mgrwt>
<rscale>  0 0.79796695E+03</rscale>
<asrwt>0</asrwt>
<pdfrwt beam="1">  1        2 0.46202844E-01 0.79796695E+03</pdfrwt>
<pdfrwt beam="2">  1       -2 0.81548202E-01 0.79796695E+03</pdfrwt>
<totfact> 0.14627574E+02</totfact>
</mgrwt>
</event>
<event>
 6    1  0.2003386E-005  0.2929722E+04  0.7818608E-02  0.8264089E-01
          2   -1    0    0  501    0  0.00000000000E+00  0.00000000000E+00  0.30761803372E+04  0.30761803372E+04  0.00000000000E+00 0. -1.
         -2   -1    0    0    0  501 -0.00000000000E+00 -0.00000000000E+00 -0.69755937794E+03  0.69755937794E+03  0.00000000000E+00 0.  1.
         23    2    1    2    0    0 -0.10895335258E+04 -0.35538418299E+03  0.18146032628E+02  0.11497688501E+04  0.90873035852E+02 0.  0.
         13    1    3    3    0    0 -0.56642397301E+03 -0.16582201927E+03 -0.32363370988E+02  0.59108412857E+03  0.00000000000E+00 0.  1.
        -13    1    3    3    0    0 -0.52310955284E+03 -0.18956216372E+03  0.50509403616E+02  0.55868472150E+03  0.00000000000E+00 0. -1.
         22    1    1    2    0    0  0.10895335258E+04  0.35538418299E+03  0.23604749266E+04  0.26239708651E+04  0.00000000000E+00 0. -1.
<mgrwt>
<rscale>  0 0.29297225E+04</rscale>
<asrwt>0</asrwt>
<pdfrwt beam="1">  1        2 0.47325851E+00 0.29297225E+04</pdfrwt>
<pdfrwt beam="2">  1       -2 0.10731683E+00 0.29297225E+04</pdfrwt>
<totfact> 0.93527924E-01</totfact>
</mgrwt>
</event>
<event>
 6    1  0.2003386E-005  0.4474963E+04  0.7818608E-02  0.7915035E-01
         -2   -1    0    0    0  501 -0.00000000000E+00  0.00000000000E+00  0.16106788143E+04  0.16106788143E+04  0.00000000000E+00 0.  1.
          2   -1    0    0  501    0  0.00000000000E+00 -0.00000000000E+00 -0.31082072187E+04  0.31082072187E+04  0.00000000000E+00 0. -1.
         23    2    1    2    0    0  0.22312241033E+03  0.18016561278E+04 -0.21266805119E+04  0.27975373434E+04  0.87731268940E+02 0.  0.
         13    1    3    3    0    0  0.99414586245E+02  0.90145295497E+03 -0.99743610760E+03  0.13481021767E+04  0.00000000000E+00 0. -1.
        -13    1    3    3    0    0  0.12370782409E+03  0.90020317281E+03 -0.11292444043E+04  0.14494351668E+04  0.00000000000E+00 0.  1.
         22    1    1    2    0    0 -0.22312241033E+03 -0.18016561278E+04  0.62915210750E+03  0.19213486896E+04  0.00000000000E+00 0.  1.
<mgrwt>
<rscale>  0 0.44749630E+04</rscale>
<asrwt>0</asrwt>
<pdfrwt beam="1">  1        2 0.47818572E+00 0.44749630E+04</pdfrwt>
<pdfrwt beam="2">  1       -2 0.24779674E+00 0.44749630E+04</pdfrwt>
<totfact> 0.74784786E-02</totfact>
</mgrwt>
</event>
<event>
 6    1  0.2003386E-005  0.3657443E+04  0.7818608E-02  0.8077459E-01
         -2   -1    0    0    0  501 -0.00000000000E+00  0.00000000000E+00  0.21392761130E+04  0.21392761130E+04  0.00000000000E+00 0.  1.
          2   -1    0    0  501    0  0.00000000000E+00 -0.00000000000E+00 -0.15632496363E+04  0.15632496363E+04  0.00000000000E+00 0. -1.
         23    2    1    2    0    0  0.42601935495E+03  0.13992296999E+04 -0.82110461089E+03  0.16798266812E+04  0.90932133211E+02 0.  0.
         11    1    3    3    0    0  0.51134184774E+02  0.18805033687E+03 -0.75657978558E+02  0.20904966819E+03  0.00000000000E+00 0. -1.
        -11    1    3    3    0    0  0.37488517018E+03  0.12111793631E+04 -0.74544663234E+03  0.14707770130E+04  0.00000000000E+00 0.  1.
         22    1    1    2    0    0 -0.42601935495E+03 -0.13992296999E+04  0.13971310876E+04  0.20226990680E+04  0.00000000000E+00 0.  1.
<mgrwt>
<rscale>  0 0.36574432E+04</rscale>
<asrwt>0</asrwt>
<pdfrwt beam="1">  1        2 0.24049995E+00 0.36574432E+04</pdfrwt>
<pdfrwt beam="2">  1       -2 0.32911940E+00 0.36574432E+04</pdfrwt>
<totfact> 0.19937233E-01</totfact>
</mgrwt>
</event>
<event>
 6    1  0.2003386E-005  0.2779044E+04  0.7818608E-02  0.8309804E-01
          2   -1    0    0  501    0  0.00000000000E+00  0.00000000000E+00  0.17249697286E+04  0.17249697286E+04  0.00000000000E+00 0. -1.
         -2   -1    0    0    0  501 -0.00000000000E+00 -0.00000000000E+00 -0.11193078064E+04  0.11193078064E+04  0.00000000000E+00 0.  1.
         23    2    1    2    0    0 -0.72939931872E+03 -0.10498715297E+04  0.85662118987E+03  0.15414981411E+04  0.90349660329E+02 0.  0.
         11    1    3    3    0    0 -0.80089566390E+02 -0.71776886038E+02  0.74465163924E+02  0.13081024674E+03  0.00000000000E+00 0.  1.
        -11    1    3    3    0    0 -0.64930975233E+03 -0.97809464365E+03  0.78215602594E+03  0.14106878944E+04  0.00000000000E+00 0. -1.
         22    1    1    2    0    0  0.72939931872E+03  0.10498715297E+04 -0.25095926766E+03  0.13027793938E+04  0.00000000000E+00 0.  1.
<mgrwt>
<rscale>  0 0.27790445E+04</rscale>
<asrwt>0</asrwt>
<pdfrwt beam="1">  1        2 0.26537996E+00 0.27790445E+04</pdfrwt>
<pdfrwt beam="2">  1       -2 0.17220120E+00 0.27790445E+04</pdfrwt>
<totfact> 0.17024883E+00</totfact>
</mgrwt>
</event>
<event>
 6    1  0.2003386E-005  0.2189786E+04  0.7818608E-02  0.8522692E-01
         -2   -1    0    0    0  501 -0.00000000000E+00  0.00000000000E+00  0.74245352850E+03  0.74245352850E+03  0.00000000000E+00 0.  1.
          2   -1    0    0  501    0  0.00000000000E+00 -0.00000000000E+00 -0.16146337379E+04  0.16146337379E+04  0.00000000000E+00 0. -1.
         23    2    1    2    0    0 -0.80444150184E+03  0.50085753480E+03 -0.10231647450E+04  0.13975140643E+04  0.90526595390E+02 0.  0.
         11    1    3    3    0    0 -0.47533591979E+03  0.24333751265E+03 -0.56692478106E+03  0.77882031887E+03  0.00000000000E+00 0.  1.
        -11    1    3    3    0    0 -0.32910558204E+03  0.25752002215E+03 -0.45623996398E+03  0.61869374546E+03  0.00000000000E+00 0. -1.
         22    1    1    2    0    0  0.80444150184E+03 -0.50085753480E+03  0.15098453568E+03  0.95957320203E+03  0.00000000000E+00 0.  1.
<mgrwt>
<rscale>  0 0.21897858E+04</rscale>
<asrwt>0</asrwt>
<pdfrwt beam="1">  1        2 0.24840519E+00 0.21897858E+04</pdfrwt>
<pdfrwt beam="2">  1       -2 0.11422362E+00 0.21897858E+04</pdfrwt>
<totfact> 0.60023485E+00</totfact>
</mgrwt>
</event>
<event>
 6    1  0.2003386E-005  0.2149888E+04  0.7818608E-02  0.8539580E-01
          2   -1    0    0  501    0  0.00000000000E+00  0.00000000000E+00  0.21692829210E+04  0.21692829210E+04  0.00000000000E+00 0.  1.
         -2   -1    0    0    0  501 -0.00000000000E+00 -0.00000000000E+00 -0.53266650666E+03  0.53266650666E+03  0.00000000000E+00 0. -1.
         23    2    1    2    0    0 -0.16405275947E+03 -0.66688266081E+03  0.18560335892E+04  0.19809850126E+04  0.88290118224E+02 0.  0.
         11    1    3    3    0    0 -0.97547641504E+02 -0.22344840423E+03  0.67722258543E+03  0.71977438266E+03  0.00000000000E+00 0.  1.
        -11    1    3    3    0    0 -0.66505117964E+02 -0.44343425657E+03  0.11788110038E+04  0.12612106300E+04  0.00000000000E+00 0. -1.
         22    1    1    2    0    0  0.16405275947E+03  0.66688266081E+03 -0.21941717481E+03  0.72096441506E+03  0.00000000000E+00 0. -1.
<mgrwt>
<rscale>  0 0.21498878E+04</rscale>
<asrwt>0</asrwt>
<pdfrwt beam="1">  1        2 0.33373583E+00 0.21498878E+04</pdfrwt>
<pdfrwt beam="2">  1       -2 0.81948695E-01 0.21498878E+04</pdfrwt>
<totfact> 0.64559667E+00</totfact>
</mgrwt>
</event>
<event>
 6    1  0.2003386E-005  0.1006570E+04  0.7818608E-02  0.9301369E-01
          3   -1    0    0  501    0  0.00000000000E+00  0.00000000000E+00  0.54121765702E+03  0.54121765702E+03  0.00000000000E+00 0. -1.
         -3   -1    0    0    0  501 -0.00000000000E+00 -0.00000000000E+00 -0.46801054300E+03  0.46801054300E+03  0.00000000000E+00 0.  1.
         23    2    1    2    0    0  0.39139710716E+03  0.73013631423E+02  0.33869314137E+03  0.53068299151E+03  0.91589888103E+02 0.  0.
         13    1    3    3    0    0  0.99030256012E+01  0.20127410042E+02  0.27784431976E+02  0.35709343473E+02  0.00000000000E+00 0.  1.
        -13    1    3    3    0    0  0.38149408155E+03  0.52886221381E+02  0.31090870939E+03  0.49497364804E+03  0.00000000000E+00 0. -1.
         22    1    1    2    0    0 -0.39139710716E+03 -0.73013631423E+02 -0.26548602735E+03  0.47854520851E+03  0.00000000000E+00 0.  1.
<mgrwt>
<rscale>  0 0.10065696E+04</rscale>
<asrwt>0</asrwt>
<pdfrwt beam="1">  1        3 0.83264255E-01 0.10065696E+04</pdfrwt>
<pdfrwt beam="2">  1       -3 0.72001622E-01 0.10065696E+04</pdfrwt>
<totfact> 0.63867120E+00</totfact>
</mgrwt>
</event>
<event>
 6    1  0.2003386E-005  0.1465344E+04  0.7818608E-02  0.8907832E-01
          2   -1    0    0  501    0  0.00000000000E+00  0.00000000000E+00  0.15070197464E+04  0.15070197464E+04  0.00000000000E+00 0. -1.
         -2   -1    0    0    0  501 -0.00000000000E+00 -0.00000000000E+00 -0.35620515150E+03  0.35620515150E+03  0.00000000000E+00 0.  1.
         23    2    1    2    0    0 -0.31500734057E+03  0.21949138518E+03  0.13666115069E+04  0.14227996489E+04  0.96569857365E+02 0.  0.
         13    1    3    3    0    0 -0.14661861836E+03  0.15988895506E+03  0.77833056320E+03  0.80799750174E+03  0.00000000000E+00 0. -1.
        -13    1    3    3    0    0 -0.16838872221E+03  0.59602430121E+02  0.58828094367E+03  0.61480214714E+03  0.00000000000E+00 0.  1.
         22    1    1    2    0    0  0.31500734057E+03 -0.21949138518E+03 -0.21579691195E+03  0.44042524904E+03  0.00000000000E+00 0.  1.
<mgrwt>
<rscale>  0 0.14653439E+04</rscale>
<asrwt>0</asrwt>
<pdfrwt beam="1">  1        2 0.23184919E+00 0.14653439E+04</pdfrwt>
<pdfrwt beam="2">  1       -2 0.54800793E-01 0.14653439E+04</pdfrwt>
<totfact> 0.38161858E+01</totfact>
</mgrwt>
</event>
<event>
 6    1  0.2003386E-005  0.3578548E+04  0.7818608E-02  0.8095423E-01
         -2   -1    0    0    0  501 -0.00000000000E+00  0.00000000000E+00  0.10390720885E+04  0.10390720885E+04  0.00000000000E+00 0.  1.
          2   -1    0    0  501    0  0.00000000000E+00 -0.00000000000E+00 -0.30811165537E+04  0.30811165537E+04  0.00000000000E+00 0. -1.
         23    2    1    2    0    0 -0.80906177056E+03 -0.10788838074E+04 -0.23736165683E+04  0.27314801493E+04  0.91416487846E+02 0.  0.
         13    1    3    3    0    0 -0.61846187806E+03 -0.87484404730E+03 -0.19254087160E+04  0.22034168751E+04  0.00000000000E+00 0. -1.
        -13    1    3    3    0    0 -0.19059989250E+03 -0.20403976009E+03 -0.44820785235E+03  0.52806327426E+03  0.00000000000E+00 0.  1.
         22    1    1    2    0    0  0.80906177056E+03  0.10788838074E+04  0.33157210311E+03  0.13887084928E+04  0.00000000000E+00 0.  1.
<mgrwt>
<rscale>  0 0.35785484E+04</rscale>
<asrwt>0</asrwt>
<pdfrwt beam="1">  1        2 0.47401793E+00 0.35785484E+04</pdfrwt>
<pdfrwt beam="2">  1       -2 0.15985725E+00 0.35785484E+04</pdfrwt>
<totfact> 0.31870938E-01</totfact>
</mgrwt>
</event>
<event>
 6    1  0.2003386E-005  0.1095766E+04  0.7818608E-02  0.9209328E-01
          4   -1    0    0  501    0  0.00000000000E+00  0.00000000000E+00  0.22395638883E+03  0.22395638883E+03  0.00000000000E+00 0. -1.
         -4   -1    0    0    0  501 -0.00000000000E+00 -0.00000000000E+00 -0.13403316693E+04  0.13403316693E+04  0.00000000000E+00 0.  1.
         23    2    1    2    0    0 -0.24598938035E+03 -0.43604808505E+03 -0.86539112304E+03  0.10042507781E+04  0.94705447394E+02 0.  0.
         13    1    3    3    0    0 -0.16226179128E+03 -0.29070482001E+03 -0.48229559626E+03  0.58604370439E+03  0.00000000000E+00 0. -1.
        -13    1    3    3    0    0 -0.83727589072E+02 -0.14534326504E+03 -0.38309552678E+03  0.41820707372E+03  0.00000000000E+00 0.  1.
         22    1    1    2    0    0  0.24598938035E+03  0.43604808505E+03 -0.25098415738E+03  0.56003727998E+03  0.00000000000E+00 0. -1.
<mgrwt>
<rscale>  0 0.10957661E+04</rscale>
<asrwt>0</asrwt>
<pdfrwt beam="1">  1        4 0.34454829E-01 0.10957661E+04</pdfrwt>
<pdfrwt beam="2">  1       -4 0.20620487E+00 0.10957661E+04</pdfrwt>
<totfact> 0.19520557E+00</totfact>
</mgrwt>
</event>
<event>
 6    1  0.2003386E-005  0.1590034E+04  0.7818608E-02  0.8826694E-01
         -2   -1    0    0    0  501 -0.00000000000E+00  0.00000000000E+00  0.20898950159E+03  0.20898950159E+03  0.00000000000E+00 0.  1.
          2   -1    0    0  501    0  0.00000000000E+00 -0.00000000000E+00 -0.30243251326E+04  0.30243251326E+04  0.00000000000E+00 0. -1.
         23    2    1    2    0    0 -0.47247980112E+03 -0.25680968983E+02 -0.27048140946E+04  0.27474013861E+04  0.91095638523E+02 0.  0.
         13    1    3    3    0    0 -0.36632484134E+03  0.78787155691E+01 -0.22143163307E+04  0.22444270485E+04  0.00000000000E+00 0. -1.
        -13    1    3    3    0    0 -0.10615495978E+03 -0.33559684552E+02 -0.49049776391E+03  0.50297433763E+03  0.00000000000E+00 0.  1.
         22    1    1    2    0    0  0.47247980112E+03  0.25680968983E+02 -0.11052153638E+03  0.48591324806E+03  0.00000000000E+00 0.  1.
<mgrwt>
<rscale>  0 0.15900342E+04</rscale>
<asrwt>0</asrwt>
<pdfrwt beam="1">  1        2 0.46528075E+00 0.15900342E+04</pdfrwt>
<pdfrwt beam="2">  1       -2 0.32152234E-01 0.15900342E+04</pdfrwt>
<totfact> 0.14614971E+01</totfact>
</mgrwt>
</event>
<event>
 6    1  0.2003386E-005  0.1084852E+04  0.7818608E-02  0.9220083E-01
          2   -1    0    0  501    0  0.00000000000E+00  0.00000000000E+00  0.83862955530E+03  0.83862955530E+03  0.00000000000E+00 0. -1.
         -2   -1    0    0    0  501 -0.00000000000E+00 -0.00000000000E+00 -0.35084159917E+03  0.35084159917E+03  0.00000000000E+00 0.  1.
         23    2    1    2    0    0  0.11736896545E+02  0.25149585550E+03  0.76659494363E+03  0.81381006205E+03  0.10597683437E+03 0.  0.
         11    1    3    3    0    0  0.46459962830E+02  0.18231542483E+03  0.62157572662E+03  0.64942576650E+03  0.00000000000E+00 0.  1.
        -11    1    3    3    0    0 -0.34723066285E+02  0.69180430675E+02  0.14501921701E+03  0.16438429555E+03  0.00000000000E+00 0. -1.
         22    1    1    2    0    0 -0.11736896545E+02 -0.25149585550E+03 -0.27880698751E+03  0.37566109242E+03  0.00000000000E+00 0.  1.
<mgrwt>
<rscale>  0 0.10848523E+04</rscale>
<asrwt>0</asrwt>
<pdfrwt beam="1">  1        2 0.12901993E+00 0.10848523E+04</pdfrwt>
<pdfrwt beam="2">  1       -2 0.53975631E-01 0.10848523E+04</pdfrwt>
<totfact> 0.10386675E+02</totfact>
</mgrwt>
</event>
<event>
 6    1  0.2003386E-005  0.5203536E+03  0.7818608E-02  0.1008599E+00
          2   -1    0    0  501    0  0.00000000000E+00  0.00000000000E+00  0.16944034736E+04  0.16944034736E+04  0.00000000000E+00 0. -1.
         -2   -1    0    0    0  501 -0.00000000000E+00 -0.00000000000E+00 -0.39950323557E+02  0.39950323557E+02  0.00000000000E+00 0.  1.
         23    2    1    2    0    0 -0.24745495544E+03  0.46075105031E+02  0.91534269862E+03  0.95355860655E+03  0.89804732259E+02 0.  0.
         13    1    3    3    0    0 -0.90727580060E+02  0.57942543363E+02  0.31070555272E+03  0.32882635631E+03  0.00000000000E+00 0. -1.
        -13    1    3    3    0    0 -0.15672737538E+03 -0.11867438332E+02  0.60463714591E+03  0.62473225024E+03  0.00000000000E+00 0.  1.
         22    1    1    2    0    0  0.24745495544E+03 -0.46075105031E+02  0.73911045144E+03  0.78079519062E+03  0.00000000000E+00 0.  1.
<mgrwt>
<rscale>  0 0.52035360E+03</rscale>
<asrwt>0</asrwt>
<pdfrwt beam="1">  1        2 0.26067740E+00 0.52035360E+03</pdfrwt>
<pdfrwt beam="2">  1       -2 0.61462050E-02 0.52035360E+03</pdfrwt>
<totfact> 0.15145448E+03</totfact>
</mgrwt>
</event>
<event>
 6    1  0.2003386E-005  0.1605815E+04  0.7818608E-02  0.8816984E-01
          2   -1    0    0  501    0  0.00000000000E+00  0.00000000000E+00  0.77888470943E+03  0.77888470943E+03  0.00000000000E+00 0. -1.
         -2   -1    0    0    0  501 -0.00000000000E+00 -0.00000000000E+00 -0.82767103153E+03  0.82767103153E+03  0.00000000000E+00 0.  1.
         23    2    1    2    0    0 -0.24915913193E+03  0.74547639327E+03 -0.17489518587E+03  0.81049118864E+03  0.92153756737E+02 0.  0.
         11    1    3    3    0    0 -0.21285801570E+03  0.59090321014E+03 -0.10408538071E+03  0.63663875555E+03  0.00000000000E+00 0. -1.
        -11    1    3    3    0    0 -0.36301116226E+02  0.15457318313E+03 -0.70809805161E+02  0.17385243309E+03  0.00000000000E+00 0.  1.
         22    1    1    2    0    0  0.24915913193E+03 -0.74547639327E+03  0.12610886376E+03  0.79606455232E+03  0.00000000000E+00 0. -1.
<mgrwt>
<rscale>  0 0.16058148E+04</rscale>
<asrwt>0</asrwt>
<pdfrwt beam="1">  1        2 0.11982842E+00 0.16058148E+04</pdfrwt>
<pdfrwt beam="2">  1       -2 0.12733401E+00 0.16058148E+04</pdfrwt>
<totfact> 0.15653487E+01</totfact>
</mgrwt>
</event>
<event>
 6    1  0.2003386E-005  0.2068185E+04  0.7818608E-02  0.8575389E-01
         -1   -1    0    0    0  501 -0.00000000000E+00  0.00000000000E+00  0.11627981885E+04  0.11627981885E+04  0.00000000000E+00 0.  1.
          1   -1    0    0  501    0  0.00000000000E+00 -0.00000000000E+00 -0.91963292210E+03  0.91963292210E+03  0.00000000000E+00 0. -1.
         23    2    1    2    0    0 -0.25081014189E+03  0.74468274148E+03  0.79566280312E+03  0.11218523056E+04  0.89527573750E+02 0.  0.
         13    1    3    3    0    0 -0.17445642695E+03  0.44543594349E+03  0.53532835599E+03  0.71793082771E+03  0.00000000000E+00 0. -1.
        -13    1    3    3    0    0 -0.76353714943E+02  0.29924679799E+03  0.26033444714E+03  0.40392147784E+03  0.00000000000E+00 0.  1.
         22    1    1    2    0    0  0.25081014189E+03 -0.74468274148E+03 -0.55249753668E+03  0.96057880509E+03  0.00000000000E+00 0.  1.
<mgrwt>
<rscale>  0 0.20681852E+04</rscale>
<asrwt>0</asrwt>
<pdfrwt beam="1">  1        1 0.14148199E+00 0.20681852E+04</pdfrwt>
<pdfrwt beam="2">  1       -1 0.17889203E+00 0.20681852E+04</pdfrwt>
<totfact> 0.34280216E+00</totfact>
</mgrwt>
</event>
<event>
 6    1  0.2003386E-005  0.1263822E+04  0.7818608E-02  0.9058757E-01
          2   -1    0    0  501    0  0.00000000000E+00  0.00000000000E+00  0.62611862342E+03  0.62611862342E+03  0.00000000000E+00 0.  1.
         -2   -1    0    0    0  501 -0.00000000000E+00 -0.00000000000E+00 -0.63775679571E+03  0.63775679571E+03  0.00000000000E+00 0. -1.
         23    2    1    2    0    0 -0.36999481632E+02  0.21021815198E+03  0.58556671433E+03  0.62967173760E+03  0.89652033607E+02 0.  0.
         13    1    3    3    0    0 -0.47958727812E+02  0.12721444279E+03  0.25865026120E+03  0.29220457157E+03  0.00000000000E+00 0. -1.
        -13    1    3    3    0    0  0.10959246180E+02  0.83003709186E+02  0.32691645313E+03  0.33746716602E+03  0.00000000000E+00 0.  1.
         22    1    1    2    0    0  0.36999481632E+02 -0.21021815198E+03 -0.59720488663E+03  0.63420368154E+03  0.00000000000E+00 0. -1.
<mgrwt>
<rscale>  0 0.12638218E+04</rscale>
<asrwt>0</asrwt>
<pdfrwt beam="1">  1        2 0.96325942E-01 0.12638218E+04</pdfrwt>
<pdfrwt beam="2">  1       -2 0.98116430E-01 0.12638218E+04</pdfrwt>
<totfact> 0.39983894E+01</totfact>
</mgrwt>
</event>
<event>
 6    1  0.2003386E-005  0.2083543E+04  0.7818608E-02  0.8568528E-01
          1   -1    0    0  501    0  0.00000000000E+00  0.00000000000E+00  0.32947337442E+04  0.32947337442E+04  0.00000000000E+00 0. -1.
         -1   -1    0    0    0  501 -0.00000000000E+00 -0.00000000000E+00 -0.32940076841E+03  0.32940076841E+03  0.00000000000E+00 0.  1.
         23    2    1    2    0    0 -0.99655256300E+03  0.28751722435E+03  0.13576708209E+04  0.17109275794E+04  0.90663988730E+02 0.  0.
         11    1    3    3    0    0 -0.23485843720E+03  0.10467721449E+03  0.36291025845E+03  0.44476922156E+03  0.00000000000E+00 0. -1.
        -11    1    3    3    0    0 -0.76169412580E+03  0.18284000986E+03  0.99476056243E+03  0.12661583578E+04  0.00000000000E+00 0.  1.
         22    1    1    2    0    0  0.99655256300E+03 -0.28751722435E+03  0.16076621550E+04  0.19132069333E+04  0.00000000000E+00 0. -1.
<mgrwt>
<rscale>  0 0.20835430E+04</rscale>
<asrwt>0</asrwt>
<pdfrwt beam="1">  1        1 0.50688209E+00 0.20835430E+04</pdfrwt>
<pdfrwt beam="2">  1       -1 0.50677044E-01 0.20835430E+04</pdfrwt>
<totfact> 0.13021004E+00</totfact>
</mgrwt>
</event>
<event>
 6    1  0.2003386E-005  0.9702492E+03  0.7818608E-02  0.9341791E-01
         -2   -1    0    0    0  501 -0.00000000000E+00  0.00000000000E+00  0.84639834983E+03  0.84639834983E+03  0.00000000000E+00 0. -1.
          2   -1    0    0  501    0  0.00000000000E+00 -0.00000000000E+00 -0.27805571078E+03  0.27805571078E+03  0.00000000000E+00 0.  1.
         23    2    1    2    0    0 -0.87574528730E+02  0.15303912256E+03  0.80530977237E+03  0.82908362643E+03  0.88122409327E+02 0.  0.
         11    1    3    3    0    0 -0.21909840256E+01  0.80041300542E+02  0.42721874535E+03  0.43465764296E+03  0.00000000000E+00 0. -1.
        -11    1    3    3    0    0 -0.85383544704E+02  0.72997822018E+02  0.37809102701E+03  0.39442598347E+03  0.00000000000E+00 0.  1.
         22    1    1    2    0    0  0.87574528730E+02 -0.15303912256E+03 -0.23696713331E+03  0.29537043418E+03  0.00000000000E+00 0.  1.
<mgrwt>
<rscale>  0 0.97024924E+03</rscale>
<asrwt>0</asrwt>
<pdfrwt beam="1">  1        2 0.42777802E-01 0.97024924E+03</pdfrwt>
<pdfrwt beam="2">  1       -2 0.13021513E+00 0.97024924E+03</pdfrwt>
<totfact> 0.51644115E+01</totfact>
</mgrwt>
</event>
<event>
 6    1  0.2003386E-005  0.5112890E+04  0.7818608E-02  0.7811325E-01
         -2   -1    0    0    0  501 -0.00000000000E+00  0.00000000000E+00  0.11231995716E+04  0.11231995716E+04  0.00000000000E+00 0.  1.
          2   -1    0    0  501    0  0.00000000000E+00 -0.00000000000E+00 -0.58185659708E+04  0.58185659708E+04  0.00000000000E+00 0. -1.
         23    2    1    2    0    0  0.85855963034E+03 -0.20898113086E+04 -0.72660855883E+03  0.23749860710E+04  0.90348744112E+02 0.  0.
         13    1    3    3    0    0  0.54890030034E+03 -0.14449051965E+04 -0.50447109006E+03  0.16258947221E+04  0.00000000000E+00 0.  1.
        -13    1    3    3    0    0  0.30965933000E+03 -0.64490611202E+03 -0.22213746877E+03  0.74909134891E+03  0.00000000000E+00 0. -1.
         22    1    1    2    0    0 -0.85855963034E+03  0.20898113086E+04 -0.39687578404E+04  0.45667794714E+04  0.00000000000E+00 0. -1.
<mgrwt>
<rscale>  0 0.51128899E+04</rscale>
<asrwt>0</asrwt>
<pdfrwt beam="1">  1        2 0.89516396E+00 0.51128899E+04</pdfrwt>
<pdfrwt beam="2">  1       -2 0.17279994E+00 0.51128899E+04</pdfrwt>
<totfact> 0.16813859E-04</totfact>
</mgrwt>
</event>
<event>
 6    1  0.2003386E-005  0.1435280E+04  0.7818608E-02  0.8928669E-01
          2   -1    0    0  501    0  0.00000000000E+00  0.00000000000E+00  0.44228834535E+03  0.44228834535E+03  0.00000000000E+00 0. -1.
         -2   -1    0    0    0  501 -0.00000000000E+00 -0.00000000000E+00 -0.11644157758E+04  0.11644157758E+04  0.00000000000E+00 0.  1.
         23    2    1    2    0    0 -0.15708214368E+03 -0.30331844081E+03 -0.10632648091E+04  0.11239499523E+04  0.12670660813E+03 0.  0.
         11    1    3    3    0    0 -0.69973552167E+02 -0.15150141279E+03 -0.71447856518E+03  0.73370879521E+03  0.00000000000E+00 0. -1.
        -11    1    3    3    0    0 -0.87108591513E+02 -0.15181702802E+03 -0.34878624396E+03  0.39024115709E+03  0.00000000000E+00 0.  1.
         22    1    1    2    0    0  0.15708214368E+03  0.30331844081E+03  0.34113737869E+03  0.48275416884E+03  0.00000000000E+00 0. -1.
<mgrwt>
<rscale>  0 0.14352805E+04</rscale>
<asrwt>0</asrwt>
<pdfrwt beam="1">  1        2 0.68044361E-01 0.14352805E+04</pdfrwt>
<pdfrwt beam="2">  1       -2 0.17914089E+00 0.14352805E+04</pdfrwt>
<totfact> 0.12645262E+01</totfact>
</mgrwt>
</event>
<event>
 6    1  0.2003386E-005  0.1955144E+04  0.7818608E-02  0.8627884E-01
         -2   -1    0    0    0  501 -0.00000000000E+00  0.00000000000E+00  0.26751877713E+03  0.26751877713E+03  0.00000000000E+00 0.  1.
          2   -1    0    0  501    0  0.00000000000E+00 -0.00000000000E+00 -0.35722625492E+04  0.35722625492E+04  0.00000000000E+00 0. -1.
         23    2    1    2    0    0  0.19232582971E+03 -0.95143839750E+03 -0.18444543876E+04  0.20863078205E+04  0.91891703566E+02 0.  0.
         13    1    3    3    0    0  0.15540461983E+03 -0.58582153749E+03 -0.12029469359E+04  0.13470036378E+04  0.00000000000E+00 0. -1.
        -13    1    3    3    0    0  0.36921209877E+02 -0.36561686001E+03 -0.64150745170E+03  0.73930418276E+03  0.00000000000E+00 0.  1.
         22    1    1    2    0    0 -0.19232582971E+03  0.95143839750E+03 -0.14602893845E+04  0.17534735058E+04  0.00000000000E+00 0.  1.
<mgrwt>
<rscale>  0 0.19551443E+04</rscale>
<asrwt>0</asrwt>
<pdfrwt beam="1">  1        2 0.54957889E+00 0.19551443E+04</pdfrwt>
<pdfrwt beam="2">  1       -2 0.41156732E-01 0.19551443E+04</pdfrwt>
<totfact> 0.37941214E+00</totfact>
</mgrwt>
</event>
<event>
 6    1  0.2003386E-005  0.1635901E+04  0.7818608E-02  0.8798791E-01
         -2   -1    0    0    0  501 -0.00000000000E+00  0.00000000000E+00  0.10511845434E+04  0.10511845434E+04  0.00000000000E+00 0.  1.
          2   -1    0    0  501    0  0.00000000000E+00 -0.00000000000E+00 -0.63646575967E+03  0.63646575967E+03  0.00000000000E+00 0. -1.
         23    2    1    2    0    0  0.27540061517E+03  0.50356937491E+03  0.80547182878E+03  0.99330488724E+03  0.91880998329E+02 0.  0.
         11    1    3    3    0    0  0.92246682043E+02  0.18924365785E+03  0.37163516941E+03  0.42712446843E+03  0.00000000000E+00 0. -1.
        -11    1    3    3    0    0  0.18315393313E+03  0.31432571707E+03  0.43383665937E+03  0.56618041881E+03  0.00000000000E+00 0.  1.
         22    1    1    2    0    0 -0.27540061517E+03 -0.50356937491E+03 -0.39075304509E+03  0.69434541579E+03  0.00000000000E+00 0. -1.
<mgrwt>
<rscale>  0 0.16359009E+04</rscale>
<asrwt>0</asrwt>
<pdfrwt beam="1">  1        2 0.97917809E-01 0.16359009E+04</pdfrwt>
<pdfrwt beam="2">  1       -2 0.16172070E+00 0.16359009E+04</pdfrwt>
<totfact> 0.10787567E+01</totfact>
</mgrwt>
</event>
<event>
 6    1  0.2003386E-005  0.1295762E+04  0.7818608E-02  0.9032933E-01
         -4   -1    0    0    0  501 -0.00000000000E+00  0.00000000000E+00  0.11276623488E+04  0.11276623488E+04  0.00000000000E+00 0.  1.
          4   -1    0    0  501    0  0.00000000000E+00 -0.00000000000E+00 -0.37222994302E+03  0.37222994302E+03  0.00000000000E+00 0. -1.
         23    2    1    2    0    0  0.37581882878E+03  0.33401086681E+03  0.84670016383E+03  0.98888069228E+03  0.90447802163E+02 0.  0.
         11    1    3    3    0    0  0.85910090280E+02  0.95242247158E+02  0.29272734015E+03  0.31959493883E+03  0.00000000000E+00 0.  1.
        -11    1    3    3    0    0  0.28990873850E+03  0.23876861965E+03  0.55397282368E+03  0.66928575345E+03  0.00000000000E+00 0. -1.
         22    1    1    2    0    0 -0.37581882878E+03 -0.33401086681E+03 -0.91267758046E+02  0.51101159955E+03  0.00000000000E+00 0. -1.
<mgrwt>
<rscale>  0 0.12957618E+04</rscale>
<asrwt>0</asrwt>
<pdfrwt beam="1">  1        4 0.57266146E-01 0.12957618E+04</pdfrwt>
<pdfrwt beam="2">  1       -4 0.17348651E+00 0.12957618E+04</pdfrwt>
<totfact> 0.11333625E+00</totfact>
</mgrwt>
</event>
<event>
 6    1  0.2003386E-005  0.3005375E+04  0.7818608E-02  0.8242198E-01
          2   -1    0    0  501    0  0.00000000000E+00  0.00000000000E+00  0.25267124266E+04  0.25267124266E+04  0.00000000000E+00 0. -1.
         -2   -1    0    0    0  501 -0.00000000000E+00 -0.00000000000E+00 -0.89367906479E+03  0.89367906479E+03  0.00000000000E+00 0.  1.
         23    2    1    2    0    0  0.23459056289E+03  0.37864197540E+03  0.24489244015E+04  0.24908320977E+04  0.92797290703E+02 0.  0.
         11    1    3    3    0    0  0.11465048815E+02  0.59770955542E+02  0.22372525355E+03  0.23185556613E+03  0.00000000000E+00 0. -1.
        -11    1    3    3    0    0  0.22312551407E+03  0.31887101985E+03  0.22251991479E+04  0.22589765316E+04  0.00000000000E+00 0.  1.
         22    1    1    2    0    0 -0.23459056289E+03 -0.37864197540E+03 -0.81589103967E+03  0.92955939366E+03  0.00000000000E+00 0.  1.
<mgrwt>
<rscale>  0 0.30053752E+04</rscale>
<asrwt>0</asrwt>
<pdfrwt beam="1">  1        2 0.38872498E+00 0.30053752E+04</pdfrwt>
<pdfrwt beam="2">  1       -2 0.13748909E+00 0.30053752E+04</pdfrwt>
<totfact> 0.10815995E+00</totfact>
</mgrwt>
</event>
<event>
 6    1  0.2003386E-005  0.3659912E+04  0.7818608E-02  0.8076904E-01
          2   -1    0    0  501    0  0.00000000000E+00  0.00000000000E+00  0.18696077462E+04  0.18696077462E+04  0.00000000000E+00 0. -1.
         -2   -1    0    0    0  501 -0.00000000000E+00 -0.00000000000E+00 -0.17911452092E+04  0.17911452092E+04  0.00000000000E+00 0.  1.
         23    2    1    2    0    0  0.26340218135E+02 -0.17992700683E+04  0.36665926972E+03  0.18383578438E+04  0.83987833716E+02 0.  0.
         13    1    3    3    0    0  0.55026280526E+02 -0.89007195232E+03  0.18163350620E+03  0.91008060216E+03  0.00000000000E+00 0. -1.
        -13    1    3    3    0    0 -0.28686062390E+02 -0.90919811597E+03  0.18502576351E+03  0.92827724168E+03  0.00000000000E+00 0.  1.
         22    1    1    2    0    0 -0.26340218135E+02  0.17992700683E+04 -0.28819673272E+03  0.18223951115E+04  0.00000000000E+00 0.  1.
<mgrwt>
<rscale>  0 0.36599120E+04</rscale>
<asrwt>0</asrwt>
<pdfrwt beam="1">  1        2 0.28763196E+00 0.36599120E+04</pdfrwt>
<pdfrwt beam="2">  1       -2 0.27556080E+00 0.36599120E+04</pdfrwt>
<totfact> 0.28699174E-01</totfact>
</mgrwt>
</event>
<event>
 6    1  0.2003386E-005  0.2401824E+04  0.7818608E-02  0.8438821E-01
          2   -1    0    0  501    0  0.00000000000E+00  0.00000000000E+00  0.21098977702E+04  0.21098977702E+04  0.00000000000E+00 0. -1.
         -2   -1    0    0    0  501 -0.00000000000E+00 -0.00000000000E+00 -0.68353544977E+03  0.68353544977E+03  0.00000000000E+00 0.  1.
         23    2    1    2    0    0  0.27887981366E+03 -0.42039823647E+03 -0.55104710457E+03  0.75268417567E+03  0.91498246744E+02 0.  0.
         13    1    3    3    0    0  0.25185782236E+03 -0.38938188525E+03 -0.46200259091E+03  0.65459682954E+03  0.00000000000E+00 0. -1.
        -13    1    3    3    0    0  0.27021991303E+02 -0.31016351223E+02 -0.89044513668E+02  0.98087346134E+02  0.00000000000E+00 0.  1.
         22    1    1    2    0    0 -0.27887981366E+03  0.42039823647E+03  0.19774094250E+04  0.20407490443E+04  0.00000000000E+00 0. -1.
<mgrwt>
<rscale>  0 0.24018242E+04</rscale>
<asrwt>0</asrwt>
<pdfrwt beam="1">  1        2 0.32459965E+00 0.24018242E+04</pdfrwt>
<pdfrwt beam="2">  1       -2 0.10515930E+00 0.24018242E+04</pdfrwt>
<totfact> 0.38199365E+00</totfact>
</mgrwt>
</event>
<event>
 6    1  0.2003386E-005  0.2402533E+04  0.7818608E-02  0.8438556E-01
         -2   -1    0    0    0  501 -0.00000000000E+00  0.00000000000E+00  0.11702649849E+04  0.11702649849E+04  0.00000000000E+00 0.  1.
          2   -1    0    0  501    0  0.00000000000E+00 -0.00000000000E+00 -0.12330894814E+04  0.12330894814E+04  0.00000000000E+00 0. -1.
         23    2    1    2    0    0 -0.10584632879E+04  0.16518475323E+03  0.50870689436E+03  0.11891556913E+04  0.87624307501E+02 0.  0.
         13    1    3    3    0    0 -0.75366326821E+03  0.15755541394E+03  0.36352338916E+03  0.85145832827E+03  0.00000000000E+00 0.  1.
        -13    1    3    3    0    0 -0.30480001972E+03  0.76293392956E+01  0.14518350520E+03  0.33769736307E+03  0.00000000000E+00 0. -1.
         22    1    1    2    0    0  0.10584632879E+04 -0.16518475323E+03 -0.57153139085E+03  0.12141987750E+04  0.00000000000E+00 0. -1.
<mgrwt>
<rscale>  0 0.24025332E+04</rscale>
<asrwt>0</asrwt>
<pdfrwt beam="1">  1        2 0.18970607E+00 0.24025332E+04</pdfrwt>
<pdfrwt beam="2">  1       -2 0.18004077E+00 0.24025332E+04</pdfrwt>
<totfact> 0.29488739E+00</totfact>
</mgrwt>
</event>
<event>
 6    1  0.2003386E-005  0.2295006E+04  0.7818608E-02  0.8479893E-01
          2   -1    0    0  501    0  0.00000000000E+00  0.00000000000E+00  0.98020671778E+03  0.98020671778E+03  0.00000000000E+00 0. -1.
         -2   -1    0    0    0  501 -0.00000000000E+00 -0.00000000000E+00 -0.13433529745E+04  0.13433529745E+04  0.00000000000E+00 0.  1.
         23    2    1    2    0    0 -0.74251354790E+03 -0.87305169345E+03 -0.18108924628E+03  0.11630897946E+04  0.80242925224E+02 0.  0.
         11    1    3    3    0    0 -0.54779747005E+03 -0.58736557455E+03 -0.12807423339E+03  0.81331629495E+03  0.00000000000E+00 0.  1.
        -11    1    3    3    0    0 -0.19471607784E+03 -0.28568611890E+03 -0.53015012885E+02  0.34977349970E+03  0.00000000000E+00 0. -1.
         22    1    1    2    0    0  0.74251354790E+03  0.87305169345E+03 -0.18205701042E+03  0.11604698976E+04  0.00000000000E+00 0.  1.
<mgrwt>
<rscale>  0 0.22950064E+04</rscale>
<asrwt>0</asrwt>
<pdfrwt beam="1">  1        2 0.15080103E+00 0.22950064E+04</pdfrwt>
<pdfrwt beam="2">  1       -2 0.20666969E+00 0.22950064E+04</pdfrwt>
<totfact> 0.28302996E+00</totfact>
</mgrwt>
</event>
<event>
 6    1  0.2003386E-005  0.6989524E+03  0.7818608E-02  0.9719025E-01
          4   -1    0    0  501    0  0.00000000000E+00  0.00000000000E+00  0.26695980386E+04  0.26695980386E+04  0.00000000000E+00 0. -1.
         -4   -1    0    0    0  501 -0.00000000000E+00 -0.00000000000E+00 -0.45749810944E+02  0.45749810944E+02  0.00000000000E+00 0.  1.
         23    2    1    2    0    0  0.70760220515E+01  0.31587804436E+03  0.80886745721E+03  0.87307094145E+03  0.90317752867E+02 0.  0.
         11    1    3    3    0    0  0.14090591082E+02  0.43507070675E+02  0.21317790397E+03  0.21802804567E+03  0.00000000000E+00 0. -1.
        -11    1    3    3    0    0 -0.70145690301E+01  0.27237097368E+03  0.59568955324E+03  0.65504289579E+03  0.00000000000E+00 0.  1.
         22    1    1    2    0    0 -0.70760220515E+01 -0.31587804436E+03  0.18149807705E+04  0.18422769081E+04  0.00000000000E+00 0. -1.
<mgrwt>
<rscale>  0 0.69895237E+03</rscale>
<asrwt>0</asrwt>
<pdfrwt beam="1">  1        4 0.41070727E+00 0.69895237E+03</pdfrwt>
<pdfrwt beam="2">  1       -4 0.70384345E-02 0.69895237E+03</pdfrwt>
<totfact> 0.17653351E+00</totfact>
</mgrwt>
</event>
<event>
 6    1  0.2003386E-005  0.3928543E+04  0.7818608E-02  0.8019119E-01
          2   -1    0    0  501    0  0.00000000000E+00  0.00000000000E+00  0.13238089829E+04  0.13238089829E+04  0.00000000000E+00 0.  1.
         -2   -1    0    0    0  501 -0.00000000000E+00 -0.00000000000E+00 -0.29145921297E+04  0.29145921297E+04  0.00000000000E+00 0. -1.
         23    2    1    2    0    0 -0.39030942146E+03 -0.15566153797E+04 -0.20158117120E+04  0.25782679354E+04  0.92605635880E+02 0.  0.
         11    1    3    3    0    0 -0.16482754815E+03 -0.67241436701E+03 -0.94341147153E+03  0.11701856290E+04  0.00000000000E+00 0. -1.
        -11    1    3    3    0    0 -0.22548187331E+03 -0.88420101272E+03 -0.10724002404E+04  0.14080823065E+04  0.00000000000E+00 0.  1.
         22    1    1    2    0    0  0.39030942146E+03  0.15566153797E+04  0.42502856516E+03  0.16601331772E+04  0.00000000000E+00 0.  1.
<mgrwt>
<rscale>  0 0.39285434E+04</rscale>
<asrwt>0</asrwt>
<pdfrwt beam="1">  1        2 0.20366292E+00 0.39285434E+04</pdfrwt>
<pdfrwt beam="2">  1       -2 0.44839878E+00 0.39285434E+04</pdfrwt>
<totfact> 0.45173977E-02</totfact>
</mgrwt>
</event>
<event>
 6    1  0.2003386E-005  0.2392756E+04  0.7818608E-02  0.8442221E-01
         -2   -1    0    0    0  501 -0.00000000000E+00  0.00000000000E+00  0.16249566247E+04  0.16249566247E+04  0.00000000000E+00 0.  1.
          2   -1    0    0  501    0  0.00000000000E+00 -0.00000000000E+00 -0.88083581328E+03  0.88083581328E+03  0.00000000000E+00 0. -1.
         23    2    1    2    0    0 -0.72602095220E+02  0.46148149089E+03 -0.77794647367E+03  0.91364764211E+03  0.10637230543E+03 0.  0.
         11    1    3    3    0    0 -0.76327945236E+02  0.20846922425E+03 -0.42330001945E+03  0.47798355531E+03  0.00000000000E+00 0. -1.
        -11    1    3    3    0    0  0.37258500161E+01  0.25301226665E+03 -0.35464645422E+03  0.43566408680E+03  0.00000000000E+00 0.  1.
         22    1    1    2    0    0  0.72602095220E+02 -0.46148149089E+03  0.15220672851E+04  0.15921447959E+04  0.00000000000E+00 0.  1.
<mgrwt>
<rscale>  0 0.23927557E+04</rscale>
<asrwt>0</asrwt>
<pdfrwt beam="1">  1        2 0.13551320E+00 0.23927557E+04</pdfrwt>
<pdfrwt beam="2">  1       -2 0.24999333E+00 0.23927557E+04</pdfrwt>
<totfact> 0.17470427E+00</totfact>
</mgrwt>
</event>
<event>
 6    1  0.2003386E-005  0.1331260E+04  0.7818608E-02  0.9005137E-01
         -1   -1    0    0    0  501 -0.00000000000E+00  0.00000000000E+00  0.12214839376E+03  0.12214839376E+03  0.00000000000E+00 0.  1.
          1   -1    0    0  501    0  0.00000000000E+00 -0.00000000000E+00 -0.36272527703E+04  0.36272527703E+04  0.00000000000E+00 0. -1.
         23    2    1    2    0    0 -0.42600314479E+02 -0.65686138848E+03 -0.19792724453E+04  0.20876416289E+04  0.86293031344E+02 0.  0.
         11    1    3    3    0    0 -0.11455482321E+01 -0.49603747955E+03 -0.14144063592E+04  0.14988661856E+04  0.00000000000E+00 0. -1.
        -11    1    3    3    0    0 -0.41454766247E+02 -0.16082390894E+03 -0.56486608617E+03  0.58877544330E+03  0.00000000000E+00 0.  1.
         22    1    1    2    0    0  0.42600314479E+02  0.65686138848E+03 -0.15258319312E+04  0.16617595352E+04  0.00000000000E+00 0. -1.
<mgrwt>
<rscale>  0 0.13312597E+04</rscale>
<asrwt>0</asrwt>
<pdfrwt beam="1">  1        1 0.55803879E+00 0.13312597E+04</pdfrwt>
<pdfrwt beam="2">  1       -1 0.18792064E-01 0.13312597E+04</pdfrwt>
<totfact> 0.44846068E+00</totfact>
</mgrwt>
</event>
<event>
 6    1  0.2003386E-005  0.1801983E+04  0.7818608E-02  0.8705246E-01
         -2   -1    0    0    0  501 -0.00000000000E+00  0.00000000000E+00  0.39238364731E+03  0.39238364731E+03  0.00000000000E+00 0. -1.
          2   -1    0    0  501    0  0.00000000000E+00 -0.00000000000E+00 -0.20688567467E+04  0.20688567467E+04  0.00000000000E+00 0.  1.
         23    2    1    2    0    0 -0.47195189255E+03 -0.74242937463E+03 -0.58944452908E+03  0.10628230465E+04  0.90598068889E+02 0.  0.
         13    1    3    3    0    0 -0.17145065210E+03 -0.20734641669E+03 -0.20998445797E+03  0.34129362022E+03  0.00000000000E+00 0.  1.
        -13    1    3    3    0    0 -0.30050124045E+03 -0.53508295794E+03 -0.37946007111E+03  0.72152942626E+03  0.00000000000E+00 0. -1.
         22    1    1    2    0    0  0.47195189255E+03  0.74242937463E+03 -0.10870285704E+04  0.13984173476E+04  0.00000000000E+00 0. -1.
<mgrwt>
<rscale>  0 0.18019829E+04</rscale>
<asrwt>0</asrwt>
<pdfrwt beam="1">  1        2 0.31828566E+00 0.18019829E+04</pdfrwt>
<pdfrwt beam="2">  1       -2 0.60366713E-01 0.18019829E+04</pdfrwt>
<totfact> 0.14761273E+01</totfact>
</mgrwt>
</event>
<event>
 6    1  0.2003386E-005  0.6068457E+03  0.7818608E-02  0.9891304E-01
          2   -1    0    0  501    0  0.00000000000E+00  0.00000000000E+00  0.92115487162E+03  0.92115487162E+03  0.00000000000E+00 0. -1.
         -2   -1    0    0    0  501 -0.00000000000E+00 -0.00000000000E+00 -0.99945649622E+02  0.99945649622E+02  0.00000000000E+00 0.  1.
         23    2    1    2    0    0  0.12459119811E+03  0.16102893411E+03  0.57097563193E+02  0.23032880236E+03  0.91312327787E+02 0.  0.
         13    1    3    3    0    0  0.30206171469E+02  0.95003555154E+02  0.57614582747E+02  0.11514134111E+03  0.00000000000E+00 0. -1.
        -13    1    3    3    0    0  0.94385026639E+02  0.66025378955E+02 -0.51701955469E+00  0.11518746125E+03  0.00000000000E+00 0.  1.
         22    1    1    2    0    0 -0.12459119811E+03 -0.16102893411E+03  0.76411165881E+03  0.79077171889E+03  0.00000000000E+00 0. -1.
<mgrwt>
<rscale>  0 0.60684569E+03</rscale>
<asrwt>0</asrwt>
<pdfrwt beam="1">  1        2 0.14171613E+00 0.60684569E+03</pdfrwt>
<pdfrwt beam="2">  1       -2 0.15376254E-01 0.60684569E+03</pdfrwt>
<totfact> 0.95975081E+02</totfact>
</mgrwt>
</event>
<event>
 6    1  0.2003386E-005  0.8181857E+03  0.7818608E-02  0.9534061E-01
         -1   -1    0    0    0  501 -0.00000000000E+00  0.00000000000E+00  0.14499182940E+03  0.14499182940E+03  0.00000000000E+00 0.  1.
          1   -1    0    0  501    0  0.00000000000E+00 -0.00000000000E+00 -0.11542510995E+04  0.11542510995E+04  0.00000000000E+00 0. -1.
         23    2    1    2    0    0  0.20511311736E+03  0.26023703068E+03 -0.87799218501E+03  0.94283620805E+03  0.90967770135E+02 0.  0.
         13    1    3    3    0    0  0.56793504855E+02  0.14519007032E+03 -0.39980217064E+03  0.42912403144E+03  0.00000000000E+00 0. -1.
        -13    1    3    3    0    0  0.14831961250E+03  0.11504696036E+03 -0.47819001438E+03  0.51371217660E+03  0.00000000000E+00 0.  1.
         22    1    1    2    0    0 -0.20511311736E+03 -0.26023703068E+03 -0.13126708511E+03  0.35640672088E+03  0.00000000000E+00 0.  1.
<mgrwt>
<rscale>  0 0.81818575E+03</rscale>
<asrwt>0</asrwt>
<pdfrwt beam="1">  1        1 0.17757709E+00 0.81818575E+03</pdfrwt>
<pdfrwt beam="2">  1       -1 0.22306436E-01 0.81818575E+03</pdfrwt>
<totfact> 0.19846246E+02</totfact>
</mgrwt>
</event>
<event>
 6    1  0.2003386E-005  0.5905143E+04  0.7818608E-02  0.7702275E-01
          2   -1    0    0  501    0  0.00000000000E+00  0.00000000000E+00  0.31489379308E+04  0.31489379308E+04  0.00000000000E+00 0. -1.
         -2   -1    0    0    0  501 -0.00000000000E+00 -0.00000000000E+00 -0.27684503421E+04  0.27684503421E+04  0.00000000000E+00 0.  1.
         23    2    1    2    0    0  0.68866236355E+03  0.17847938402E+04 -0.20624159593E+04  0.28145633265E+04  0.91990361185E+02 0.  0.
         13    1    3    3    0    0  0.47571167866E+03  0.11268217484E+04 -0.13499920778E+04  0.18216771021E+04  0.00000000000E+00 0. -1.
        -13    1    3    3    0    0  0.21295068488E+03  0.65797209179E+03 -0.71242388146E+03  0.99288622442E+03  0.00000000000E+00 0.  1.
         22    1    1    2    0    0 -0.68866236355E+03 -0.17847938402E+04  0.24429035480E+04  0.31028249464E+04  0.00000000000E+00 0. -1.
<mgrwt>
<rscale>  0 0.59051429E+04</rscale>
<asrwt>0</asrwt>
<pdfrwt beam="1">  1        2 0.48445199E+00 0.59051429E+04</pdfrwt>
<pdfrwt beam="2">  1       -2 0.42591544E+00 0.59051429E+04</pdfrwt>
<totfact> 0.47642662E-03</totfact>
</mgrwt>
</event>
<event>
 6    1  0.2003386E-005  0.4327932E+03  0.7818608E-02  0.1032981E+00
         -2   -1    0    0    0  501 -0.00000000000E+00  0.00000000000E+00  0.56093780693E+03  0.56093780693E+03  0.00000000000E+00 0.  1.
          2   -1    0    0  501    0  0.00000000000E+00 -0.00000000000E+00 -0.83480732018E+02  0.83480732018E+02  0.00000000000E+00 0. -1.
         23    2    1    2    0    0  0.10602398328E+03 -0.15567455289E+03  0.11913128066E+03  0.23960620431E+03  0.87995566164E+02 0.  0.
         13    1    3    3    0    0  0.34359136072E+02 -0.71741670306E+02  0.32990634135E+01  0.79613449299E+02  0.00000000000E+00 0. -1.
        -13    1    3    3    0    0  0.71664847211E+02 -0.83932882582E+02  0.11583221724E+03  0.15999275501E+03  0.00000000000E+00 0.  1.
         22    1    1    2    0    0 -0.10602398328E+03  0.15567455289E+03  0.35832579426E+03  0.40481233464E+03  0.00000000000E+00 0. -1.
<mgrwt>
<rscale>  0 0.43279325E+03</rscale>
<asrwt>0</asrwt>
<pdfrwt beam="1">  1        2 0.12843190E-01 0.43279325E+03</pdfrwt>
<pdfrwt beam="2">  1       -2 0.86298122E-01 0.43279325E+03</pdfrwt>
<totfact> 0.56871110E+02</totfact>
</mgrwt>
</event>
<event>
 6    1  0.2003386E-005  0.4556933E+04  0.7818608E-02  0.7900745E-01
          2   -1    0    0  501    0  0.00000000000E+00  0.00000000000E+00  0.33677054639E+04  0.33677054639E+04  0.00000000000E+00 0. -1.
         -2   -1    0    0    0  501 -0.00000000000E+00 -0.00000000000E+00 -0.15415272537E+04  0.15415272537E+04  0.00000000000E+00 0.  1.
         23    2    1    2    0    0  0.13719036387E+04 -0.15890627724E+04 -0.38095676738E+02  0.21016078827E+04  0.89801577280E+02 0.  0.
         13    1    3    3    0    0  0.64043568227E+03 -0.77622257148E+03  0.20567109345E+02  0.10065298553E+04  0.00000000000E+00 0. -1.
        -13    1    3    3    0    0  0.73146795648E+03 -0.81284020092E+03 -0.58662786084E+02  0.10950780274E+04  0.00000000000E+00 0.  1.
         22    1    1    2    0    0 -0.13719036387E+04  0.15890627724E+04  0.18642738869E+04  0.28076248350E+04  0.00000000000E+00 0. -1.
<mgrwt>
<rscale>  0 0.45569331E+04</rscale>
<asrwt>0</asrwt>
<pdfrwt beam="1">  1        2 0.51810853E+00 0.45569331E+04</pdfrwt>
<pdfrwt beam="2">  1       -2 0.23715804E+00 0.45569331E+04</pdfrwt>
<totfact> 0.58269833E-02</totfact>
</mgrwt>
</event>
<event>
 6    1  0.2003386E-005  0.1047781E+04  0.7818608E-02  0.9257638E-01
          2   -1    0    0  501    0  0.00000000000E+00  0.00000000000E+00  0.78636673276E+03  0.78636673276E+03  0.00000000000E+00 0. -1.
         -2   -1    0    0    0  501 -0.00000000000E+00 -0.00000000000E+00 -0.34902478551E+03  0.34902478551E+03  0.00000000000E+00 0.  1.
         23    2    1    2    0    0  0.44715143796E+02  0.43471398225E+03 -0.84078712375E+02  0.45505689860E+03  0.95036101781E+02 0.  0.
         13    1    3    3    0    0  0.71261273334E+02  0.35435360053E+03 -0.80759875374E+02  0.37036036607E+03  0.00000000000E+00 0.  1.
        -13    1    3    3    0    0 -0.26546129538E+02  0.80360381723E+02 -0.33188370003E+01  0.84696532533E+02  0.00000000000E+00 0. -1.
         22    1    1    2    0    0 -0.44715143796E+02 -0.43471398225E+03  0.52142065962E+03  0.68033461967E+03  0.00000000000E+00 0. -1.
<mgrwt>
<rscale>  0 0.10477814E+04</rscale>
<asrwt>0</asrwt>
<pdfrwt beam="1">  1        2 0.12097950E+00 0.10477814E+04</pdfrwt>
<pdfrwt beam="2">  1       -2 0.53696121E-01 0.10477814E+04</pdfrwt>
<totfact> 0.11470418E+02</totfact>
</mgrwt>
</event>
<event>
 6    1  0.2003386E-005  0.5376991E+04  0.7818608E-02  0.7772846E-01
          2   -1    0    0  501    0  0.00000000000E+00  0.00000000000E+00  0.34298254092E+04  0.34298254092E+04  0.00000000000E+00 0. -1.
         -2   -1    0    0    0  501 -0.00000000000E+00 -0.00000000000E+00 -0.21073984571E+04  0.21073984571E+04  0.00000000000E+00 0.  1.
         23    2    1    2    0    0  0.15921183827E+04  0.18633447000E+04  0.17974797582E+04  0.30407123834E+04  0.90021674099E+02 0.  0.
         13    1    3    3    0    0  0.11514367263E+04  0.13471119926E+04  0.13491001743E+04  0.22272378713E+04  0.00000000000E+00 0. -1.
        -13    1    3    3    0    0  0.44068165641E+03  0.51623270744E+03  0.44837958390E+03  0.81347451207E+03  0.00000000000E+00 0.  1.
         22    1    1    2    0    0 -0.15921183827E+04 -0.18633447000E+04 -0.47505280615E+03  0.24965114829E+04  0.00000000000E+00 0.  1.
<mgrwt>
<rscale>  0 0.53769913E+04</rscale>
<asrwt>0</asrwt>
<pdfrwt beam="1">  1        2 0.52766545E+00 0.53769913E+04</pdfrwt>
<pdfrwt beam="2">  1       -2 0.32421515E+00 0.53769913E+04</pdfrwt>
<totfact> 0.14466559E-02</totfact>
</mgrwt>
</event>
<event>
 6    1  0.2003386E-005  0.2898306E+04  0.7818608E-02  0.8273382E-01
          2   -1    0    0  501    0  0.00000000000E+00  0.00000000000E+00  0.10892269104E+04  0.10892269104E+04  0.00000000000E+00 0. -1.
         -2   -1    0    0    0  501 -0.00000000000E+00 -0.00000000000E+00 -0.19280142275E+04  0.19280142275E+04  0.00000000000E+00 0.  1.
         23    2    1    2    0    0  0.51784550093E+03 -0.10499803580E+04 -0.13061135596E+04  0.17566791474E+04  0.96779550255E+02 0.  0.
         13    1    3    3    0    0  0.41055023954E+03 -0.90792195694E+03 -0.10943131376E+04  0.14799983183E+04  0.00000000000E+00 0. -1.
        -13    1    3    3    0    0  0.10729526140E+03 -0.14205840104E+03 -0.21180042203E+03  0.27668082911E+03  0.00000000000E+00 0.  1.
         22    1    1    2    0    0 -0.51784550093E+03  0.10499803580E+04  0.46732624249E+03  0.12605619905E+04  0.00000000000E+00 0. -1.
<mgrwt>
<rscale>  0 0.28983064E+04</rscale>
<asrwt>0</asrwt>
<pdfrwt beam="1">  1        2 0.16757337E+00 0.28983064E+04</pdfrwt>
<pdfrwt beam="2">  1       -2 0.29661757E+00 0.28983064E+04</pdfrwt>
<totfact> 0.63656040E-01</totfact>
</mgrwt>
</event>
<event>
 6    1  0.2003386E-005  0.2983122E+04  0.7818608E-02  0.8248567E-01
         -1   -1    0    0    0  501 -0.00000000000E+00  0.00000000000E+00  0.10475942672E+04  0.10475942672E+04  0.00000000000E+00 0.  1.
          1   -1    0    0  501    0  0.00000000000E+00 -0.00000000000E+00 -0.21236799351E+04  0.21236799351E+04  0.00000000000E+00 0. -1.
         23    2    1    2    0    0 -0.18839368657E+03 -0.68951366481E+03  0.85140725555E+03  0.11155139426E+04  0.92497384776E+02 0.  0.
         13    1    3    3    0    0  0.37844704306E+01 -0.11211962899E+03  0.12899195414E+03  0.17095045380E+03  0.00000000000E+00 0. -1.
        -13    1    3    3    0    0 -0.19217815700E+03 -0.57739403582E+03  0.72241530141E+03  0.94456348878E+03  0.00000000000E+00 0.  1.
         22    1    1    2    0    0  0.18839368657E+03  0.68951366481E+03 -0.19274929235E+04  0.20557602597E+04  0.00000000000E+00 0. -1.
<mgrwt>
<rscale>  0 0.29831225E+04</rscale>
<asrwt>0</asrwt>
<pdfrwt beam="1">  1        1 0.32671999E+00 0.29831225E+04</pdfrwt>
<pdfrwt beam="2">  1       -1 0.16116835E+00 0.29831225E+04</pdfrwt>
<totfact> 0.59924327E-01</totfact>
</mgrwt>
</event>
<event>
 6    1  0.2003386E-005  0.2077302E+04  0.7818608E-02  0.8571308E-01
         -2   -1    0    0    0  501 -0.00000000000E+00  0.00000000000E+00  0.49503283843E+03  0.49503283843E+03  0.00000000000E+00 0.  1.
          2   -1    0    0  501    0  0.00000000000E+00 -0.00000000000E+00 -0.21792412083E+04  0.21792412083E+04  0.00000000000E+00 0. -1.
         23    2    1    2    0    0  0.77860490251E+02  0.97276351923E+03 -0.39408264854E+03  0.10566351819E+04  0.94051333956E+02 0.  0.
         11    1    3    3    0    0 -0.12952886778E+02  0.16567443691E+03 -0.41890045289E+02  0.17137844735E+03  0.00000000000E+00 0. -1.
        -11    1    3    3    0    0  0.90813377029E+02  0.80708908231E+03 -0.35219260325E+03  0.88525673452E+03  0.00000000000E+00 0.  1.
         22    1    1    2    0    0 -0.77860490251E+02 -0.97276351923E+03 -0.12901257214E+04  0.16176388649E+04  0.00000000000E+00 0. -1.
<mgrwt>
<rscale>  0 0.20773021E+04</rscale>
<asrwt>0</asrwt>
<pdfrwt beam="1">  1        2 0.33526788E+00 0.20773021E+04</pdfrwt>
<pdfrwt beam="2">  1       -2 0.76158897E-01 0.20773021E+04</pdfrwt>
<totfact> 0.75577861E+00</totfact>
</mgrwt>
</event>
<event>
 6    1  0.2003386E-005  0.2366560E+04  0.7818608E-02  0.8452130E-01
         -2   -1    0    0    0  501 -0.00000000000E+00  0.00000000000E+00  0.12718065109E+04  0.12718065109E+04  0.00000000000E+00 0.  1.
          2   -1    0    0  501    0  0.00000000000E+00 -0.00000000000E+00 -0.11009154349E+04  0.11009154349E+04  0.00000000000E+00 0. -1.
         23    2    1    2    0    0  0.48484952903E+03  0.10039961816E+04 -0.30632117423E+03  0.11599487064E+04  0.92525354013E+02 0.  0.
         11    1    3    3    0    0  0.42243313228E+03  0.78993224556E+03 -0.24457039507E+03  0.92857815070E+03  0.00000000000E+00 0. -1.
        -11    1    3    3    0    0  0.62416396752E+02  0.21406393606E+03 -0.61750779160E+02  0.23137055567E+03  0.00000000000E+00 0.  1.
         22    1    1    2    0    0 -0.48484952903E+03 -0.10039961816E+04  0.47721225027E+03  0.12127732394E+04  0.00000000000E+00 0.  1.
<mgrwt>
<rscale>  0 0.23665599E+04</rscale>
<asrwt>0</asrwt>
<pdfrwt beam="1">  1        2 0.16937161E+00 0.23665599E+04</pdfrwt>
<pdfrwt beam="2">  1       -2 0.19566254E+00 0.23665599E+04</pdfrwt>
<totfact> 0.27869533E+00</totfact>
</mgrwt>
</event>
<event>
 6    1  0.2003386E-005  0.2254860E+04  0.7818608E-02  0.8495935E-01
          2   -1    0    0  501    0  0.00000000000E+00  0.00000000000E+00  0.73787202501E+03  0.73787202501E+03  0.00000000000E+00 0. -1.
         -2   -1    0    0    0  501 -0.00000000000E+00 -0.00000000000E+00 -0.17226541406E+04  0.17226541406E+04  0.00000000000E+00 0.  1.
         23    2    1    2    0    0  0.98919553278E+02  0.11141017424E+04 -0.63078668555E+03  0.12873592828E+04  0.91620466877E+02 0.  0.
         11    1    3    3    0    0  0.70681300826E+02  0.32806569947E+03 -0.19631000703E+03  0.38879373493E+03  0.00000000000E+00 0.  1.
        -11    1    3    3    0    0  0.28238252452E+02  0.78603604290E+03 -0.43447667852E+03  0.89856554786E+03  0.00000000000E+00 0. -1.
         22    1    1    2    0    0 -0.98919553278E+02 -0.11141017424E+04 -0.35399542999E+03  0.11731668828E+04  0.00000000000E+00 0. -1.
<mgrwt>
<rscale>  0 0.22548599E+04</rscale>
<asrwt>0</asrwt>
<pdfrwt beam="1">  1        2 0.11351877E+00 0.22548599E+04</pdfrwt>
<pdfrwt beam="2">  1       -2 0.26502371E+00 0.22548599E+04</pdfrwt>
<totfact> 0.18116179E+00</totfact>
</mgrwt>
</event>
<event>
 6    1  0.2003386E-005  0.3237969E+04  0.7818608E-02  0.8178861E-01
          2   -1    0    0  501    0  0.00000000000E+00  0.00000000000E+00  0.43581849722E+04  0.43581849722E+04  0.00000000000E+00 0. -1.
         -2   -1    0    0    0  501 -0.00000000000E+00 -0.00000000000E+00 -0.60142240469E+03  0.60142240469E+03  0.00000000000E+00 0.  1.
         23    2    1    2    0    0 -0.12072101704E+03 -0.91371204512E+03 -0.15634396393E+03  0.93942753121E+03  0.92937538030E+02 0.  0.
         13    1    3    3    0    0 -0.80350837572E+02 -0.46314361642E+03 -0.12265817195E+03  0.48580170201E+03  0.00000000000E+00 0.  1.
        -13    1    3    3    0    0 -0.40370179472E+02 -0.45056842870E+03 -0.33685791976E+02  0.45362582919E+03  0.00000000000E+00 0. -1.
         22    1    1    2    0    0  0.12072101704E+03  0.91371204512E+03  0.39131065315E+04  0.40201798457E+04  0.00000000000E+00 0. -1.
<mgrwt>
<rscale>  0 0.32379686E+04</rscale>
<asrwt>0</asrwt>
<pdfrwt beam="1">  1        2 0.67048997E+00 0.32379686E+04</pdfrwt>
<pdfrwt beam="2">  1       -2 0.92526527E-01 0.32379686E+04</pdfrwt>
<totfact> 0.13929271E-01</totfact>
</mgrwt>
</event>
<event>
 6    1  0.2003386E-005  0.1952150E+04  0.7818608E-02  0.8629325E-01
          1   -1    0    0  501    0  0.00000000000E+00  0.00000000000E+00  0.13032552369E+04  0.13032552369E+04  0.00000000000E+00 0. -1.
         -1   -1    0    0    0  501 -0.00000000000E+00 -0.00000000000E+00 -0.73103294701E+03  0.73103294701E+03  0.00000000000E+00 0.  1.
         23    2    1    2    0    0  0.59383207354E+03 -0.13023946166E+03  0.10795703123E+04  0.12424543221E+04  0.92853832816E+02 0.  0.
         13    1    3    3    0    0  0.34237973742E+03 -0.44086864264E+02  0.53898397810E+03  0.64005567324E+03  0.00000000000E+00 0. -1.
        -13    1    3    3    0    0  0.25145233612E+03 -0.86152597393E+02  0.54058633422E+03  0.60239864884E+03  0.00000000000E+00 0.  1.
         22    1    1    2    0    0 -0.59383207354E+03  0.13023946166E+03 -0.50734802241E+03  0.79183386186E+03  0.00000000000E+00 0.  1.
<mgrwt>
<rscale>  0 0.19521501E+04</rscale>
<asrwt>0</asrwt>
<pdfrwt beam="1">  1        1 0.20050081E+00 0.19521501E+04</pdfrwt>
<pdfrwt beam="2">  1       -1 0.11246661E+00 0.19521501E+04</pdfrwt>
<totfact> 0.60679036E+00</totfact>
</mgrwt>
</event>
<event>
 6    1  0.2003386E-005  0.2619968E+04  0.7818608E-02  0.8361450E-01
         -1   -1    0    0    0  501 -0.00000000000E+00  0.00000000000E+00  0.49471347908E+03  0.49471347908E+03  0.00000000000E+00 0.  1.
          1   -1    0    0  501    0  0.00000000000E+00 -0.00000000000E+00 -0.34687917962E+04  0.34687917962E+04  0.00000000000E+00 0. -1.
         23    2    1    2    0    0 -0.77291222365E+03 -0.81584633955E+03 -0.47497329146E+03  0.12233365789E+04  0.89186335951E+02 0.  0.
         13    1    3    3    0    0 -0.30150477550E+03 -0.28018415995E+03 -0.21096113075E+03  0.46250718029E+03  0.00000000000E+00 0.  1.
        -13    1    3    3    0    0 -0.47140744815E+03 -0.53566217959E+03 -0.26401216071E+03  0.76082939863E+03  0.00000000000E+00 0. -1.
         22    1    1    2    0    0  0.77291222365E+03  0.81584633955E+03 -0.24991050257E+04  0.27401686964E+04  0.00000000000E+00 0. -1.
<mgrwt>
<rscale>  0 0.26199680E+04</rscale>
<asrwt>0</asrwt>
<pdfrwt beam="1">  1        1 0.53366026E+00 0.26199680E+04</pdfrwt>
<pdfrwt beam="2">  1       -1 0.76109769E-01 0.26199680E+04</pdfrwt>
<totfact> 0.40316331E-01</totfact>
</mgrwt>
</event>
<event>
 6    1  0.2003386E-005  0.3822831E+04  0.7818608E-02  0.8041273E-01
         -2   -1    0    0    0  501 -0.00000000000E+00  0.00000000000E+00  0.11874359112E+04  0.11874359112E+04  0.00000000000E+00 0.  1.
          2   -1    0    0  501    0  0.00000000000E+00 -0.00000000000E+00 -0.30768056575E+04  0.30768056575E+04  0.00000000000E+00 0. -1.
         23    2    1    2    0    0 -0.79520736982E+03 -0.36235526425E+02  0.99190922604E+03  0.12750215550E+04  0.90156966118E+02 0.  0.
         13    1    3    3    0    0 -0.58116553985E+03 -0.47044446612E+02  0.77780221403E+03  0.97208170892E+03  0.00000000000E+00 0. -1.
        -13    1    3    3    0    0 -0.21404182997E+03  0.10808920187E+02  0.21410701201E+03  0.30293984605E+03  0.00000000000E+00 0.  1.
         22    1    1    2    0    0  0.79520736982E+03  0.36235526425E+02 -0.28812789723E+04  0.29892200138E+04  0.00000000000E+00 0. -1.
<mgrwt>
<rscale>  0 0.38228312E+04</rscale>
<asrwt>0</asrwt>
<pdfrwt beam="1">  1        2 0.47335471E+00 0.38228312E+04</pdfrwt>
<pdfrwt beam="2">  1       -2 0.18268245E+00 0.38228312E+04</pdfrwt>
<totfact> 0.21637543E-01</totfact>
</mgrwt>
</event>
<event>
 6    1  0.2003386E-005  0.1697610E+04  0.7818608E-02  0.8762728E-01
         -2   -1    0    0    0  501 -0.00000000000E+00  0.00000000000E+00  0.36225891596E+03  0.36225891596E+03  0.00000000000E+00 0.  1.
          2   -1    0    0  501    0  0.00000000000E+00 -0.00000000000E+00 -0.19888267672E+04  0.19888267672E+04  0.00000000000E+00 0. -1.
         23    2    1    2    0    0 -0.35223471303E+02  0.71105662163E+03 -0.14494232481E+04  0.16174492456E+04  0.92043999000E+02 0.  0.
         11    1    3    3    0    0  0.13366396919E+02  0.53541611021E+03 -0.10882040298E+04  0.12128631753E+04  0.00000000000E+00 0. -1.
        -11    1    3    3    0    0 -0.48589868222E+02  0.17564051142E+03 -0.36121921835E+03  0.40458607026E+03  0.00000000000E+00 0.  1.
         22    1    1    2    0    0  0.35223471303E+02 -0.71105662163E+03 -0.17714460308E+03  0.73363643755E+03  0.00000000000E+00 0.  1.
<mgrwt>
<rscale>  0 0.16976104E+04</rscale>
<asrwt>0</asrwt>
<pdfrwt beam="1">  1        2 0.30597335E+00 0.16976104E+04</pdfrwt>
<pdfrwt beam="2">  1       -2 0.55732141E-01 0.16976104E+04</pdfrwt>
<totfact> 0.19510677E+01</totfact>
</mgrwt>
</event>
<event>
 6    1  0.2003386E-005  0.4744055E+04  0.7818608E-02  0.7869249E-01
          2   -1    0    0  501    0  0.00000000000E+00  0.00000000000E+00  0.27882197848E+04  0.27882197848E+04  0.00000000000E+00 0. -1.
         -2   -1    0    0    0  501 -0.00000000000E+00 -0.00000000000E+00 -0.20179598368E+04  0.20179598368E+04  0.00000000000E+00 0.  1.
         23    2    1    2    0    0 -0.24657411287E+03 -0.23504874409E+04  0.18757899935E+03  0.23720253351E+04  0.75685575675E+02 0.  0.
         13    1    3    3    0    0 -0.59969116718E+02 -0.45865736314E+03  0.64469393071E+02  0.46703230548E+03  0.00000000000E+00 0.  1.
        -13    1    3    3    0    0 -0.18660499616E+03 -0.18918300777E+04  0.12310960628E+03  0.19049930296E+04  0.00000000000E+00 0. -1.
         22    1    1    2    0    0  0.24657411287E+03  0.23504874409E+04  0.58268094861E+03  0.24341542865E+04  0.00000000000E+00 0.  1.
<mgrwt>
<rscale>  0 0.47440555E+04</rscale>
<asrwt>0</asrwt>
<pdfrwt beam="1">  1        2 0.42895689E+00 0.47440555E+04</pdfrwt>
<pdfrwt beam="2">  1       -2 0.31045536E+00 0.47440555E+04</pdfrwt>
<totfact> 0.47874951E-02</totfact>
</mgrwt>
</event>
<event>
 6    1  0.2003386E-005  0.2724836E+04  0.7818608E-02  0.8326991E-01
         -2   -1    0    0    0  501 -0.00000000000E+00  0.00000000000E+00  0.10196301698E+04  0.10196301698E+04  0.00000000000E+00 0. -1.
          2   -1    0    0  501    0  0.00000000000E+00 -0.00000000000E+00 -0.18204469466E+04  0.18204469466E+04  0.00000000000E+00 0.  1.
         23    2    1    2    0    0 -0.83367335419E+03 -0.10733888535E+04 -0.33025149381E+03  0.14018119886E+04  0.93999521233E+02 0.  0.
         11    1    3    3    0    0 -0.70592625747E+03 -0.86195753432E+03 -0.29272235824E+03  0.11519501078E+04  0.00000000000E+00 0. -1.
        -11    1    3    3    0    0 -0.12774709672E+03 -0.21143131917E+03 -0.37529135570E+02  0.24986188078E+03  0.00000000000E+00 0.  1.
         22    1    1    2    0    0  0.83367335419E+03  0.10733888535E+04 -0.47056528302E+03  0.14382651278E+04  0.00000000000E+00 0. -1.
<mgrwt>
<rscale>  0 0.27248359E+04</rscale>
<asrwt>0</asrwt>
<pdfrwt beam="1">  1        2 0.28006876E+00 0.27248359E+04</pdfrwt>
<pdfrwt beam="2">  1       -2 0.15686618E+00 0.27248359E+04</pdfrwt>
<totfact> 0.19564682E+00</totfact>
</mgrwt>
</event>
<event>
 6    1  0.2003386E-005  0.4235256E+04  0.7818608E-02  0.7958699E-01
          2   -1    0    0  501    0  0.00000000000E+00  0.00000000000E+00  0.29644437330E+04  0.29644437330E+04  0.00000000000E+00 0. -1.
         -2   -1    0    0    0  501 -0.00000000000E+00 -0.00000000000E+00 -0.15127118473E+04  0.15127118473E+04  0.00000000000E+00 0.  1.
         23    2    1    2    0    0  0.47745037662E+03 -0.11871889633E+04  0.25085854609E+04  0.28175423795E+04  0.90374493530E+02 0.  0.
         13    1    3    3    0    0  0.25377322424E+02 -0.71182693884E+02  0.20023916160E+03  0.21402501311E+03  0.00000000000E+00 0.  1.
        -13    1    3    3    0    0  0.45207305419E+03 -0.11160062694E+04  0.23083462993E+04  0.26035173664E+04  0.00000000000E+00 0. -1.
         22    1    1    2    0    0 -0.47745037662E+03  0.11871889633E+04 -0.10568535752E+04  0.16596132007E+04  0.00000000000E+00 0.  1.
<mgrwt>
<rscale>  0 0.42352564E+04</rscale>
<asrwt>0</asrwt>
<pdfrwt beam="1">  1        2 0.45606826E+00 0.42352564E+04</pdfrwt>
<pdfrwt beam="2">  1       -2 0.23272490E+00 0.42352564E+04</pdfrwt>
<totfact> 0.11655933E-01</totfact>
</mgrwt>
</event>
<event>
 6    1  0.2003386E-005  0.1480604E+04  0.7818608E-02  0.8897454E-01
         -2   -1    0    0    0  501 -0.00000000000E+00  0.00000000000E+00  0.20783093701E+03  0.20783093701E+03  0.00000000000E+00 0.  1.
          2   -1    0    0  501    0  0.00000000000E+00 -0.00000000000E+00 -0.26369855043E+04  0.26369855043E+04  0.00000000000E+00 0. -1.
         23    2    1    2    0    0  0.63109751404E+03 -0.87983515315E+02 -0.19325955809E+04  0.20369823011E+04  0.91356686874E+02 0.  0.
         11    1    3    3    0    0  0.38635422193E+03 -0.87131929497E+01 -0.11569072755E+04  0.12197458541E+04  0.00000000000E+00 0. -1.
        -11    1    3    3    0    0  0.24474329212E+03 -0.79270322365E+02 -0.77568830543E+03  0.81723644695E+03  0.00000000000E+00 0.  1.
         22    1    1    2    0    0 -0.63109751404E+03  0.87983515315E+02 -0.49655898633E+03  0.80783414022E+03  0.00000000000E+00 0. -1.
<mgrwt>
<rscale>  0 0.14806042E+04</rscale>
<asrwt>0</asrwt>
<pdfrwt beam="1">  1        2 0.40569005E+00 0.14806042E+04</pdfrwt>
<pdfrwt beam="2">  1       -2 0.31973993E-01 0.14806042E+04</pdfrwt>
<totfact> 0.25581632E+01</totfact>
</mgrwt>
</event>
<event>
 6    1  0.2003386E-005  0.1284341E+04  0.7818608E-02  0.9042076E-01
         -2   -1    0    0    0  501 -0.00000000000E+00  0.00000000000E+00  0.21265883391E+03  0.21265883391E+03  0.00000000000E+00 0.  1.
          2   -1    0    0  501    0  0.00000000000E+00 -0.00000000000E+00 -0.19391771483E+04  0.19391771483E+04  0.00000000000E+00 0. -1.
         23    2    1    2    0    0 -0.22609358753E+03  0.56573398134E+03 -0.54054479656E+03  0.81852940345E+03  0.81415350261E+02 0.  0.
         13    1    3    3    0    0 -0.47001274728E+02  0.21721644714E+03 -0.21274223575E+03  0.30765461740E+03  0.00000000000E+00 0.  1.
        -13    1    3    3    0    0 -0.17909231280E+03  0.34851753421E+03 -0.32780256081E+03  0.51087478605E+03  0.00000000000E+00 0. -1.
         22    1    1    2    0    0  0.22609358753E+03 -0.56573398134E+03 -0.11859735178E+04  0.13333065787E+04  0.00000000000E+00 0. -1.
<mgrwt>
<rscale>  0 0.12843413E+04</rscale>
<asrwt>0</asrwt>
<pdfrwt beam="1">  1        2 0.29833496E+00 0.12843413E+04</pdfrwt>
<pdfrwt beam="2">  1       -2 0.32716743E-01 0.12843413E+04</pdfrwt>
<totfact> 0.61775145E+01</totfact>
</mgrwt>
</event>
<event>
 6    1  0.2003386E-005  0.1841334E+04  0.7818608E-02  0.8684622E-01
          2   -1    0    0  501    0  0.00000000000E+00  0.00000000000E+00  0.29801639545E+04  0.29801639545E+04  0.00000000000E+00 0. -1.
         -2   -1    0    0    0  501 -0.00000000000E+00 -0.00000000000E+00 -0.28442320082E+03  0.28442320082E+03  0.00000000000E+00 0.  1.
         23    2    1    2    0    0  0.23101312418E+03 -0.14307777388E+03  0.29065622570E+04  0.29206627172E+04  0.91259195464E+02 0.  0.
         13    1    3    3    0    0  0.83284566258E+02 -0.46735071206E+01  0.95058425684E+03  0.95423717702E+03  0.00000000000E+00 0. -1.
        -13    1    3    3    0    0  0.14772855792E+03 -0.13840426676E+03  0.19559780001E+04  0.19664255401E+04  0.00000000000E+00 0.  1.
         22    1    1    2    0    0 -0.23101312418E+03  0.14307777388E+03 -0.21082150330E+03  0.34392443818E+03  0.00000000000E+00 0.  1.
<mgrwt>
<rscale>  0 0.18413340E+04</rscale>
<asrwt>0</asrwt>
<pdfrwt beam="1">  1        2 0.45848674E+00 0.18413340E+04</pdfrwt>
<pdfrwt beam="2">  1       -2 0.43757418E-01 0.18413340E+04</pdfrwt>
<totfact> 0.83776183E+00</totfact>
</mgrwt>
</event>
<event>
 6    1  0.2003386E-005  0.1964475E+04  0.7818608E-02  0.8623412E-01
          2   -1    0    0  501    0  0.00000000000E+00  0.00000000000E+00  0.21665886260E+04  0.21665886260E+04  0.00000000000E+00 0. -1.
         -2   -1    0    0    0  501 -0.00000000000E+00 -0.00000000000E+00 -0.44530393440E+03  0.44530393440E+03  0.00000000000E+00 0.  1.
         23    2    1    2    0    0 -0.79961532352E+03 -0.61967804653E+02  0.11348667648E+03  0.81516243825E+03  0.91574562938E+02 0.  0.
         13    1    3    3    0    0 -0.34208663305E+03  0.18305725446E+02  0.40925661118E+02  0.34501199086E+03  0.00000000000E+00 0. -1.
        -13    1    3    3    0    0 -0.45752869046E+03 -0.80273530099E+02  0.72561015358E+02  0.47015044739E+03  0.00000000000E+00 0.  1.
         22    1    1    2    0    0  0.79961532352E+03  0.61967804653E+02  0.16077980151E+04  0.17967301221E+04  0.00000000000E+00 0. -1.
<mgrwt>
<rscale>  0 0.19644749E+04</rscale>
<asrwt>0</asrwt>
<pdfrwt beam="1">  1        2 0.33332132E+00 0.19644749E+04</pdfrwt>
<pdfrwt beam="2">  1       -2 0.68508299E-01 0.19644749E+04</pdfrwt>
<totfact> 0.97887541E+00</totfact>
</mgrwt>
</event>
<event>
 6    1  0.2003386E-005  0.1012850E+04  0.7818608E-02  0.9294563E-01
          2   -1    0    0  501    0  0.00000000000E+00  0.00000000000E+00  0.20988597925E+04  0.20988597925E+04  0.00000000000E+00 0. -1.
         -2   -1    0    0    0  501 -0.00000000000E+00 -0.00000000000E+00 -0.12219309790E+03  0.12219309790E+03  0.00000000000E+00 0.  1.
         23    2    1    2    0    0 -0.39832266851E+03  0.10403520949E+03  0.16273947844E+04  0.16811685136E+04  0.91812383633E+02 0.  0.
         13    1    3    3    0    0 -0.29459518243E+03  0.11639178392E+03  0.12608453523E+04  0.13000247580E+04  0.00000000000E+00 0. -1.
        -13    1    3    3    0    0 -0.10372748608E+03 -0.12356574437E+02  0.36654943208E+03  0.38114375564E+03  0.00000000000E+00 0.  1.
         22    1    1    2    0    0  0.39832266851E+03 -0.10403520949E+03  0.34927191025E+03  0.53988437684E+03  0.00000000000E+00 0.  1.
<mgrwt>
<rscale>  0 0.10128498E+04</rscale>
<asrwt>0</asrwt>
<pdfrwt beam="1">  1        2 0.32290148E+00 0.10128498E+04</pdfrwt>
<pdfrwt beam="2">  1       -2 0.18798940E-01 0.10128498E+04</pdfrwt>
<totfact> 0.14054608E+02</totfact>
</mgrwt>
</event>
<event>
 6    1  0.2175950E-005  0.1535417E+04  0.7818608E-02  0.8861237E-01
         -2   -1    0    0    0  501 -0.00000000000E+00  0.00000000000E+00  0.41079798213E+03  0.41079798213E+03  0.00000000000E+00 0.  1.
          2   -1    0    0  501    0  0.00000000000E+00 -0.00000000000E+00 -0.14347101077E+04  0.14347101077E+04  0.00000000000E+00 0. -1.
         23    2    1    2    0    0  0.14303652538E+03 -0.34360785314E+03  0.28967840095E+03  0.48020743588E+03  0.90331617716E+02 0.  0.
         13    1    3    3    0    0  0.43048097876E+02 -0.21549978222E+03  0.18108488673E+03  0.28475433460E+03  0.00000000000E+00 0. -1.
        -13    1    3    3    0    0  0.99988427505E+02 -0.12810807093E+03  0.10859351422E+03  0.19545310128E+03  0.00000000000E+00 0.  1.
         22    1    1    2    0    0 -0.14303652538E+03  0.34360785314E+03 -0.13135905266E+04  0.13653006540E+04  0.00000000000E+00 0. -1.
<mgrwt>
<rscale>  0 0.15354166E+04</rscale>
<asrwt>0</asrwt>
<pdfrwt beam="1">  1        2 0.22072463E+00 0.15354166E+04</pdfrwt>
<pdfrwt beam="2">  1       -2 0.63199689E-01 0.15354166E+04</pdfrwt>
<totfact> 0.30887526E+01</totfact>
</mgrwt>
</event>
<event>
 6    1  0.2003386E-005  0.6877770E+04  0.7818608E-02  0.7590174E-01
          2   -1    0    0  501    0  0.00000000000E+00  0.00000000000E+00  0.27774955847E+04  0.27774955847E+04  0.00000000000E+00 0.  1.
         -2   -1    0    0    0  501 -0.00000000000E+00 -0.00000000000E+00 -0.42577669379E+04  0.42577669379E+04  0.00000000000E+00 0. -1.
         23    2    1    2    0    0  0.15734303031E+04  0.98670769979E+02 -0.38657998354E+04  0.41758631139E+04  0.89473681189E+02 0.  0.
         11    1    3    3    0    0  0.78870701124E+03  0.20049571780E+02 -0.18439978124E+04  0.20056890754E+04  0.00000000000E+00 0.  1.
        -11    1    3    3    0    0  0.78472329181E+03  0.78621198199E+02 -0.20218020230E+04  0.21701740386E+04  0.00000000000E+00 0. -1.
         22    1    1    2    0    0 -0.15734303031E+04 -0.98670769979E+02  0.23855284821E+04  0.28593994087E+04  0.00000000000E+00 0.  1.
<mgrwt>
<rscale>  0 0.68777697E+04</rscale>
<asrwt>0</asrwt>
<pdfrwt beam="1">  1        2 0.42730701E+00 0.68777697E+04</pdfrwt>
<pdfrwt beam="2">  1       -2 0.65504107E+00 0.68777697E+04</pdfrwt>
<totfact> 0.49932066E-04</totfact>
</mgrwt>
</event>
<event>
 6    1  0.2003386E-005  0.1696244E+04  0.7818608E-02  0.8763509E-01
          2   -1    0    0  501    0  0.00000000000E+00  0.00000000000E+00  0.16718193767E+04  0.16718193767E+04  0.00000000000E+00 0. -1.
         -2   -1    0    0    0  501 -0.00000000000E+00 -0.00000000000E+00 -0.43025633304E+03  0.43025633304E+03  0.00000000000E+00 0.  1.
         23    2    1    2    0    0  0.52892516114E+03 -0.65937386080E+03  0.65107093445E+03  0.10709517378E+04  0.92241794856E+02 0.  0.
         13    1    3    3    0    0  0.84402160461E+02 -0.13232302303E+03  0.16248165848E+03  0.22590572471E+03  0.00000000000E+00 0. -1.
        -13    1    3    3    0    0  0.44452300067E+03 -0.52705083777E+03  0.48858927598E+03  0.84504601314E+03  0.00000000000E+00 0.  1.
         22    1    1    2    0    0 -0.52892516114E+03  0.65937386080E+03  0.59049210921E+03  0.10311239719E+04  0.00000000000E+00 0. -1.
<mgrwt>
<rscale>  0 0.16962439E+04</rscale>
<asrwt>0</asrwt>
<pdfrwt beam="1">  1        2 0.25720298E+00 0.16962439E+04</pdfrwt>
<pdfrwt beam="2">  1       -2 0.66193283E-01 0.16962439E+04</pdfrwt>
<totfact> 0.20313614E+01</totfact>
</mgrwt>
</event>
<event>
 6    1  0.2003386E-005  0.4325821E+04  0.7818608E-02  0.7941861E-01
          2   -1    0    0  501    0  0.00000000000E+00  0.00000000000E+00  0.35513994756E+04  0.35513994756E+04  0.00000000000E+00 0. -1.
         -2   -1    0    0    0  501 -0.00000000000E+00 -0.00000000000E+00 -0.13172783308E+04  0.13172783308E+04  0.00000000000E+00 0.  1.
         23    2    1    2    0    0 -0.25590713170E+03  0.11682723592E+04 -0.90950113232E+03  0.15052406082E+04  0.90599191221E+02 0.  0.
         11    1    3    3    0    0 -0.81820569392E+02  0.23446390469E+03 -0.21598324484E+03  0.32911501064E+03  0.00000000000E+00 0.  1.
        -11    1    3    3    0    0 -0.17408656231E+03  0.93380845455E+03 -0.69351788747E+03  0.11761255975E+04  0.00000000000E+00 0. -1.
         22    1    1    2    0    0  0.25590713170E+03 -0.11682723592E+04  0.31436222771E+04  0.33634371982E+04  0.00000000000E+00 0. -1.
<mgrwt>
<rscale>  0 0.43258209E+04</rscale>
<asrwt>0</asrwt>
<pdfrwt beam="1">  1        2 0.54636915E+00 0.43258209E+04</pdfrwt>
<pdfrwt beam="2">  1       -2 0.20265821E+00 0.43258209E+04</pdfrwt>
<totfact> 0.73277647E-02</totfact>
</mgrwt>
</event>
<event>
 6    1  0.2003386E-005  0.2909619E+04  0.7818608E-02  0.8270021E-01
          1   -1    0    0  501    0  0.00000000000E+00  0.00000000000E+00  0.27216167984E+04  0.27216167984E+04  0.00000000000E+00 0. -1.
         -1   -1    0    0    0  501 -0.00000000000E+00 -0.00000000000E+00 -0.77765190640E+03  0.77765190640E+03  0.00000000000E+00 0.  1.
         23    2    1    2    0    0 -0.44702068941E+03 -0.12118601641E+04  0.17173587856E+03  0.13062734403E+04  0.91785265093E+02 0.  0.
         13    1    3    3    0    0 -0.24755711783E+03 -0.65018544124E+03  0.13803631485E+03  0.70928108589E+03  0.00000000000E+00 0. -1.
        -13    1    3    3    0    0 -0.19946357159E+03 -0.56167472281E+03  0.33699563710E+02  0.59699235441E+03  0.00000000000E+00 0.  1.
         22    1    1    2    0    0  0.44702068941E+03  0.12118601641E+04  0.17722290134E+04  0.21929952645E+04  0.00000000000E+00 0. -1.
<mgrwt>
<rscale>  0 0.29096189E+04</rscale>
<asrwt>0</asrwt>
<pdfrwt beam="1">  1        1 0.41871027E+00 0.29096189E+04</pdfrwt>
<pdfrwt beam="2">  1       -1 0.11963876E+00 0.29096189E+04</pdfrwt>
<totfact> 0.50650222E-01</totfact>
</mgrwt>
</event>
<event>
 6    1  0.2003386E-005  0.2846190E+04  0.7818608E-02  0.8289070E-01
          2   -1    0    0  501    0  0.00000000000E+00  0.00000000000E+00  0.39301406427E+04  0.39301406427E+04  0.00000000000E+00 0. -1.
         -2   -1    0    0    0  501 -0.00000000000E+00 -0.00000000000E+00 -0.51529961467E+03  0.51529961467E+03  0.00000000000E+00 0.  1.
         23    2    1    2    0    0 -0.29763087347E+03  0.51047084091E+03  0.37287162705E+04  0.37763496177E+04  0.91251263165E+02 0.  0.
         11    1    3    3    0    0 -0.19495856906E+03  0.35143982626E+03  0.22560357431E+04  0.22915532001E+04  0.00000000000E+00 0. -1.
        -11    1    3    3    0    0 -0.10267230442E+03  0.15903101465E+03  0.14726805275E+04  0.14847964176E+04  0.00000000000E+00 0.  1.
         22    1    1    2    0    0  0.29763087347E+03 -0.51047084091E+03 -0.31387524246E+03  0.66909063967E+03  0.00000000000E+00 0.  1.
<mgrwt>
<rscale>  0 0.28461904E+04</rscale>
<asrwt>0</asrwt>
<pdfrwt beam="1">  1        2 0.60463700E+00 0.28461904E+04</pdfrwt>
<pdfrwt beam="2">  1       -2 0.79276866E-01 0.28461904E+04</pdfrwt>
<totfact> 0.47609344E-01</totfact>
</mgrwt>
</event>
<event>
 6    1  0.2003386E-005  0.5496543E+03  0.7818608E-02  0.1001574E+00
          2   -1    0    0  501    0  0.00000000000E+00  0.00000000000E+00  0.10843877425E+04  0.10843877425E+04  0.00000000000E+00 0. -1.
         -2   -1    0    0    0  501 -0.00000000000E+00 -0.00000000000E+00 -0.69652164616E+02  0.69652164616E+02  0.00000000000E+00 0.  1.
         23    2    1    2    0    0 -0.14900114601E+03  0.17554876815E+03  0.80310822614E+03  0.84130224145E+03  0.98933953038E+02 0.  0.
         11    1    3    3    0    0 -0.22928506128E+02  0.94940138340E+02  0.38597213589E+03  0.39813796095E+03  0.00000000000E+00 0. -1.
        -11    1    3    3    0    0 -0.12607263989E+03  0.80608629808E+02  0.41713609024E+03  0.44316428050E+03  0.00000000000E+00 0.  1.
         22    1    1    2    0    0  0.14900114601E+03 -0.17554876815E+03  0.21162735170E+03  0.31273766562E+03  0.00000000000E+00 0. -1.
<mgrwt>
<rscale>  0 0.54965427E+03</rscale>
<asrwt>0</asrwt>
<pdfrwt beam="1">  1        2 0.16682887E+00 0.54965427E+03</pdfrwt>
<pdfrwt beam="2">  1       -2 0.10715718E-01 0.54965427E+03</pdfrwt>
<totfact> 0.13786495E+03</totfact>
</mgrwt>
</event>
<event>
 6    1  0.2003386E-005  0.2767431E+04  0.7818608E-02  0.8313452E-01
          2   -1    0    0  501    0  0.00000000000E+00  0.00000000000E+00  0.36718023703E+04  0.36718023703E+04  0.00000000000E+00 0. -1.
         -2   -1    0    0    0  501 -0.00000000000E+00 -0.00000000000E+00 -0.52145185898E+03  0.52145185898E+03  0.00000000000E+00 0.  1.
         23    2    1    2    0    0 -0.10063568905E+04 -0.54747631197E+03  0.27488071497E+04  0.29792848827E+04  0.87824613707E+02 0.  0.
         13    1    3    3    0    0 -0.33512914460E+03 -0.14190966573E+03  0.92446538373E+03  0.99352208959E+03  0.00000000000E+00 0.  1.
        -13    1    3    3    0    0 -0.67122774588E+03 -0.40556664624E+03  0.18243417660E+04  0.19857627931E+04  0.00000000000E+00 0. -1.
         22    1    1    2    0    0  0.10063568905E+04  0.54747631197E+03  0.40154336159E+03  0.12139693466E+04  0.00000000000E+00 0.  1.
<mgrwt>
<rscale>  0 0.27674307E+04</rscale>
<asrwt>0</asrwt>
<pdfrwt beam="1">  1        2 0.56489266E+00 0.27674307E+04</pdfrwt>
<pdfrwt beam="2">  1       -2 0.80223365E-01 0.27674307E+04</pdfrwt>
<totfact> 0.73396459E-01</totfact>
</mgrwt>
</event>
<event>
 6    1  0.2003386E-005  0.1709961E+04  0.7818608E-02  0.8755704E-01
          2   -1    0    0  501    0  0.00000000000E+00  0.00000000000E+00  0.32073736377E+04  0.32073736377E+04  0.00000000000E+00 0. -1.
         -2   -1    0    0    0  501 -0.00000000000E+00 -0.00000000000E+00 -0.22790967486E+03  0.22790967486E+03  0.00000000000E+00 0.  1.
         23    2    1    2    0    0  0.59187437577E+03  0.22804861683E+03  0.26380018900E+04  0.27149238221E+04  0.97138764255E+02 0.  0.
         13    1    3    3    0    0  0.42579455002E+03  0.20927468691E+03  0.19293424207E+04  0.19868213482E+04  0.00000000000E+00 0. -1.
        -13    1    3    3    0    0  0.16607982576E+03  0.18773929915E+02  0.70865946936E+03  0.72810247389E+03  0.00000000000E+00 0.  1.
         22    1    1    2    0    0 -0.59187437577E+03 -0.22804861683E+03  0.34146207277E+03  0.72035949045E+03  0.00000000000E+00 0.  1.
<mgrwt>
<rscale>  0 0.17099608E+04</rscale>
<asrwt>0</asrwt>
<pdfrwt beam="1">  1        2 0.49344207E+00 0.17099608E+04</pdfrwt>
<pdfrwt beam="2">  1       -2 0.35063029E-01 0.17099608E+04</pdfrwt>
<totfact> 0.93707308E+00</totfact>
</mgrwt>
</event>
<event>
 6    1  0.2003386E-005  0.2216460E+04  0.7818608E-02  0.8511608E-01
         -2   -1    0    0    0  501 -0.00000000000E+00  0.00000000000E+00  0.61153622868E+03  0.61153622868E+03  0.00000000000E+00 0.  1.
          2   -1    0    0  501    0  0.00000000000E+00 -0.00000000000E+00 -0.20083414115E+04  0.20083414115E+04  0.00000000000E+00 0. -1.
         23    2    1    2    0    0 -0.44108248315E+03 -0.77520225153E+03 -0.14733269162E+04  0.17246972877E+04  0.91631023236E+02 0.  0.
         13    1    3    3    0    0 -0.20212689445E+03 -0.34336039923E+03 -0.74582424835E+03  0.84557995166E+03  0.00000000000E+00 0. -1.
        -13    1    3    3    0    0 -0.23895558871E+03 -0.43184185230E+03 -0.72750266785E+03  0.87911733603E+03  0.00000000000E+00 0.  1.
         22    1    1    2    0    0  0.44108248315E+03  0.77520225153E+03  0.76521733430E+02  0.89518035245E+03  0.00000000000E+00 0.  1.
<mgrwt>
<rscale>  0 0.22164598E+04</rscale>
<asrwt>0</asrwt>
<pdfrwt beam="1">  1        2 0.30897560E+00 0.22164598E+04</pdfrwt>
<pdfrwt beam="2">  1       -2 0.94082498E-01 0.22164598E+04</pdfrwt>
<totfact> 0.57520098E+00</totfact>
</mgrwt>
</event>
<event>
 6    1  0.2003386E-005  0.2332080E+04  0.7818608E-02  0.8465379E-01
         -1   -1    0    0    0  501 -0.00000000000E+00  0.00000000000E+00  0.34876712018E+03  0.34876712018E+03  0.00000000000E+00 0.  1.
          1   -1    0    0  501    0  0.00000000000E+00 -0.00000000000E+00 -0.38984457593E+04  0.38984457593E+04  0.00000000000E+00 0. -1.
         23    2    1    2    0    0 -0.27537099155E+03  0.10817653292E+04 -0.11753663803E+04  0.16235886471E+04  0.92241838289E+02 0.  0.
         13    1    3    3    0    0 -0.24398076148E+03  0.91768367638E+03 -0.10425307506E+04  0.14101561289E+04  0.00000000000E+00 0. -1.
        -13    1    3    3    0    0 -0.31390230062E+02  0.16408165278E+03 -0.13283562973E+03  0.21343251825E+03  0.00000000000E+00 0.  1.
         22    1    1    2    0    0  0.27537099155E+03 -0.10817653292E+04 -0.23743122588E+04  0.26236242324E+04  0.00000000000E+00 0. -1.
<mgrwt>
<rscale>  0 0.23320804E+04</rscale>
<asrwt>0</asrwt>
<pdfrwt beam="1">  1        1 0.59976086E+00 0.23320804E+04</pdfrwt>
<pdfrwt beam="2">  1       -1 0.53656482E-01 0.23320804E+04</pdfrwt>
<totfact> 0.37285672E-01</totfact>
</mgrwt>
</event>
<event>
 6    1  0.2003386E-005  0.1713111E+04  0.7818608E-02  0.8753922E-01
         -1   -1    0    0    0  501 -0.00000000000E+00  0.00000000000E+00  0.43657498083E+03  0.43657498083E+03  0.00000000000E+00 0.  1.
          1   -1    0    0  501    0  0.00000000000E+00 -0.00000000000E+00 -0.16805521806E+04  0.16805521806E+04  0.00000000000E+00 0. -1.
         23    2    1    2    0    0 -0.96535393168E+02  0.49020894760E+03  0.23256166922E+03  0.55834849654E+03  0.89689571084E+02 0.  0.
         11    1    3    3    0    0 -0.45113371322E+02  0.20325431217E+03  0.49142490602E+02  0.21392175221E+03  0.00000000000E+00 0. -1.
        -11    1    3    3    0    0 -0.51422021846E+02  0.28695463544E+03  0.18341917861E+03  0.34442674433E+03  0.00000000000E+00 0.  1.
         22    1    1    2    0    0  0.96535393168E+02 -0.49020894760E+03 -0.14765388690E+04  0.15587786648E+04  0.00000000000E+00 0. -1.
<mgrwt>
<rscale>  0 0.17131107E+04</rscale>
<asrwt>0</asrwt>
<pdfrwt beam="1">  1        1 0.25854648E+00 0.17131107E+04</pdfrwt>
<pdfrwt beam="2">  1       -1 0.67165383E-01 0.17131107E+04</pdfrwt>
<totfact> 0.10488137E+01</totfact>
</mgrwt>
</event>
<event>
 6    1  0.2003386E-005  0.2038486E+04  0.7818608E-02  0.8588835E-01
         -2   -1    0    0    0  501 -0.00000000000E+00  0.00000000000E+00  0.10058979689E+04  0.10058979689E+04  0.00000000000E+00 0.  1.
          2   -1    0    0  501    0  0.00000000000E+00 -0.00000000000E+00 -0.10327655320E+04  0.10327655320E+04  0.00000000000E+00 0. -1.
         23    2    1    2    0    0 -0.36555532445E+03 -0.29033999738E+03 -0.91732733163E+03  0.10332548234E+04  0.90543290343E+02 0.  0.
         13    1    3    3    0    0 -0.18982946088E+03 -0.17596585150E+03 -0.41744725569E+03  0.49118368906E+03  0.00000000000E+00 0. -1.
        -13    1    3    3    0    0 -0.17572586357E+03 -0.11437414587E+03 -0.49988007594E+03  0.54207113435E+03  0.00000000000E+00 0.  1.
         22    1    1    2    0    0  0.36555532445E+03  0.29033999738E+03  0.89045976851E+03  0.10054086774E+04  0.00000000000E+00 0.  1.
<mgrwt>
<rscale>  0 0.20384864E+04</rscale>
<asrwt>0</asrwt>
<pdfrwt beam="1">  1        2 0.15888700E+00 0.20384864E+04</pdfrwt>
<pdfrwt beam="2">  1       -2 0.15475353E+00 0.20384864E+04</pdfrwt>
<totfact> 0.61284529E+00</totfact>
</mgrwt>
</event>
<event>
 6    1  0.2003386E-005  0.2061830E+04  0.7818608E-02  0.8578246E-01
          2   -1    0    0  501    0  0.00000000000E+00  0.00000000000E+00  0.32991103123E+04  0.32991103123E+04  0.00000000000E+00 0. -1.
         -2   -1    0    0    0  501 -0.00000000000E+00 -0.00000000000E+00 -0.32214312821E+03  0.32214312821E+03  0.00000000000E+00 0.  1.
         23    2    1    2    0    0 -0.42637485047E+03 -0.92638667923E+03  0.17328638626E+04  0.20125953454E+04  0.87949219894E+02 0.  0.
         13    1    3    3    0    0 -0.16486853974E+03 -0.46062184862E+03  0.84774758017E+03  0.97879011157E+03  0.00000000000E+00 0. -1.
        -13    1    3    3    0    0 -0.26150631073E+03 -0.46576483062E+03  0.88511628247E+03  0.10338052338E+04  0.00000000000E+00 0.  1.
         22    1    1    2    0    0  0.42637485047E+03  0.92638667923E+03  0.12441033215E+04  0.16086580952E+04  0.00000000000E+00 0. -1.
<mgrwt>
<rscale>  0 0.20618300E+04</rscale>
<asrwt>0</asrwt>
<pdfrwt beam="1">  1        2 0.50755541E+00 0.20618300E+04</pdfrwt>
<pdfrwt beam="2">  1       -2 0.49560483E-01 0.20618300E+04</pdfrwt>
<totfact> 0.39871264E+00</totfact>
</mgrwt>
</event>
<event>
 6    1  0.2003386E-005  0.1251524E+04  0.7818608E-02  0.9068916E-01
          2   -1    0    0  501    0  0.00000000000E+00  0.00000000000E+00  0.12832313727E+04  0.12832313727E+04  0.00000000000E+00 0.  1.
         -2   -1    0    0    0  501 -0.00000000000E+00 -0.00000000000E+00 -0.30515011955E+03  0.30515011955E+03  0.00000000000E+00 0. -1.
         23    2    1    2    0    0 -0.43940896081E+03 -0.15055470185E+03 -0.34412732027E+02  0.47442861035E+03  0.90284644902E+02 0.  0.
         11    1    3    3    0    0 -0.97475347721E+02 -0.75019306531E+02 -0.87821449314E+01  0.12331449970E+03  0.00000000000E+00 0. -1.
        -11    1    3    3    0    0 -0.34193361309E+03 -0.75535395316E+02 -0.25630587095E+02  0.35111411065E+03  0.00000000000E+00 0.  1.
         22    1    1    2    0    0  0.43940896081E+03  0.15055470185E+03  0.10124939851E+04  0.11139528819E+04  0.00000000000E+00 0.  1.
<mgrwt>
<rscale>  0 0.12515242E+04</rscale>
<asrwt>0</asrwt>
<pdfrwt beam="1">  1        2 0.19742021E+00 0.12515242E+04</pdfrwt>
<pdfrwt beam="2">  1       -2 0.46946173E-01 0.12515242E+04</pdfrwt>
<totfact> 0.71491208E+01</totfact>
</mgrwt>
</event>
<event>
 6    1  0.2003386E-005  0.2592376E+04  0.7818608E-02  0.8370796E-01
         -2   -1    0    0    0  501 -0.00000000000E+00  0.00000000000E+00  0.57808285525E+03  0.57808285525E+03  0.00000000000E+00 0.  1.
          2   -1    0    0  501    0  0.00000000000E+00 -0.00000000000E+00 -0.29063362351E+04  0.29063362351E+04  0.00000000000E+00 0. -1.
         23    2    1    2    0    0 -0.90333511070E+03  0.26757633909E+03  0.27160617984E+02  0.94757330854E+03  0.97703922229E+02 0.  0.
         13    1    3    3    0    0 -0.35220131444E+03  0.65830989470E+02  0.40059258130E+02  0.36053325676E+03  0.00000000000E+00 0.  1.
        -13    1    3    3    0    0 -0.55113379626E+03  0.20174534962E+03 -0.12898640146E+02  0.58704005178E+03  0.00000000000E+00 0. -1.
         22    1    1    2    0    0  0.90333511070E+03 -0.26757633909E+03 -0.23554139978E+04  0.25368457818E+04  0.00000000000E+00 0. -1.
<mgrwt>
<rscale>  0 0.25923759E+04</rscale>
<asrwt>0</asrwt>
<pdfrwt beam="1">  1        2 0.44712865E+00 0.25923759E+04</pdfrwt>
<pdfrwt beam="2">  1       -2 0.88935825E-01 0.25923759E+04</pdfrwt>
<totfact> 0.19139987E+00</totfact>
</mgrwt>
</event>
<event>
 6    1  0.2003386E-005  0.1316967E+04  0.7818608E-02  0.9016217E-01
         -2   -1    0    0    0  501 -0.00000000000E+00  0.00000000000E+00  0.30648452395E+03  0.30648452395E+03  0.00000000000E+00 0.  1.
          2   -1    0    0  501    0  0.00000000000E+00 -0.00000000000E+00 -0.14147547361E+04  0.14147547361E+04  0.00000000000E+00 0. -1.
         23    2    1    2    0    0 -0.58979452158E+03  0.18848903965E+03 -0.27579693983E+03  0.68374350349E+03  0.89752608848E+02 0.  0.
         11    1    3    3    0    0 -0.45538043930E+03  0.16355297486E+03 -0.24997852929E+03  0.54461930299E+03  0.00000000000E+00 0. -1.
        -11    1    3    3    0    0 -0.13441408228E+03  0.24936064794E+02 -0.25818410533E+02  0.13912420051E+03  0.00000000000E+00 0.  1.
         22    1    1    2    0    0  0.58979452158E+03 -0.18848903965E+03 -0.83247327234E+03  0.10374957566E+04  0.00000000000E+00 0. -1.
<mgrwt>
<rscale>  0 0.13169669E+04</rscale>
<asrwt>0</asrwt>
<pdfrwt beam="1">  1        2 0.21765457E+00 0.13169669E+04</pdfrwt>
<pdfrwt beam="2">  1       -2 0.47151467E-01 0.13169669E+04</pdfrwt>
<totfact> 0.59215439E+01</totfact>
</mgrwt>
</event>
<event>
 6    1  0.2003386E-005  0.3809319E+04  0.7818608E-02  0.8044158E-01
          2   -1    0    0  501    0  0.00000000000E+00  0.00000000000E+00  0.28655226758E+04  0.28655226758E+04  0.00000000000E+00 0. -1.
         -2   -1    0    0    0  501 -0.00000000000E+00 -0.00000000000E+00 -0.12659914122E+04  0.12659914122E+04  0.00000000000E+00 0.  1.
         23    2    1    2    0    0  0.13896329199E+04  0.13008460268E+04  0.80196784139E+03  0.20676857400E+04  0.94296676811E+02 0.  0.
         13    1    3    3    0    0  0.91806000698E+03  0.90471378860E+03  0.57417004648E+03  0.14110324085E+04  0.00000000000E+00 0. -1.
        -13    1    3    3    0    0  0.47157291289E+03  0.39613223822E+03  0.22779779491E+03  0.65665333144E+03  0.00000000000E+00 0.  1.
         22    1    1    2    0    0 -0.13896329199E+04 -0.13008460268E+04  0.79756342218E+03  0.20638283480E+04  0.00000000000E+00 0.  1.
<mgrwt>
<rscale>  0 0.38093186E+04</rscale>
<asrwt>0</asrwt>
<pdfrwt beam="1">  1        2 0.44084964E+00 0.38093186E+04</pdfrwt>
<pdfrwt beam="2">  1       -2 0.19476791E+00 0.38093186E+04</pdfrwt>
<totfact> 0.24331941E-01</totfact>
</mgrwt>
</event>
<event>
 6    1  0.2003386E-005  0.3871621E+04  0.7818608E-02  0.8030958E-01
          2   -1    0    0  501    0  0.00000000000E+00  0.00000000000E+00  0.32101705657E+04  0.32101705657E+04  0.00000000000E+00 0. -1.
         -2   -1    0    0    0  501 -0.00000000000E+00 -0.00000000000E+00 -0.11673402576E+04  0.11673402576E+04  0.00000000000E+00 0.  1.
         23    2    1    2    0    0 -0.34622894018E+03  0.17342527765E+04  0.19091761469E+04  0.26039915518E+04  0.91166167220E+02 0.  0.
         11    1    3    3    0    0 -0.81788343212E+02  0.54037525652E+03  0.54112659331E+03  0.76909865488E+03  0.00000000000E+00 0.  1.
        -11    1    3    3    0    0 -0.26444059697E+03  0.11938775200E+04  0.13680495536E+04  0.18348928969E+04  0.00000000000E+00 0. -1.
         22    1    1    2    0    0  0.34622894018E+03 -0.17342527765E+04  0.13365416122E+03  0.17735192715E+04  0.00000000000E+00 0.  1.
<mgrwt>
<rscale>  0 0.38716205E+04</rscale>
<asrwt>0</asrwt>
<pdfrwt beam="1">  1        2 0.49387239E+00 0.38716205E+04</pdfrwt>
<pdfrwt beam="2">  1       -2 0.17959081E+00 0.38716205E+04</pdfrwt>
<totfact> 0.18559857E-01</totfact>
</mgrwt>
</event>
<event>
 6    1  0.2003386E-005  0.1596303E+04  0.7818608E-02  0.8822822E-01
         -2   -1    0    0    0  501 -0.00000000000E+00  0.00000000000E+00  0.38255483497E+03  0.38255483497E+03  0.00000000000E+00 0.  1.
          2   -1    0    0  501    0  0.00000000000E+00 -0.00000000000E+00 -0.16652409898E+04  0.16652409898E+04  0.00000000000E+00 0. -1.
         23    2    1    2    0    0  0.70735941450E+03 -0.26613029054E+03 -0.96145350823E+03  0.12265936048E+04  0.94637994537E+02 0.  0.
         13    1    3    3    0    0  0.64068688156E+03 -0.24630516091E+03 -0.91110028896E+03  0.11407233008E+04  0.00000000000E+00 0. -1.
        -13    1    3    3    0    0  0.66672532948E+02 -0.19825129625E+02 -0.50353219275E+02  0.85870303980E+02  0.00000000000E+00 0.  1.
         22    1    1    2    0    0 -0.70735941450E+03  0.26613029054E+03 -0.32123264659E+03  0.82120221996E+03  0.00000000000E+00 0. -1.
<mgrwt>
<rscale>  0 0.15963032E+04</rscale>
<asrwt>0</asrwt>
<pdfrwt beam="1">  1        2 0.25619092E+00 0.15963032E+04</pdfrwt>
<pdfrwt beam="2">  1       -2 0.58854591E-01 0.15963032E+04</pdfrwt>
<totfact> 0.26529680E+01</totfact>
</mgrwt>
</event>
<event>
 6    1  0.2003386E-005  0.2124916E+04  0.7818608E-02  0.8550346E-01
         -2   -1    0    0    0  501 -0.00000000000E+00  0.00000000000E+00  0.72648702258E+03  0.72648702258E+03  0.00000000000E+00 0.  1.
          2   -1    0    0  501    0  0.00000000000E+00 -0.00000000000E+00 -0.15538020671E+04  0.15538020671E+04  0.00000000000E+00 0. -1.
         23    2    1    2    0    0  0.62271101255E+02  0.81784235726E+03 -0.11357381583E+04  0.14040079541E+04  0.92700376534E+02 0.  0.
         11    1    3    3    0    0  0.38532954001E+02  0.34316519075E+03 -0.55395148215E+03  0.65277054258E+03  0.00000000000E+00 0.  1.
        -11    1    3    3    0    0  0.23738147254E+02  0.47467716651E+03 -0.58178667611E+03  0.75123741157E+03  0.00000000000E+00 0. -1.
         22    1    1    2    0    0 -0.62271101255E+02 -0.81784235726E+03  0.30842311374E+03  0.87628113552E+03  0.00000000000E+00 0.  1.
<mgrwt>
<rscale>  0 0.21249160E+04</rscale>
<asrwt>0</asrwt>
<pdfrwt beam="1">  1        2 0.23904647E+00 0.21249160E+04</pdfrwt>
<pdfrwt beam="2">  1       -2 0.11176723E+00 0.21249160E+04</pdfrwt>
<totfact> 0.68823498E+00</totfact>
</mgrwt>
</event>
<event>
 6    1  0.2003386E-005  0.3439652E+04  0.7818608E-02  0.8128243E-01
          2   -1    0    0  501    0  0.00000000000E+00  0.00000000000E+00  0.34845327037E+04  0.34845327037E+04  0.00000000000E+00 0. -1.
         -2   -1    0    0    0  501 -0.00000000000E+00 -0.00000000000E+00 -0.84883711414E+03  0.84883711414E+03  0.00000000000E+00 0.  1.
         23    2    1    2    0    0  0.16613436983E+04 -0.59496287830E+02  0.18681432664E+04  0.25023211399E+04  0.89716949423E+02 0.  0.
         13    1    3    3    0    0  0.10277113444E+04 -0.73815614414E+02  0.11910751872E+04  0.15748966486E+04  0.00000000000E+00 0.  1.
        -13    1    3    3    0    0  0.63363235397E+03  0.14319326584E+02  0.67706807919E+03  0.92742449125E+03  0.00000000000E+00 0. -1.
         22    1    1    2    0    0 -0.16613436983E+04  0.59496287830E+02  0.76755232312E+03  0.18310486779E+04  0.00000000000E+00 0.  1.
<mgrwt>
<rscale>  0 0.34396515E+04</rscale>
<asrwt>0</asrwt>
<pdfrwt beam="1">  1        2 0.53608195E+00 0.34396515E+04</pdfrwt>
<pdfrwt beam="2">  1       -2 0.13059033E+00 0.34396515E+04</pdfrwt>
<totfact> 0.29504363E-01</totfact>
</mgrwt>
</event>
<event>
 6    1  0.2003386E-005  0.3986831E+04  0.7818608E-02  0.8007208E-01
          2   -1    0    0  501    0  0.00000000000E+00  0.00000000000E+00  0.11493306289E+04  0.11493306289E+04  0.00000000000E+00 0. -1.
         -2   -1    0    0    0  501 -0.00000000000E+00 -0.00000000000E+00 -0.34574084391E+04  0.34574084391E+04  0.00000000000E+00 0.  1.
         23    2    1    2    0    0 -0.14084760244E+04  0.10814752571E+04 -0.11076347700E+03  0.17815693878E+04  0.91255095650E+02 0.  0.
         13    1    3    3    0    0 -0.22376798837E+03  0.20867020941E+03 -0.37327932701E+02  0.30823488361E+03  0.00000000000E+00 0. -1.
        -13    1    3    3    0    0 -0.11847080361E+04  0.87280504770E+03 -0.73435544298E+02  0.14733345042E+04  0.00000000000E+00 0.  1.
         22    1    1    2    0    0  0.14084760244E+04 -0.10814752571E+04 -0.21973143332E+04  0.28251696802E+04  0.00000000000E+00 0.  1.
<mgrwt>
<rscale>  0 0.39868310E+04</rscale>
<asrwt>0</asrwt>
<pdfrwt beam="1">  1        2 0.17682010E+00 0.39868310E+04</pdfrwt>
<pdfrwt beam="2">  1       -2 0.53190899E+00 0.39868310E+04</pdfrwt>
<totfact> 0.17157302E-02</totfact>
</mgrwt>
</event>
<event>
 6    1  0.2003386E-005  0.4397422E+04  0.7818608E-02  0.7928845E-01
          2   -1    0    0  501    0  0.00000000000E+00  0.00000000000E+00  0.32826031756E+04  0.32826031756E+04  0.00000000000E+00 0. -1.
         -2   -1    0    0    0  501 -0.00000000000E+00 -0.00000000000E+00 -0.14727123432E+04  0.14727123432E+04  0.00000000000E+00 0.  1.
         23    2    1    2    0    0  0.34268496423E+03  0.15376592994E+04 -0.75148871472E+03  0.17482414774E+04  0.98913444076E+02 0.  0.
         11    1    3    3    0    0  0.25061071861E+03  0.12913980125E+04 -0.61960926717E+03  0.14541080438E+04  0.00000000000E+00 0. -1.
        -11    1    3    3    0    0  0.92074245624E+02  0.24626128689E+03 -0.13187944755E+03  0.29413343369E+03  0.00000000000E+00 0.  1.
         22    1    1    2    0    0 -0.34268496423E+03 -0.15376592994E+04  0.25613795471E+04  0.30070740413E+04  0.00000000000E+00 0. -1.
<mgrwt>
<rscale>  0 0.43974221E+04</rscale>
<asrwt>0</asrwt>
<pdfrwt beam="1">  1        2 0.50501587E+00 0.43974221E+04</pdfrwt>
<pdfrwt beam="2">  1       -2 0.22657113E+00 0.43974221E+04</pdfrwt>
<totfact> 0.78424881E-02</totfact>
</mgrwt>
</event>
<event>
 6    1  0.2003386E-005  0.1552324E+04  0.7818608E-02  0.8850385E-01
          2   -1    0    0  501    0  0.00000000000E+00  0.00000000000E+00  0.15880844026E+04  0.15880844026E+04  0.00000000000E+00 0. -1.
         -2   -1    0    0    0  501 -0.00000000000E+00 -0.00000000000E+00 -0.37934209125E+03  0.37934209125E+03  0.00000000000E+00 0.  1.
         23    2    1    2    0    0  0.73383331821E+03 -0.10671674664E+03  0.88506218772E+03  0.11583105409E+04  0.91915342098E+02 0.  0.
         13    1    3    3    0    0  0.83326056896E+02 -0.42129805785E+02  0.11843371704E+03  0.15081345306E+03  0.00000000000E+00 0.  1.
        -13    1    3    3    0    0  0.65050726131E+03 -0.64586940852E+02  0.76662847068E+03  0.10074970878E+04  0.00000000000E+00 0. -1.
         22    1    1    2    0    0 -0.73383331821E+03  0.10671674664E+03  0.32368012367E+03  0.80911595299E+03  0.00000000000E+00 0. -1.
<mgrwt>
<rscale>  0 0.15523238E+04</rscale>
<asrwt>0</asrwt>
<pdfrwt beam="1">  1        2 0.24432067E+00 0.15523238E+04</pdfrwt>
<pdfrwt beam="2">  1       -2 0.58360323E-01 0.15523238E+04</pdfrwt>
<totfact> 0.29923765E+01</totfact>
</mgrwt>
</event>
