<event>
 6    1  0.1683416E-002  0.9587248E+02  0.7546771E-02  0.1355779E+00
         -4   -1    0    0    0  501 -0.00000000000E+00  0.00000000000E+00  0.62062556722E+02  0.62062556722E+02  0.00000000000E+00 0.  1.
          4   -1    0    0  501    0  0.00000000000E+00 -0.00000000000E+00 -0.63297545350E+02  0.63297545350E+02  0.00000000000E+00 0. -1.
         23    2    1    2    0    0 -0.23633420714E+02 -0.17322134372E+02 -0.37881544291E+01  0.95947289056E+02  0.91284923451E+02 0.  0.
         11    1    3    3    0    0 -0.52674797240E+02 -0.26195135098E+02  0.14379887322E+02  0.60560717684E+02  0.00000000000E+00 0.  1.
        -11    1    3    3    0    0  0.29041376526E+02  0.88730007258E+01 -0.18168041751E+02  0.35386571372E+02  0.00000000000E+00 0. -1.
         22    1    1    2    0    0  0.23633420714E+02  0.17322134372E+02  0.25531658015E+01  0.29412813015E+02  0.00000000000E+00 0. -1.
<mgrwt>
<rscale>  0 0.71284319E+02</rscale>
<asrwt>0</asrwt>
<pdfrwt beam="1">  1        4 0.97380839E-02 0.95872479E+02</pdfrwt>
<pdfrwt beam="2">  1       -4 0.95480857E-02 0.95872479E+02</pdfrwt>
<totfact> 0.96142226E+03</totfact>
</mgrwt>
</event>
<event>
 6    1  0.1683416E-002  0.1017541E+03  0.7546771E-02  0.1322054E+00
          4   -1    0    0  501    0  0.00000000000E+00  0.00000000000E+00  0.44440458480E+02  0.44440458480E+02  0.00000000000E+00 0. -1.
         -4   -1    0    0    0  501 -0.00000000000E+00 -0.00000000000E+00 -0.12128216925E+03  0.12128216925E+03  0.00000000000E+00 0.  1.
         23    2    1    2    0    0 -0.43136256700E+02 -0.87182015003E+01 -0.44246901244E+02  0.11095799236E+03  0.91744995063E+02 0.  0.
         11    1    3    3    0    0 -0.23019187732E+02  0.21099742755E+02 -0.63058315856E+02  0.70366422012E+02  0.00000000000E+00 0.  1.
        -11    1    3    3    0    0 -0.20117068968E+02 -0.29817944255E+02  0.18811414612E+02  0.40591570347E+02  0.00000000000E+00 0. -1.
         22    1    1    2    0    0  0.43136256700E+02  0.87182015003E+01 -0.32594809531E+02  0.54764635376E+02  0.00000000000E+00 0.  1.
<mgrwt>
<rscale>  0 0.82517833E+02</rscale>
<asrwt>0</asrwt>
<pdfrwt beam="1">  1        4 0.68369937E-02 0.10175406E+03</pdfrwt>
<pdfrwt beam="2">  1       -4 0.18658795E-01 0.10175406E+03</pdfrwt>
<totfact> 0.55447952E+03</totfact>
</mgrwt>
</event>
<event>
 6    1  0.1683416E-002  0.9028634E+02  0.7546771E-02  0.1427425E+00
          1   -1    0    0  501    0  0.00000000000E+00  0.00000000000E+00  0.58748746351E+01  0.58748746351E+01  0.00000000000E+00 0. -1.
         -1   -1    0    0    0  501 -0.00000000000E+00 -0.00000000000E+00 -0.44441481876E+03  0.44441481876E+03  0.00000000000E+00 0.  1.
         23    2    1    2    0    0 -0.11057531237E+02 -0.11289108012E+01 -0.40551757774E+03  0.41544690191E+03  0.89599548079E+02 0.  0.
         11    1    3    3    0    0  0.27463132689E+02 -0.20458109708E+02 -0.29237558154E+03  0.29437431714E+03  0.00000000000E+00 0.  1.
        -11    1    3    3    0    0 -0.38520663926E+02  0.19329198907E+02 -0.11314199619E+03  0.12107258477E+03  0.00000000000E+00 0. -1.
         22    1    1    2    0    0  0.11057531237E+02  0.11289108012E+01 -0.33022366390E+02  0.34842791488E+02  0.00000000000E+00 0. -1.
<mgrwt>
<rscale>  0 0.53480318E+02</rscale>
<asrwt>0</asrwt>
<pdfrwt beam="1">  1        1 0.90382664E-03 0.90286336E+02</pdfrwt>
<pdfrwt beam="2">  1       -1 0.68371527E-01 0.90286336E+02</pdfrwt>
<totfact> 0.36683705E+04</totfact>
</mgrwt>
</event>
<event>
 6    1  0.1683416E-002  0.9418599E+02  0.7546771E-02  0.1379948E+00
          1   -1    0    0  501    0  0.00000000000E+00  0.00000000000E+00  0.10606135495E+02  0.10606135495E+02  0.00000000000E+00 0. -1.
         -1   -1    0    0    0  501 -0.00000000000E+00 -0.00000000000E+00 -0.33279288909E+03  0.33279288909E+03  0.00000000000E+00 0.  1.
         23    2    1    2    0    0  0.18191196314E+02 -0.98482354201E+01 -0.29192395286E+03  0.30674190423E+03  0.91886311243E+02 0.  0.
         11    1    3    3    0    0  0.34772969370E+02  0.31608290101E+02 -0.18489039959E+03  0.19076871667E+03  0.00000000000E+00 0.  1.
        -11    1    3    3    0    0 -0.16581773056E+02 -0.41456525521E+02 -0.10703355327E+03  0.11597318755E+03  0.00000000000E+00 0. -1.
         22    1    1    2    0    0 -0.18191196314E+02  0.98482354201E+01 -0.30262800734E+02  0.36657120352E+02  0.00000000000E+00 0.  1.
<mgrwt>
<rscale>  0 0.64477541E+02</rscale>
<asrwt>0</asrwt>
<pdfrwt beam="1">  1        1 0.16317132E-02 0.94185994E+02</pdfrwt>
<pdfrwt beam="2">  1       -1 0.51198904E-01 0.94185994E+02</pdfrwt>
<totfact> 0.28012596E+04</totfact>
</mgrwt>
</event>
<event>
 6    1  0.1683416E-002  0.9506882E+02  0.7546771E-02  0.1423204E+00
         -2   -1    0    0    0  501 -0.00000000000E+00  0.00000000000E+00  0.17308471759E+02  0.17308471759E+02  0.00000000000E+00 0.  1.
          2   -1    0    0  501    0  0.00000000000E+00 -0.00000000000E+00 -0.16394591216E+03  0.16394591216E+03  0.00000000000E+00 0. -1.
         23    2    1    2    0    0  0.33812011433E+01 -0.95746391466E+01 -0.13961098981E+03  0.16890621629E+03  0.94524997695E+02 0.  0.
         13    1    3    3    0    0  0.39376797793E+02  0.42669823292E+01 -0.22375853409E+02  0.45490857965E+02  0.00000000000E+00 0.  1.
        -13    1    3    3    0    0 -0.35995596650E+02 -0.13841621476E+02 -0.11723513640E+03  0.12341535832E+03  0.00000000000E+00 0. -1.
         22    1    1    2    0    0 -0.33812011433E+01  0.95746391466E+01 -0.70264505956E+01  0.12348167635E+02  0.00000000000E+00 0. -1.
<mgrwt>
<rscale>  0 0.54348706E+02</rscale>
<asrwt>0</asrwt>
<pdfrwt beam="1">  1        2 0.25222448E-01 0.95068825E+02</pdfrwt>
<pdfrwt beam="2">  1       -2 0.26628418E-02 0.95068825E+02</pdfrwt>
<totfact> 0.92579170E+04</totfact>
</mgrwt>
</event>
<event>
 6    1  0.1683416E-002  0.8845394E+02  0.7546771E-02  0.1429618E+00
         -4   -1    0    0    0  501 -0.00000000000E+00  0.00000000000E+00  0.34905924848E+02  0.34905924848E+02  0.00000000000E+00 0.  1.
          4   -1    0    0  501    0  0.00000000000E+00 -0.00000000000E+00 -0.77949550359E+02  0.77949550359E+02  0.00000000000E+00 0. -1.
         23    2    1    2    0    0 -0.88343134413E+01 -0.72570060458E+01 -0.25752570419E+02  0.92126514381E+02  0.87711974884E+02 0.  0.
         13    1    3    3    0    0 -0.83440030692E+01 -0.26724857360E+02 -0.52228912598E+02  0.59259595842E+02  0.00000000000E+00 0. -1.
        -13    1    3    3    0    0 -0.49031037210E+00  0.19467851314E+02  0.26476342179E+02  0.32866918539E+02  0.00000000000E+00 0.  1.
         22    1    1    2    0    0  0.88343134413E+01  0.72570060458E+01 -0.17291055093E+02  0.20728960827E+02  0.00000000000E+00 0.  1.
<mgrwt>
<rscale>  0 0.53036661E+02</rscale>
<asrwt>0</asrwt>
<pdfrwt beam="1">  1        4 0.11992239E-01 0.88453942E+02</pdfrwt>
<pdfrwt beam="2">  1       -4 0.53701422E-02 0.88453942E+02</pdfrwt>
<totfact> 0.16900044E+04</totfact>
</mgrwt>
</event>
<event>
 6    1  0.1683416E-002  0.9341392E+02  0.7546771E-02  0.1396167E+00
          2   -1    0    0  501    0  0.00000000000E+00  0.00000000000E+00  0.82751274280E+02  0.82751274280E+02  0.00000000000E+00 0.  1.
         -2   -1    0    0    0  501 -0.00000000000E+00 -0.00000000000E+00 -0.67594178862E+02  0.67594178862E+02  0.00000000000E+00 0. -1.
         23    2    1    2    0    0  0.47482785908E+01 -0.15619872466E+02 -0.33331399316E+02  0.99182373808E+02  0.91976271550E+02 0.  0.
         13    1    3    3    0    0 -0.74782845859E+01 -0.92877370296E+01  0.31094023568E+02  0.33302028483E+02  0.00000000000E+00 0.  1.
        -13    1    3    3    0    0  0.12226563177E+02 -0.63321354366E+01 -0.64425422884E+02  0.65880345324E+02  0.00000000000E+00 0. -1.
         22    1    1    2    0    0 -0.47482785908E+01  0.15619872466E+02  0.48488494734E+02  0.51163079335E+02  0.00000000000E+00 0. -1.
<mgrwt>
<rscale>  0 0.60398517E+02</rscale>
<asrwt>0</asrwt>
<pdfrwt beam="1">  1        2 0.12730965E-01 0.93413923E+02</pdfrwt>
<pdfrwt beam="2">  1       -2 0.10399104E-01 0.93413923E+02</pdfrwt>
<totfact> 0.26126197E+04</totfact>
</mgrwt>
</event>
<event>
 6    1  0.1683416E-002  0.9989833E+02  0.7546771E-02  0.1324459E+00
          2   -1    0    0  501    0  0.00000000000E+00  0.00000000000E+00  0.28131139932E+02  0.28131139932E+02  0.00000000000E+00 0. -1.
         -2   -1    0    0    0  501 -0.00000000000E+00 -0.00000000000E+00 -0.22109679051E+03  0.22109679051E+03  0.00000000000E+00 0.  1.
         23    2    1    2    0    0  0.37954396600E+02  0.23347811306E+02 -0.17433610911E+03  0.20092972831E+03  0.89409285114E+02 0.  0.
         11    1    3    3    0    0 -0.17288531837E+02 -0.20007279319E+02 -0.27417230931E+02  0.38090538336E+02  0.00000000000E+00 0. -1.
        -11    1    3    3    0    0  0.55242928437E+02  0.43355090625E+02 -0.14691887818E+03  0.16283918997E+03  0.00000000000E+00 0.  1.
         22    1    1    2    0    0 -0.37954396600E+02 -0.23347811306E+02 -0.18629541469E+02  0.48298202134E+02  0.00000000000E+00 0. -1.
<mgrwt>
<rscale>  0 0.81640695E+02</rscale>
<asrwt>0</asrwt>
<pdfrwt beam="1">  1        2 0.43278676E-02 0.99898332E+02</pdfrwt>
<pdfrwt beam="2">  1       -2 0.34014891E-01 0.99898332E+02</pdfrwt>
<totfact> 0.13920796E+04</totfact>
</mgrwt>
</event>
<event>
 6    1  0.1683416E-002  0.9091462E+02  0.7546771E-02  0.1400737E+00
          2   -1    0    0  501    0  0.00000000000E+00  0.00000000000E+00  0.10127969553E+03  0.10127969553E+03  0.00000000000E+00 0. -1.
         -2   -1    0    0    0  501 -0.00000000000E+00 -0.00000000000E+00 -0.49603747788E+02  0.49603747788E+02  0.00000000000E+00 0.  1.
         23    2    1    2    0    0  0.20050741867E+01  0.16347730382E+02 -0.57948863032E+01  0.91099119478E+02  0.89410291641E+02 0.  0.
         13    1    3    3    0    0  0.10602274703E+02  0.39471275868E+02  0.27792714350E+02  0.49424941259E+02  0.00000000000E+00 0. -1.
        -13    1    3    3    0    0 -0.85972005165E+01 -0.23123545486E+02 -0.33587600653E+02  0.41674178219E+02  0.00000000000E+00 0.  1.
         22    1    1    2    0    0 -0.20050741867E+01 -0.16347730382E+02  0.57470834043E+02  0.59784323837E+02  0.00000000000E+00 0. -1.
<mgrwt>
<rscale>  0 0.59313050E+02</rscale>
<asrwt>0</asrwt>
<pdfrwt beam="1">  1        2 0.15581492E-01 0.90914624E+02</pdfrwt>
<pdfrwt beam="2">  1       -2 0.76313458E-02 0.90914624E+02</pdfrwt>
<totfact> 0.33155621E+04</totfact>
</mgrwt>
</event>
<event>
 6    1  0.1683416E-002  0.9077750E+02  0.7546771E-02  0.1422499E+00
          4   -1    0    0  501    0  0.00000000000E+00  0.00000000000E+00  0.93074725782E+01  0.93074725782E+01  0.00000000000E+00 0. -1.
         -4   -1    0    0    0  501 -0.00000000000E+00 -0.00000000000E+00 -0.28917040514E+03  0.28917040514E+03  0.00000000000E+00 0.  1.
         23    2    1    2    0    0  0.71767908204E+01  0.93541082166E+01 -0.25985259194E+03  0.27525247355E+03  0.90008605087E+02 0.  0.
         13    1    3    3    0    0  0.31508509696E+00 -0.37048223372E+02 -0.16890875333E+03  0.17292436811E+03  0.00000000000E+00 0.  1.
        -13    1    3    3    0    0  0.68617057234E+01  0.46402331588E+02 -0.90943838612E+02  0.10232810544E+03  0.00000000000E+00 0. -1.
         22    1    1    2    0    0 -0.71767908204E+01 -0.93541082166E+01 -0.20010340617E+02  0.23225404165E+02  0.00000000000E+00 0.  1.
<mgrwt>
<rscale>  0 0.54495762E+02</rscale>
<asrwt>0</asrwt>
<pdfrwt beam="1">  1        4 0.14319188E-02 0.90777501E+02</pdfrwt>
<pdfrwt beam="2">  1       -4 0.44487756E-01 0.90777501E+02</pdfrwt>
<totfact> 0.12140668E+04</totfact>
</mgrwt>
</event>
<event>
 6    1  0.1683416E-002  0.9077423E+02  0.7546771E-02  0.1419915E+00
          2   -1    0    0  501    0  0.00000000000E+00  0.00000000000E+00  0.17409515101E+03  0.17409515101E+03  0.00000000000E+00 0. -1.
         -2   -1    0    0    0  501 -0.00000000000E+00 -0.00000000000E+00 -0.15265776218E+02  0.15265776218E+02  0.00000000000E+00 0.  1.
         23    2    1    2    0    0  0.72381417875E+01  0.99057621616E+01  0.14199108884E+03  0.16852723590E+03  0.89941342606E+02 0.  0.
         13    1    3    3    0    0 -0.17541301815E+02 -0.56090213242E+01  0.13776162223E+03  0.13898713232E+03  0.00000000000E+00 0. -1.
        -13    1    3    3    0    0  0.24779443602E+02  0.15514783486E+02  0.42294666047E+01  0.29540103581E+02  0.00000000000E+00 0.  1.
         22    1    1    2    0    0 -0.72381417875E+01 -0.99057621616E+01  0.16838285956E+02  0.20833691331E+02  0.00000000000E+00 0. -1.
<mgrwt>
<rscale>  0 0.55038846E+02</rscale>
<asrwt>0</asrwt>
<pdfrwt beam="1">  1        2 0.26783868E-01 0.90774225E+02</pdfrwt>
<pdfrwt beam="2">  1       -2 0.23485811E-02 0.90774225E+02</pdfrwt>
<totfact> 0.10328675E+05</totfact>
</mgrwt>
</event>
<event>
 6    1  0.1683416E-002  0.9171363E+02  0.7546771E-02  0.1420029E+00
         -2   -1    0    0    0  501 -0.00000000000E+00  0.00000000000E+00  0.35506356392E+02  0.35506356392E+02  0.00000000000E+00 0.  1.
          2   -1    0    0  501    0  0.00000000000E+00 -0.00000000000E+00 -0.84369725238E+02  0.84369725238E+02  0.00000000000E+00 0. -1.
         23    2    1    2    0    0  0.65162543273E+00  0.11856607952E+02 -0.28038884291E+02  0.95903953547E+02  0.90941659902E+02 0.  0.
         11    1    3    3    0    0 -0.44562552408E+02  0.44408765753E+01 -0.21307396788E+02  0.49593826428E+02  0.00000000000E+00 0.  1.
        -11    1    3    3    0    0  0.45214177841E+02  0.74157313768E+01 -0.67314875027E+01  0.46310127118E+02  0.00000000000E+00 0. -1.
         22    1    1    2    0    0 -0.65162543273E+00 -0.11856607952E+02 -0.20824484555E+02  0.23972128083E+02  0.00000000000E+00 0.  1.
<mgrwt>
<rscale>  0 0.55014762E+02</rscale>
<asrwt>0</asrwt>
<pdfrwt beam="1">  1        2 0.12979957E-01 0.91713626E+02</pdfrwt>
<pdfrwt beam="2">  1       -2 0.54625165E-02 0.91713626E+02</pdfrwt>
<totfact> 0.67966638E+04</totfact>
</mgrwt>
</event>
<event>
 6    1  0.1683416E-002  0.1285894E+03  0.7546771E-02  0.1246668E+00
          4   -1    0    0  501    0  0.00000000000E+00  0.00000000000E+00  0.68911872119E+02  0.68911872119E+02  0.00000000000E+00 0. -1.
         -4   -1    0    0    0  501 -0.00000000000E+00 -0.00000000000E+00 -0.21162916634E+03  0.21162916634E+03  0.00000000000E+00 0.  1.
         23    2    1    2    0    0 -0.68916111625E+02 -0.59050009836E+02 -0.23513420508E+02  0.13072148830E+03  0.91098257146E+02 0.  0.
         13    1    3    3    0    0 -0.46017935694E+02 -0.64522097058E+02 -0.51220709371E+02  0.94362664666E+02  0.00000000000E+00 0.  1.
        -13    1    3    3    0    0 -0.22898175931E+02  0.54720872218E+01  0.27707288864E+02  0.36358823629E+02  0.00000000000E+00 0. -1.
         22    1    1    2    0    0  0.68916111625E+02  0.59050009836E+02 -0.11920387371E+03  0.14981955016E+03  0.00000000000E+00 0.  1.
<mgrwt>
<rscale>  0 0.11786112E+03</rscale>
<asrwt>0</asrwt>
<pdfrwt beam="1">  1        4 0.10601826E-01 0.12858937E+03</pdfrwt>
<pdfrwt beam="2">  1       -4 0.32558334E-01 0.12858937E+03</pdfrwt>
<totfact> 0.10193253E+03</totfact>
</mgrwt>
</event>
<event>
 6    1  0.1683416E-002  0.9437344E+02  0.7546771E-02  0.1383718E+00
         -2   -1    0    0    0  501 -0.00000000000E+00  0.00000000000E+00  0.10995007881E+04  0.10995007881E+04  0.00000000000E+00 0.  1.
          2   -1    0    0  501    0  0.00000000000E+00 -0.00000000000E+00 -0.32837489599E+01  0.32837489599E+01  0.00000000000E+00 0. -1.
         23    2    1    2    0    0 -0.15408952226E+02  0.11687077264E+02  0.10112602810E+04  0.10156543223E+04  0.92370572891E+02 0.  0.
         11    1    3    3    0    0  0.17408486947E+02 -0.28958685586E+02  0.21076012054E+03  0.21345137456E+03  0.00000000000E+00 0. -1.
        -11    1    3    3    0    0 -0.32817439173E+02  0.40645762850E+02  0.80050016050E+03  0.80220294771E+03  0.00000000000E+00 0.  1.
         22    1    1    2    0    0  0.15408952226E+02 -0.11687077264E+02  0.84956758054E+02  0.87130214752E+02  0.00000000000E+00 0. -1.
<mgrwt>
<rscale>  0 0.63496489E+02</rscale>
<asrwt>0</asrwt>
<pdfrwt beam="1">  1        2 0.50519302E-03 0.94373441E+02</pdfrwt>
<pdfrwt beam="2">  1       -2 0.16915367E+00 0.94373441E+02</pdfrwt>
<totfact> 0.78141306E+03</totfact>
</mgrwt>
</event>
<event>
 6    1  0.1683416E-002  0.1052874E+03  0.7546771E-02  0.1296501E+00
          2   -1    0    0  501    0  0.00000000000E+00  0.00000000000E+00  0.40303485066E+03  0.40303485066E+03  0.00000000000E+00 0. -1.
         -2   -1    0    0    0  501 -0.00000000000E+00 -0.00000000000E+00 -0.40534291535E+02  0.40534291535E+02  0.00000000000E+00 0.  1.
         23    2    1    2    0    0 -0.60901424787E+02  0.16885961644E+02  0.36543689050E+03  0.38030192095E+03  0.84209921605E+02 0.  0.
         13    1    3    3    0    0  0.10572739081E+02  0.22783629037E+02  0.17528167503E+03  0.17707213831E+03  0.00000000000E+00 0.  1.
        -13    1    3    3    0    0 -0.71474163869E+02 -0.58976673929E+01  0.19015521547E+03  0.20322978264E+03  0.00000000000E+00 0. -1.
         22    1    1    2    0    0  0.60901424787E+02 -0.16885961644E+02 -0.29363313800E+01  0.63267221242E+02  0.00000000000E+00 0.  1.
<mgrwt>
<rscale>  0 0.92674411E+02</rscale>
<asrwt>0</asrwt>
<pdfrwt beam="1">  1        2 0.62005359E-01 0.10528737E+03</pdfrwt>
<pdfrwt beam="2">  1       -2 0.62360451E-02 0.10528737E+03</pdfrwt>
<totfact> 0.10271889E+04</totfact>
</mgrwt>
</event>
<event>
 6    1  0.1683416E-002  0.9248699E+02  0.7546771E-02  0.1392924E+00
         -1   -1    0    0    0  501 -0.00000000000E+00  0.00000000000E+00  0.71397911480E+03  0.71397911480E+03  0.00000000000E+00 0.  1.
          1   -1    0    0  501    0  0.00000000000E+00 -0.00000000000E+00 -0.46307497623E+01  0.46307497623E+01  0.00000000000E+00 0. -1.
         23    2    1    2    0    0 -0.17443809054E+02 -0.30889047721E+01  0.65368855883E+03  0.66019889099E+03  0.90774533365E+02 0.  0.
         11    1    3    3    0    0 -0.21856193091E+02  0.19634685765E+02  0.68279920254E+02  0.74332775889E+02  0.00000000000E+00 0. -1.
        -11    1    3    3    0    0  0.44123840364E+01 -0.22723590537E+02  0.58540863858E+03  0.58586611510E+03  0.00000000000E+00 0.  1.
         22    1    1    2    0    0  0.17443809054E+02  0.30889047721E+01  0.55659806209E+02  0.58410973578E+02  0.00000000000E+00 0.  1.
<mgrwt>
<rscale>  0 0.61185275E+02</rscale>
<asrwt>0</asrwt>
<pdfrwt beam="1">  1        1 0.71242361E-03 0.92486992E+02</pdfrwt>
<pdfrwt beam="2">  1       -1 0.10984285E+00 0.92486992E+02</pdfrwt>
<totfact> 0.19067641E+04</totfact>
</mgrwt>
</event>
<event>
 6    1  0.1683416E-002  0.9443578E+02  0.7546771E-02  0.1373169E+00
         -1   -1    0    0    0  501 -0.00000000000E+00  0.00000000000E+00  0.37535191875E+02  0.37535191875E+02  0.00000000000E+00 0.  1.
          1   -1    0    0  501    0  0.00000000000E+00 -0.00000000000E+00 -0.96813242014E+02  0.96813242014E+02  0.00000000000E+00 0. -1.
         23    2    1    2    0    0 -0.24665111007E+01 -0.22801505740E+02 -0.34385211678E+02  0.10050104481E+03  0.91608541547E+02 0.  0.
         11    1    3    3    0    0 -0.23225147273E+02 -0.23756619894E+02 -0.59351778244E+02  0.68017777348E+02  0.00000000000E+00 0. -1.
        -11    1    3    3    0    0  0.20758636172E+02  0.95511415372E+00  0.24966566566E+02  0.32483267460E+02  0.00000000000E+00 0.  1.
         22    1    1    2    0    0  0.24665111007E+01  0.22801505740E+02 -0.24892838461E+02  0.33847389082E+02  0.00000000000E+00 0. -1.
<mgrwt>
<rscale>  0 0.66294098E+02</rscale>
<asrwt>0</asrwt>
<pdfrwt beam="1">  1        1 0.14894345E-01 0.94435784E+02</pdfrwt>
<pdfrwt beam="2">  1       -1 0.57746450E-02 0.94435784E+02</pdfrwt>
<totfact> 0.46245715E+04</totfact>
</mgrwt>
</event>
<event>
 6    1  0.1683416E-002  0.8736631E+02  0.7546771E-02  0.1433425E+00
          1   -1    0    0  501    0  0.00000000000E+00  0.00000000000E+00  0.22457236770E+03  0.22457236770E+03  0.00000000000E+00 0. -1.
         -1   -1    0    0    0  501 -0.00000000000E+00 -0.00000000000E+00 -0.10965222516E+02  0.10965222516E+02  0.00000000000E+00 0.  1.
         23    2    1    2    0    0 -0.99985205195E+01 -0.50493617980E+01  0.17938724110E+03  0.19953108660E+03  0.86645287137E+02 0.  0.
         11    1    3    3    0    0 -0.29222067316E+02  0.10886494459E+02  0.17002922533E+03  0.17286521468E+03  0.00000000000E+00 0. -1.
        -11    1    3    3    0    0  0.19223546796E+02 -0.15935856257E+02  0.93580157690E+01  0.26665871919E+02  0.00000000000E+00 0.  1.
         22    1    1    2    0    0  0.99985205195E+01  0.50493617980E+01  0.34219904087E+02  0.36006503619E+02  0.00000000000E+00 0. -1.
<mgrwt>
<rscale>  0 0.52278601E+02</rscale>
<asrwt>0</asrwt>
<pdfrwt beam="1">  1        1 0.34549592E-01 0.87366311E+02</pdfrwt>
<pdfrwt beam="2">  1       -1 0.16869575E-02 0.87366311E+02</pdfrwt>
<totfact> 0.94552328E+04</totfact>
</mgrwt>
</event>
<event>
 6    1  0.1683416E-002  0.8902744E+02  0.7546771E-02  0.1428652E+00
         -1   -1    0    0    0  501 -0.00000000000E+00  0.00000000000E+00  0.19344968817E+02  0.19344968817E+02  0.00000000000E+00 0.  1.
          1   -1    0    0  501    0  0.00000000000E+00 -0.00000000000E+00 -0.13162721684E+03  0.13162721684E+03  0.00000000000E+00 0. -1.
         23    2    1    2    0    0  0.11022076013E+02 -0.28278516963E+01 -0.10398326683E+03  0.13688829437E+03  0.88297239206E+02 0.  0.
         13    1    3    3    0    0  0.20380190826E+02 -0.17655708972E+02  0.42033549784E+01  0.27290006055E+02  0.00000000000E+00 0.  1.
        -13    1    3    3    0    0 -0.93581148136E+01  0.14827857276E+02 -0.10818662181E+03  0.10959828832E+03  0.00000000000E+00 0. -1.
         22    1    1    2    0    0 -0.11022076013E+02  0.28278516963E+01 -0.82989811979E+01  0.14083891286E+02  0.00000000000E+00 0.  1.
<mgrwt>
<rscale>  0 0.53231594E+02</rscale>
<asrwt>0</asrwt>
<pdfrwt beam="1">  1        1 0.20250341E-01 0.89027442E+02</pdfrwt>
<pdfrwt beam="2">  1       -1 0.29761491E-02 0.89027442E+02</pdfrwt>
<totfact> 0.81499439E+04</totfact>
</mgrwt>
</event>
<event>
 6    1  0.1683416E-002  0.9438949E+02  0.7546771E-02  0.1401268E+00
         -1   -1    0    0    0  501 -0.00000000000E+00  0.00000000000E+00  0.50446866280E+01  0.50446866280E+01  0.00000000000E+00 0.  1.
          1   -1    0    0  501    0  0.00000000000E+00 -0.00000000000E+00 -0.59378832761E+03  0.59378832761E+03  0.00000000000E+00 0. -1.
         23    2    1    2    0    0  0.37569895663E+01 -0.14102412428E+02 -0.52716064272E+03  0.53554432108E+03  0.93254402575E+02 0.  0.
         11    1    3    3    0    0 -0.12228598805E+02 -0.37275138389E+02 -0.47188433702E+03  0.47351219847E+03  0.00000000000E+00 0. -1.
        -11    1    3    3    0    0  0.15985588371E+02  0.23172725960E+02 -0.55276305693E+02  0.62032122607E+02  0.00000000000E+00 0.  1.
         22    1    1    2    0    0 -0.37569895663E+01  0.14102412428E+02 -0.61582998265E+02  0.63288693162E+02  0.00000000000E+00 0.  1.
<mgrwt>
<rscale>  0 0.59188647E+02</rscale>
<asrwt>0</asrwt>
<pdfrwt beam="1">  1        1 0.91352073E-01 0.94389494E+02</pdfrwt>
<pdfrwt beam="2">  1       -1 0.77610544E-03 0.94389494E+02</pdfrwt>
<totfact> 0.85129017E+04</totfact>
</mgrwt>
</event>
<event>
 6    1  0.1683416E-002  0.9091595E+02  0.7546771E-02  0.1430102E+00
         -2   -1    0    0    0  501 -0.00000000000E+00  0.00000000000E+00  0.18882127793E+02  0.18882127793E+02  0.00000000000E+00 0.  1.
          2   -1    0    0  501    0  0.00000000000E+00 -0.00000000000E+00 -0.14025767987E+03  0.14025767987E+03  0.00000000000E+00 0. -1.
         23    2    1    2    0    0  0.10247409442E+02  0.20577613152E+01 -0.98818070717E+02  0.13427851753E+03  0.90313151795E+02 0.  0.
         11    1    3    3    0    0  0.11930651373E+02 -0.22045166974E+01  0.15603418341E+02  0.19765297873E+02  0.00000000000E+00 0.  1.
        -11    1    3    3    0    0 -0.16832419307E+01  0.42622780127E+01 -0.11442148906E+03  0.11451321965E+03  0.00000000000E+00 0. -1.
         22    1    1    2    0    0 -0.10247409442E+02 -0.20577613152E+01 -0.22557481356E+02  0.24861290133E+02  0.00000000000E+00 0.  1.
<mgrwt>
<rscale>  0 0.52939476E+02</rscale>
<asrwt>0</asrwt>
<pdfrwt beam="1">  1        2 0.21578104E-01 0.90915946E+02</pdfrwt>
<pdfrwt beam="2">  1       -2 0.29049428E-02 0.90915946E+02</pdfrwt>
<totfact> 0.96204503E+04</totfact>
</mgrwt>
</event>
<event>
 6    1  0.1683416E-002  0.9237374E+02  0.7546771E-02  0.1408677E+00
          2   -1    0    0  501    0  0.00000000000E+00  0.00000000000E+00  0.10941865423E+02  0.10941865423E+02  0.00000000000E+00 0. -1.
         -2   -1    0    0    0  501 -0.00000000000E+00 -0.00000000000E+00 -0.25888438131E+03  0.25888438131E+03  0.00000000000E+00 0.  1.
         23    2    1    2    0    0 -0.12316750007E+02  0.63531812475E+01 -0.22099422956E+03  0.23952318783E+03  0.91328214525E+02 0.  0.
         13    1    3    3    0    0 -0.26531929493E+02 -0.28940515048E+02 -0.46171282112E+02  0.60607623166E+02  0.00000000000E+00 0. -1.
        -13    1    3    3    0    0  0.14215179486E+02  0.35293696296E+02 -0.17482294745E+03  0.17891556467E+03  0.00000000000E+00 0.  1.
         22    1    1    2    0    0  0.12316750007E+02 -0.63531812475E+01 -0.26948286323E+02  0.30303058896E+02  0.00000000000E+00 0.  1.
<mgrwt>
<rscale>  0 0.57490025E+02</rscale>
<asrwt>0</asrwt>
<pdfrwt beam="1">  1        2 0.16833639E-02 0.92373741E+02</pdfrwt>
<pdfrwt beam="2">  1       -2 0.39828367E-01 0.92373741E+02</pdfrwt>
<totfact> 0.36292157E+04</totfact>
</mgrwt>
</event>
<event>
 6    1  0.1683416E-002  0.9563365E+02  0.7546771E-02  0.1414481E+00
          4   -1    0    0  501    0  0.00000000000E+00  0.00000000000E+00  0.96765382400E+01  0.96765382400E+01  0.00000000000E+00 0. -1.
         -4   -1    0    0    0  501 -0.00000000000E+00 -0.00000000000E+00 -0.31561932857E+03  0.31561932857E+03  0.00000000000E+00 0.  1.
         23    2    1    2    0    0  0.11338138917E+02  0.12799849566E+01 -0.29209927308E+03  0.30735611415E+03  0.94950533523E+02 0.  0.
         13    1    3    3    0    0  0.34611059347E+02 -0.33544234259E+02 -0.20660948219E+03  0.21215706260E+03  0.00000000000E+00 0. -1.
        -13    1    3    3    0    0 -0.23272920430E+02  0.34824219216E+02 -0.85489790893E+02  0.95199051552E+02  0.00000000000E+00 0.  1.
         22    1    1    2    0    0 -0.11338138917E+02 -0.12799849566E+01 -0.13843517245E+02  0.17939752654E+02  0.00000000000E+00 0.  1.
<mgrwt>
<rscale>  0 0.56205782E+02</rscale>
<asrwt>0</asrwt>
<pdfrwt beam="1">  1        4 0.14886980E-02 0.95633653E+02</pdfrwt>
<pdfrwt beam="2">  1       -4 0.48556826E-01 0.95633653E+02</pdfrwt>
<totfact> 0.97609492E+03</totfact>
</mgrwt>
</event>
<event>
 6    1  0.1683416E-002  0.9157973E+02  0.7546771E-02  0.1427203E+00
         -2   -1    0    0    0  501 -0.00000000000E+00  0.00000000000E+00  0.11617607659E+03  0.11617607659E+03  0.00000000000E+00 0.  1.
          2   -1    0    0  501    0  0.00000000000E+00 -0.00000000000E+00 -0.22940585923E+02  0.22940585923E+02  0.00000000000E+00 0. -1.
         23    2    1    2    0    0 -0.10357260109E+02  0.26334781997E+01  0.88745482740E+02  0.12752493203E+03  0.90954051797E+02 0.  0.
         11    1    3    3    0    0 -0.11904742976E+02  0.13727293599E+02 -0.14763271304E+02  0.23411870376E+02  0.00000000000E+00 0. -1.
        -11    1    3    3    0    0  0.15474828670E+01 -0.11093815400E+02  0.10350875404E+03  0.10411306165E+03  0.00000000000E+00 0.  1.
         22    1    1    2    0    0  0.10357260109E+02 -0.26334781997E+01  0.44900079262E+01  0.11591730482E+02  0.00000000000E+00 0. -1.
<mgrwt>
<rscale>  0 0.53525609E+02</rscale>
<asrwt>0</asrwt>
<pdfrwt beam="1">  1        2 0.35293210E-02 0.91579733E+02</pdfrwt>
<pdfrwt beam="2">  1       -2 0.17873242E-01 0.91579733E+02</pdfrwt>
<totfact> 0.54838776E+04</totfact>
</mgrwt>
</event>
<event>
 6    1  0.1683416E-002  0.1121950E+03  0.7546771E-02  0.1286204E+00
         -4   -1    0    0    0  501 -0.00000000000E+00  0.00000000000E+00  0.13914947568E+03  0.13914947568E+03  0.00000000000E+00 0.  1.
          4   -1    0    0  501    0  0.00000000000E+00 -0.00000000000E+00 -0.55704994366E+02  0.55704994366E+02  0.00000000000E+00 0. -1.
         23    2    1    2    0    0  0.23791495694E+02  0.58674252134E+02  0.60816914594E+02  0.12761824539E+03  0.92622979459E+02 0.  0.
         11    1    3    3    0    0  0.44733096545E+02  0.72244241322E+02  0.35559149834E+02  0.92112612967E+02  0.00000000000E+00 0. -1.
        -11    1    3    3    0    0 -0.20941600851E+02 -0.13569989188E+02  0.25257764760E+02  0.35505632419E+02  0.00000000000E+00 0.  1.
         22    1    1    2    0    0 -0.23791495694E+02 -0.58674252134E+02  0.22627566719E+02  0.67236224659E+02  0.00000000000E+00 0.  1.
<mgrwt>
<rscale>  0 0.97242392E+02</rscale>
<asrwt>0</asrwt>
<pdfrwt beam="1">  1        4 0.85699992E-02 0.11219501E+03</pdfrwt>
<pdfrwt beam="2">  1       -4 0.21407612E-01 0.11219501E+03</pdfrwt>
<totfact> 0.30693545E+03</totfact>
</mgrwt>
</event>
<event>
 6    1  0.1683416E-002  0.1481487E+03  0.7546771E-02  0.1214192E+00
         -4   -1    0    0    0  501 -0.00000000000E+00  0.00000000000E+00  0.47287631462E+03  0.47287631462E+03  0.00000000000E+00 0.  1.
          4   -1    0    0  501    0  0.00000000000E+00 -0.00000000000E+00 -0.37761621281E+02  0.37761621281E+02  0.00000000000E+00 0. -1.
         23    2    1    2    0    0  0.40023819404E+02  0.10887913068E+03  0.28195080044E+03  0.31850321934E+03  0.92149203174E+02 0.  0.
         13    1    3    3    0    0  0.26544062118E+02  0.80944876215E+01  0.12369271060E+02  0.30382673189E+02  0.00000000000E+00 0. -1.
        -13    1    3    3    0    0  0.13479757286E+02  0.10078464306E+03  0.26958152938E+03  0.28812054615E+03  0.00000000000E+00 0.  1.
         22    1    1    2    0    0 -0.40023819404E+02 -0.10887913068E+03  0.15316389290E+03  0.19213471656E+03  0.00000000000E+00 0. -1.
<mgrwt>
<rscale>  0 0.13936068E+03</rscale>
<asrwt>0</asrwt>
<pdfrwt beam="1">  1        4 0.58094805E-02 0.14814873E+03</pdfrwt>
<pdfrwt beam="2">  1       -4 0.72750198E-01 0.14814873E+03</pdfrwt>
<totfact> 0.55373580E+02</totfact>
</mgrwt>
</event>
<event>
 6    1  0.1683416E-002  0.9695995E+02  0.7546771E-02  0.1358787E+00
          2   -1    0    0  501    0  0.00000000000E+00  0.00000000000E+00  0.24312822549E+02  0.24312822549E+02  0.00000000000E+00 0. -1.
         -2   -1    0    0    0  501 -0.00000000000E+00 -0.00000000000E+00 -0.15961505554E+03  0.15961505554E+03  0.00000000000E+00 0.  1.
         23    2    1    2    0    0 -0.26819456948E+02  0.23819869975E+01 -0.97381609045E+02  0.13742055766E+03  0.93146523039E+02 0.  0.
         11    1    3    3    0    0 -0.41130939144E+01  0.19959300580E+02 -0.10560352810E+03  0.10755183107E+03  0.00000000000E+00 0.  1.
        -11    1    3    3    0    0 -0.22706363034E+02 -0.17577313582E+02  0.82219190505E+01  0.29868726586E+02  0.00000000000E+00 0. -1.
         22    1    1    2    0    0  0.26819456948E+02 -0.23819869975E+01 -0.37920623948E+02  0.46507320430E+02  0.00000000000E+00 0.  1.
<mgrwt>
<rscale>  0 0.70385521E+02</rscale>
<asrwt>0</asrwt>
<pdfrwt beam="1">  1        2 0.37404341E-02 0.96959950E+02</pdfrwt>
<pdfrwt beam="2">  1       -2 0.24556163E-01 0.96959950E+02</pdfrwt>
<totfact> 0.29945130E+04</totfact>
</mgrwt>
</event>
<event>
 6    1  0.1683416E-002  0.1040064E+03  0.7546771E-02  0.1385628E+00
          1   -1    0    0  501    0  0.00000000000E+00  0.00000000000E+00  0.27779168514E+03  0.27779168514E+03  0.00000000000E+00 0. -1.
         -1   -1    0    0    0  501 -0.00000000000E+00 -0.00000000000E+00 -0.13761625498E+02  0.13761625498E+02  0.00000000000E+00 0.  1.
         23    2    1    2    0    0 -0.95611548431E+01  0.10237869806E+02  0.19385146725E+03  0.21999030001E+03  0.10305877490E+03 0.  0.
         11    1    3    3    0    0  0.44539324897E+02  0.15381596086E+02  0.11446716487E+03  0.12378641603E+03  0.00000000000E+00 0. -1.
        -11    1    3    3    0    0 -0.54100479740E+02 -0.51437262799E+01  0.79384302377E+02  0.96203883975E+02  0.00000000000E+00 0.  1.
         22    1    1    2    0    0  0.95611548431E+01 -0.10237869806E+02  0.70178592398E+02  0.71563010634E+02  0.00000000000E+00 0. -1.
<mgrwt>
<rscale>  0 0.63007286E+02</rscale>
<asrwt>0</asrwt>
<pdfrwt beam="1">  1        1 0.42737178E-01 0.10400645E+03</pdfrwt>
<pdfrwt beam="2">  1       -1 0.21171733E-02 0.10400645E+03</pdfrwt>
<totfact> 0.54043485E+04</totfact>
</mgrwt>
</event>
<event>
 6    1  0.1683416E-002  0.1060909E+03  0.7546771E-02  0.1304221E+00
          2   -1    0    0  501    0  0.00000000000E+00  0.00000000000E+00  0.15756857864E+03  0.15756857864E+03  0.00000000000E+00 0. -1.
         -2   -1    0    0    0  501 -0.00000000000E+00 -0.00000000000E+00 -0.69109482203E+02  0.69109482203E+02  0.00000000000E+00 0.  1.
         23    2    1    2    0    0  0.50362223509E+02  0.18299927616E+02 -0.17893580812E+02  0.10758930039E+03  0.91564384000E+02 0.  0.
         11    1    3    3    0    0  0.15837681933E+02  0.26929002723E+02  0.33029608119E+02  0.45463813843E+02  0.00000000000E+00 0. -1.
        -11    1    3    3    0    0  0.34524541576E+02 -0.86290751073E+01 -0.50923188931E+02  0.62125486550E+02  0.00000000000E+00 0.  1.
         22    1    1    2    0    0 -0.50362223509E+02 -0.18299927616E+02  0.10635267725E+03  0.11908876045E+03  0.00000000000E+00 0. -1.
<mgrwt>
<rscale>  0 0.89437012E+02</rscale>
<asrwt>0</asrwt>
<pdfrwt beam="1">  1        2 0.24241320E-01 0.10609089E+03</pdfrwt>
<pdfrwt beam="2">  1       -2 0.10632228E-01 0.10609089E+03</pdfrwt>
<totfact> 0.12287854E+04</totfact>
</mgrwt>
</event>
<event>
 6    1  0.1683416E-002  0.8686097E+02  0.7546771E-02  0.1423922E+00
          2   -1    0    0  501    0  0.00000000000E+00  0.00000000000E+00  0.74203376916E+02  0.74203376916E+02  0.00000000000E+00 0. -1.
         -2   -1    0    0    0  501 -0.00000000000E+00 -0.00000000000E+00 -0.74462551559E+02  0.74462551559E+02  0.00000000000E+00 0.  1.
         23    2    1    2    0    0  0.56544242376E+01 -0.11892035805E+02 -0.47931698210E+02  0.99208244215E+02  0.85857061432E+02 0.  0.
         11    1    3    3    0    0 -0.14268075463E+02 -0.41642014067E+02 -0.65766353562E+01  0.44507161734E+02  0.00000000000E+00 0. -1.
        -11    1    3    3    0    0  0.19922499701E+02  0.29749978262E+02 -0.41355062854E+02  0.54701082481E+02  0.00000000000E+00 0.  1.
         22    1    1    2    0    0 -0.56544242376E+01  0.11892035805E+02  0.47672523567E+02  0.49457684260E+02  0.00000000000E+00 0. -1.
<mgrwt>
<rscale>  0 0.54199772E+02</rscale>
<asrwt>0</asrwt>
<pdfrwt beam="1">  1        2 0.11415904E-01 0.86860970E+02</pdfrwt>
<pdfrwt beam="2">  1       -2 0.11455777E-01 0.86860970E+02</pdfrwt>
<totfact> 0.25326773E+04</totfact>
</mgrwt>
</event>
<event>
 6    1  0.1683416E-002  0.9214183E+02  0.7546771E-02  0.1393499E+00
         -2   -1    0    0    0  501 -0.00000000000E+00  0.00000000000E+00  0.25297388649E+03  0.25297388649E+03  0.00000000000E+00 0.  1.
          2   -1    0    0  501    0  0.00000000000E+00 -0.00000000000E+00 -0.14558262986E+02  0.14558262986E+02  0.00000000000E+00 0. -1.
         23    2    1    2    0    0 -0.14378564738E+02  0.10409535795E+02  0.23023158776E+03  0.24798528271E+03  0.90415788879E+02 0.  0.
         13    1    3    3    0    0  0.35533994891E+02  0.20407258980E+02  0.93481749640E+02  0.10206840122E+03  0.00000000000E+00 0.  1.
        -13    1    3    3    0    0 -0.49912559629E+02 -0.99977231846E+01  0.13674983812E+03  0.14591688149E+03  0.00000000000E+00 0. -1.
         22    1    1    2    0    0  0.14378564738E+02 -0.10409535795E+02  0.81840357450E+01  0.19546866769E+02  0.00000000000E+00 0.  1.
<mgrwt>
<rscale>  0 0.61044837E+02</rscale>
<asrwt>0</asrwt>
<pdfrwt beam="1">  1        2 0.22397330E-02 0.92141828E+02</pdfrwt>
<pdfrwt beam="2">  1       -2 0.38919056E-01 0.92141828E+02</pdfrwt>
<totfact> 0.25762712E+04</totfact>
</mgrwt>
</event>
<event>
 6    1  0.1683416E-002  0.9253030E+02  0.7546771E-02  0.1409458E+00
          2   -1    0    0  501    0  0.00000000000E+00  0.00000000000E+00  0.16414954911E+03  0.16414954911E+03  0.00000000000E+00 0. -1.
         -2   -1    0    0    0  501 -0.00000000000E+00 -0.00000000000E+00 -0.17497620432E+02  0.17497620432E+02  0.00000000000E+00 0.  1.
         23    2    1    2    0    0  0.12371097650E+02 -0.57004016239E+01  0.13530676517E+03  0.16392003297E+03  0.91522226124E+02 0.  0.
         11    1    3    3    0    0  0.27551951578E+02 -0.34438640690E+02  0.12028387298E+03  0.12811455853E+03  0.00000000000E+00 0. -1.
        -11    1    3    3    0    0 -0.15180853928E+02  0.28738239066E+02  0.15022892190E+02  0.35805474447E+02  0.00000000000E+00 0.  1.
         22    1    1    2    0    0 -0.12371097650E+02  0.57004016239E+01  0.11345163509E+02  0.17727136564E+02  0.00000000000E+00 0.  1.
<mgrwt>
<rscale>  0 0.57314865E+02</rscale>
<asrwt>0</asrwt>
<pdfrwt beam="1">  1        2 0.25253776E-01 0.92530300E+02</pdfrwt>
<pdfrwt beam="2">  1       -2 0.26919417E-02 0.92530300E+02</pdfrwt>
<totfact> 0.90643571E+04</totfact>
</mgrwt>
</event>
<event>
 6    1  0.1683416E-002  0.1525493E+03  0.7546771E-02  0.1207308E+00
          4   -1    0    0  501    0  0.00000000000E+00  0.00000000000E+00  0.91793961658E+03  0.91793961658E+03  0.00000000000E+00 0. -1.
         -4   -1    0    0    0  501 -0.00000000000E+00 -0.00000000000E+00 -0.32228979370E+02  0.32228979370E+02  0.00000000000E+00 0.  1.
         23    2    1    2    0    0 -0.70596478701E+02 -0.10078732836E+03  0.75654200268E+03  0.77176880753E+03  0.90162864237E+02 0.  0.
         11    1    3    3    0    0 -0.28089476391E+02  0.12822928681E+02  0.17621249217E+03  0.17889742475E+03  0.00000000000E+00 0. -1.
        -11    1    3    3    0    0 -0.42507002310E+02 -0.11361025704E+03  0.58032951051E+03  0.59287138278E+03  0.00000000000E+00 0.  1.
         22    1    1    2    0    0  0.70596478701E+02  0.10078732836E+03  0.12916863453E+03  0.17839978842E+03  0.00000000000E+00 0.  1.
<mgrwt>
<rscale>  0 0.14457074E+03</rscale>
<asrwt>0</asrwt>
<pdfrwt beam="1">  1        4 0.14122146E+00 0.15254930E+03</pdfrwt>
<pdfrwt beam="2">  1       -4 0.49583052E-02 0.15254930E+03</pdfrwt>
<totfact> 0.15343350E+02</totfact>
</mgrwt>
</event>
<event>
 6    1  0.1683416E-002  0.9157775E+02  0.7546771E-02  0.1401944E+00
          1   -1    0    0  501    0  0.00000000000E+00  0.00000000000E+00  0.49876092301E+01  0.49876092301E+01  0.00000000000E+00 0. -1.
         -1   -1    0    0    0  501 -0.00000000000E+00 -0.00000000000E+00 -0.58759989698E+03  0.58759989698E+03  0.00000000000E+00 0.  1.
         23    2    1    2    0    0  0.15509818199E+02 -0.30694647536E+01 -0.52048269226E+03  0.52847773542E+03  0.90202593217E+02 0.  0.
         11    1    3    3    0    0 -0.69082336093E+01  0.58280468879E+00  0.54595452059E+00  0.69542375027E+01  0.00000000000E+00 0. -1.
        -11    1    3    3    0    0  0.22418051808E+02 -0.36522694424E+01 -0.52102864678E+03  0.52152349792E+03  0.00000000000E+00 0.  1.
         22    1    1    2    0    0 -0.15509818199E+02  0.30694647536E+01 -0.62129595498E+02  0.64109770793E+02  0.00000000000E+00 0. -1.
<mgrwt>
<rscale>  0 0.59030950E+02</rscale>
<asrwt>0</asrwt>
<pdfrwt beam="1">  1        1 0.76732451E-03 0.91577748E+02</pdfrwt>
<pdfrwt beam="2">  1       -1 0.90399983E-01 0.91577748E+02</pdfrwt>
<totfact> 0.26250139E+04</totfact>
</mgrwt>
</event>
<event>
 6    1  0.1683416E-002  0.9507425E+02  0.7546771E-02  0.1412628E+00
          4   -1    0    0  501    0  0.00000000000E+00  0.00000000000E+00  0.12676463418E+03  0.12676463418E+03  0.00000000000E+00 0.  1.
         -4   -1    0    0    0  501 -0.00000000000E+00 -0.00000000000E+00 -0.22782282472E+02  0.22782282472E+02  0.00000000000E+00 0. -1.
         23    2    1    2    0    0 -0.40431695227E+01 -0.11247114475E+02  0.87677822730E+02  0.12933102021E+03  0.94320026428E+02 0.  0.
         13    1    3    3    0    0  0.41359675729E+02 -0.92917740779E+01  0.67274130935E+02  0.79515838266E+02  0.00000000000E+00 0.  1.
        -13    1    3    3    0    0 -0.45402845252E+02 -0.19553403973E+01  0.20403691794E+02  0.49815181942E+02  0.00000000000E+00 0. -1.
         22    1    1    2    0    0  0.40431695227E+01  0.11247114475E+02  0.16304528974E+02  0.20215896440E+02  0.00000000000E+00 0.  1.
<mgrwt>
<rscale>  0 0.56611573E+02</rscale>
<asrwt>0</asrwt>
<pdfrwt beam="1">  1        4 0.19502251E-01 0.95074246E+02</pdfrwt>
<pdfrwt beam="2">  1       -4 0.35049666E-02 0.95074246E+02</pdfrwt>
<totfact> 0.14596224E+04</totfact>
</mgrwt>
</event>
<event>
 6    1  0.1683416E-002  0.9092024E+02  0.7546771E-02  0.1411765E+00
         -2   -1    0    0    0  501 -0.00000000000E+00  0.00000000000E+00  0.10188900483E+02  0.10188900483E+02  0.00000000000E+00 0.  1.
          2   -1    0    0  501    0  0.00000000000E+00 -0.00000000000E+00 -0.27245247147E+03  0.27245247147E+03  0.00000000000E+00 0. -1.
         23    2    1    2    0    0  0.65232559374E+01  0.12218228031E+02 -0.23679783031E+03  0.25365272051E+03  0.89859068647E+02 0.  0.
         11    1    3    3    0    0  0.22238962329E+02  0.21630549058E+02 -0.21897540615E+02  0.37973074447E+02  0.00000000000E+00 0.  1.
        -11    1    3    3    0    0 -0.15715706391E+02 -0.94123210272E+01 -0.21490028970E+03  0.21567964607E+03  0.00000000000E+00 0. -1.
         22    1    1    2    0    0 -0.65232559374E+01 -0.12218228031E+02 -0.25465740673E+02  0.28988651440E+02  0.00000000000E+00 0. -1.
<mgrwt>
<rscale>  0 0.56801820E+02</rscale>
<asrwt>0</asrwt>
<pdfrwt beam="1">  1        2 0.41915761E-01 0.90920241E+02</pdfrwt>
<pdfrwt beam="2">  1       -2 0.15675233E-02 0.90920241E+02</pdfrwt>
<totfact> 0.11473359E+05</totfact>
</mgrwt>
</event>
<event>
 6    1  0.1683416E-002  0.9460396E+02  0.7546771E-02  0.1376968E+00
          2   -1    0    0  501    0  0.00000000000E+00  0.00000000000E+00  0.31491388122E+02  0.31491388122E+02  0.00000000000E+00 0. -1.
         -2   -1    0    0    0  501 -0.00000000000E+00 -0.00000000000E+00 -0.11596532723E+03  0.11596532723E+03  0.00000000000E+00 0.  1.
         23    2    1    2    0    0  0.17435476999E+02 -0.12463022181E+02 -0.83203910997E+02  0.12598730103E+03  0.92144378203E+02 0.  0.
         13    1    3    3    0    0  0.46380881568E+02 -0.14710487738E+02 -0.83852485357E+02  0.96947531815E+02  0.00000000000E+00 0.  1.
        -13    1    3    3    0    0 -0.28945404569E+02  0.22474655569E+01  0.64857436076E+00  0.29039769210E+02  0.00000000000E+00 0. -1.
         22    1    1    2    0    0 -0.17435476999E+02  0.12463022181E+02 -0.12700281104E+01  0.21469414325E+02  0.00000000000E+00 0. -1.
<mgrwt>
<rscale>  0 0.65267463E+02</rscale>
<asrwt>0</asrwt>
<pdfrwt beam="1">  1        2 0.48448289E-02 0.94603960E+02</pdfrwt>
<pdfrwt beam="2">  1       -2 0.17840820E-01 0.94603960E+02</pdfrwt>
<totfact> 0.36528328E+04</totfact>
</mgrwt>
</event>
<event>
 6    1  0.1683416E-002  0.1252636E+03  0.7546771E-02  0.1332327E+00
         -2   -1    0    0    0  501 -0.00000000000E+00  0.00000000000E+00  0.43463104765E+03  0.43463104765E+03  0.00000000000E+00 0.  1.
          2   -1    0    0  501    0  0.00000000000E+00 -0.00000000000E+00 -0.12229456229E+02  0.12229456229E+02  0.00000000000E+00 0. -1.
         23    2    1    2    0    0  0.12843332052E+02 -0.14902834213E+02  0.38008071414E+03  0.40019036033E+03  0.12370905217E+03 0.  0.
         11    1    3    3    0    0  0.68097554317E+02 -0.29695483657E+01  0.22664758207E+03  0.23667535059E+03  0.00000000000E+00 0.  1.
        -11    1    3    3    0    0 -0.55254222264E+02 -0.11933285847E+02  0.15343313208E+03  0.16351500973E+03  0.00000000000E+00 0. -1.
         22    1    1    2    0    0 -0.12843332052E+02  0.14902834213E+02  0.42320877279E+02  0.46670143554E+02  0.00000000000E+00 0. -1.
<mgrwt>
<rscale>  0 0.78856773E+02</rscale>
<asrwt>0</asrwt>
<pdfrwt beam="1">  1        2 0.18814551E-02 0.12526362E+03</pdfrwt>
<pdfrwt beam="2">  1       -2 0.66866303E-01 0.12526362E+03</pdfrwt>
<totfact> 0.11608397E+04</totfact>
</mgrwt>
</event>
<event>
 6    1  0.1683416E-002  0.1539414E+03  0.7546771E-02  0.1205468E+00
          2   -1    0    0  501    0  0.00000000000E+00  0.00000000000E+00  0.29713325599E+03  0.29713325599E+03  0.00000000000E+00 0.  1.
         -2   -1    0    0    0  501 -0.00000000000E+00 -0.00000000000E+00 -0.16638744111E+03  0.16638744111E+03  0.00000000000E+00 0. -1.
         23    2    1    2    0    0 -0.68655529766E+02  0.10394675431E+03 -0.11220504207E+03  0.19049390648E+03  0.90440297654E+02 0.  0.
         13    1    3    3    0    0 -0.35514326115E+02  0.11258896214E+03 -0.97933020615E+02  0.15338975938E+03  0.00000000000E+00 0. -1.
        -13    1    3    3    0    0 -0.33141203651E+02 -0.86422078293E+01 -0.14272021459E+02  0.37104147102E+02  0.00000000000E+00 0.  1.
         22    1    1    2    0    0  0.68655529766E+02 -0.10394675431E+03  0.24295085695E+03  0.27302679061E+03  0.00000000000E+00 0.  1.
<mgrwt>
<rscale>  0 0.14600672E+03</rscale>
<asrwt>0</asrwt>
<pdfrwt beam="1">  1        2 0.45712809E-01 0.15394141E+03</pdfrwt>
<pdfrwt beam="2">  1       -2 0.25598068E-01 0.15394141E+03</pdfrwt>
<totfact> 0.14846723E+03</totfact>
</mgrwt>
</event>
<event>
 6    1  0.1683416E-002  0.9369646E+02  0.7546771E-02  0.1386105E+00
         -3   -1    0    0    0  501 -0.00000000000E+00  0.00000000000E+00  0.22492695758E+02  0.22492695758E+02  0.00000000000E+00 0.  1.
          3   -1    0    0  501    0  0.00000000000E+00 -0.00000000000E+00 -0.14877300696E+03  0.14877300696E+03  0.00000000000E+00 0. -1.
         23    2    1    2    0    0  0.14098021057E+02 -0.12756458518E+02 -0.11760832709E+03  0.15036869958E+03  0.91747184052E+02 0.  0.
         11    1    3    3    0    0 -0.31920344792E+02 -0.20791205353E+02 -0.22081823955E+02  0.44031688371E+02  0.00000000000E+00 0.  1.
        -11    1    3    3    0    0  0.46018365849E+02  0.80347468342E+01 -0.95526503135E+02  0.10633701121E+03  0.00000000000E+00 0. -1.
         22    1    1    2    0    0 -0.14098021057E+02  0.12756458518E+02 -0.86719841138E+01  0.20897003138E+02  0.00000000000E+00 0.  1.
<mgrwt>
<rscale>  0 0.62885881E+02</rscale>
<asrwt>0</asrwt>
<pdfrwt beam="1">  1        3 0.22888155E-01 0.93696463E+02</pdfrwt>
<pdfrwt beam="2">  1       -3 0.34604148E-02 0.93696463E+02</pdfrwt>
<totfact> 0.14863846E+04</totfact>
</mgrwt>
</event>
<event>
 6    1  0.1683416E-002  0.9311916E+02  0.7546771E-02  0.1391553E+00
          3   -1    0    0  501    0  0.00000000000E+00  0.00000000000E+00  0.14418329757E+03  0.14418329757E+03  0.00000000000E+00 0. -1.
         -3   -1    0    0    0  501 -0.00000000000E+00 -0.00000000000E+00 -0.22281406496E+02  0.22281406496E+02  0.00000000000E+00 0.  1.
         23    2    1    2    0    0  0.17515512344E+02  0.28275914741E+01  0.87606760921E+02  0.12785195490E+03  0.91413288780E+02 0.  0.
         11    1    3    3    0    0 -0.37144702411E+02 -0.56298131221E+01  0.30980205125E+02  0.48694936314E+02  0.00000000000E+00 0. -1.
        -11    1    3    3    0    0  0.54660214755E+02  0.84574045962E+01  0.56626555796E+02  0.79157018583E+02  0.00000000000E+00 0.  1.
         22    1    1    2    0    0 -0.17515512344E+02 -0.28275914741E+01  0.34295130157E+02  0.38612749174E+02  0.00000000000E+00 0.  1.
<mgrwt>
<rscale>  0 0.61522168E+02</rscale>
<asrwt>0</asrwt>
<pdfrwt beam="1">  1        3 0.22182045E-01 0.93119159E+02</pdfrwt>
<pdfrwt beam="2">  1       -3 0.34279088E-02 0.93119159E+02</pdfrwt>
<totfact> 0.15917006E+04</totfact>
</mgrwt>
</event>
<event>
 6    1  0.1683416E-002  0.9104553E+02  0.7546771E-02  0.1383797E+00
          1   -1    0    0  501    0  0.00000000000E+00  0.00000000000E+00  0.83857372563E+02  0.83857372563E+02  0.00000000000E+00 0. -1.
         -1   -1    0    0    0  501 -0.00000000000E+00 -0.00000000000E+00 -0.38246164877E+02  0.38246164877E+02  0.00000000000E+00 0.  1.
         23    2    1    2    0    0  0.52204235582E+01 -0.20868059127E+02  0.31338495621E+02  0.96288057131E+02  0.88467846840E+02 0.  0.
         11    1    3    3    0    0 -0.18774148721E+02  0.28609403433E+02  0.21536620054E+02  0.40432568906E+02  0.00000000000E+00 0.  1.
        -11    1    3    3    0    0  0.23994572279E+02 -0.49477462560E+02  0.98018755671E+01  0.55855488225E+02  0.00000000000E+00 0. -1.
         22    1    1    2    0    0 -0.52204235582E+01  0.20868059127E+02  0.14272712065E+02  0.25815480308E+02  0.00000000000E+00 0. -1.
<mgrwt>
<rscale>  0 0.63476033E+02</rscale>
<asrwt>0</asrwt>
<pdfrwt beam="1">  1        1 0.12901134E-01 0.91045531E+02</pdfrwt>
<pdfrwt beam="2">  1       -1 0.58840254E-02 0.91045531E+02</pdfrwt>
<totfact> 0.53841854E+04</totfact>
</mgrwt>
</event>
<event>
 6    1  0.1683416E-002  0.9384523E+02  0.7546771E-02  0.1395420E+00
          2   -1    0    0  501    0  0.00000000000E+00  0.00000000000E+00  0.48549910081E+02  0.48549910081E+02  0.00000000000E+00 0. -1.
         -2   -1    0    0    0  501 -0.00000000000E+00 -0.00000000000E+00 -0.63213011005E+02  0.63213011005E+02  0.00000000000E+00 0.  1.
         23    2    1    2    0    0  0.14674116872E+02 -0.70833177673E+01 -0.16773808625E+02  0.95332516845E+02  0.92419830208E+02 0.  0.
         11    1    3    3    0    0  0.55480343853E+01 -0.33910369922E+02 -0.44140530256E+02  0.55938182712E+02  0.00000000000E+00 0.  1.
        -11    1    3    3    0    0  0.91260824864E+01  0.26827052155E+02  0.27366721632E+02  0.39394334133E+02  0.00000000000E+00 0. -1.
         22    1    1    2    0    0 -0.14674116872E+02  0.70833177673E+01  0.21107077008E+01  0.16430404242E+02  0.00000000000E+00 0. -1.
<mgrwt>
<rscale>  0 0.60578410E+02</rscale>
<asrwt>0</asrwt>
<pdfrwt beam="1">  1        2 0.74692170E-02 0.93845235E+02</pdfrwt>
<pdfrwt beam="2">  1       -2 0.97250786E-02 0.93845235E+02</pdfrwt>
<totfact> 0.55491584E+04</totfact>
</mgrwt>
</event>
<event>
 6    1  0.1683416E-002  0.8945220E+02  0.7546771E-02  0.1416738E+00
         -3   -1    0    0    0  501 -0.00000000000E+00  0.00000000000E+00  0.18361026951E+02  0.18361026951E+02  0.00000000000E+00 0.  1.
          3   -1    0    0  501    0  0.00000000000E+00 -0.00000000000E+00 -0.19063324075E+03  0.19063324075E+03  0.00000000000E+00 0. -1.
         23    2    1    2    0    0  0.11331420148E+02  0.72720576687E+01 -0.94722822662E+02  0.13028472590E+03  0.88433097670E+02 0.  0.
         11    1    3    3    0    0  0.23194685162E+01 -0.56364552664E+01 -0.10891709422E+03  0.10908750147E+03  0.00000000000E+00 0. -1.
        -11    1    3    3    0    0  0.90119516316E+01  0.12908512935E+02  0.14194271561E+02  0.21197224430E+02  0.00000000000E+00 0.  1.
         22    1    1    2    0    0 -0.11331420148E+02 -0.72720576687E+01 -0.77549391137E+02  0.78709541804E+02  0.00000000000E+00 0. -1.
<mgrwt>
<rscale>  0 0.55717059E+02</rscale>
<asrwt>0</asrwt>
<pdfrwt beam="1">  1        3 0.29328191E-01 0.89452203E+02</pdfrwt>
<pdfrwt beam="2">  1       -3 0.28247734E-02 0.89452203E+02</pdfrwt>
<totfact> 0.12846294E+04</totfact>
</mgrwt>
</event>
<event>
 6    1  0.1683416E-002  0.1039449E+03  0.7546771E-02  0.1308347E+00
          2   -1    0    0  501    0  0.00000000000E+00  0.00000000000E+00  0.60590228373E+02  0.60590228373E+02  0.00000000000E+00 0. -1.
         -2   -1    0    0    0  501 -0.00000000000E+00 -0.00000000000E+00 -0.11743179672E+03  0.11743179672E+03  0.00000000000E+00 0.  1.
         23    2    1    2    0    0  0.49944554734E+02 -0.17246879324E+02 -0.67742292905E+02  0.12407075828E+03  0.89513247171E+02 0.  0.
         11    1    3    3    0    0 -0.16174104122E+02 -0.27938426050E+02 -0.57169153033E+01  0.32784758881E+02  0.00000000000E+00 0. -1.
        -11    1    3    3    0    0  0.66118658856E+02  0.10691546726E+02 -0.62025377601E+02  0.91285999403E+02  0.00000000000E+00 0.  1.
         22    1    1    2    0    0 -0.49944554734E+02  0.17246879324E+02  0.10900724561E+02  0.53951266806E+02  0.00000000000E+00 0. -1.
<mgrwt>
<rscale>  0 0.87768772E+02</rscale>
<asrwt>0</asrwt>
<pdfrwt beam="1">  1        2 0.93215737E-02 0.10394486E+03</pdfrwt>
<pdfrwt beam="2">  1       -2 0.18066430E-01 0.10394486E+03</pdfrwt>
<totfact> 0.15838792E+04</totfact>
</mgrwt>
</event>
<event>
 6    1  0.1683416E-002  0.9291950E+02  0.7546771E-02  0.1397437E+00
         -2   -1    0    0    0  501 -0.00000000000E+00  0.00000000000E+00  0.61036607415E+02  0.61036607415E+02  0.00000000000E+00 0.  1.
          2   -1    0    0  501    0  0.00000000000E+00 -0.00000000000E+00 -0.56637130891E+02  0.56637130891E+02  0.00000000000E+00 0. -1.
         23    2    1    2    0    0 -0.10116495588E+02 -0.12724281280E+02  0.20105708835E+02  0.95069832660E+02  0.91486516696E+02 0.  0.
         11    1    3    3    0    0  0.24313610976E+02  0.28968298917E+02  0.13690547655E+01  0.37844264186E+02  0.00000000000E+00 0. -1.
        -11    1    3    3    0    0 -0.34430106564E+02 -0.41692580197E+02  0.18736654070E+02  0.57225568474E+02  0.00000000000E+00 0.  1.
         22    1    1    2    0    0  0.10116495588E+02  0.12724281280E+02 -0.15706232311E+02  0.22603905647E+02  0.00000000000E+00 0. -1.
<mgrwt>
<rscale>  0 0.60094149E+02</rscale>
<asrwt>0</asrwt>
<pdfrwt beam="1">  1        2 0.87134048E-02 0.92919500E+02</pdfrwt>
<pdfrwt beam="2">  1       -2 0.93902473E-02 0.92919500E+02</pdfrwt>
<totfact> 0.48333906E+04</totfact>
</mgrwt>
</event>
<event>
 6    1  0.1683416E-002  0.8776216E+02  0.7546771E-02  0.1431828E+00
          4   -1    0    0  501    0  0.00000000000E+00  0.00000000000E+00  0.12564507961E+02  0.12564507961E+02  0.00000000000E+00 0. -1.
         -4   -1    0    0    0  501 -0.00000000000E+00 -0.00000000000E+00 -0.25859483872E+03  0.25859483872E+03  0.00000000000E+00 0.  1.
         23    2    1    2    0    0 -0.10306479996E+02 -0.46820734739E+01 -0.24445331412E+03  0.25972989685E+03  0.87029024997E+02 0.  0.
         13    1    3    3    0    0 -0.45439037158E+02 -0.16991843301E+02 -0.11008707263E+03  0.12030208808E+03  0.00000000000E+00 0. -1.
        -13    1    3    3    0    0  0.35132557162E+02  0.12309769827E+02 -0.13436624149E+03  0.13942780877E+03  0.00000000000E+00 0.  1.
         22    1    1    2    0    0  0.10306479996E+02  0.46820734739E+01 -0.15770166393E+01  0.11429449830E+02  0.00000000000E+00 0.  1.
<mgrwt>
<rscale>  0 0.52594863E+02</rscale>
<asrwt>0</asrwt>
<pdfrwt beam="1">  1        4 0.19330016E-02 0.87762159E+02</pdfrwt>
<pdfrwt beam="2">  1       -4 0.39783814E-01 0.87762159E+02</pdfrwt>
<totfact> 0.94939385E+03</totfact>
</mgrwt>
</event>
<event>
 6    1  0.1683416E-002  0.1086088E+03  0.7546771E-02  0.1294945E+00
         -2   -1    0    0    0  501 -0.00000000000E+00  0.00000000000E+00  0.25784409866E+02  0.25784409866E+02  0.00000000000E+00 0.  1.
          2   -1    0    0  501    0  0.00000000000E+00 -0.00000000000E+00 -0.32956141092E+03  0.32956141092E+03  0.00000000000E+00 0. -1.
         23    2    1    2    0    0  0.57021216493E+02  0.16151177982E+02 -0.11813520105E+03  0.16047366375E+03  0.91014237065E+02 0.  0.
         13    1    3    3    0    0 -0.45554190606E+01 -0.19337030905E+02 -0.74438884540E+02  0.77044273886E+02  0.00000000000E+00 0. -1.
        -13    1    3    3    0    0  0.61576635554E+02  0.35488208887E+02 -0.43696316515E+02  0.83429389864E+02  0.00000000000E+00 0.  1.
         22    1    1    2    0    0 -0.57021216493E+02 -0.16151177982E+02 -0.18564180000E+03  0.19487215703E+03  0.00000000000E+00 0. -1.
<mgrwt>
<rscale>  0 0.93346361E+02</rscale>
<asrwt>0</asrwt>
<pdfrwt beam="1">  1        2 0.50701749E-01 0.10860880E+03</pdfrwt>
<pdfrwt beam="2">  1       -2 0.39668328E-02 0.10860880E+03</pdfrwt>
<totfact> 0.25020898E+04</totfact>
</mgrwt>
</event>
<event>
 6    1  0.1683416E-002  0.1223067E+03  0.7546771E-02  0.1259637E+00
         -2   -1    0    0    0  501 -0.00000000000E+00  0.00000000000E+00  0.14683921298E+02  0.14683921298E+02  0.00000000000E+00 0.  1.
          2   -1    0    0  501    0  0.00000000000E+00 -0.00000000000E+00 -0.73986167074E+03  0.73986167074E+03  0.00000000000E+00 0. -1.
         23    2    1    2    0    0  0.55552329208E+02  0.59640091828E+02 -0.35426418520E+03  0.37478267393E+03  0.91191764575E+02 0.  0.
         13    1    3    3    0    0  0.59174018776E+01 -0.19124435455E+02 -0.13638455832E+03  0.13784595541E+03  0.00000000000E+00 0. -1.
        -13    1    3    3    0    0  0.49634927330E+02  0.78764527283E+02 -0.21787962689E+03  0.23693671852E+03  0.00000000000E+00 0.  1.
         22    1    1    2    0    0 -0.55552329208E+02 -0.59640091828E+02 -0.37091356424E+03  0.37976291811E+03  0.00000000000E+00 0. -1.
<mgrwt>
<rscale>  0 0.11050536E+03</rscale>
<asrwt>0</asrwt>
<pdfrwt beam="1">  1        2 0.11382490E+00 0.12230674E+03</pdfrwt>
<pdfrwt beam="2">  1       -2 0.22590642E-02 0.12230674E+03</pdfrwt>
<totfact> 0.23676692E+04</totfact>
</mgrwt>
</event>
<event>
 6    1  0.1683416E-002  0.9393276E+02  0.7546771E-02  0.1358270E+00
         -2   -1    0    0    0  501 -0.00000000000E+00  0.00000000000E+00  0.72184280033E+01  0.72184280033E+01  0.00000000000E+00 0.  1.
          2   -1    0    0  501    0  0.00000000000E+00 -0.00000000000E+00 -0.54379020098E+03  0.54379020098E+03  0.00000000000E+00 0. -1.
         23    2    1    2    0    0 -0.25015368422E+02 -0.16326821679E+02 -0.44032853033E+03  0.45023613512E+03  0.89056324792E+02 0.  0.
         13    1    3    3    0    0  0.25544418079E+02 -0.62884506513E+01 -0.29245623153E+03  0.29363703661E+03  0.00000000000E+00 0. -1.
        -13    1    3    3    0    0 -0.50559786501E+02 -0.10038371028E+02 -0.14787229880E+03  0.15659909851E+03  0.00000000000E+00 0.  1.
         22    1    1    2    0    0  0.25015368422E+02  0.16326821679E+02 -0.96243242646E+02  0.10077249386E+03  0.00000000000E+00 0. -1.
<mgrwt>
<rscale>  0 0.70538905E+02</rscale>
<asrwt>0</asrwt>
<pdfrwt beam="1">  1        2 0.83660047E-01 0.93932757E+02</pdfrwt>
<pdfrwt beam="2">  1       -2 0.11105272E-02 0.93932757E+02</pdfrwt>
<totfact> 0.90600412E+04</totfact>
</mgrwt>
</event>
<event>
 6    1  0.1683416E-002  0.9031526E+02  0.7546771E-02  0.1399543E+00
          1   -1    0    0  501    0  0.00000000000E+00  0.00000000000E+00  0.27389252777E+01  0.27389252777E+01  0.00000000000E+00 0. -1.
         -1   -1    0    0    0  501 -0.00000000000E+00 -0.00000000000E+00 -0.12917586253E+04  0.12917586253E+04  0.00000000000E+00 0.  1.
         23    2    1    2    0    0  0.55902423043E+00  0.17112016030E+02 -0.12217361373E+04  0.12250698081E+04  0.88677574141E+02 0.  0.
         11    1    3    3    0    0 -0.35605582276E+02  0.35035750473E+02 -0.67495905414E+03  0.67680498377E+03  0.00000000000E+00 0. -1.
        -11    1    3    3    0    0  0.36164606507E+02 -0.17923734443E+02 -0.54677708312E+03  0.54826482437E+03  0.00000000000E+00 0.  1.
         22    1    1    2    0    0 -0.55902423043E+00 -0.17112016030E+02 -0.67283562816E+02  0.69427742480E+02  0.00000000000E+00 0. -1.
<mgrwt>
<rscale>  0 0.59594207E+02</rscale>
<asrwt>0</asrwt>
<pdfrwt beam="1">  1        1 0.42137316E-03 0.90315258E+02</pdfrwt>
<pdfrwt beam="2">  1       -1 0.19873208E+00 0.90315258E+02</pdfrwt>
<totfact> 0.85838864E+03</totfact>
</mgrwt>
</event>
<event>
 6    1  0.1683416E-002  0.9127290E+02  0.7546771E-02  0.1427724E+00
         -2   -1    0    0    0  501 -0.00000000000E+00  0.00000000000E+00  0.59576015649E+01  0.59576015649E+01  0.00000000000E+00 0.  1.
          2   -1    0    0  501    0  0.00000000000E+00 -0.00000000000E+00 -0.43882171489E+03  0.43882171489E+03  0.00000000000E+00 0. -1.
         23    2    1    2    0    0 -0.38003842044E+01 -0.10012672178E+02 -0.37637740517E+03  0.38728631929E+03  0.90642404349E+02 0.  0.
         11    1    3    3    0    0  0.26472623109E+02 -0.38274706975E+02 -0.25003963749E+03  0.25433358662E+03  0.00000000000E+00 0. -1.
        -11    1    3    3    0    0 -0.30273007313E+02  0.28262034797E+02 -0.12633776768E+03  0.13295273267E+03  0.00000000000E+00 0.  1.
         22    1    1    2    0    0  0.38003842044E+01  0.10012672178E+02 -0.56486708160E+02  0.57492997165E+02  0.00000000000E+00 0.  1.
<mgrwt>
<rscale>  0 0.53419542E+02</rscale>
<asrwt>0</asrwt>
<pdfrwt beam="1">  1        2 0.67511046E-01 0.91272898E+02</pdfrwt>
<pdfrwt beam="2">  1       -2 0.91655391E-03 0.91272898E+02</pdfrwt>
<totfact> 0.14922767E+05</totfact>
</mgrwt>
</event>
<event>
 6    1  0.1683416E-002  0.9796960E+02  0.7546771E-02  0.1342984E+00
         -2   -1    0    0    0  501 -0.00000000000E+00  0.00000000000E+00  0.32960469792E+02  0.32960469792E+02  0.00000000000E+00 0.  1.
          2   -1    0    0  501    0  0.00000000000E+00 -0.00000000000E+00 -0.13776518682E+03  0.13776518682E+03  0.00000000000E+00 0. -1.
         23    2    1    2    0    0  0.18961919018E+02  0.28422502565E+02 -0.61931659047E+02  0.11590328777E+03  0.91818564017E+02 0.  0.
         13    1    3    3    0    0  0.37453868227E+01  0.46602957141E+02 -0.75338854844E+02  0.88666829119E+02  0.00000000000E+00 0. -1.
        -13    1    3    3    0    0  0.15216532196E+02 -0.18180454575E+02  0.13407195797E+02  0.27236458650E+02  0.00000000000E+00 0.  1.
         22    1    1    2    0    0 -0.18961919018E+02 -0.28422502565E+02 -0.42873057976E+02  0.54822368839E+02  0.00000000000E+00 0. -1.
<mgrwt>
<rscale>  0 0.75287110E+02</rscale>
<asrwt>0</asrwt>
<pdfrwt beam="1">  1        2 0.21194644E-01 0.97969596E+02</pdfrwt>
<pdfrwt beam="2">  1       -2 0.50708415E-02 0.97969596E+02</pdfrwt>
<totfact> 0.43726687E+04</totfact>
</mgrwt>
</event>
<event>
 6    1  0.1683416E-002  0.9461418E+02  0.7546771E-02  0.1338224E+00
          2   -1    0    0  501    0  0.00000000000E+00  0.00000000000E+00  0.48858669078E+02  0.48858669078E+02  0.00000000000E+00 0. -1.
         -2   -1    0    0    0  501 -0.00000000000E+00 -0.00000000000E+00 -0.17893925275E+03  0.17893925275E+03  0.00000000000E+00 0.  1.
         23    2    1    2    0    0 -0.35370146079E+02 -0.21110007486E+02 -0.15357300208E+03  0.18037879728E+03  0.85177249831E+02 0.  0.
         11    1    3    3    0    0 -0.34020306101E+02  0.19584737012E+02 -0.12397326089E+03  0.13003965767E+03  0.00000000000E+00 0. -1.
        -11    1    3    3    0    0 -0.13498399786E+01 -0.40694744499E+02 -0.29599741192E+02  0.50339139607E+02  0.00000000000E+00 0.  1.
         22    1    1    2    0    0  0.35370146079E+02  0.21110007486E+02  0.23492418415E+02  0.47419124546E+02  0.00000000000E+00 0. -1.
<mgrwt>
<rscale>  0 0.76854121E+02</rscale>
<asrwt>0</asrwt>
<pdfrwt beam="1">  1        2 0.75167185E-02 0.94614183E+02</pdfrwt>
<pdfrwt beam="2">  1       -2 0.27529115E-01 0.94614183E+02</pdfrwt>
<totfact> 0.99799636E+03</totfact>
</mgrwt>
</event>
<event>
 6    1  0.1683416E-002  0.9241040E+02  0.7546771E-02  0.1415798E+00
          1   -1    0    0  501    0  0.00000000000E+00  0.00000000000E+00  0.23560024686E+03  0.23560024686E+03  0.00000000000E+00 0. -1.
         -1   -1    0    0    0  501 -0.00000000000E+00 -0.00000000000E+00 -0.12786854474E+02  0.12786854474E+02  0.00000000000E+00 0.  1.
         23    2    1    2    0    0  0.66102793570E+01 -0.10480456540E+02  0.16363847337E+03  0.18792879502E+03  0.91575904398E+02 0.  0.
         11    1    3    3    0    0 -0.25522811277E+02  0.19235957983E+02  0.12666392772E+03  0.13063378797E+03  0.00000000000E+00 0. -1.
        -11    1    3    3    0    0  0.32133090634E+02 -0.29716414523E+02  0.36974545652E+02  0.57295007042E+02  0.00000000000E+00 0.  1.
         22    1    1    2    0    0 -0.66102793570E+01  0.10480456540E+02  0.59174919017E+02  0.60458306321E+02  0.00000000000E+00 0. -1.
<mgrwt>
<rscale>  0 0.55919957E+02</rscale>
<asrwt>0</asrwt>
<pdfrwt beam="1">  1        1 0.36246189E-01 0.92410400E+02</pdfrwt>
<pdfrwt beam="2">  1       -1 0.19672086E-02 0.92410400E+02</pdfrwt>
<totfact> 0.72256084E+04</totfact>
</mgrwt>
</event>
<event>
 6    1  0.1683416E-002  0.9024184E+02  0.7546771E-02  0.1433645E+00
         -1   -1    0    0    0  501 -0.00000000000E+00  0.00000000000E+00  0.56505362936E+02  0.56505362936E+02  0.00000000000E+00 0.  1.
          1   -1    0    0  501    0  0.00000000000E+00 -0.00000000000E+00 -0.82807098648E+02  0.82807098648E+02  0.00000000000E+00 0. -1.
         23    2    1    2    0    0  0.86851143985E+01 -0.52148933770E+01  0.19566608841E+02  0.92338731085E+02  0.89671415467E+02 0.  0.
         13    1    3    3    0    0 -0.20822396341E+02 -0.39679819118E+02  0.11398783834E+02  0.46238431067E+02  0.00000000000E+00 0. -1.
        -13    1    3    3    0    0  0.29507510739E+02  0.34464925741E+02  0.81678250064E+01  0.46100300018E+02  0.00000000000E+00 0.  1.
         22    1    1    2    0    0 -0.86851143985E+01  0.52148933770E+01 -0.45868344553E+02  0.46973730500E+02  0.00000000000E+00 0.  1.
<mgrwt>
<rscale>  0 0.52235204E+02</rscale>
<asrwt>0</asrwt>
<pdfrwt beam="1">  1        1 0.12739554E-01 0.90241837E+02</pdfrwt>
<pdfrwt beam="2">  1       -1 0.86931327E-02 0.90241837E+02</pdfrwt>
<totfact> 0.30619447E+04</totfact>
</mgrwt>
</event>
<event>
 6    1  0.1683416E-002  0.9304657E+02  0.7546771E-02  0.1377777E+00
         -2   -1    0    0    0  501 -0.00000000000E+00  0.00000000000E+00  0.70677909881E+01  0.70677909881E+01  0.00000000000E+00 0. -1.
          2   -1    0    0  501    0  0.00000000000E+00 -0.00000000000E+00 -0.47240663234E+03  0.47240663234E+03  0.00000000000E+00 0.  1.
         23    2    1    2    0    0  0.14573659244E+02 -0.16785915865E+02 -0.36148227151E+03  0.37326545188E+03  0.90352124720E+02 0.  0.
         13    1    3    3    0    0  0.34660576270E+02 -0.24218752292E+02 -0.34106139781E+03  0.34367249030E+03  0.00000000000E+00 0.  1.
        -13    1    3    3    0    0 -0.20086917026E+02  0.74328364266E+01 -0.20420873692E+02  0.29592961583E+02  0.00000000000E+00 0. -1.
         22    1    1    2    0    0 -0.14573659244E+02  0.16785915865E+02 -0.10385656984E+03  0.10620897144E+03  0.00000000000E+00 0. -1.
<mgrwt>
<rscale>  0 0.65051689E+02</rscale>
<asrwt>0</asrwt>
<pdfrwt beam="1">  1        2 0.72677958E-01 0.93046574E+02</pdfrwt>
<pdfrwt beam="2">  1       -2 0.10873522E-02 0.93046574E+02</pdfrwt>
<totfact> 0.10860139E+05</totfact>
</mgrwt>
</event>
<event>
 6    1  0.1683416E-002  0.9060046E+02  0.7546771E-02  0.1429776E+00
          2   -1    0    0  501    0  0.00000000000E+00  0.00000000000E+00  0.13687641268E+02  0.13687641268E+02  0.00000000000E+00 0.  1.
         -2   -1    0    0    0  501 -0.00000000000E+00 -0.00000000000E+00 -0.35697281447E+03  0.35697281447E+03  0.00000000000E+00 0. -1.
         23    2    1    2    0    0  0.57640364847E+01 -0.89124561740E+01 -0.34759231430E+03  0.35920587342E+03  0.89976588893E+02 0.  0.
         11    1    3    3    0    0 -0.80214091020E+01 -0.37443313724E+02 -0.69815120791E+02  0.79627230504E+02  0.00000000000E+00 0.  1.
        -11    1    3    3    0    0  0.13785445587E+02  0.28530857550E+02 -0.27777719350E+03  0.27957864291E+03  0.00000000000E+00 0. -1.
         22    1    1    2    0    0 -0.57640364847E+01  0.89124561740E+01  0.43071410959E+01  0.11454582318E+02  0.00000000000E+00 0.  1.
<mgrwt>
<rscale>  0 0.53005029E+02</rscale>
<asrwt>0</asrwt>
<pdfrwt beam="1">  1        2 0.21057907E-02 0.90600456E+02</pdfrwt>
<pdfrwt beam="2">  1       -2 0.54918902E-01 0.90600456E+02</pdfrwt>
<totfact> 0.14358902E+04</totfact>
</mgrwt>
</event>
<event>
 6    1  0.1683416E-002  0.9349857E+02  0.7546771E-02  0.1380554E+00
          2   -1    0    0  501    0  0.00000000000E+00  0.00000000000E+00  0.69471301020E+02  0.69471301020E+02  0.00000000000E+00 0. -1.
         -2   -1    0    0    0  501 -0.00000000000E+00 -0.00000000000E+00 -0.53859623206E+02  0.53859623206E+02  0.00000000000E+00 0.  1.
         23    2    1    2    0    0 -0.17191056195E+02 -0.11951715983E+02 -0.54182742651E+01  0.93655432445E+02  0.91124126346E+02 0.  0.
         13    1    3    3    0    0 -0.19281756620E+02  0.99142152517E+01  0.38706737367E+02  0.44365406794E+02  0.00000000000E+00 0. -1.
        -13    1    3    3    0    0  0.20907004251E+01 -0.21865931234E+02 -0.44125011633E+02  0.49290025650E+02  0.00000000000E+00 0.  1.
         22    1    1    2    0    0  0.17191056195E+02  0.11951715983E+02  0.21029952079E+02  0.29675491781E+02  0.00000000000E+00 0. -1.
<mgrwt>
<rscale>  0 0.64318300E+02</rscale>
<asrwt>0</asrwt>
<pdfrwt beam="1">  1        2 0.10687892E-01 0.93498569E+02</pdfrwt>
<pdfrwt beam="2">  1       -2 0.82860959E-02 0.93498569E+02</pdfrwt>
<totfact> 0.45742742E+04</totfact>
</mgrwt>
</event>
<event>
 6    1  0.1683416E-002  0.9449432E+02  0.7546771E-02  0.1370112E+00
         -2   -1    0    0    0  501 -0.00000000000E+00  0.00000000000E+00  0.53699008018E+02  0.53699008018E+02  0.00000000000E+00 0.  1.
          2   -1    0    0  501    0  0.00000000000E+00 -0.00000000000E+00 -0.70670334205E+02  0.70670334205E+02  0.00000000000E+00 0. -1.
         23    2    1    2    0    0 -0.22264686933E+02  0.91649494952E+01  0.71044164891E+00  0.94496988829E+02  0.91375399243E+02 0.  0.
         11    1    3    3    0    0  0.11068133786E+02  0.18393505163E+02 -0.37343424482E+02  0.43073843220E+02  0.00000000000E+00 0. -1.
        -11    1    3    3    0    0 -0.33332820719E+02 -0.92285556677E+01  0.38053866131E+02  0.51423145609E+02  0.00000000000E+00 0.  1.
         22    1    1    2    0    0  0.22264686933E+02 -0.91649494952E+01 -0.17681767837E+02  0.29872353394E+02  0.00000000000E+00 0. -1.
<mgrwt>
<rscale>  0 0.67136062E+02</rscale>
<asrwt>0</asrwt>
<pdfrwt beam="1">  1        2 0.10872359E-01 0.94494318E+02</pdfrwt>
<pdfrwt beam="2">  1       -2 0.82613859E-02 0.94494318E+02</pdfrwt>
<totfact> 0.45079838E+04</totfact>
</mgrwt>
</event>
<event>
 6    1  0.1683416E-002  0.9690485E+02  0.7546771E-02  0.1345964E+00
         -3   -1    0    0    0  501 -0.00000000000E+00  0.00000000000E+00  0.42635218119E+02  0.42635218119E+02  0.00000000000E+00 0.  1.
          3   -1    0    0  501    0  0.00000000000E+00 -0.00000000000E+00 -0.10546009555E+03  0.10546009555E+03  0.00000000000E+00 0. -1.
         23    2    1    2    0    0  0.25067222444E+02 -0.22285581870E+02 -0.30699968933E+02  0.10165155686E+03  0.90915004921E+02 0.  0.
         13    1    3    3    0    0  0.18782821761E+02 -0.34939483186E+02  0.23183889969E+02  0.45946214563E+02  0.00000000000E+00 0.  1.
        -13    1    3    3    0    0  0.62844006829E+01  0.12653901317E+02 -0.53883858902E+02  0.55705342299E+02  0.00000000000E+00 0. -1.
         22    1    1    2    0    0 -0.25067222444E+02  0.22285581870E+02 -0.32124908495E+02  0.46443756804E+02  0.00000000000E+00 0. -1.
<mgrwt>
<rscale>  0 0.74328238E+02</rscale>
<asrwt>0</asrwt>
<pdfrwt beam="1">  1        3 0.16224630E-01 0.96904855E+02</pdfrwt>
<pdfrwt beam="2">  1       -3 0.65592645E-02 0.96904855E+02</pdfrwt>
<totfact> 0.10016369E+04</totfact>
</mgrwt>
</event>
<event>
 6    1  0.1683416E-002  0.9437675E+02  0.7546771E-02  0.1378774E+00
         -2   -1    0    0    0  501 -0.00000000000E+00  0.00000000000E+00  0.58022747174E+02  0.58022747174E+02  0.00000000000E+00 0.  1.
          2   -1    0    0  501    0  0.00000000000E+00 -0.00000000000E+00 -0.81223000287E+02  0.81223000287E+02  0.00000000000E+00 0. -1.
         23    2    1    2    0    0 -0.16468571324E+02  0.12963134067E+02  0.15108685509E+02  0.95578466064E+02  0.92020183172E+02 0.  0.
         13    1    3    3    0    0 -0.16703389950E+02  0.43171493164E+02 -0.18980053201E+02  0.50030225638E+02  0.00000000000E+00 0. -1.
        -13    1    3    3    0    0  0.23481862668E+00 -0.30208359097E+02  0.34088738710E+02  0.45548240426E+02  0.00000000000E+00 0.  1.
         22    1    1    2    0    0  0.16468571324E+02 -0.12963134067E+02 -0.38308938621E+02  0.43667281397E+02  0.00000000000E+00 0. -1.
<mgrwt>
<rscale>  0 0.64787103E+02</rscale>
<asrwt>0</asrwt>
<pdfrwt beam="1">  1        2 0.12495846E-01 0.94376749E+02</pdfrwt>
<pdfrwt beam="2">  1       -2 0.89265765E-02 0.94376749E+02</pdfrwt>
<totfact> 0.33891588E+04</totfact>
</mgrwt>
</event>
<event>
 6    1  0.1683416E-002  0.9963381E+02  0.7546771E-02  0.1362307E+00
          2   -1    0    0  501    0  0.00000000000E+00  0.00000000000E+00  0.53631833739E+03  0.53631833739E+03  0.00000000000E+00 0. -1.
         -2   -1    0    0    0  501 -0.00000000000E+00 -0.00000000000E+00 -0.71896160696E+01  0.71896160696E+01  0.00000000000E+00 0.  1.
         23    2    1    2    0    0  0.53684216918E+01 -0.22766391399E+02  0.39611092438E+03  0.40844921501E+03  0.96849203921E+02 0.  0.
         13    1    3    3    0    0  0.29114292145E+02 -0.19130895681E+02  0.37455984873E+03  0.37617643927E+03  0.00000000000E+00 0. -1.
        -13    1    3    3    0    0 -0.23745870453E+02 -0.36354957172E+01  0.21551075650E+02  0.32272775746E+02  0.00000000000E+00 0.  1.
         22    1    1    2    0    0 -0.53684216918E+01  0.22766391399E+02  0.13301779694E+03  0.13505873845E+03  0.00000000000E+00 0.  1.
<mgrwt>
<rscale>  0 0.69353157E+02</rscale>
<asrwt>0</asrwt>
<pdfrwt beam="1">  1        2 0.82510482E-01 0.99633814E+02</pdfrwt>
<pdfrwt beam="2">  1       -2 0.11060952E-02 0.99633814E+02</pdfrwt>
<totfact> 0.93262893E+04</totfact>
</mgrwt>
</event>
<event>
 6    1  0.1683416E-002  0.8658519E+02  0.7546771E-02  0.1424652E+00
          2   -1    0    0  501    0  0.00000000000E+00  0.00000000000E+00  0.71461360578E+02  0.71461360578E+02  0.00000000000E+00 0. -1.
         -2   -1    0    0    0  501 -0.00000000000E+00 -0.00000000000E+00 -0.34857978134E+02  0.34857978134E+02  0.00000000000E+00 0.  1.
         23    2    1    2    0    0  0.12170181419E+02  0.49715817512E+01  0.33267283770E+02  0.92756171854E+02  0.85581337374E+02 0.  0.
         13    1    3    3    0    0  0.34772464305E+02  0.12052027666E+02  0.51195679928E+02  0.63050561361E+02  0.00000000000E+00 0. -1.
        -13    1    3    3    0    0 -0.22602282886E+02 -0.70804459143E+01 -0.17928396158E+02  0.29705610493E+02  0.00000000000E+00 0.  1.
         22    1    1    2    0    0 -0.12170181419E+02 -0.49715817512E+01  0.33360986738E+01  0.13563166859E+02  0.00000000000E+00 0.  1.
<mgrwt>
<rscale>  0 0.54048679E+02</rscale>
<asrwt>0</asrwt>
<pdfrwt beam="1">  1        2 0.10994055E-01 0.86585191E+02</pdfrwt>
<pdfrwt beam="2">  1       -2 0.53627659E-02 0.86585191E+02</pdfrwt>
<totfact> 0.84342742E+04</totfact>
</mgrwt>
</event>
<event>
 6    1  0.1683416E-002  0.9246155E+02  0.7546771E-02  0.1410735E+00
          2   -1    0    0  501    0  0.00000000000E+00  0.00000000000E+00  0.91366787822E+02  0.91366787822E+02  0.00000000000E+00 0. -1.
         -2   -1    0    0    0  501 -0.00000000000E+00 -0.00000000000E+00 -0.36096260288E+02  0.36096260288E+02  0.00000000000E+00 0.  1.
         23    2    1    2    0    0 -0.96346246663E+01 -0.92878262539E+01  0.27221970993E+02  0.96385544461E+02  0.91487965150E+02 0.  0.
         13    1    3    3    0    0  0.14832629029E+02 -0.67938559999E+01 -0.29973859680E+02  0.34126172176E+02  0.00000000000E+00 0.  1.
        -13    1    3    3    0    0 -0.24467253695E+02 -0.24939702541E+01  0.57195830672E+02  0.62259372285E+02  0.00000000000E+00 0. -1.
         22    1    1    2    0    0  0.96346246663E+01  0.92878262539E+01  0.28048556541E+02  0.31077503648E+02  0.00000000000E+00 0. -1.
<mgrwt>
<rscale>  0 0.57030173E+02</rscale>
<asrwt>0</asrwt>
<pdfrwt beam="1">  1        2 0.14056429E-01 0.92461546E+02</pdfrwt>
<pdfrwt beam="2">  1       -2 0.55532708E-02 0.92461546E+02</pdfrwt>
<totfact> 0.60475146E+04</totfact>
</mgrwt>
</event>
<event>
 6    1  0.1683416E-002  0.9251661E+02  0.7546771E-02  0.1345822E+00
         -2   -1    0    0    0  501 -0.00000000000E+00  0.00000000000E+00  0.11239140067E+04  0.11239140067E+04  0.00000000000E+00 0. -1.
          2   -1    0    0  501    0  0.00000000000E+00 -0.00000000000E+00 -0.57724392551E+01  0.57724392551E+01  0.00000000000E+00 0.  1.
         23    2    1    2    0    0  0.55550325839E+01  0.38236299957E+02  0.10203940914E+04  0.10245796332E+04  0.84062178820E+02 0.  0.
         13    1    3    3    0    0 -0.20866131287E+00  0.23323889635E+02  0.65111137466E+02  0.69162906166E+02  0.00000000000E+00 0.  1.
        -13    1    3    3    0    0  0.57636938968E+01  0.14912410322E+02  0.95528295397E+03  0.95541672703E+03  0.00000000000E+00 0. -1.
         22    1    1    2    0    0 -0.55550325839E+01 -0.38236299957E+02  0.97747475999E+02  0.10510681275E+03  0.00000000000E+00 0.  1.
<mgrwt>
<rscale>  0 0.74373400E+02</rscale>
<asrwt>0</asrwt>
<pdfrwt beam="1">  1        2 0.88806847E-03 0.92516609E+02</pdfrwt>
<pdfrwt beam="2">  1       -2 0.17290967E+00 0.92516609E+02</pdfrwt>
<totfact> 0.33853077E+03</totfact>
</mgrwt>
</event>
<event>
 6    1  0.1683416E-002  0.9250946E+02  0.7546771E-02  0.1422783E+00
          2   -1    0    0  501    0  0.00000000000E+00  0.00000000000E+00  0.85279134051E+01  0.85279134051E+01  0.00000000000E+00 0. -1.
         -2   -1    0    0    0  501 -0.00000000000E+00 -0.00000000000E+00 -0.32969756171E+03  0.32969756171E+03  0.00000000000E+00 0.  1.
         23    2    1    2    0    0  0.52607431379E+01 -0.97648932987E+01 -0.30417484898E+03  0.31793134385E+03  0.91842104147E+02 0.  0.
         11    1    3    3    0    0  0.13613578925E+02 -0.28871988040E+02 -0.29209117080E+03  0.29383017763E+03  0.00000000000E+00 0.  1.
        -11    1    3    3    0    0 -0.83528357872E+01  0.19107094742E+02 -0.12083678176E+02  0.24101166225E+02  0.00000000000E+00 0. -1.
         22    1    1    2    0    0 -0.52607431379E+01  0.97648932987E+01 -0.16994799325E+02  0.20294131260E+02  0.00000000000E+00 0.  1.
<mgrwt>
<rscale>  0 0.54436521E+02</rscale>
<asrwt>0</asrwt>
<pdfrwt beam="1">  1        2 0.13119866E-02 0.92509463E+02</pdfrwt>
<pdfrwt beam="2">  1       -2 0.50722705E-01 0.92509463E+02</pdfrwt>
<totfact> 0.32016375E+04</totfact>
</mgrwt>
</event>
<event>
 6    1  0.1683416E-002  0.9495575E+02  0.7546771E-02  0.1362007E+00
          2   -1    0    0  501    0  0.00000000000E+00  0.00000000000E+00  0.17847564106E+02  0.17847564106E+02  0.00000000000E+00 0. -1.
         -2   -1    0    0    0  501 -0.00000000000E+00 -0.00000000000E+00 -0.27282027306E+03  0.27282027306E+03  0.00000000000E+00 0.  1.
         23    2    1    2    0    0  0.17391020565E+02 -0.20857762138E+02 -0.24317915637E+03  0.26106071437E+03  0.90989563450E+02 0.  0.
         13    1    3    3    0    0 -0.18111804055E+02  0.28314406961E+02 -0.10232911222E+03  0.10770789337E+03  0.00000000000E+00 0.  1.
        -13    1    3    3    0    0  0.35502824620E+02 -0.49172169099E+02 -0.14085004416E+03  0.15335282100E+03  0.00000000000E+00 0. -1.
         22    1    1    2    0    0 -0.17391020565E+02  0.20857762138E+02 -0.11793552583E+02  0.29607122796E+02  0.00000000000E+00 0. -1.
<mgrwt>
<rscale>  0 0.69440166E+02</rscale>
<asrwt>0</asrwt>
<pdfrwt beam="1">  1        2 0.27457792E-02 0.94955750E+02</pdfrwt>
<pdfrwt beam="2">  1       -2 0.41972348E-01 0.94955750E+02</pdfrwt>
<totfact> 0.17078006E+04</totfact>
</mgrwt>
</event>
<event>
 6    1  0.1683416E-002  0.9342384E+02  0.7546771E-02  0.1405926E+00
         -2   -1    0    0    0  501 -0.00000000000E+00  0.00000000000E+00  0.18625462414E+02  0.18625462414E+02  0.00000000000E+00 0.  1.
          2   -1    0    0  501    0  0.00000000000E+00 -0.00000000000E+00 -0.18451704093E+03  0.18451704093E+03  0.00000000000E+00 0. -1.
         23    2    1    2    0    0  0.28485261616E+01 -0.13693562965E+02 -0.10447587027E+03  0.14015427439E+03  0.92370912045E+02 0.  0.
         13    1    3    3    0    0 -0.23449666882E+02 -0.30006010954E+01  0.73689994136E+01  0.24762726751E+02  0.00000000000E+00 0.  1.
        -13    1    3    3    0    0  0.26298193043E+02 -0.10692961869E+02 -0.11184486969E+03  0.11539154764E+03  0.00000000000E+00 0. -1.
         22    1    1    2    0    0 -0.28485261616E+01  0.13693562965E+02 -0.61415708240E+02  0.62988228953E+02  0.00000000000E+00 0. -1.
<mgrwt>
<rscale>  0 0.58112838E+02</rscale>
<asrwt>0</asrwt>
<pdfrwt beam="1">  1        2 0.28387236E-01 0.93423836E+02</pdfrwt>
<pdfrwt beam="2">  1       -2 0.28654559E-02 0.93423836E+02</pdfrwt>
<totfact> 0.73047530E+04</totfact>
</mgrwt>
</event>
<event>
 6    1  0.1683416E-002  0.9327010E+02  0.7546771E-02  0.1423802E+00
         -1   -1    0    0    0  501 -0.00000000000E+00  0.00000000000E+00  0.21762716576E+03  0.21762716576E+03  0.00000000000E+00 0.  1.
          1   -1    0    0  501    0  0.00000000000E+00 -0.00000000000E+00 -0.12443291556E+02  0.12443291556E+02  0.00000000000E+00 0. -1.
         23    2    1    2    0    0  0.38094660596E+01  0.99507816166E+01  0.18768582632E+03  0.20958358918E+03  0.92659491493E+02 0.  0.
         13    1    3    3    0    0 -0.24546458474E+02 -0.19482434935E+02  0.20436859543E+02  0.37413354870E+02  0.00000000000E+00 0. -1.
        -13    1    3    3    0    0  0.28355924534E+02  0.29433216552E+02  0.16724896678E+03  0.17217023431E+03  0.00000000000E+00 0.  1.
         22    1    1    2    0    0 -0.38094660596E+01 -0.99507816166E+01  0.17498047878E+02  0.20486868135E+02  0.00000000000E+00 0. -1.
<mgrwt>
<rscale>  0 0.54224518E+02</rscale>
<asrwt>0</asrwt>
<pdfrwt beam="1">  1        1 0.19143527E-02 0.93270099E+02</pdfrwt>
<pdfrwt beam="2">  1       -1 0.33481100E-01 0.93270099E+02</pdfrwt>
<totfact> 0.47139184E+04</totfact>
</mgrwt>
</event>
<event>
 6    1  0.1683416E-002  0.1102608E+03  0.7546771E-02  0.1325804E+00
          2   -1    0    0  501    0  0.00000000000E+00  0.00000000000E+00  0.16185571335E+03  0.16185571335E+03  0.00000000000E+00 0. -1.
         -2   -1    0    0    0  501 -0.00000000000E+00 -0.00000000000E+00 -0.62608679516E+02  0.62608679516E+02  0.00000000000E+00 0.  1.
         23    2    1    2    0    0 -0.27106665253E+02 -0.17674766418E+02 -0.98208071737E+01  0.11069725081E+03  0.10540523903E+03 0.  0.
         11    1    3    3    0    0 -0.33061259983E+02 -0.43861856772E+02  0.30062376917E+02  0.62615141116E+02  0.00000000000E+00 0. -1.
        -11    1    3    3    0    0  0.59545947299E+01  0.26187090354E+02 -0.39883184090E+02  0.48082109696E+02  0.00000000000E+00 0.  1.
         22    1    1    2    0    0  0.27106665253E+02  0.17674766418E+02  0.10906784101E+03  0.11376714206E+03  0.00000000000E+00 0.  1.
<mgrwt>
<rscale>  0 0.81155468E+02</rscale>
<asrwt>0</asrwt>
<pdfrwt beam="1">  1        2 0.24900879E-01 0.11026075E+03</pdfrwt>
<pdfrwt beam="2">  1       -2 0.96321046E-02 0.11026075E+03</pdfrwt>
<totfact> 0.13974998E+04</totfact>
</mgrwt>
</event>
<event>
 6    1  0.1683416E-002  0.9451523E+02  0.7546771E-02  0.1363611E+00
          2   -1    0    0  501    0  0.00000000000E+00  0.00000000000E+00  0.44142679919E+03  0.44142679919E+03  0.00000000000E+00 0. -1.
         -2   -1    0    0    0  501 -0.00000000000E+00 -0.00000000000E+00 -0.90374712398E+01  0.90374712398E+01  0.00000000000E+00 0.  1.
         23    2    1    2    0    0  0.26666388207E+02 -0.27611135165E+01  0.27452250531E+03  0.29033727802E+03  0.90633377286E+02 0.  0.
         11    1    3    3    0    0  0.68470777522E+00  0.18921688301E+02  0.62501944642E+01  0.19939008093E+02  0.00000000000E+00 0.  1.
        -11    1    3    3    0    0  0.25981680431E+02 -0.21682801817E+02  0.26827231085E+03  0.27039826993E+03  0.00000000000E+00 0. -1.
         22    1    1    2    0    0 -0.26666388207E+02  0.27611135165E+01  0.15786682264E+03  0.16012699241E+03  0.00000000000E+00 0. -1.
<mgrwt>
<rscale>  0 0.68975732E+02</rscale>
<asrwt>0</asrwt>
<pdfrwt beam="1">  1        2 0.67911799E-01 0.94515232E+02</pdfrwt>
<pdfrwt beam="2">  1       -2 0.13903805E-02 0.94515232E+02</pdfrwt>
<totfact> 0.82500038E+04</totfact>
</mgrwt>
</event>
<event>
 6    1  0.1683416E-002  0.9396494E+02  0.7546771E-02  0.1372200E+00
          3   -1    0    0  501    0  0.00000000000E+00  0.00000000000E+00  0.29067792351E+01  0.29067792351E+01  0.00000000000E+00 0. -1.
         -3   -1    0    0    0  501 -0.00000000000E+00 -0.00000000000E+00 -0.15502483156E+04  0.15502483156E+04  0.00000000000E+00 0.  1.
         23    2    1    2    0    0 -0.10865320828E+01 -0.23631006842E+02 -0.14476078154E+04  0.14506542649E+04  0.90938463136E+02 0.  0.
         11    1    3    3    0    0 -0.45026069954E+02 -0.21674709536E+02 -0.75911687425E+03  0.76075986276E+03  0.00000000000E+00 0. -1.
        -11    1    3    3    0    0  0.43939537871E+02 -0.19562973053E+01 -0.68849094114E+03  0.68989440215E+03  0.00000000000E+00 0.  1.
         22    1    1    2    0    0  0.10865320828E+01  0.23631006842E+02 -0.99733720939E+02  0.10250082989E+03  0.00000000000E+00 0.  1.
<mgrwt>
<rscale>  0 0.66559426E+02</rscale>
<asrwt>0</asrwt>
<pdfrwt beam="1">  1        3 0.44719643E-03 0.93964936E+02</pdfrwt>
<pdfrwt beam="2">  1       -3 0.23849994E+00 0.93964936E+02</pdfrwt>
<totfact> 0.18923433E+03</totfact>
</mgrwt>
</event>
<event>
 6    1  0.1683416E-002  0.9476333E+02  0.7546771E-02  0.1393732E+00
          2   -1    0    0  501    0  0.00000000000E+00  0.00000000000E+00  0.41179774628E+03  0.41179774628E+03  0.00000000000E+00 0. -1.
         -2   -1    0    0    0  501 -0.00000000000E+00 -0.00000000000E+00 -0.74914098113E+01  0.74914098113E+01  0.00000000000E+00 0.  1.
         23    2    1    2    0    0  0.97484059069E+01  0.13010689339E+02  0.34995744829E+03  0.36256075843E+03  0.93358333779E+02 0.  0.
         13    1    3    3    0    0  0.13547564098E+01  0.18521831943E+01  0.34851598822E+03  0.34852354295E+03  0.00000000000E+00 0. -1.
        -13    1    3    3    0    0  0.83936494972E+01  0.11158506145E+02  0.14414600703E+01  0.14037215479E+02  0.00000000000E+00 0.  1.
         22    1    1    2    0    0 -0.97484059069E+01 -0.13010689339E+02  0.54348888184E+02  0.56728397665E+02  0.00000000000E+00 0.  1.
<mgrwt>
<rscale>  0 0.60987988E+02</rscale>
<asrwt>0</asrwt>
<pdfrwt beam="1">  1        2 0.63353482E-01 0.94763326E+02</pdfrwt>
<pdfrwt beam="2">  1       -2 0.11525249E-02 0.94763326E+02</pdfrwt>
<totfact> 0.11603324E+05</totfact>
</mgrwt>
</event>
<event>
 6    1  0.1683416E-002  0.9589088E+02  0.7546771E-02  0.1361135E+00
         -3   -1    0    0    0  501 -0.00000000000E+00  0.00000000000E+00  0.12415461610E+02  0.12415461610E+02  0.00000000000E+00 0.  1.
          3   -1    0    0  501    0  0.00000000000E+00 -0.00000000000E+00 -0.30337314446E+03  0.30337314446E+03  0.00000000000E+00 0. -1.
         23    2    1    2    0    0 -0.20447899747E+01 -0.26680312848E+02 -0.23247134788E+03  0.25147164379E+03  0.92081701665E+02 0.  0.
         11    1    3    3    0    0  0.21124475445E+02 -0.12807343961E+02 -0.88736251899E+01  0.26249052291E+02  0.00000000000E+00 0.  1.
        -11    1    3    3    0    0 -0.23169265419E+02 -0.13872968888E+02 -0.22359772269E+03  0.22522259150E+03  0.00000000000E+00 0. -1.
         22    1    1    2    0    0  0.20447899747E+01  0.26680312848E+02 -0.58486334967E+02  0.64316962285E+02  0.00000000000E+00 0. -1.
<mgrwt>
<rscale>  0 0.69694519E+02</rscale>
<asrwt>0</asrwt>
<pdfrwt beam="1">  1        3 0.46672792E-01 0.95890876E+02</pdfrwt>
<pdfrwt beam="2">  1       -3 0.19100710E-02 0.95890876E+02</pdfrwt>
<totfact> 0.98390734E+03</totfact>
</mgrwt>
</event>
<event>
 6    1  0.1683416E-002  0.9267916E+02  0.7546771E-02  0.1413245E+00
         -2   -1    0    0    0  501 -0.00000000000E+00  0.00000000000E+00  0.93450713208E+01  0.93450713208E+01  0.00000000000E+00 0. -1.
          2   -1    0    0  501    0  0.00000000000E+00 -0.00000000000E+00 -0.29817643724E+03  0.29817643724E+03  0.00000000000E+00 0.  1.
         23    2    1    2    0    0  0.10488665856E+02  0.73005599756E+01 -0.24888568831E+03  0.26558146269E+03  0.91793884302E+02 0.  0.
         13    1    3    3    0    0 -0.13024084315E+02  0.96332458587E+01 -0.23967446873E+03  0.24022130871E+03  0.00000000000E+00 0.  1.
        -13    1    3    3    0    0  0.23512750171E+02 -0.23326858830E+01 -0.92112195796E+01  0.25360153985E+02  0.00000000000E+00 0. -1.
         22    1    1    2    0    0 -0.10488665856E+02 -0.73005599756E+01 -0.39945677613E+02  0.41940045868E+02  0.00000000000E+00 0. -1.
<mgrwt>
<rscale>  0 0.56475915E+02</rscale>
<asrwt>0</asrwt>
<pdfrwt beam="1">  1        2 0.45873305E-01 0.92679164E+02</pdfrwt>
<pdfrwt beam="2">  1       -2 0.14377030E-02 0.92679164E+02</pdfrwt>
<totfact> 0.11845803E+05</totfact>
</mgrwt>
</event>
<event>
 6    1  0.1683416E-002  0.8010946E+02  0.7546771E-02  0.1411402E+00
          2   -1    0    0  501    0  0.00000000000E+00  0.00000000000E+00  0.78111735711E+02  0.78111735711E+02  0.00000000000E+00 0. -1.
         -2   -1    0    0    0  501 -0.00000000000E+00 -0.00000000000E+00 -0.45753057629E+02  0.45753057629E+02  0.00000000000E+00 0.  1.
         23    2    1    2    0    0 -0.78034530512E+01  0.18808889753E+02 -0.61065839251E+01  0.80341873004E+02  0.77478112892E+02 0.  0.
         11    1    3    3    0    0 -0.39966710077E+02  0.14930042724E+02  0.10499749478E+02  0.43937328426E+02  0.00000000000E+00 0. -1.
        -11    1    3    3    0    0  0.32163257026E+02  0.38788470293E+01 -0.16606333403E+02  0.36404544578E+02  0.00000000000E+00 0.  1.
         22    1    1    2    0    0  0.78034530512E+01 -0.18808889753E+02  0.38465262007E+02  0.43522920335E+02  0.00000000000E+00 0.  1.
<mgrwt>
<rscale>  0 0.56882079E+02</rscale>
<asrwt>0</asrwt>
<pdfrwt beam="1">  1        2 0.12017190E-01 0.80109464E+02</pdfrwt>
<pdfrwt beam="2">  1       -2 0.70389319E-02 0.80109464E+02</pdfrwt>
<totfact> 0.49881184E+04</totfact>
</mgrwt>
</event>
<event>
 6    1  0.1683416E-002  0.9306893E+02  0.7546771E-02  0.1389075E+00
         -2   -1    0    0    0  501 -0.00000000000E+00  0.00000000000E+00  0.14081545734E+02  0.14081545734E+02  0.00000000000E+00 0.  1.
          2   -1    0    0  501    0  0.00000000000E+00 -0.00000000000E+00 -0.22241448661E+03  0.22241448661E+03  0.00000000000E+00 0. -1.
         23    2    1    2    0    0 -0.12760583309E+01  0.18448604523E+02 -0.18046842315E+03  0.20305338469E+03  0.91213189550E+02 0.  0.
         11    1    3    3    0    0 -0.29877082655E+02 -0.24650772654E+02 -0.10162891205E+03  0.10875999460E+03  0.00000000000E+00 0. -1.
        -11    1    3    3    0    0  0.28601024324E+02  0.43099377177E+02 -0.78839511099E+02  0.94293390096E+02  0.00000000000E+00 0.  1.
         22    1    1    2    0    0  0.12760583309E+01 -0.18448604523E+02 -0.27864517733E+02  0.33442647656E+02  0.00000000000E+00 0.  1.
<mgrwt>
<rscale>  0 0.62137463E+02</rscale>
<asrwt>0</asrwt>
<pdfrwt beam="1">  1        2 0.34217613E-01 0.93068928E+02</pdfrwt>
<pdfrwt beam="2">  1       -2 0.21663917E-02 0.93068928E+02</pdfrwt>
<totfact> 0.89635443E+04</totfact>
</mgrwt>
</event>
<event>
 6    1  0.1683416E-002  0.9354934E+02  0.7546771E-02  0.1426375E+00
         -2   -1    0    0    0  501 -0.00000000000E+00  0.00000000000E+00  0.34842019638E+02  0.34842019638E+02  0.00000000000E+00 0. -1.
          2   -1    0    0  501    0  0.00000000000E+00 -0.00000000000E+00 -0.80467884177E+02  0.80467884177E+02  0.00000000000E+00 0.  1.
         23    2    1    2    0    0 -0.45926950170E+01 -0.90550040956E+01 -0.33205517465E+02  0.99267741613E+02  0.92996732137E+02 0.  0.
         11    1    3    3    0    0 -0.97248875990E+01 -0.93747088345E+01 -0.65341434485E+02  0.66723022002E+02  0.00000000000E+00 0.  1.
        -11    1    3    3    0    0  0.51321925820E+01  0.31970473889E+00  0.32135917020E+02  0.32544719611E+02  0.00000000000E+00 0. -1.
         22    1    1    2    0    0  0.45926950170E+01  0.90550040956E+01 -0.12420347074E+02  0.16042162203E+02  0.00000000000E+00 0. -1.
<mgrwt>
<rscale>  0 0.53694582E+02</rscale>
<asrwt>0</asrwt>
<pdfrwt beam="1">  1        2 0.12379674E-01 0.93549335E+02</pdfrwt>
<pdfrwt beam="2">  1       -2 0.53603107E-02 0.93549335E+02</pdfrwt>
<totfact> 0.74142102E+04</totfact>
</mgrwt>
</event>
<event>
 6    1  0.1683416E-002  0.9364956E+02  0.7546771E-02  0.1405489E+00
          2   -1    0    0  501    0  0.00000000000E+00  0.00000000000E+00  0.87429768453E+02  0.87429768453E+02  0.00000000000E+00 0. -1.
         -2   -1    0    0    0  501 -0.00000000000E+00 -0.00000000000E+00 -0.36820185497E+02  0.36820185497E+02  0.00000000000E+00 0.  1.
         23    2    1    2    0    0 -0.13919510037E+02 -0.13157297609E+01  0.28140826661E+02  0.97786225680E+02  0.92599977879E+02 0.  0.
         11    1    3    3    0    0  0.17184029297E+02 -0.16802203193E+02  0.50873504837E+02  0.56264717092E+02  0.00000000000E+00 0. -1.
        -11    1    3    3    0    0 -0.31103539334E+02  0.15486473432E+02 -0.22732678176E+02  0.41521508589E+02  0.00000000000E+00 0.  1.
         22    1    1    2    0    0  0.13919510037E+02  0.13157297609E+01  0.22468756295E+02  0.26463728269E+02  0.00000000000E+00 0. -1.
<mgrwt>
<rscale>  0 0.58212758E+02</rscale>
<asrwt>0</asrwt>
<pdfrwt beam="1">  1        2 0.13450734E-01 0.93649559E+02</pdfrwt>
<pdfrwt beam="2">  1       -2 0.56646440E-02 0.93649559E+02</pdfrwt>
<totfact> 0.61919180E+04</totfact>
</mgrwt>
</event>
<event>
 6    1  0.1683416E-002  0.9417310E+02  0.7546771E-02  0.1381711E+00
          2   -1    0    0  501    0  0.00000000000E+00  0.00000000000E+00  0.11508727108E+03  0.11508727108E+03  0.00000000000E+00 0. -1.
         -2   -1    0    0    0  501 -0.00000000000E+00 -0.00000000000E+00 -0.32829015389E+02  0.32829015389E+02  0.00000000000E+00 0.  1.
         23    2    1    2    0    0 -0.21045843829E+01 -0.19997933323E+02  0.42410345995E+02  0.10328219054E+03  0.92001232720E+02 0.  0.
         11    1    3    3    0    0 -0.31404348528E+01  0.36969981625E+02  0.14495925150E+02  0.39834328391E+02  0.00000000000E+00 0. -1.
        -11    1    3    3    0    0  0.10358504699E+01 -0.56967914948E+02  0.27914420846E+02  0.63447862146E+02  0.00000000000E+00 0.  1.
         22    1    1    2    0    0  0.21045843829E+01  0.19997933323E+02  0.39847909694E+02  0.44634095931E+02  0.00000000000E+00 0. -1.
<mgrwt>
<rscale>  0 0.64016126E+02</rscale>
<asrwt>0</asrwt>
<pdfrwt beam="1">  1        2 0.17705734E-01 0.94173104E+02</pdfrwt>
<pdfrwt beam="2">  1       -2 0.50506178E-02 0.94173104E+02</pdfrwt>
<totfact> 0.53554439E+04</totfact>
</mgrwt>
</event>
<event>
 6    1  0.1683416E-002  0.9971906E+02  0.7546771E-02  0.1323106E+00
          2   -1    0    0  501    0  0.00000000000E+00  0.00000000000E+00  0.17152685805E+03  0.17152685805E+03  0.00000000000E+00 0. -1.
         -2   -1    0    0    0  501 -0.00000000000E+00 -0.00000000000E+00 -0.31966628427E+02  0.31966628427E+02  0.00000000000E+00 0.  1.
         23    2    1    2    0    0  0.37764052052E+02  0.26074091638E+02  0.77420979263E+02  0.12624539059E+03  0.88531964476E+02 0.  0.
         11    1    3    3    0    0  0.26615800907E+02  0.12485021824E+01 -0.14531750309E+02  0.30350146336E+02  0.00000000000E+00 0.  1.
        -11    1    3    3    0    0  0.11148251146E+02  0.24825589455E+02  0.91952729572E+02  0.95895244257E+02  0.00000000000E+00 0. -1.
         22    1    1    2    0    0 -0.37764052052E+02 -0.26074091638E+02  0.62139250357E+02  0.77248095880E+02  0.00000000000E+00 0.  1.
<mgrwt>
<rscale>  0 0.82132578E+02</rscale>
<asrwt>0</asrwt>
<pdfrwt beam="1">  1        2 0.26388747E-01 0.99719058E+02</pdfrwt>
<pdfrwt beam="2">  1       -2 0.49179429E-02 0.99719058E+02</pdfrwt>
<totfact> 0.36049338E+04</totfact>
</mgrwt>
</event>
<event>
 6    1  0.1683416E-002  0.9050538E+02  0.7546771E-02  0.1429883E+00
         -2   -1    0    0    0  501 -0.00000000000E+00  0.00000000000E+00  0.25109126596E+02  0.25109126596E+02  0.00000000000E+00 0.  1.
          2   -1    0    0  501    0  0.00000000000E+00 -0.00000000000E+00 -0.10568100943E+03  0.10568100943E+03  0.00000000000E+00 0. -1.
         23    2    1    2    0    0  0.83044741872E+01 -0.66359948764E+01 -0.63071756399E+02  0.11031441516E+03  0.89878935343E+02 0.  0.
         13    1    3    3    0    0  0.19875919489E+02 -0.33723409300E+02 -0.69866607298E+02  0.80085350256E+02  0.00000000000E+00 0. -1.
        -13    1    3    3    0    0 -0.11571445302E+02  0.27087414423E+02  0.67948508991E+01  0.30229064909E+02  0.00000000000E+00 0.  1.
         22    1    1    2    0    0 -0.83044741872E+01  0.66359948764E+01 -0.17500126431E+02  0.20475720857E+02  0.00000000000E+00 0.  1.
<mgrwt>
<rscale>  0 0.52983537E+02</rscale>
<asrwt>0</asrwt>
<pdfrwt beam="1">  1        2 0.16258617E-01 0.90505380E+02</pdfrwt>
<pdfrwt beam="2">  1       -2 0.38629426E-02 0.90505380E+02</pdfrwt>
<totfact> 0.87210145E+04</totfact>
</mgrwt>
</event>
<event>
 6    1  0.1683416E-002  0.9061433E+02  0.7546771E-02  0.1420130E+00
          3   -1    0    0  501    0  0.00000000000E+00  0.00000000000E+00  0.12760121465E+03  0.12760121465E+03  0.00000000000E+00 0. -1.
         -3   -1    0    0    0  501 -0.00000000000E+00 -0.00000000000E+00 -0.21067704099E+02  0.21067704099E+02  0.00000000000E+00 0.  1.
         23    2    1    2    0    0  0.95171176471E+01 -0.77805624390E+01  0.87190790811E+02  0.12575050940E+03  0.89776633552E+02 0.  0.
         11    1    3    3    0    0  0.24372431042E+02  0.42785856963E+01  0.99808912328E+02  0.10283064072E+03  0.00000000000E+00 0. -1.
        -11    1    3    3    0    0 -0.14855313395E+02 -0.12059148135E+02 -0.12618121516E+02  0.22919868682E+02  0.00000000000E+00 0.  1.
         22    1    1    2    0    0 -0.95171176471E+01  0.77805624390E+01  0.19342719744E+02  0.22918409353E+02  0.00000000000E+00 0.  1.
<mgrwt>
<rscale>  0 0.54993362E+02</rscale>
<asrwt>0</asrwt>
<pdfrwt beam="1">  1        3 0.19630956E-01 0.90614329E+02</pdfrwt>
<pdfrwt beam="2">  1       -3 0.32411853E-02 0.90614329E+02</pdfrwt>
<totfact> 0.21345674E+04</totfact>
</mgrwt>
</event>
<event>
 6    1  0.1683416E-002  0.1057395E+03  0.7546771E-02  0.1302000E+00
          2   -1    0    0  501    0  0.00000000000E+00  0.00000000000E+00  0.42571390994E+03  0.42571390994E+03  0.00000000000E+00 0. -1.
         -2   -1    0    0    0  501 -0.00000000000E+00 -0.00000000000E+00 -0.15489391460E+02  0.15489391460E+02  0.00000000000E+00 0.  1.
         23    2    1    2    0    0  0.79136525098E+01 -0.55812501003E+02  0.25463821563E+03  0.27571989196E+03  0.89460476191E+02 0.  0.
         13    1    3    3    0    0  0.26891623753E+01 -0.47417010433E+02  0.26011561731E+03  0.26441584453E+03  0.00000000000E+00 0. -1.
        -13    1    3    3    0    0  0.52244901345E+01 -0.83954905699E+01 -0.54774016802E+01  0.11304047427E+02  0.00000000000E+00 0.  1.
         22    1    1    2    0    0 -0.79136525098E+01  0.55812501003E+02  0.15558630285E+03  0.16548340944E+03  0.00000000000E+00 0. -1.
<mgrwt>
<rscale>  0 0.90352741E+02</rscale>
<asrwt>0</asrwt>
<pdfrwt beam="1">  1        2 0.65494439E-01 0.10573948E+03</pdfrwt>
<pdfrwt beam="2">  1       -2 0.23829836E-02 0.10573948E+03</pdfrwt>
<totfact> 0.40101168E+04</totfact>
</mgrwt>
</event>
<event>
 6    1  0.1683416E-002  0.9292888E+02  0.7546771E-02  0.1397635E+00
          2   -1    0    0  501    0  0.00000000000E+00  0.00000000000E+00  0.14136089973E+03  0.14136089973E+03  0.00000000000E+00 0. -1.
         -2   -1    0    0    0  501 -0.00000000000E+00 -0.00000000000E+00 -0.24697518672E+02  0.24697518672E+02  0.00000000000E+00 0.  1.
         23    2    1    2    0    0  0.14307626612E+02  0.75979147631E+01  0.69077664083E+02  0.11579076530E+03  0.91505962464E+02 0.  0.
         13    1    3    3    0    0 -0.27340947891E+02  0.17276119579E+02  0.65294572729E+02  0.72865444259E+02  0.00000000000E+00 0. -1.
        -13    1    3    3    0    0  0.41648574503E+02 -0.96782048158E+01  0.37830913538E+01  0.42925321044E+02  0.00000000000E+00 0.  1.
         22    1    1    2    0    0 -0.14307626612E+02 -0.75979147631E+01  0.47585716978E+02  0.50267653101E+02  0.00000000000E+00 0. -1.
<mgrwt>
<rscale>  0 0.60046966E+02</rscale>
<asrwt>0</asrwt>
<pdfrwt beam="1">  1        2 0.21747830E-01 0.92928885E+02</pdfrwt>
<pdfrwt beam="2">  1       -2 0.37996183E-02 0.92928885E+02</pdfrwt>
<totfact> 0.64651139E+04</totfact>
</mgrwt>
</event>
<event>
 6    1  0.1683416E-002  0.8219424E+02  0.7546771E-02  0.1404917E+00
          2   -1    0    0  501    0  0.00000000000E+00  0.00000000000E+00  0.52448982038E+02  0.52448982038E+02  0.00000000000E+00 0. -1.
         -2   -1    0    0    0  501 -0.00000000000E+00 -0.00000000000E+00 -0.52088705194E+02  0.52088705194E+02  0.00000000000E+00 0.  1.
         23    2    1    2    0    0  0.36371750132E+01  0.20547214551E+02 -0.68040863298E+01  0.82475385276E+02  0.79501424627E+02 0.  0.
         11    1    3    3    0    0  0.17809421553E+02 -0.11855041631E+02 -0.32394660005E+02  0.38821791624E+02  0.00000000000E+00 0.  1.
        -11    1    3    3    0    0 -0.14172246540E+02  0.32402256183E+02  0.25590573675E+02  0.43653593652E+02  0.00000000000E+00 0. -1.
         22    1    1    2    0    0 -0.36371750132E+01 -0.20547214551E+02  0.71643631735E+01  0.22062301956E+02  0.00000000000E+00 0.  1.
<mgrwt>
<rscale>  0 0.58343735E+02</rscale>
<asrwt>0</asrwt>
<pdfrwt beam="1">  1        2 0.80690742E-02 0.82194243E+02</pdfrwt>
<pdfrwt beam="2">  1       -2 0.80136469E-02 0.82194243E+02</pdfrwt>
<totfact> 0.66575586E+04</totfact>
</mgrwt>
</event>
<event>
 6    1  0.1683416E-002  0.9616618E+02  0.7546771E-02  0.1346800E+00
         -2   -1    0    0    0  501 -0.00000000000E+00  0.00000000000E+00  0.20186718283E+02  0.20186718283E+02  0.00000000000E+00 0.  1.
          2   -1    0    0  501    0  0.00000000000E+00 -0.00000000000E+00 -0.28115711122E+03  0.28115711122E+03  0.00000000000E+00 0. -1.
         23    2    1    2    0    0 -0.33728967995E+02  0.26307858805E+01 -0.10770713979E+03  0.14439100512E+03  0.90018720729E+02 0.  0.
         13    1    3    3    0    0  0.18962835147E+02 -0.29022789795E+02 -0.37144477725E+02  0.50809680867E+02  0.00000000000E+00 0.  1.
        -13    1    3    3    0    0 -0.52691803143E+02  0.31653575676E+02 -0.70562662062E+02  0.93581324252E+02  0.00000000000E+00 0. -1.
         22    1    1    2    0    0  0.33728967995E+02 -0.26307858805E+01 -0.15326325315E+03  0.15695282439E+03  0.00000000000E+00 0. -1.
<mgrwt>
<rscale>  0 0.74062233E+02</rscale>
<asrwt>0</asrwt>
<pdfrwt beam="1">  1        2 0.43254938E-01 0.96166181E+02</pdfrwt>
<pdfrwt beam="2">  1       -2 0.31056491E-02 0.96166181E+02</pdfrwt>
<totfact> 0.41745380E+04</totfact>
</mgrwt>
</event>
<event>
 6    1  0.1683416E-002  0.9373720E+02  0.7546771E-02  0.1375804E+00
         -2   -1    0    0    0  501 -0.00000000000E+00  0.00000000000E+00  0.17613389937E+03  0.17613389937E+03  0.00000000000E+00 0.  1.
          2   -1    0    0  501    0  0.00000000000E+00 -0.00000000000E+00 -0.19668551188E+02  0.19668551188E+02  0.00000000000E+00 0. -1.
         23    2    1    2    0    0  0.67617327109E+01 -0.21414338027E+02  0.13748368122E+03  0.16639839330E+03  0.91007515015E+02 0.  0.
         13    1    3    3    0    0 -0.11233806701E+02 -0.54709508273E+02  0.79581698008E+02  0.97224355829E+02  0.00000000000E+00 0. -1.
        -13    1    3    3    0    0  0.17995539411E+02  0.33295170246E+02  0.57901983211E+02  0.69174037472E+02  0.00000000000E+00 0.  1.
         22    1    1    2    0    0 -0.67617327109E+01  0.21414338027E+02  0.18981666962E+02  0.29404057255E+02  0.00000000000E+00 0.  1.
<mgrwt>
<rscale>  0 0.65579720E+02</rscale>
<asrwt>0</asrwt>
<pdfrwt beam="1">  1        2 0.30259311E-02 0.93737200E+02</pdfrwt>
<pdfrwt beam="2">  1       -2 0.27097522E-01 0.93737200E+02</pdfrwt>
<totfact> 0.33241944E+04</totfact>
</mgrwt>
</event>
<event>
 6    1  0.1683416E-002  0.9740358E+02  0.7546771E-02  0.1348875E+00
          2   -1    0    0  501    0  0.00000000000E+00  0.00000000000E+00  0.29589598366E+03  0.29589598366E+03  0.00000000000E+00 0. -1.
         -2   -1    0    0    0  501 -0.00000000000E+00 -0.00000000000E+00 -0.15365677478E+02  0.15365677478E+02  0.00000000000E+00 0.  1.
         23    2    1    2    0    0 -0.31296199011E+02  0.28069812498E+01  0.16568264491E+03  0.19219312408E+03  0.92196132809E+02 0.  0.
         11    1    3    3    0    0 -0.42282498613E+02  0.14139117292E+02  0.17006556785E+03  0.17581246171E+03  0.00000000000E+00 0. -1.
        -11    1    3    3    0    0  0.10986299602E+02 -0.11332136043E+02 -0.43829229379E+01  0.16380662371E+02  0.00000000000E+00 0.  1.
         22    1    1    2    0    0  0.31296199011E+02 -0.28069812498E+01  0.11484766127E+03  0.11906853705E+03  0.00000000000E+00 0. -1.
<mgrwt>
<rscale>  0 0.73407268E+02</rscale>
<asrwt>0</asrwt>
<pdfrwt beam="1">  1        2 0.45522455E-01 0.97403584E+02</pdfrwt>
<pdfrwt beam="2">  1       -2 0.23639506E-02 0.97403584E+02</pdfrwt>
<totfact> 0.58900782E+04</totfact>
</mgrwt>
</event>
<event>
 6    1  0.1683416E-002  0.9425393E+02  0.7546771E-02  0.1385016E+00
          1   -1    0    0  501    0  0.00000000000E+00  0.00000000000E+00  0.43706163105E+02  0.43706163105E+02  0.00000000000E+00 0. -1.
         -1   -1    0    0    0  501 -0.00000000000E+00 -0.00000000000E+00 -0.20821155214E+03  0.20821155214E+03  0.00000000000E+00 0.  1.
         23    2    1    2    0    0 -0.18253537866E+02  0.53069955683E+01 -0.19465605450E+03  0.21627478502E+03  0.92317101538E+02 0.  0.
         13    1    3    3    0    0  0.20181950203E+02  0.32622811580E+02 -0.13436811868E+03  0.13973671768E+03  0.00000000000E+00 0. -1.
        -13    1    3    3    0    0 -0.38435488069E+02 -0.27315816012E+02 -0.60287935814E+02  0.76538067341E+02  0.00000000000E+00 0.  1.
         22    1    1    2    0    0  0.18253537866E+02 -0.53069955683E+01  0.30150665466E+02  0.35642930220E+02  0.00000000000E+00 0. -1.
<mgrwt>
<rscale>  0 0.63163543E+02</rscale>
<asrwt>0</asrwt>
<pdfrwt beam="1">  1        1 0.67240250E-02 0.94253929E+02</pdfrwt>
<pdfrwt beam="2">  1       -1 0.32032547E-01 0.94253929E+02</pdfrwt>
<totfact> 0.91776356E+03</totfact>
</mgrwt>
</event>
<event>
 6    1  0.1683416E-002  0.9247383E+02  0.7546771E-02  0.1410452E+00
         -3   -1    0    0    0  501 -0.00000000000E+00  0.00000000000E+00  0.13370147480E+03  0.13370147480E+03  0.00000000000E+00 0.  1.
          3   -1    0    0  501    0  0.00000000000E+00 -0.00000000000E+00 -0.24255779282E+02  0.24255779282E+02  0.00000000000E+00 0. -1.
         23    2    1    2    0    0 -0.13434343244E+02 -0.22359892035E+00  0.11095300958E+03  0.14443676702E+03  0.91492501096E+02 0.  0.
         11    1    3    3    0    0 -0.62935604178E+01  0.23064848690E+02 -0.62644029025E+01  0.24715155099E+02  0.00000000000E+00 0. -1.
        -11    1    3    3    0    0 -0.71407828261E+01 -0.23288447611E+02  0.11721741248E+03  0.11972161192E+03  0.00000000000E+00 0.  1.
         22    1    1    2    0    0  0.13434343244E+02  0.22359892035E+00 -0.15073140587E+01  0.13520487068E+02  0.00000000000E+00 0.  1.
<mgrwt>
<rscale>  0 0.57093055E+02</rscale>
<asrwt>0</asrwt>
<pdfrwt beam="1">  1        3 0.37316584E-02 0.92473831E+02</pdfrwt>
<pdfrwt beam="2">  1       -3 0.20569457E-01 0.92473831E+02</pdfrwt>
<totfact> 0.15916095E+04</totfact>
</mgrwt>
</event>
<event>
 6    1  0.1683416E-002  0.1004197E+03  0.7546771E-02  0.1348518E+00
         -2   -1    0    0    0  501 -0.00000000000E+00  0.00000000000E+00  0.25696062169E+03  0.25696062169E+03  0.00000000000E+00 0.  1.
          2   -1    0    0  501    0  0.00000000000E+00 -0.00000000000E+00 -0.19972821653E+02  0.19972821653E+02  0.00000000000E+00 0. -1.
         23    2    1    2    0    0  0.10064324803E+02 -0.27038009981E+02  0.22362788147E+03  0.24513985843E+03  0.96186153903E+02 0.  0.
         13    1    3    3    0    0  0.81296194460E+01 -0.24035264538E+01  0.22000157836E+03  0.22016485217E+03  0.00000000000E+00 0.  1.
        -13    1    3    3    0    0  0.19347053573E+01 -0.24634483527E+02  0.36263031156E+01  0.24975006261E+02  0.00000000000E+00 0. -1.
         22    1    1    2    0    0 -0.10064324803E+02  0.27038009981E+02  0.13359918565E+02  0.31793584912E+02  0.00000000000E+00 0.  1.
<mgrwt>
<rscale>  0 0.73519435E+02</rscale>
<asrwt>0</asrwt>
<pdfrwt beam="1">  1        2 0.30727420E-02 0.10041972E+03</pdfrwt>
<pdfrwt beam="2">  1       -2 0.39532401E-01 0.10041972E+03</pdfrwt>
<totfact> 0.16569279E+04</totfact>
</mgrwt>
</event>
<event>
 6    1  0.1683416E-002  0.1038021E+03  0.7546771E-02  0.1314089E+00
         -3   -1    0    0    0  501 -0.00000000000E+00  0.00000000000E+00  0.13302706485E+03  0.13302706485E+03  0.00000000000E+00 0.  1.
          3   -1    0    0  501    0  0.00000000000E+00 -0.00000000000E+00 -0.48632505928E+02  0.48632505928E+02  0.00000000000E+00 0. -1.
         23    2    1    2    0    0 -0.19397756367E+02  0.43704151703E+02  0.84494474610E+02  0.13384392678E+03  0.92133352633E+02 0.  0.
         13    1    3    3    0    0  0.32080349231E+02  0.38927702882E+02  0.29825687638E+02  0.58601079354E+02  0.00000000000E+00 0.  1.
        -13    1    3    3    0    0 -0.51478105598E+02  0.47764488216E+01  0.54668786972E+02  0.75242847423E+02  0.00000000000E+00 0. -1.
         22    1    1    2    0    0  0.19397756367E+02 -0.43704151703E+02 -0.99915686415E-01  0.47815644002E+02  0.00000000000E+00 0. -1.
<mgrwt>
<rscale>  0 0.85515913E+02</rscale>
<asrwt>0</asrwt>
<pdfrwt beam="1">  1        3 0.74819241E-02 0.10380212E+03</pdfrwt>
<pdfrwt beam="2">  1       -3 0.20465702E-01 0.10380212E+03</pdfrwt>
<totfact> 0.55120292E+03</totfact>
</mgrwt>
</event>
<event>
 6    1  0.1683416E-002  0.9168836E+02  0.7546771E-02  0.1429471E+00
          2   -1    0    0  501    0  0.00000000000E+00  0.00000000000E+00  0.39076860544E+02  0.39076860544E+02  0.00000000000E+00 0. -1.
         -2   -1    0    0    0  501 -0.00000000000E+00 -0.00000000000E+00 -0.70615811557E+02  0.70615811557E+02  0.00000000000E+00 0.  1.
         23    2    1    2    0    0 -0.63098281123E+01 -0.81258664327E+01 -0.35969187736E+02  0.98491304617E+02  0.91109335321E+02 0.  0.
         11    1    3    3    0    0 -0.38880886292E+01  0.41475281644E+02 -0.12012447608E+02  0.43354528231E+02  0.00000000000E+00 0. -1.
        -11    1    3    3    0    0 -0.24217394830E+01 -0.49601148077E+02 -0.23956740128E+02  0.55136776386E+02  0.00000000000E+00 0.  1.
         22    1    1    2    0    0  0.63098281123E+01  0.81258664327E+01  0.44302367226E+01  0.11201367484E+02  0.00000000000E+00 0.  1.
<mgrwt>
<rscale>  0 0.53066291E+02</rscale>
<asrwt>0</asrwt>
<pdfrwt beam="1">  1        2 0.60118248E-02 0.91688356E+02</pdfrwt>
<pdfrwt beam="2">  1       -2 0.10863971E-01 0.91688356E+02</pdfrwt>
<totfact> 0.61183866E+04</totfact>
</mgrwt>
</event>
<event>
 6    1  0.1683416E-002  0.1053929E+03  0.7546771E-02  0.1356946E+00
          2   -1    0    0  501    0  0.00000000000E+00  0.00000000000E+00  0.76216116061E+02  0.76216116061E+02  0.00000000000E+00 0. -1.
         -2   -1    0    0    0  501 -0.00000000000E+00 -0.00000000000E+00 -0.22299911149E+03  0.22299911149E+03  0.00000000000E+00 0.  1.
         23    2    1    2    0    0  0.21574097754E+02  0.15018901834E+01 -0.20860641709E+03  0.23371841210E+03  0.10315018920E+03 0.  0.
         13    1    3    3    0    0 -0.11503748846E+02 -0.25090503729E+02 -0.80951301574E+01  0.28764574518E+02  0.00000000000E+00 0. -1.
        -13    1    3    3    0    0  0.33077846600E+02  0.26592393913E+02 -0.20051128693E+03  0.20495383758E+03  0.00000000000E+00 0.  1.
         22    1    1    2    0    0 -0.21574097754E+02 -0.15018901834E+01  0.61823421666E+02  0.65496815453E+02  0.00000000000E+00 0. -1.
<mgrwt>
<rscale>  0 0.70933937E+02</rscale>
<asrwt>0</asrwt>
<pdfrwt beam="1">  1        2 0.11725556E-01 0.10539288E+03</pdfrwt>
<pdfrwt beam="2">  1       -2 0.34307555E-01 0.10539288E+03</pdfrwt>
<totfact> 0.39390803E+03</totfact>
</mgrwt>
</event>
<event>
 6    1  0.1683416E-002  0.9486679E+02  0.7546771E-02  0.1361226E+00
         -1   -1    0    0    0  501 -0.00000000000E+00  0.00000000000E+00  0.10478138440E+03  0.10478138440E+03  0.00000000000E+00 0.  1.
          1   -1    0    0  501    0  0.00000000000E+00 -0.00000000000E+00 -0.62894176509E+02  0.62894176509E+02  0.00000000000E+00 0. -1.
         23    2    1    2    0    0  0.14165973164E+02  0.23678053072E+02  0.77588300505E+02  0.12255468983E+03  0.90765536578E+02 0.  0.
         11    1    3    3    0    0 -0.14860323434E+02  0.32009926575E+02 -0.40379678133E+01  0.35521399128E+02  0.00000000000E+00 0. -1.
        -11    1    3    3    0    0  0.29026296598E+02 -0.83318735031E+01  0.81626268319E+02  0.87033290699E+02  0.00000000000E+00 0.  1.
         22    1    1    2    0    0 -0.14165973164E+02 -0.23678053072E+02 -0.35701092617E+02  0.45120871080E+02  0.00000000000E+00 0. -1.
<mgrwt>
<rscale>  0 0.69667770E+02</rscale>
<asrwt>0</asrwt>
<pdfrwt beam="1">  1        1 0.96760272E-02 0.94866789E+02</pdfrwt>
<pdfrwt beam="2">  1       -1 0.16120213E-01 0.94866789E+02</pdfrwt>
<totfact> 0.17163684E+04</totfact>
</mgrwt>
</event>
<event>
 6    1  0.1683416E-002  0.9344977E+02  0.7546771E-02  0.1418071E+00
         -4   -1    0    0    0  501 -0.00000000000E+00  0.00000000000E+00  0.11402260068E+03  0.11402260068E+03  0.00000000000E+00 0.  1.
          4   -1    0    0  501    0  0.00000000000E+00 -0.00000000000E+00 -0.29848001055E+02  0.29848001055E+02  0.00000000000E+00 0. -1.
         23    2    1    2    0    0  0.11529294715E+02  0.95161066320E+00  0.91001243492E+02  0.13043805671E+03  0.92730955569E+02 0.  0.
         11    1    3    3    0    0 -0.23438951004E+02 -0.35614353662E+02  0.46086021821E+02  0.62782864049E+02  0.00000000000E+00 0.  1.
        -11    1    3    3    0    0  0.34968245719E+02  0.36565964325E+02  0.44915221671E+02  0.67655192657E+02  0.00000000000E+00 0. -1.
         22    1    1    2    0    0 -0.11529294715E+02 -0.95161066320E+00 -0.68266438673E+01  0.13432545029E+02  0.00000000000E+00 0.  1.
<mgrwt>
<rscale>  0 0.55431031E+02</rscale>
<asrwt>0</asrwt>
<pdfrwt beam="1">  1        4 0.45920002E-02 0.93449774E+02</pdfrwt>
<pdfrwt beam="2">  1       -4 0.17541938E-01 0.93449774E+02</pdfrwt>
<totfact> 0.11442157E+04</totfact>
</mgrwt>
</event>
<event>
 6    1  0.2752924E-002  0.1135531E+03  0.7546771E-02  0.1379159E+00
         -2   -1    0    0    0  501 -0.00000000000E+00  0.00000000000E+00  0.12047686179E+02  0.12047686179E+02  0.00000000000E+00 0.  1.
          2   -1    0    0  501    0  0.00000000000E+00 -0.00000000000E+00 -0.32691181837E+03  0.32691181837E+03  0.00000000000E+00 0. -1.
         23    2    1    2    0    0 -0.74014813295E+01  0.93911159407E+01 -0.28395486934E+03  0.30581802729E+03  0.11292175616E+03 0.  0.
         11    1    3    3    0    0 -0.26811939313E+02  0.30375787680E+01 -0.28411507441E+03  0.28539355718E+03  0.00000000000E+00 0. -1.
        -11    1    3    3    0    0  0.19410457983E+02  0.63535371727E+01  0.16020507186E+00  0.20424470113E+02  0.00000000000E+00 0.  1.
         22    1    1    2    0    0  0.74014813295E+01 -0.93911159407E+01 -0.30909262851E+02  0.33141477252E+02  0.00000000000E+00 0. -1.
<mgrwt>
<rscale>  0 0.64685456E+02</rscale>
<asrwt>0</asrwt>
<pdfrwt beam="1">  1        2 0.50294133E-01 0.11355306E+03</pdfrwt>
<pdfrwt beam="2">  1       -2 0.18534899E-02 0.11355306E+03</pdfrwt>
<totfact> 0.76920193E+04</totfact>
</mgrwt>
</event>
<event>
 6    1  0.1683416E-002  0.1264630E+03  0.7546771E-02  0.1253040E+00
          2   -1    0    0  501    0  0.00000000000E+00  0.00000000000E+00  0.74605983161E+03  0.74605983161E+03  0.00000000000E+00 0. -1.
         -2   -1    0    0    0  501 -0.00000000000E+00 -0.00000000000E+00 -0.28882646224E+02  0.28882646224E+02  0.00000000000E+00 0.  1.
         23    2    1    2    0    0 -0.88010976367E+01  0.83539838119E+02  0.66307166957E+03  0.67502365721E+03  0.94533247808E+02 0.  0.
         13    1    3    3    0    0 -0.49368764597E+02  0.33237708246E+02  0.25401193387E+03  0.26089094027E+03  0.00000000000E+00 0.  1.
        -13    1    3    3    0    0  0.40567666960E+02  0.50302129873E+02  0.40905973570E+03  0.41413271694E+03  0.00000000000E+00 0. -1.
         22    1    1    2    0    0  0.88010976367E+01 -0.83539838119E+02  0.54105515820E+02  0.99918820623E+02  0.00000000000E+00 0.  1.
<mgrwt>
<rscale>  0 0.11416824E+03</rscale>
<asrwt>0</asrwt>
<pdfrwt beam="1">  1        2 0.11477842E+00 0.12646303E+03</pdfrwt>
<pdfrwt beam="2">  1       -2 0.44434846E-02 0.12646303E+03</pdfrwt>
<totfact> 0.86927452E+03</totfact>
</mgrwt>
</event>
<event>
 6    1  0.1683416E-002  0.9319151E+02  0.7546771E-02  0.1399868E+00
          4   -1    0    0  501    0  0.00000000000E+00  0.00000000000E+00  0.23209720165E+02  0.23209720165E+02  0.00000000000E+00 0. -1.
         -4   -1    0    0    0  501 -0.00000000000E+00 -0.00000000000E+00 -0.16037994164E+03  0.16037994164E+03  0.00000000000E+00 0.  1.
         23    2    1    2    0    0 -0.14963221823E+02 -0.40596446726E+01 -0.13964925132E+03  0.16788856913E+03  0.91892761028E+02 0.  0.
         13    1    3    3    0    0  0.33022176719E+02 -0.47144648320E+01 -0.10070261437E+03  0.10608349012E+03  0.00000000000E+00 0. -1.
        -13    1    3    3    0    0 -0.47985398542E+02  0.65482015937E+00 -0.38946636943E+02  0.61805079014E+02  0.00000000000E+00 0.  1.
         22    1    1    2    0    0  0.14963221823E+02  0.40596446726E+01  0.24790298414E+01  0.15701092674E+02  0.00000000000E+00 0.  1.
<mgrwt>
<rscale>  0 0.59517445E+02</rscale>
<asrwt>0</asrwt>
<pdfrwt beam="1">  1        4 0.35707263E-02 0.93191514E+02</pdfrwt>
<pdfrwt beam="2">  1       -4 0.24673836E-01 0.93191514E+02</pdfrwt>
<totfact> 0.92213558E+03</totfact>
</mgrwt>
</event>
<event>
 6    1  0.1683416E-002  0.8942332E+02  0.7546771E-02  0.1387428E+00
         -4   -1    0    0    0  501 -0.00000000000E+00  0.00000000000E+00  0.15484015202E+03  0.15484015202E+03  0.00000000000E+00 0.  1.
          4   -1    0    0  501    0  0.00000000000E+00 -0.00000000000E+00 -0.27991866461E+02  0.27991866461E+02  0.00000000000E+00 0. -1.
         23    2    1    2    0    0 -0.15377506235E+02  0.14894553279E+02  0.13326116128E+03  0.16048385546E+03  0.86822896417E+02 0.  0.
         13    1    3    3    0    0 -0.86485967367E+01  0.69795855697E+01  0.14464554997E+03  0.14507187173E+03  0.00000000000E+00 0.  1.
        -13    1    3    3    0    0 -0.67289094987E+01  0.79149677090E+01 -0.11384388687E+02  0.15411983735E+02  0.00000000000E+00 0. -1.
         22    1    1    2    0    0  0.15377506235E+02 -0.14894553279E+02 -0.64128757214E+01  0.22348163021E+02  0.00000000000E+00 0. -1.
<mgrwt>
<rscale>  0 0.62550914E+02</rscale>
<asrwt>0</asrwt>
<pdfrwt beam="1">  1        4 0.43064411E-02 0.89423323E+02</pdfrwt>
<pdfrwt beam="2">  1       -4 0.23821561E-01 0.89423323E+02</pdfrwt>
<totfact> 0.72339864E+03</totfact>
</mgrwt>
</event>
<event>
 6    1  0.1683416E-002  0.9568859E+02  0.7546771E-02  0.1353847E+00
         -2   -1    0    0    0  501 -0.00000000000E+00  0.00000000000E+00  0.17168986114E+03  0.17168986114E+03  0.00000000000E+00 0.  1.
          2   -1    0    0  501    0  0.00000000000E+00 -0.00000000000E+00 -0.87124107725E+02  0.87124107725E+02  0.00000000000E+00 0. -1.
         23    2    1    2    0    0  0.30273530866E+02 -0.32888586263E+01  0.15495557975E+03  0.18211956938E+03  0.90713850057E+02 0.  0.
         11    1    3    3    0    0 -0.23784254026E+02 -0.95255733589E+01  0.10382489484E+02  0.27644590344E+02  0.00000000000E+00 0. -1.
        -11    1    3    3    0    0  0.54057784892E+02  0.62367147326E+01  0.14457309027E+03  0.15447497903E+03  0.00000000000E+00 0.  1.
         22    1    1    2    0    0 -0.30273530866E+02  0.32888586263E+01 -0.70389826333E+02  0.76694399491E+02  0.00000000000E+00 0. -1.
<mgrwt>
<rscale>  0 0.71870031E+02</rscale>
<asrwt>0</asrwt>
<pdfrwt beam="1">  1        2 0.13403709E-01 0.95688588E+02</pdfrwt>
<pdfrwt beam="2">  1       -2 0.26413825E-01 0.95688588E+02</pdfrwt>
<totfact> 0.53263964E+03</totfact>
</mgrwt>
</event>
<event>
 6    1  0.1683416E-002  0.1000291E+03  0.7546771E-02  0.1329140E+00
          2   -1    0    0  501    0  0.00000000000E+00  0.00000000000E+00  0.45431240758E+03  0.45431240758E+03  0.00000000000E+00 0. -1.
         -2   -1    0    0    0  501 -0.00000000000E+00 -0.00000000000E+00 -0.11784366421E+02  0.11784366421E+02  0.00000000000E+00 0.  1.
         23    2    1    2    0    0  0.32277843280E+02 -0.25054683491E+02  0.24976996622E+03  0.26905547938E+03  0.91302894957E+02 0.  0.
         13    1    3    3    0    0  0.33363151541E+02  0.23744132571E+02  0.17526527139E+03  0.17998555238E+03  0.00000000000E+00 0. -1.
        -13    1    3    3    0    0 -0.10853082611E+01 -0.48798816062E+02  0.74504694829E+02  0.89069926994E+02  0.00000000000E+00 0.  1.
         22    1    1    2    0    0 -0.32277843280E+02  0.25054683491E+02  0.19275807494E+03  0.19704129462E+03  0.00000000000E+00 0. -1.
<mgrwt>
<rscale>  0 0.79968898E+02</rscale>
<asrwt>0</asrwt>
<pdfrwt beam="1">  1        2 0.69894203E-01 0.10002907E+03</pdfrwt>
<pdfrwt beam="2">  1       -2 0.18129798E-02 0.10002907E+03</pdfrwt>
<totfact> 0.55132461E+04</totfact>
</mgrwt>
</event>
<event>
 6    1  0.1683416E-002  0.9132138E+02  0.7546771E-02  0.1408200E+00
         -4   -1    0    0    0  501 -0.00000000000E+00  0.00000000000E+00  0.62552843116E+02  0.62552843116E+02  0.00000000000E+00 0.  1.
          4   -1    0    0  501    0  0.00000000000E+00 -0.00000000000E+00 -0.46312519925E+02  0.46312519925E+02  0.00000000000E+00 0. -1.
         23    2    1    2    0    0  0.14361216204E+02  0.16077205780E+01  0.67368318064E+01  0.91569535660E+02  0.90170758353E+02 0.  0.
         13    1    3    3    0    0  0.49690633114E+02  0.13970622566E+02 -0.61519781166E+01  0.51982536961E+02  0.00000000000E+00 0. -1.
        -13    1    3    3    0    0 -0.35329416910E+02 -0.12362901988E+02  0.12888809923E+02  0.39586998699E+02  0.00000000000E+00 0.  1.
         22    1    1    2    0    0 -0.14361216204E+02 -0.16077205780E+01  0.95034913845E+01  0.17295827381E+02  0.00000000000E+00 0. -1.
<mgrwt>
<rscale>  0 0.57597454E+02</rscale>
<asrwt>0</asrwt>
<pdfrwt beam="1">  1        4 0.71250031E-02 0.91321383E+02</pdfrwt>
<pdfrwt beam="2">  1       -4 0.96235143E-02 0.91321383E+02</pdfrwt>
<totfact> 0.15652908E+04</totfact>
</mgrwt>
</event>
<event>
 6    1  0.1683416E-002  0.9098141E+02  0.7546771E-02  0.1429554E+00
          2   -1    0    0  501    0  0.00000000000E+00  0.00000000000E+00  0.35864578727E+02  0.35864578727E+02  0.00000000000E+00 0. -1.
         -2   -1    0    0    0  501 -0.00000000000E+00 -0.00000000000E+00 -0.72316090335E+02  0.72316090335E+02  0.00000000000E+00 0.  1.
         23    2    1    2    0    0 -0.24883650468E+01  0.10217891593E+02 -0.35346261476E+02  0.97606225953E+02  0.90371565635E+02 0.  0.
         13    1    3    3    0    0 -0.21571828189E+02 -0.32314913323E+02  0.40856900207E+00  0.38855685853E+02  0.00000000000E+00 0. -1.
        -13    1    3    3    0    0  0.19083463143E+02  0.42532804916E+02 -0.35754830479E+02  0.58750540100E+02  0.00000000000E+00 0.  1.
         22    1    1    2    0    0  0.24883650468E+01 -0.10217891593E+02 -0.11052501316E+01  0.10574443109E+02  0.00000000000E+00 0. -1.
<mgrwt>
<rscale>  0 0.53049653E+02</rscale>
<asrwt>0</asrwt>
<pdfrwt beam="1">  1        2 0.55176276E-02 0.90981411E+02</pdfrwt>
<pdfrwt beam="2">  1       -2 0.11125552E-01 0.90981411E+02</pdfrwt>
<totfact> 0.65687854E+04</totfact>
</mgrwt>
</event>
<event>
 6    1  0.1683416E-002  0.9307599E+02  0.7546771E-02  0.1423640E+00
         -2   -1    0    0    0  501 -0.00000000000E+00  0.00000000000E+00  0.34236846188E+02  0.34236846188E+02  0.00000000000E+00 0.  1.
          2   -1    0    0  501    0  0.00000000000E+00 -0.00000000000E+00 -0.82943136721E+02  0.82943136721E+02  0.00000000000E+00 0. -1.
         23    2    1    2    0    0  0.16393361525E+01 -0.10622751354E+02 -0.34276128238E+02  0.99186654889E+02  0.92453281563E+02 0.  0.
         13    1    3    3    0    0 -0.35954084153E+02  0.13775586241E+02 -0.38150624663E+02  0.54202703860E+02  0.00000000000E+00 0. -1.
        -13    1    3    3    0    0  0.37593420305E+02 -0.24398337595E+02  0.38744964247E+01  0.44983951029E+02  0.00000000000E+00 0.  1.
         22    1    1    2    0    0 -0.16393361525E+01  0.10622751354E+02 -0.14430162295E+02  0.17993328020E+02  0.00000000000E+00 0.  1.
<mgrwt>
<rscale>  0 0.54258179E+02</rscale>
<asrwt>0</asrwt>
<pdfrwt beam="1">  1        2 0.12760482E-01 0.93075988E+02</pdfrwt>
<pdfrwt beam="2">  1       -2 0.52672072E-02 0.93075988E+02</pdfrwt>
<totfact> 0.73373060E+04</totfact>
</mgrwt>
</event>
<event>
 6    1  0.1683416E-002  0.9016196E+02  0.7546771E-02  0.1394415E+00
         -4   -1    0    0    0  501 -0.00000000000E+00  0.00000000000E+00  0.12305469016E+03  0.12305469016E+03  0.00000000000E+00 0.  1.
          4   -1    0    0  501    0  0.00000000000E+00 -0.00000000000E+00 -0.24073518369E+02  0.24073518369E+02  0.00000000000E+00 0. -1.
         23    2    1    2    0    0  0.16177528119E+02  0.93218614940E+01  0.80869989143E+02  0.12111620256E+03  0.88207538566E+02 0.  0.
         13    1    3    3    0    0  0.27615878371E+01 -0.39067845335E+02  0.43418967699E+02  0.58473324367E+02  0.00000000000E+00 0. -1.
        -13    1    3    3    0    0  0.13415940282E+02  0.48389706829E+02  0.37451021443E+02  0.62642878189E+02  0.00000000000E+00 0.  1.
         22    1    1    2    0    0 -0.16177528119E+02 -0.93218614940E+01  0.18111182648E+02  0.26012005972E+02  0.00000000000E+00 0.  1.
<mgrwt>
<rscale>  0 0.60821891E+02</rscale>
<asrwt>0</asrwt>
<pdfrwt beam="1">  1        4 0.37036183E-02 0.90161962E+02</pdfrwt>
<pdfrwt beam="2">  1       -4 0.18931491E-01 0.90161962E+02</pdfrwt>
<totfact> 0.13888428E+04</totfact>
</mgrwt>
</event>
<event>
 6    1  0.1683416E-002  0.9620631E+02  0.7546771E-02  0.1351914E+00
          2   -1    0    0  501    0  0.00000000000E+00  0.00000000000E+00  0.45596772649E+03  0.45596772649E+03  0.00000000000E+00 0. -1.
         -2   -1    0    0    0  501 -0.00000000000E+00 -0.00000000000E+00 -0.92223419297E+01  0.92223419297E+01  0.00000000000E+00 0.  1.
         23    2    1    2    0    0  0.28206494122E+02  0.12770648490E+02  0.29408828968E+03  0.30942458961E+03  0.91087643240E+02 0.  0.
         11    1    3    3    0    0 -0.24117269939E+02  0.32289759504E+02  0.12860631670E+03  0.13477335038E+03  0.00000000000E+00 0.  1.
        -11    1    3    3    0    0  0.52323764061E+02 -0.19519111013E+02  0.16548197299E+03  0.17465123923E+03  0.00000000000E+00 0. -1.
         22    1    1    2    0    0 -0.28206494122E+02 -0.12770648490E+02  0.15265709488E+03  0.15576547882E+03  0.00000000000E+00 0.  1.
<mgrwt>
<rscale>  0 0.72462411E+02</rscale>
<asrwt>0</asrwt>
<pdfrwt beam="1">  1        2 0.70148863E-01 0.96206312E+02</pdfrwt>
<pdfrwt beam="2">  1       -2 0.14188222E-02 0.96206312E+02</pdfrwt>
<totfact> 0.77614869E+04</totfact>
</mgrwt>
</event>
<event>
 6    1  0.1683416E-002  0.9039431E+02  0.7546771E-02  0.1405829E+00
          2   -1    0    0  501    0  0.00000000000E+00  0.00000000000E+00  0.10385219431E+02  0.10385219431E+02  0.00000000000E+00 0. -1.
         -2   -1    0    0    0  501 -0.00000000000E+00 -0.00000000000E+00 -0.28250040380E+03  0.28250040380E+03  0.00000000000E+00 0.  1.
         23    2    1    2    0    0  0.57457563783E+01  0.14357279750E+02 -0.25048016088E+03  0.26629202552E+03  0.89061701421E+02 0.  0.
         13    1    3    3    0    0 -0.18090626015E+02  0.16714711276E+02 -0.13466911442E+02  0.28071516283E+02  0.00000000000E+00 0. -1.
        -13    1    3    3    0    0  0.23836382394E+02 -0.23574315256E+01 -0.23701324944E+03  0.23822050923E+03  0.00000000000E+00 0.  1.
         22    1    1    2    0    0 -0.57457563783E+01 -0.14357279750E+02 -0.21635023491E+02  0.26593597719E+02  0.00000000000E+00 0. -1.
<mgrwt>
<rscale>  0 0.58135116E+02</rscale>
<asrwt>0</asrwt>
<pdfrwt beam="1">  1        2 0.15977261E-02 0.90394313E+02</pdfrwt>
<pdfrwt beam="2">  1       -2 0.43461600E-01 0.90394313E+02</pdfrwt>
<totfact> 0.32922284E+04</totfact>
</mgrwt>
</event>
<event>
 6    1  0.1683416E-002  0.9592534E+02  0.7546771E-02  0.1383281E+00
          2   -1    0    0  501    0  0.00000000000E+00  0.00000000000E+00  0.10140662133E+03  0.10140662133E+03  0.00000000000E+00 0.  1.
         -2   -1    0    0    0  501 -0.00000000000E+00 -0.00000000000E+00 -0.75489756882E+02  0.75489756882E+02  0.00000000000E+00 0. -1.
         23    2    1    2    0    0  0.18492215444E+02 -0.14278866593E+01 -0.43294477129E+02  0.10524297149E+03  0.94115197525E+02 0.  0.
         13    1    3    3    0    0  0.23499996364E+02 -0.23307014019E+02  0.19598378724E+02  0.38465090410E+02  0.00000000000E+00 0.  1.
        -13    1    3    3    0    0 -0.50077809208E+01  0.21879127360E+02 -0.62892855853E+02  0.66777881077E+02  0.00000000000E+00 0. -1.
         22    1    1    2    0    0 -0.18492215444E+02  0.14278866593E+01  0.69211341576E+02  0.71653406724E+02  0.00000000000E+00 0. -1.
<mgrwt>
<rscale>  0 0.63609205E+02</rscale>
<asrwt>0</asrwt>
<pdfrwt beam="1">  1        2 0.15601019E-01 0.95925342E+02</pdfrwt>
<pdfrwt beam="2">  1       -2 0.11613809E-01 0.95925342E+02</pdfrwt>
<totfact> 0.17380451E+04</totfact>
</mgrwt>
</event>
<event>
 6    1  0.1683416E-002  0.1423704E+03  0.7546771E-02  0.1222728E+00
         -2   -1    0    0    0  501 -0.00000000000E+00  0.00000000000E+00  0.18225859061E+02  0.18225859061E+02  0.00000000000E+00 0.  1.
          2   -1    0    0  501    0  0.00000000000E+00 -0.00000000000E+00 -0.91119817782E+03  0.91119817782E+03  0.00000000000E+00 0. -1.
         23    2    1    2    0    0  0.91680840074E+02 -0.59340914521E+02 -0.60270524168E+03  0.61929229615E+03  0.91337939261E+02 0.  0.
         11    1    3    3    0    0 -0.17003536505E+02 -0.15769000657E+02 -0.14521057159E+03  0.14705064344E+03  0.00000000000E+00 0.  1.
        -11    1    3    3    0    0  0.10868437658E+03 -0.43571913863E+02 -0.45749467009E+03  0.47224165270E+03  0.00000000000E+00 0. -1.
         22    1    1    2    0    0 -0.91680840074E+02  0.59340914521E+02 -0.29026707708E+03  0.31013174073E+03  0.00000000000E+00 0.  1.
<mgrwt>
<rscale>  0 0.13323858E+03</rscale>
<asrwt>0</asrwt>
<pdfrwt beam="1">  1        2 0.14018432E+00 0.14237043E+03</pdfrwt>
<pdfrwt beam="2">  1       -2 0.28039787E-02 0.14237043E+03</pdfrwt>
<totfact> 0.13445879E+04</totfact>
</mgrwt>
</event>
<event>
 6    1  0.1683416E-002  0.8767489E+02  0.7546771E-02  0.1420410E+00
          3   -1    0    0  501    0  0.00000000000E+00  0.00000000000E+00  0.89840510608E+02  0.89840510608E+02  0.00000000000E+00 0. -1.
         -3   -1    0    0    0  501 -0.00000000000E+00 -0.00000000000E+00 -0.50513955688E+02  0.50513955688E+02  0.00000000000E+00 0.  1.
         23    2    1    2    0    0 -0.17951563443E+01  0.13393040181E+02 -0.10892731292E+02  0.88348958711E+02  0.86627309774E+02 0.  0.
         13    1    3    3    0    0 -0.17068166159E+01 -0.62376508135E+00 -0.48334890827E+02  0.48369039447E+02  0.00000000000E+00 0.  1.
        -13    1    3    3    0    0 -0.88339728380E-01  0.14016805262E+02  0.37442159535E+02  0.39979919263E+02  0.00000000000E+00 0. -1.
         22    1    1    2    0    0  0.17951563443E+01 -0.13393040181E+02  0.50219286212E+02  0.52005507586E+02  0.00000000000E+00 0. -1.
<mgrwt>
<rscale>  0 0.54934209E+02</rscale>
<asrwt>0</asrwt>
<pdfrwt beam="1">  1        3 0.13821617E-01 0.87674893E+02</pdfrwt>
<pdfrwt beam="2">  1       -3 0.77713778E-02 0.87674893E+02</pdfrwt>
<totfact> 0.97820871E+03</totfact>
</mgrwt>
</event>
<event>
 6    1  0.1683416E-002  0.9332824E+02  0.7546771E-02  0.1383678E+00
          4   -1    0    0  501    0  0.00000000000E+00  0.00000000000E+00  0.30119020196E+03  0.30119020196E+03  0.00000000000E+00 0. -1.
         -4   -1    0    0    0  501 -0.00000000000E+00 -0.00000000000E+00 -0.10664374685E+02  0.10664374685E+02  0.00000000000E+00 0.  1.
         23    2    1    2    0    0 -0.14516757327E+02 -0.13771542164E+02  0.23755208172E+03  0.25522764547E+03  0.91157928138E+02 0.  0.
         11    1    3    3    0    0 -0.48796781656E+02  0.70814161186E+01  0.16628510123E+03  0.17344165372E+03  0.00000000000E+00 0. -1.
        -11    1    3    3    0    0  0.34280024329E+02 -0.20852958283E+02  0.71266980491E+02  0.81785991744E+02  0.00000000000E+00 0.  1.
         22    1    1    2    0    0  0.14516757327E+02  0.13771542164E+02  0.52973745552E+02  0.56626931178E+02  0.00000000000E+00 0.  1.
<mgrwt>
<rscale>  0 0.63506827E+02</rscale>
<asrwt>0</asrwt>
<pdfrwt beam="1">  1        4 0.46336948E-01 0.93328235E+02</pdfrwt>
<pdfrwt beam="2">  1       -4 0.16406733E-02 0.93328235E+02</pdfrwt>
<totfact> 0.91869539E+03</totfact>
</mgrwt>
</event>
<event>
 6    1  0.1683416E-002  0.1145833E+03  0.7546771E-02  0.1312405E+00
          2   -1    0    0  501    0  0.00000000000E+00  0.00000000000E+00  0.86303686237E+02  0.86303686237E+02  0.00000000000E+00 0. -1.
         -2   -1    0    0    0  501 -0.00000000000E+00 -0.00000000000E+00 -0.80033574354E+02  0.80033574354E+02  0.00000000000E+00 0.  1.
         23    2    1    2    0    0  0.36626169131E+02 -0.12189726256E+01  0.34958130901E+02  0.11979733585E+03  0.10856504318E+03 0.  0.
         13    1    3    3    0    0 -0.64743900485E+01 -0.34739566445E+02 -0.21412142492E+02  0.41318700964E+02  0.00000000000E+00 0.  1.
        -13    1    3    3    0    0  0.43100559179E+02  0.33520593819E+02  0.56370273393E+02  0.78478634888E+02  0.00000000000E+00 0. -1.
         22    1    1    2    0    0 -0.36626169131E+02  0.12189726256E+01 -0.28688019018E+02  0.46539924738E+02  0.00000000000E+00 0.  1.
<mgrwt>
<rscale>  0 0.86168581E+02</rscale>
<asrwt>0</asrwt>
<pdfrwt beam="1">  1        2 0.13277490E-01 0.11458329E+03</pdfrwt>
<pdfrwt beam="2">  1       -2 0.12312858E-01 0.11458329E+03</pdfrwt>
<totfact> 0.19485709E+04</totfact>
</mgrwt>
</event>
<event>
 6    1  0.1683416E-002  0.9356728E+02  0.7546771E-02  0.1405719E+00
          2   -1    0    0  501    0  0.00000000000E+00  0.00000000000E+00  0.72031528305E+03  0.72031528305E+03  0.00000000000E+00 0. -1.
         -2   -1    0    0    0  501 -0.00000000000E+00 -0.00000000000E+00 -0.41587083941E+01  0.41587083941E+01  0.00000000000E+00 0.  1.
         23    2    1    2    0    0 -0.22188907740E+01 -0.13790589953E+02  0.66034689849E+03  0.66694292331E+03  0.92518823775E+02 0.  0.
         11    1    3    3    0    0  0.99180630996E+01 -0.48965975118E+02  0.49213891862E+03  0.49466832313E+03  0.00000000000E+00 0.  1.
        -11    1    3    3    0    0 -0.12136953874E+02  0.35175385165E+02  0.16820797988E+03  0.17227460017E+03  0.00000000000E+00 0. -1.
         22    1    1    2    0    0  0.22188907740E+01  0.13790589953E+02  0.55809676156E+02  0.57531068130E+02  0.00000000000E+00 0. -1.
<mgrwt>
<rscale>  0 0.58160248E+02</rscale>
<asrwt>0</asrwt>
<pdfrwt beam="1">  1        2 0.11081764E+00 0.93567284E+02</pdfrwt>
<pdfrwt beam="2">  1       -2 0.63980186E-03 0.93567284E+02</pdfrwt>
<totfact> 0.14348112E+05</totfact>
</mgrwt>
</event>
<event>
 6    1  0.1683416E-002  0.1010223E+03  0.7546771E-02  0.1320575E+00
         -2   -1    0    0    0  501 -0.00000000000E+00  0.00000000000E+00  0.94503430047E+01  0.94503430047E+01  0.00000000000E+00 0.  1.
          2   -1    0    0  501    0  0.00000000000E+00 -0.00000000000E+00 -0.57344771319E+03  0.57344771319E+03  0.00000000000E+00 0. -1.
         23    2    1    2    0    0 -0.28725099120E+02 -0.36150860231E+02 -0.38109532136E+03  0.39425772255E+03  0.89852611588E+02 0.  0.
         11    1    3    3    0    0  0.24642857665E+02 -0.22775572425E+02 -0.24768653934E+03  0.24994923265E+03  0.00000000000E+00 0. -1.
        -11    1    3    3    0    0 -0.53367956785E+02 -0.13375287806E+02 -0.13340878203E+03  0.14430848990E+03  0.00000000000E+00 0.  1.
         22    1    1    2    0    0  0.28725099120E+02  0.36150860231E+02 -0.18290204882E+03  0.18864033365E+03  0.00000000000E+00 0.  1.
<mgrwt>
<rscale>  0 0.83063799E+02</rscale>
<asrwt>0</asrwt>
<pdfrwt beam="1">  1        2 0.88222702E-01 0.10102231E+03</pdfrwt>
<pdfrwt beam="2">  1       -2 0.14538993E-02 0.10102231E+03</pdfrwt>
<totfact> 0.58763831E+04</totfact>
</mgrwt>
</event>
<event>
 6    1  0.1683416E-002  0.9223371E+02  0.7546771E-02  0.1391918E+00
         -1   -1    0    0    0  501 -0.00000000000E+00  0.00000000000E+00  0.72776452675E+02  0.72776452675E+02  0.00000000000E+00 0.  1.
          1   -1    0    0  501    0  0.00000000000E+00 -0.00000000000E+00 -0.67036977055E+02  0.67036977055E+02  0.00000000000E+00 0. -1.
         23    2    1    2    0    0  0.80812435197E+01  0.16253358034E+02  0.40395282102E+02  0.10069178525E+03  0.90429965474E+02 0.  0.
         11    1    3    3    0    0 -0.35469731796E+02  0.56521051602E+01  0.42715401998E+02  0.55809082901E+02  0.00000000000E+00 0.  1.
        -11    1    3    3    0    0  0.43550975316E+02  0.10601252874E+02 -0.23201198960E+01  0.44882702345E+02  0.00000000000E+00 0. -1.
         22    1    1    2    0    0 -0.80812435197E+01 -0.16253358034E+02 -0.34655806482E+02  0.39121644484E+02  0.00000000000E+00 0. -1.
<mgrwt>
<rscale>  0 0.61432130E+02</rscale>
<asrwt>0</asrwt>
<pdfrwt beam="1">  1        1 0.10313381E-01 0.92233708E+02</pdfrwt>
<pdfrwt beam="2">  1       -1 0.11196377E-01 0.92233708E+02</pdfrwt>
<totfact> 0.27580610E+04</totfact>
</mgrwt>
</event>
<event>
 6    1  0.1683416E-002  0.9830667E+02  0.7546771E-02  0.1347407E+00
         -4   -1    0    0    0  501 -0.00000000000E+00  0.00000000000E+00  0.30956588668E+02  0.30956588668E+02  0.00000000000E+00 0.  1.
          4   -1    0    0  501    0  0.00000000000E+00 -0.00000000000E+00 -0.13753614696E+03  0.13753614696E+03  0.00000000000E+00 0. -1.
         23    2    1    2    0    0 -0.21030422218E+02  0.23238258204E+02 -0.72201604903E+02  0.12197242842E+03  0.93176747325E+02 0.  0.
         13    1    3    3    0    0  0.26339297483E+02  0.35553004824E+02 -0.15070775489E+02  0.46742946182E+02  0.00000000000E+00 0.  1.
        -13    1    3    3    0    0 -0.47369719701E+02 -0.12314746620E+02 -0.57130829414E+02  0.75229482242E+02  0.00000000000E+00 0. -1.
         22    1    1    2    0    0  0.21030422218E+02 -0.23238258204E+02 -0.34377953386E+02  0.46520307200E+02  0.00000000000E+00 0.  1.
<mgrwt>
<rscale>  0 0.73869898E+02</rscale>
<asrwt>0</asrwt>
<pdfrwt beam="1">  1        4 0.21159407E-01 0.98306671E+02</pdfrwt>
<pdfrwt beam="2">  1       -4 0.47625522E-02 0.98306671E+02</pdfrwt>
<totfact> 0.78511433E+03</totfact>
</mgrwt>
</event>
<event>
 6    1  0.1683416E-002  0.7800291E+02  0.7546771E-02  0.1452002E+00
          1   -1    0    0  501    0  0.00000000000E+00  0.00000000000E+00  0.51450976464E+02  0.51450976464E+02  0.00000000000E+00 0. -1.
         -1   -1    0    0    0  501 -0.00000000000E+00 -0.00000000000E+00 -0.52834803662E+02  0.52834803662E+02  0.00000000000E+00 0.  1.
         23    2    1    2    0    0  0.10283100259E+02 -0.60596917238E+01  0.19345241388E+02  0.80365991265E+02  0.77084318593E+02 0.  0.
         11    1    3    3    0    0  0.77087493709E+01 -0.35952234093E+02 -0.10302709145E+02  0.38185517790E+02  0.00000000000E+00 0. -1.
        -11    1    3    3    0    0  0.25743508881E+01  0.29892542370E+02  0.29647950532E+02  0.42180473475E+02  0.00000000000E+00 0.  1.
         22    1    1    2    0    0 -0.10283100259E+02  0.60596917238E+01 -0.20729068586E+02  0.23919788861E+02  0.00000000000E+00 0.  1.
<mgrwt>
<rscale>  0 0.48786032E+02</rscale>
<asrwt>0</asrwt>
<pdfrwt beam="1">  1        1 0.79155349E-02 0.78002911E+02</pdfrwt>
<pdfrwt beam="2">  1       -1 0.81284313E-02 0.78002911E+02</pdfrwt>
<totfact> 0.61727233E+04</totfact>
</mgrwt>
</event>
<event>
 6    1  0.1683416E-002  0.9158336E+02  0.7546771E-02  0.1424927E+00
          1   -1    0    0  501    0  0.00000000000E+00  0.00000000000E+00  0.22283284759E+03  0.22283284759E+03  0.00000000000E+00 0. -1.
         -1   -1    0    0    0  501 -0.00000000000E+00 -0.00000000000E+00 -0.13219643534E+02  0.13219643534E+02  0.00000000000E+00 0.  1.
         23    2    1    2    0    0  0.93585547200E+01 -0.58994002204E+01  0.15257404391E+03  0.17795041492E+03  0.90912737416E+02 0.  0.
         13    1    3    3    0    0 -0.17534188121E+02  0.39294256737E+01 -0.43068642401E+01  0.18478019882E+02  0.00000000000E+00 0.  1.
        -13    1    3    3    0    0  0.26892742841E+02 -0.98288258941E+01  0.15688090815E+03  0.15947239503E+03  0.00000000000E+00 0. -1.
         22    1    1    2    0    0 -0.93585547200E+01  0.58994002204E+01  0.57039160147E+02  0.58102076208E+02  0.00000000000E+00 0. -1.
<mgrwt>
<rscale>  0 0.53991905E+02</rscale>
<asrwt>0</asrwt>
<pdfrwt beam="1">  1        1 0.34281974E-01 0.91583357E+02</pdfrwt>
<pdfrwt beam="2">  1       -1 0.20337915E-02 0.91583357E+02</pdfrwt>
<totfact> 0.73666352E+04</totfact>
</mgrwt>
</event>
<event>
 6    1  0.1683416E-002  0.8716386E+02  0.7546771E-02  0.1426437E+00
          2   -1    0    0  501    0  0.00000000000E+00  0.00000000000E+00  0.60984976940E+02  0.60984976940E+02  0.00000000000E+00 0. -1.
         -2   -1    0    0    0  501 -0.00000000000E+00 -0.00000000000E+00 -0.56625173456E+02  0.56625173456E+02  0.00000000000E+00 0.  1.
         23    2    1    2    0    0 -0.49843255809E+01 -0.11506993240E+02 -0.20699794750E+02  0.89588054496E+02  0.86257078613E+02 0.  0.
         13    1    3    3    0    0  0.28516977011E+02 -0.27451956072E+02 -0.31894256713E+02  0.50833763202E+02  0.00000000000E+00 0.  1.
        -13    1    3    3    0    0 -0.33501302592E+02  0.15944962832E+02  0.11194461963E+02  0.38754291294E+02  0.00000000000E+00 0. -1.
         22    1    1    2    0    0  0.49843255809E+01  0.11506993240E+02  0.25059598234E+02  0.28022095899E+02  0.00000000000E+00 0. -1.
<mgrwt>
<rscale>  0 0.53681875E+02</rscale>
<asrwt>0</asrwt>
<pdfrwt beam="1">  1        2 0.93823041E-02 0.87163857E+02</pdfrwt>
<pdfrwt beam="2">  1       -2 0.87115652E-02 0.87163857E+02</pdfrwt>
<totfact> 0.49120062E+04</totfact>
</mgrwt>
</event>
<event>
 6    1  0.1683416E-002  0.9086242E+02  0.7546771E-02  0.1430017E+00
         -2   -1    0    0    0  501 -0.00000000000E+00  0.00000000000E+00  0.17726414311E+02  0.17726414311E+02  0.00000000000E+00 0.  1.
          2   -1    0    0  501    0  0.00000000000E+00 -0.00000000000E+00 -0.17647259461E+03  0.17647259461E+03  0.00000000000E+00 0. -1.
         23    2    1    2    0    0 -0.25117775805E+00  0.10480924678E+02 -0.10246246013E+03  0.13694719647E+03  0.90255559460E+02 0.  0.
         13    1    3    3    0    0  0.21633522233E+02 -0.22056260563E+02 -0.90988587319E+02  0.96090639172E+02  0.00000000000E+00 0. -1.
        -13    1    3    3    0    0 -0.21884699991E+02  0.32537185241E+02 -0.11473872809E+02  0.40856557300E+02  0.00000000000E+00 0.  1.
         22    1    1    2    0    0  0.25117775805E+00 -0.10480924678E+02 -0.56283720167E+02  0.57251812445E+02  0.00000000000E+00 0. -1.
<mgrwt>
<rscale>  0 0.52956501E+02</rscale>
<asrwt>0</asrwt>
<pdfrwt beam="1">  1        2 0.27149630E-01 0.90862417E+02</pdfrwt>
<pdfrwt beam="2">  1       -2 0.27271406E-02 0.90862417E+02</pdfrwt>
<totfact> 0.82015844E+04</totfact>
</mgrwt>
</event>
<event>
 6    1  0.1683416E-002  0.9330722E+02  0.7546771E-02  0.1410710E+00
         -4   -1    0    0    0  501 -0.00000000000E+00  0.00000000000E+00  0.49186518719E+03  0.49186518719E+03  0.00000000000E+00 0.  1.
          4   -1    0    0  501    0  0.00000000000E+00 -0.00000000000E+00 -0.65413203732E+01  0.65413203732E+01  0.00000000000E+00 0. -1.
         23    2    1    2    0    0  0.39579578691E+00 -0.13020861521E+02  0.46497791214E+03  0.47424750591E+03  0.92393390438E+02 0.  0.
         11    1    3    3    0    0 -0.17948720449E+01  0.31017055402E+02  0.67214779318E+02  0.74047996936E+02  0.00000000000E+00 0. -1.
        -11    1    3    3    0    0  0.21906678318E+01 -0.44037916923E+02  0.39776313282E+03  0.40019950898E+03  0.00000000000E+00 0.  1.
         22    1    1    2    0    0 -0.39579578691E+00  0.13020861521E+02  0.20345954676E+02  0.24159001650E+02  0.00000000000E+00 0.  1.
<mgrwt>
<rscale>  0 0.57035666E+02</rscale>
<asrwt>0</asrwt>
<pdfrwt beam="1">  1        4 0.10063574E-02 0.93307224E+02</pdfrwt>
<pdfrwt beam="2">  1       -4 0.75671538E-01 0.93307224E+02</pdfrwt>
<totfact> 0.69146331E+03</totfact>
</mgrwt>
</event>
<event>
 6    1  0.1683416E-002  0.9435880E+02  0.7546771E-02  0.1425280E+00
         -2   -1    0    0    0  501 -0.00000000000E+00  0.00000000000E+00  0.30065125190E+02  0.30065125190E+02  0.00000000000E+00 0. -1.
          2   -1    0    0  501    0  0.00000000000E+00 -0.00000000000E+00 -0.12225362591E+03  0.12225362591E+03  0.00000000000E+00 0.  1.
         23    2    1    2    0    0  0.10051510663E+02  0.43052330304E+00 -0.45864614929E+02  0.10491494733E+03  0.93820920131E+02 0.  0.
         13    1    3    3    0    0  0.15189961818E+02 -0.26110506146E+02  0.18278859405E+02  0.35307367112E+02  0.00000000000E+00 0. -1.
        -13    1    3    3    0    0 -0.51384511555E+01  0.26541029449E+02 -0.64143474334E+02  0.69607580220E+02  0.00000000000E+00 0.  1.
         22    1    1    2    0    0 -0.10051510663E+02 -0.43052330304E+00 -0.46323885791E+02  0.47403803769E+02  0.00000000000E+00 0.  1.
<mgrwt>
<rscale>  0 0.53919287E+02</rscale>
<asrwt>0</asrwt>
<pdfrwt beam="1">  1        2 0.18808250E-01 0.94358801E+02</pdfrwt>
<pdfrwt beam="2">  1       -2 0.46254039E-02 0.94358801E+02</pdfrwt>
<totfact> 0.57009947E+04</totfact>
</mgrwt>
</event>
<event>
 6    1  0.1683416E-002  0.1088763E+03  0.7546771E-02  0.1305899E+00
         -2   -1    0    0    0  501 -0.00000000000E+00  0.00000000000E+00  0.12285014066E+03  0.12285014066E+03  0.00000000000E+00 0.  1.
          2   -1    0    0  501    0  0.00000000000E+00 -0.00000000000E+00 -0.50196990664E+02  0.50196990664E+02  0.00000000000E+00 0. -1.
         23    2    1    2    0    0  0.90835908233E+01  0.47211005993E+02  0.53275741319E+02  0.12121205945E+03  0.97686580625E+02 0.  0.
         11    1    3    3    0    0 -0.82794563555E+01  0.15328254023E+01 -0.26418931201E+02  0.27728304619E+02  0.00000000000E+00 0. -1.
        -11    1    3    3    0    0  0.17363047179E+02  0.45678180591E+02  0.79694672520E+02  0.93483754832E+02  0.00000000000E+00 0.  1.
         22    1    1    2    0    0 -0.90835908233E+01 -0.47211005993E+02  0.19377408679E+02  0.51835071874E+02  0.00000000000E+00 0. -1.
<mgrwt>
<rscale>  0 0.88753262E+02</rscale>
<asrwt>0</asrwt>
<pdfrwt beam="1">  1        2 0.77226140E-02 0.10887635E+03</pdfrwt>
<pdfrwt beam="2">  1       -2 0.18900022E-01 0.10887635E+03</pdfrwt>
<totfact> 0.18644147E+04</totfact>
</mgrwt>
</event>
<event>
 6    1  0.1683416E-002  0.9546866E+02  0.7546771E-02  0.1378562E+00
          2   -1    0    0  501    0  0.00000000000E+00  0.00000000000E+00  0.19702404142E+03  0.19702404142E+03  0.00000000000E+00 0. -1.
         -2   -1    0    0    0  501 -0.00000000000E+00 -0.00000000000E+00 -0.18493338024E+02  0.18493338024E+02  0.00000000000E+00 0.  1.
         23    2    1    2    0    0 -0.19473007039E+02 -0.57977348742E+01  0.16643410604E+03  0.19187125079E+03  0.93281581746E+02 0.  0.
         13    1    3    3    0    0 -0.45053454861E+02  0.10730141351E+02  0.15056989900E+03  0.15753172446E+03  0.00000000000E+00 0. -1.
        -13    1    3    3    0    0  0.25580447821E+02 -0.16527876225E+02  0.15864207046E+02  0.34339526329E+02  0.00000000000E+00 0.  1.
         22    1    1    2    0    0  0.19473007039E+02  0.57977348742E+01  0.12096597357E+02  0.23646128657E+02  0.00000000000E+00 0.  1.
<mgrwt>
<rscale>  0 0.64843228E+02</rscale>
<asrwt>0</asrwt>
<pdfrwt beam="1">  1        2 0.30311389E-01 0.95468661E+02</pdfrwt>
<pdfrwt beam="2">  1       -2 0.28451291E-02 0.95468661E+02</pdfrwt>
<totfact> 0.69002934E+04</totfact>
</mgrwt>
</event>
<event>
 6    1  0.1683416E-002  0.9228133E+02  0.7546771E-02  0.1384305E+00
         -2   -1    0    0    0  501 -0.00000000000E+00  0.00000000000E+00  0.17400642439E+02  0.17400642439E+02  0.00000000000E+00 0.  1.
          2   -1    0    0  501    0  0.00000000000E+00 -0.00000000000E+00 -0.18667314568E+03  0.18667314568E+03  0.00000000000E+00 0. -1.
         23    2    1    2    0    0  0.20326299813E+02 -0.25777464937E+01 -0.12582778286E+03  0.15603997742E+03  0.89977999385E+02 0.  0.
         11    1    3    3    0    0 -0.17795476507E+02  0.10051606160E+02 -0.11156730259E+03  0.11342388098E+03  0.00000000000E+00 0. -1.
        -11    1    3    3    0    0  0.38121776321E+02 -0.12629352654E+02 -0.14260480276E+02  0.42616096442E+02  0.00000000000E+00 0.  1.
         22    1    1    2    0    0 -0.20326299813E+02  0.25777464937E+01 -0.43444720378E+02  0.48033810694E+02  0.00000000000E+00 0. -1.
<mgrwt>
<rscale>  0 0.63345549E+02</rscale>
<asrwt>0</asrwt>
<pdfrwt beam="1">  1        2 0.28718947E-01 0.92281329E+02</pdfrwt>
<pdfrwt beam="2">  1       -2 0.26770218E-02 0.92281329E+02</pdfrwt>
<totfact> 0.79484408E+04</totfact>
</mgrwt>
</event>
<event>
 6    1  0.1683416E-002  0.1935028E+03  0.7546771E-02  0.1160519E+00
          2   -1    0    0  501    0  0.00000000000E+00  0.00000000000E+00  0.60996220076E+03  0.60996220076E+03  0.00000000000E+00 0. -1.
         -2   -1    0    0    0  501 -0.00000000000E+00 -0.00000000000E+00 -0.54589560324E+02  0.54589560324E+02  0.00000000000E+00 0.  1.
         23    2    1    2    0    0 -0.10944825232E+03  0.13196818360E+03  0.29357243885E+03  0.35160788917E+03  0.89715157330E+02 0.  0.
         11    1    3    3    0    0 -0.77552374453E+02  0.24398377922E+02  0.12222406592E+03  0.14679364400E+03  0.00000000000E+00 0. -1.
        -11    1    3    3    0    0 -0.31895877867E+02  0.10756980568E+03  0.17134837294E+03  0.20481424518E+03  0.00000000000E+00 0.  1.
         22    1    1    2    0    0  0.10944825232E+03 -0.13196818360E+03  0.26180020158E+03  0.31294387191E+03  0.00000000000E+00 0. -1.
<mgrwt>
<rscale>  0 0.18773650E+03</rscale>
<asrwt>0</asrwt>
<pdfrwt beam="1">  1        2 0.93840334E-01 0.19350279E+03</pdfrwt>
<pdfrwt beam="2">  1       -2 0.83983943E-02 0.19350279E+03</pdfrwt>
<totfact> 0.42666805E+03</totfact>
</mgrwt>
</event>
<event>
 6    1  0.1683416E-002  0.9172912E+02  0.7546771E-02  0.1410469E+00
          2   -1    0    0  501    0  0.00000000000E+00  0.00000000000E+00  0.34763035796E+02  0.34763035796E+02  0.00000000000E+00 0. -1.
         -2   -1    0    0    0  501 -0.00000000000E+00 -0.00000000000E+00 -0.80118813306E+02  0.80118813306E+02  0.00000000000E+00 0.  1.
         23    2    1    2    0    0 -0.65030559181E+01 -0.12129053010E+02 -0.38137367043E+02  0.99341285636E+02  0.90690840792E+02 0.  0.
         11    1    3    3    0    0  0.13280595823E+02  0.26083259386E+02 -0.47037385385E+02  0.55400598097E+02  0.00000000000E+00 0.  1.
        -11    1    3    3    0    0 -0.19783651741E+02 -0.38212312396E+02  0.89000183425E+01  0.43940687538E+02  0.00000000000E+00 0. -1.
         22    1    1    2    0    0  0.65030559181E+01  0.12129053010E+02 -0.72184104670E+01  0.15540563466E+02  0.00000000000E+00 0.  1.
<mgrwt>
<rscale>  0 0.57089203E+02</rscale>
<asrwt>0</asrwt>
<pdfrwt beam="1">  1        2 0.53481594E-02 0.91729124E+02</pdfrwt>
<pdfrwt beam="2">  1       -2 0.12325971E-01 0.91729124E+02</pdfrwt>
<totfact> 0.58235851E+04</totfact>
</mgrwt>
</event>
<event>
 6    1  0.1683416E-002  0.9160827E+02  0.7546771E-02  0.1372205E+00
         -2   -1    0    0    0  501 -0.00000000000E+00  0.00000000000E+00  0.35370170609E+02  0.35370170609E+02  0.00000000000E+00 0.  1.
          2   -1    0    0  501    0  0.00000000000E+00 -0.00000000000E+00 -0.19781747172E+03  0.19781747172E+03  0.00000000000E+00 0. -1.
         23    2    1    2    0    0  0.59016368040E+01 -0.24835438105E+02 -0.27212404735E+02  0.95564586482E+02  0.87979809702E+02 0.  0.
         11    1    3    3    0    0  0.84967042589E+01 -0.49967097975E+02  0.89318537416E+01  0.51465356061E+02  0.00000000000E+00 0.  1.
        -11    1    3    3    0    0 -0.25950674549E+01  0.25131659869E+02 -0.36144258477E+02  0.44099230421E+02  0.00000000000E+00 0. -1.
         22    1    1    2    0    0 -0.59016368040E+01  0.24835438105E+02 -0.13523489638E+03  0.13762305585E+03  0.00000000000E+00 0. -1.
<mgrwt>
<rscale>  0 0.66558114E+02</rscale>
<asrwt>0</asrwt>
<pdfrwt beam="1">  1        2 0.30433457E-01 0.91608270E+02</pdfrwt>
<pdfrwt beam="2">  1       -2 0.54415647E-02 0.91608270E+02</pdfrwt>
<totfact> 0.26326754E+04</totfact>
</mgrwt>
</event>
<event>
 6    1  0.1683416E-002  0.9292249E+02  0.7546771E-02  0.1374192E+00
         -2   -1    0    0    0  501 -0.00000000000E+00  0.00000000000E+00  0.27492868967E+03  0.27492868967E+03  0.00000000000E+00 0. -1.
          2   -1    0    0  501    0  0.00000000000E+00 -0.00000000000E+00 -0.17481249334E+02  0.17481249334E+02  0.00000000000E+00 0.  1.
         23    2    1    2    0    0  0.95647503199E+00 -0.23651674631E+02  0.25133504543E+03  0.26796248661E+03  0.89856956386E+02 0.  0.
         11    1    3    3    0    0 -0.43827479101E+02 -0.19142943951E+02  0.13524575626E+03  0.14345283132E+03  0.00000000000E+00 0.  1.
        -11    1    3    3    0    0  0.44783954133E+02 -0.45087306801E+01  0.11608928917E+03  0.12450965529E+03  0.00000000000E+00 0. -1.
         22    1    1    2    0    0 -0.95647503199E+00  0.23651674631E+02  0.61123949126E+01  0.24447452401E+02  0.00000000000E+00 0. -1.
<mgrwt>
<rscale>  0 0.66015332E+02</rscale>
<asrwt>0</asrwt>
<pdfrwt beam="1">  1        2 0.26894232E-02 0.92922490E+02</pdfrwt>
<pdfrwt beam="2">  1       -2 0.42296718E-01 0.92922490E+02</pdfrwt>
<totfact> 0.17257077E+04</totfact>
</mgrwt>
</event>
<event>
 6    1  0.1683416E-002  0.9435942E+02  0.7546771E-02  0.1349196E+00
          1   -1    0    0  501    0  0.00000000000E+00  0.00000000000E+00  0.43543978306E+03  0.43543978306E+03  0.00000000000E+00 0. -1.
         -1   -1    0    0    0  501 -0.00000000000E+00 -0.00000000000E+00 -0.10157486978E+02  0.10157486978E+02  0.00000000000E+00 0.  1.
         23    2    1    2    0    0 -0.22248229994E+02  0.26201916926E+02  0.25542673262E+03  0.27229857809E+03  0.87875910859E+02 0.  0.
         13    1    3    3    0    0  0.15768379160E+02  0.14772686462E+02  0.21338604701E+03  0.21447722281E+03  0.00000000000E+00 0. -1.
        -13    1    3    3    0    0 -0.38016609154E+02  0.11429230465E+02  0.42040685608E+02  0.57821355285E+02  0.00000000000E+00 0.  1.
         22    1    1    2    0    0  0.22248229994E+02 -0.26201916926E+02  0.16985556347E+03  0.17329869194E+03  0.00000000000E+00 0. -1.
<mgrwt>
<rscale>  0 0.73306801E+02</rscale>
<asrwt>0</asrwt>
<pdfrwt beam="1">  1        1 0.66990721E-01 0.94359419E+02</pdfrwt>
<pdfrwt beam="2">  1       -1 0.15626906E-02 0.94359419E+02</pdfrwt>
<totfact> 0.47251239E+04</totfact>
</mgrwt>
</event>
<event>
 6    1  0.1683416E-002  0.9595090E+02  0.7546771E-02  0.1378865E+00
          2   -1    0    0  501    0  0.00000000000E+00  0.00000000000E+00  0.12800913929E+03  0.12800913929E+03  0.00000000000E+00 0. -1.
         -2   -1    0    0    0  501 -0.00000000000E+00 -0.00000000000E+00 -0.27007289455E+02  0.27007289455E+02  0.00000000000E+00 0.  1.
         23    2    1    2    0    0  0.18173788749E+02 -0.81414238365E+01  0.72567721217E+02  0.12030232426E+03  0.93861630505E+02 0.  0.
         11    1    3    3    0    0  0.50408725907E+02 -0.87825827994E+01  0.13357115263E+02  0.52882756512E+02  0.00000000000E+00 0.  1.
        -11    1    3    3    0    0 -0.32234937158E+02  0.64115896290E+00  0.59210605953E+02  0.67419567751E+02  0.00000000000E+00 0. -1.
         22    1    1    2    0    0 -0.18173788749E+02  0.81414238365E+01  0.28434128616E+02  0.34714104479E+02  0.00000000000E+00 0. -1.
<mgrwt>
<rscale>  0 0.64762959E+02</rscale>
<asrwt>0</asrwt>
<pdfrwt beam="1">  1        2 0.19693713E-01 0.95950899E+02</pdfrwt>
<pdfrwt beam="2">  1       -2 0.41549677E-02 0.95950899E+02</pdfrwt>
<totfact> 0.63586972E+04</totfact>
</mgrwt>
</event>
<event>
 6    1  0.1683416E-002  0.9307712E+02  0.7546771E-02  0.1398091E+00
          1   -1    0    0  501    0  0.00000000000E+00  0.00000000000E+00  0.43925044159E+02  0.43925044159E+02  0.00000000000E+00 0. -1.
         -1   -1    0    0    0  501 -0.00000000000E+00 -0.00000000000E+00 -0.71066065390E+02  0.71066065390E+02  0.00000000000E+00 0.  1.
         23    2    1    2    0    0  0.13606845340E+02  0.84293326702E+01 -0.31735252574E+02  0.98338576678E+02  0.91690509420E+02 0.  0.
         13    1    3    3    0    0  0.42046401287E+02  0.29604040553E+02 -0.35788826125E+02  0.62650930988E+02  0.00000000000E+00 0.  1.
        -13    1    3    3    0    0 -0.28439555947E+02 -0.21174707882E+02  0.40535735506E+01  0.35687645690E+02  0.00000000000E+00 0. -1.
         22    1    1    2    0    0 -0.13606845340E+02 -0.84293326702E+01  0.45942313432E+01  0.16652532871E+02  0.00000000000E+00 0. -1.
<mgrwt>
<rscale>  0 0.59938318E+02</rscale>
<asrwt>0</asrwt>
<pdfrwt beam="1">  1        1 0.67576991E-02 0.93077115E+02</pdfrwt>
<pdfrwt beam="2">  1       -1 0.10933241E-01 0.93077115E+02</pdfrwt>
<totfact> 0.50078952E+04</totfact>
</mgrwt>
</event>
<event>
 6    1  0.1683416E-002  0.9541679E+02  0.7546771E-02  0.1336136E+00
          2   -1    0    0  501    0  0.00000000000E+00  0.00000000000E+00  0.32947000758E+03  0.32947000758E+03  0.00000000000E+00 0.  1.
         -2   -1    0    0    0  501 -0.00000000000E+00 -0.00000000000E+00 -0.15916511552E+02  0.15916511552E+02  0.00000000000E+00 0. -1.
         23    2    1    2    0    0  0.74845941266E+01  0.40967640626E+02  0.16004974215E+03  0.18633379459E+03  0.85848682684E+02 0.  0.
         11    1    3    3    0    0  0.13375955154E+02  0.42015633848E+02  0.24094891964E+02  0.50247323139E+02  0.00000000000E+00 0. -1.
        -11    1    3    3    0    0 -0.58913610269E+01 -0.10479932223E+01  0.13595485018E+03  0.13608647145E+03  0.00000000000E+00 0.  1.
         22    1    1    2    0    0 -0.74845941266E+01 -0.40967640626E+02  0.15350375388E+03  0.15905272454E+03  0.00000000000E+00 0.  1.
<mgrwt>
<rscale>  0 0.77555250E+02</rscale>
<asrwt>0</asrwt>
<pdfrwt beam="1">  1        2 0.50687688E-01 0.95416786E+02</pdfrwt>
<pdfrwt beam="2">  1       -2 0.24486943E-02 0.95416786E+02</pdfrwt>
<totfact> 0.49884913E+04</totfact>
</mgrwt>
</event>
<event>
 6    1  0.1683416E-002  0.9325435E+02  0.7546771E-02  0.1403003E+00
         -2   -1    0    0    0  501 -0.00000000000E+00  0.00000000000E+00  0.21812716973E+01  0.21812716973E+01  0.00000000000E+00 0.  1.
          2   -1    0    0  501    0  0.00000000000E+00 -0.00000000000E+00 -0.14929839204E+04  0.14929839204E+04  0.00000000000E+00 0. -1.
         23    2    1    2    0    0  0.31912999428E+01 -0.14374901537E+02 -0.14063524057E+04  0.14094408331E+04  0.92084475789E+02 0.  0.
         11    1    3    3    0    0 -0.17069536185E+01  0.11851435165E+02 -0.23905937548E+02  0.26736941788E+02  0.00000000000E+00 0.  1.
        -11    1    3    3    0    0  0.48982535613E+01 -0.26226336703E+02 -0.13824464682E+04  0.13827038913E+04  0.00000000000E+00 0. -1.
         22    1    1    2    0    0 -0.31912999428E+01  0.14374901537E+02 -0.84450242972E+02  0.85724359009E+02  0.00000000000E+00 0. -1.
<mgrwt>
<rscale>  0 0.58784763E+02</rscale>
<asrwt>0</asrwt>
<pdfrwt beam="1">  1        2 0.22968913E+00 0.93254345E+02</pdfrwt>
<pdfrwt beam="2">  1       -2 0.33558129E-03 0.93254345E+02</pdfrwt>
<totfact> 0.12692149E+05</totfact>
</mgrwt>
</event>
<event>
 6    1  0.1683416E-002  0.9909815E+02  0.7546771E-02  0.1331638E+00
          2   -1    0    0  501    0  0.00000000000E+00  0.00000000000E+00  0.10402431690E+02  0.10402431690E+02  0.00000000000E+00 0. -1.
         -2   -1    0    0    0  501 -0.00000000000E+00 -0.00000000000E+00 -0.49200696308E+03  0.49200696308E+03  0.00000000000E+00 0.  1.
         23    2    1    2    0    0 -0.33299413967E+02  0.22550873465E+02 -0.28510458632E+03  0.30183616307E+03  0.90570697956E+02 0.  0.
         11    1    3    3    0    0  0.26284490734E+02  0.26508220036E+02 -0.81251628452E+02  0.89416929654E+02  0.00000000000E+00 0. -1.
        -11    1    3    3    0    0 -0.59583904701E+02 -0.39573465714E+01 -0.20385295787E+03  0.21241923341E+03  0.00000000000E+00 0.  1.
         22    1    1    2    0    0  0.33299413967E+02 -0.22550873465E+02 -0.19649994507E+03  0.20057323170E+03  0.00000000000E+00 0.  1.
<mgrwt>
<rscale>  0 0.79095380E+02</rscale>
<asrwt>0</asrwt>
<pdfrwt beam="1">  1        2 0.16003747E-02 0.99098154E+02</pdfrwt>
<pdfrwt beam="2">  1       -2 0.75693350E-01 0.99098154E+02</pdfrwt>
<totfact> 0.10823806E+04</totfact>
</mgrwt>
</event>
<event>
 6    1  0.1683416E-002  0.9636685E+02  0.7546771E-02  0.1352226E+00
         -2   -1    0    0    0  501 -0.00000000000E+00  0.00000000000E+00  0.16049192599E+02  0.16049192599E+02  0.00000000000E+00 0.  1.
          2   -1    0    0  501    0  0.00000000000E+00 -0.00000000000E+00 -0.41484988732E+03  0.41484988732E+03  0.00000000000E+00 0. -1.
         23    2    1    2    0    0  0.15825621290E+02  0.26242702279E+02 -0.38572543132E+03  0.39758103338E+03  0.91364325767E+02 0.  0.
         11    1    3    3    0    0 -0.21357089586E+02  0.48149989367E+02 -0.23264698464E+03  0.23853546113E+03  0.00000000000E+00 0.  1.
        -11    1    3    3    0    0  0.37182710876E+02 -0.21907287088E+02 -0.15307844668E+03  0.15904557226E+03  0.00000000000E+00 0. -1.
         22    1    1    2    0    0 -0.15825621290E+02 -0.26242702279E+02 -0.13075263396E+02  0.33318046536E+02  0.00000000000E+00 0. -1.
<mgrwt>
<rscale>  0 0.72366313E+02</rscale>
<asrwt>0</asrwt>
<pdfrwt beam="1">  1        2 0.63823065E-01 0.96366850E+02</pdfrwt>
<pdfrwt beam="2">  1       -2 0.24691063E-02 0.96366850E+02</pdfrwt>
<totfact> 0.38729716E+04</totfact>
</mgrwt>
</event>
<event>
 6    1  0.1683416E-002  0.1322261E+03  0.7546771E-02  0.1239729E+00
         -2   -1    0    0    0  501 -0.00000000000E+00  0.00000000000E+00  0.39305334362E+02  0.39305334362E+02  0.00000000000E+00 0.  1.
          2   -1    0    0  501    0  0.00000000000E+00 -0.00000000000E+00 -0.34938369163E+03  0.34938369163E+03  0.00000000000E+00 0. -1.
         23    2    1    2    0    0 -0.89042210169E+01  0.95617894917E+02 -0.13478221859E+03  0.18881205580E+03  0.90893778581E+02 0.  0.
         11    1    3    3    0    0 -0.30043791080E+02 -0.30570738540E+01 -0.21324135675E+02  0.36968822612E+02  0.00000000000E+00 0. -1.
        -11    1    3    3    0    0  0.21139570063E+02  0.98674968771E+02 -0.11345808292E+03  0.15184323318E+03  0.00000000000E+00 0.  1.
         22    1    1    2    0    0  0.89042210169E+01 -0.95617894917E+02 -0.17529613867E+03  0.19987697019E+03  0.00000000000E+00 0. -1.
<mgrwt>
<rscale>  0 0.12206509E+03</rscale>
<asrwt>0</asrwt>
<pdfrwt beam="1">  1        2 0.53751334E-01 0.13222612E+03</pdfrwt>
<pdfrwt beam="2">  1       -2 0.60469748E-02 0.13222612E+03</pdfrwt>
<totfact> 0.12750603E+04</totfact>
</mgrwt>
</event>
<event>
 6    1  0.1683416E-002  0.9070450E+02  0.7546771E-02  0.1424754E+00
         -1   -1    0    0    0  501 -0.00000000000E+00  0.00000000000E+00  0.42289870629E+02  0.42289870629E+02  0.00000000000E+00 0.  1.
          1   -1    0    0  501    0  0.00000000000E+00 -0.00000000000E+00 -0.80112917266E+02  0.80112917266E+02  0.00000000000E+00 0. -1.
         23    2    1    2    0    0 -0.25170579595E+01 -0.11136698052E+02 -0.86990314092E+01  0.91120686186E+02  0.89983024395E+02 0.  0.
         13    1    3    3    0    0  0.32720503971E+02 -0.32390933505E+01  0.25326915807E+02  0.41503924756E+02  0.00000000000E+00 0. -1.
        -13    1    3    3    0    0 -0.35237561930E+02 -0.78976047017E+01 -0.34025947217E+02  0.49616761430E+02  0.00000000000E+00 0.  1.
         22    1    1    2    0    0  0.25170579595E+01  0.11136698052E+02 -0.29124015228E+02  0.31282101708E+02  0.00000000000E+00 0.  1.
<mgrwt>
<rscale>  0 0.54027559E+02</rscale>
<asrwt>0</asrwt>
<pdfrwt beam="1">  1        1 0.12325064E-01 0.90704500E+02</pdfrwt>
<pdfrwt beam="2">  1       -1 0.65061339E-02 0.90704500E+02</pdfrwt>
<totfact> 0.49218735E+04</totfact>
</mgrwt>
</event>
<event>
 6    1  0.1683416E-002  0.8963999E+02  0.7546771E-02  0.1432397E+00
          4   -1    0    0  501    0  0.00000000000E+00  0.00000000000E+00  0.68936423965E+01  0.68936423965E+01  0.00000000000E+00 0. -1.
         -4   -1    0    0    0  501 -0.00000000000E+00 -0.00000000000E+00 -0.37965972637E+03  0.37965972637E+03  0.00000000000E+00 0.  1.
         23    2    1    2    0    0 -0.10043540100E+02  0.31719111525E+01 -0.35243454563E+03  0.36365565775E+03  0.89019069570E+02 0.  0.
         13    1    3    3    0    0 -0.13663032472E+02  0.28925215526E+02 -0.45493171963E+02  0.55614523686E+02  0.00000000000E+00 0. -1.
        -13    1    3    3    0    0  0.36194923716E+01 -0.25753304374E+02 -0.30694137366E+03  0.30804113407E+03  0.00000000000E+00 0.  1.
         22    1    1    2    0    0  0.10043540100E+02 -0.31719111525E+01 -0.20331538351E+02  0.22897711017E+02  0.00000000000E+00 0. -1.
<mgrwt>
<rscale>  0 0.52481871E+02</rscale>
<asrwt>0</asrwt>
<pdfrwt beam="1">  1        4 0.10605604E-02 0.89639994E+02</pdfrwt>
<pdfrwt beam="2">  1       -4 0.58409189E-01 0.89639994E+02</pdfrwt>
<totfact> 0.10937363E+04</totfact>
</mgrwt>
</event>
<event>
 6    1  0.1683416E-002  0.9209114E+02  0.7546771E-02  0.1411455E+00
         -3   -1    0    0    0  501 -0.00000000000E+00  0.00000000000E+00  0.41840762852E+02  0.41840762852E+02  0.00000000000E+00 0.  1.
          3   -1    0    0  501    0  0.00000000000E+00 -0.00000000000E+00 -0.75885010173E+02  0.75885010173E+02  0.00000000000E+00 0. -1.
         23    2    1    2    0    0 -0.79903497736E+01 -0.10748875969E+02 -0.13318764706E+02  0.93049272996E+02  0.91111984325E+02 0.  0.
         13    1    3    3    0    0  0.84183493160E+01 -0.41082504889E+02  0.18767450883E+02  0.45944074980E+02  0.00000000000E+00 0.  1.
        -13    1    3    3    0    0 -0.16408699090E+02  0.30333628920E+02 -0.32086215589E+02  0.47105198016E+02  0.00000000000E+00 0. -1.
         22    1    1    2    0    0  0.79903497736E+01  0.10748875969E+02 -0.20725482615E+02  0.24676500030E+02  0.00000000000E+00 0.  1.
<mgrwt>
<rscale>  0 0.56870409E+02</rscale>
<asrwt>0</asrwt>
<pdfrwt beam="1">  1        3 0.11674617E-01 0.92091138E+02</pdfrwt>
<pdfrwt beam="2">  1       -3 0.64370405E-02 0.92091138E+02</pdfrwt>
<totfact> 0.17736809E+04</totfact>
</mgrwt>
</event>
<event>
 6    1  0.1683416E-002  0.8782352E+02  0.7546771E-02  0.1363743E+00
         -2   -1    0    0    0  501 -0.00000000000E+00  0.00000000000E+00  0.34972586660E+02  0.34972586660E+02  0.00000000000E+00 0.  1.
          2   -1    0    0  501    0  0.00000000000E+00 -0.00000000000E+00 -0.10502019836E+03  0.10502019836E+03  0.00000000000E+00 0. -1.
         23    2    1    2    0    0 -0.14603106976E+02 -0.29974380011E+02 -0.52403583420E+02  0.10226976918E+03  0.81248113464E+02 0.  0.
         13    1    3    3    0    0 -0.24995019188E+02 -0.43600261959E+02 -0.64151392643E+02  0.81493159254E+02  0.00000000000E+00 0. -1.
        -13    1    3    3    0    0  0.10391912211E+02  0.13625881949E+02  0.11747809223E+02  0.20776609921E+02  0.00000000000E+00 0.  1.
         22    1    1    2    0    0  0.14603106976E+02  0.29974380011E+02 -0.17644028275E+02  0.37723015841E+02  0.00000000000E+00 0. -1.
<mgrwt>
<rscale>  0 0.68937775E+02</rscale>
<asrwt>0</asrwt>
<pdfrwt beam="1">  1        2 0.16156953E-01 0.87823517E+02</pdfrwt>
<pdfrwt beam="2">  1       -2 0.53803980E-02 0.87823517E+02</pdfrwt>
<totfact> 0.53580741E+04</totfact>
</mgrwt>
</event>
<event>
 6    1  0.1683416E-002  0.9315904E+02  0.7546771E-02  0.1417188E+00
          2   -1    0    0  501    0  0.00000000000E+00  0.00000000000E+00  0.19566377713E+03  0.19566377713E+03  0.00000000000E+00 0.  1.
         -2   -1    0    0    0  501 -0.00000000000E+00 -0.00000000000E+00 -0.16795954405E+02  0.16795954405E+02  0.00000000000E+00 0. -1.
         23    2    1    2    0    0 -0.56921672816E+01  0.10379001159E+02  0.11744383670E+03  0.14990551111E+03  0.92403912525E+02 0.  0.
         11    1    3    3    0    0  0.98040070196E+01  0.20530144697E+02  0.12702715010E+03  0.12904844927E+03  0.00000000000E+00 0.  1.
        -11    1    3    3    0    0 -0.15496174301E+02 -0.10151143538E+02 -0.95833134023E+01  0.20857061847E+02  0.00000000000E+00 0. -1.
         22    1    1    2    0    0  0.56921672816E+01 -0.10379001159E+02  0.61423986026E+02  0.62554220423E+02  0.00000000000E+00 0.  1.
<mgrwt>
<rscale>  0 0.55620258E+02</rscale>
<asrwt>0</asrwt>
<pdfrwt beam="1">  1        2 0.30102118E-01 0.93159044E+02</pdfrwt>
<pdfrwt beam="2">  1       -2 0.25839931E-02 0.93159044E+02</pdfrwt>
<totfact> 0.79657862E+04</totfact>
</mgrwt>
</event>
<event>
 6    1  0.1683416E-002  0.9636907E+02  0.7546771E-02  0.1392844E+00
          2   -1    0    0  501    0  0.00000000000E+00  0.00000000000E+00  0.17089298694E+02  0.17089298694E+02  0.00000000000E+00 0. -1.
         -2   -1    0    0    0  501 -0.00000000000E+00 -0.00000000000E+00 -0.25722814610E+03  0.25722814610E+03  0.00000000000E+00 0.  1.
         23    2    1    2    0    0 -0.14878977991E+01  0.15608644661E+02 -0.24001328890E+03  0.25863754069E+03  0.95084988170E+02 0.  0.
         13    1    3    3    0    0 -0.29166417533E+02 -0.95449468012E+01 -0.22808564294E+02  0.38236324697E+02  0.00000000000E+00 0. -1.
        -13    1    3    3    0    0  0.27678519734E+02  0.25153591462E+02 -0.21720472461E+03  0.22040121599E+03  0.00000000000E+00 0.  1.
         22    1    1    2    0    0  0.14878977991E+01 -0.15608644661E+02 -0.12555850919E+00  0.15679904112E+02  0.00000000000E+00 0. -1.
<mgrwt>
<rscale>  0 0.61204822E+02</rscale>
<asrwt>0</asrwt>
<pdfrwt beam="1">  1        2 0.26291228E-02 0.96369075E+02</pdfrwt>
<pdfrwt beam="2">  1       -2 0.39573562E-01 0.96369075E+02</pdfrwt>
<totfact> 0.20258956E+04</totfact>
</mgrwt>
</event>
<event>
 6    1  0.1683416E-002  0.1007936E+03  0.7546771E-02  0.1364709E+00
         -2   -1    0    0    0  501 -0.00000000000E+00  0.00000000000E+00  0.87857489281E+01  0.87857489281E+01  0.00000000000E+00 0.  1.
          2   -1    0    0  501    0  0.00000000000E+00 -0.00000000000E+00 -0.43554071502E+03  0.43554071502E+03  0.00000000000E+00 0. -1.
         23    2    1    2    0    0  0.14078626799E+02  0.16517440210E+02 -0.32449238920E+03  0.33978619326E+03  0.98429227954E+02 0.  0.
         11    1    3    3    0    0 -0.18587238161E+02 -0.32889742931E+02 -0.17408070276E+03  0.17813284842E+03  0.00000000000E+00 0. -1.
        -11    1    3    3    0    0  0.32665864960E+02  0.49407183140E+02 -0.15041168644E+03  0.16165334484E+03  0.00000000000E+00 0.  1.
         22    1    1    2    0    0 -0.14078626799E+02 -0.16517440210E+02 -0.10226257689E+03  0.10454027069E+03  0.00000000000E+00 0. -1.
<mgrwt>
<rscale>  0 0.68660371E+02</rscale>
<asrwt>0</asrwt>
<pdfrwt beam="1">  1        2 0.67006275E-01 0.10079358E+03</pdfrwt>
<pdfrwt beam="2">  1       -2 0.13516535E-02 0.10079358E+03</pdfrwt>
<totfact> 0.87905919E+04</totfact>
</mgrwt>
</event>
<event>
 6    1  0.1683416E-002  0.9294376E+02  0.7546771E-02  0.1387422E+00
          2   -1    0    0  501    0  0.00000000000E+00  0.00000000000E+00  0.59165472250E+02  0.59165472250E+02  0.00000000000E+00 0. -1.
         -2   -1    0    0    0  501 -0.00000000000E+00 -0.00000000000E+00 -0.54942613344E+02  0.54942613344E+02  0.00000000000E+00 0.  1.
         23    2    1    2    0    0 -0.19068280875E+02  0.82925838880E-01 -0.46845772295E+01  0.93061740763E+02  0.90966675864E+02 0.  0.
         11    1    3    3    0    0  0.88178870405E+01 -0.13771495668E+02 -0.41640624476E+02  0.44736459756E+02  0.00000000000E+00 0.  1.
        -11    1    3    3    0    0 -0.27886167915E+02  0.13854421507E+02  0.36956047246E+02  0.48325281007E+02  0.00000000000E+00 0. -1.
         22    1    1    2    0    0  0.19068280875E+02 -0.82925838880E-01  0.89074361361E+01  0.21046344831E+02  0.00000000000E+00 0. -1.
<mgrwt>
<rscale>  0 0.62552416E+02</rscale>
<asrwt>0</asrwt>
<pdfrwt beam="1">  1        2 0.91023803E-02 0.92943759E+02</pdfrwt>
<pdfrwt beam="2">  1       -2 0.84527097E-02 0.92943759E+02</pdfrwt>
<totfact> 0.53877346E+04</totfact>
</mgrwt>
</event>
<event>
 6    1  0.1683416E-002  0.9309150E+02  0.7546771E-02  0.1385669E+00
          2   -1    0    0  501    0  0.00000000000E+00  0.00000000000E+00  0.27417406892E+03  0.27417406892E+03  0.00000000000E+00 0.  1.
         -2   -1    0    0    0  501 -0.00000000000E+00 -0.00000000000E+00 -0.11608008277E+02  0.11608008277E+02  0.00000000000E+00 0. -1.
         23    2    1    2    0    0 -0.30985136952E+01 -0.19275356551E+02  0.22340647439E+03  0.24202578219E+03  0.91021350722E+02 0.  0.
         11    1    3    3    0    0  0.84608412876E+01  0.21303964490E+02  0.18013653528E+03  0.18158914086E+03  0.00000000000E+00 0.  1.
        -11    1    3    3    0    0 -0.11559354983E+02 -0.40579321041E+02  0.43269939115E+02  0.60436641326E+02  0.00000000000E+00 0. -1.
         22    1    1    2    0    0  0.30985136952E+01  0.19275356551E+02  0.39159586247E+02  0.43756295002E+02  0.00000000000E+00 0.  1.
<mgrwt>
<rscale>  0 0.62996742E+02</rscale>
<asrwt>0</asrwt>
<pdfrwt beam="1">  1        2 0.42180621E-01 0.93091495E+02</pdfrwt>
<pdfrwt beam="2">  1       -2 0.17858476E-02 0.93091495E+02</pdfrwt>
<totfact> 0.94918829E+04</totfact>
</mgrwt>
</event>
<event>
 6    1  0.1683416E-002  0.9408143E+02  0.7546771E-02  0.1382047E+00
         -2   -1    0    0    0  501 -0.00000000000E+00  0.00000000000E+00  0.10639036461E+03  0.10639036461E+03  0.00000000000E+00 0. -1.
          2   -1    0    0  501    0  0.00000000000E+00 -0.00000000000E+00 -0.32201165298E+02  0.32201165298E+02  0.00000000000E+00 0.  1.
         23    2    1    2    0    0  0.13443418321E+02  0.14885268459E+02  0.71887828618E+02  0.11840259680E+03  0.91918541716E+02 0.  0.
         11    1    3    3    0    0 -0.28870938983E+02  0.14022014400E+02  0.68858311171E+02  0.75971145989E+02  0.00000000000E+00 0. -1.
        -11    1    3    3    0    0  0.42314357303E+02  0.86325405925E+00  0.30295174474E+01  0.42431450806E+02  0.00000000000E+00 0.  1.
         22    1    1    2    0    0 -0.13443418321E+02 -0.14885268459E+02  0.23013706957E+01  0.20188933115E+02  0.00000000000E+00 0. -1.
<mgrwt>
<rscale>  0 0.63928753E+02</rscale>
<asrwt>0</asrwt>
<pdfrwt beam="1">  1        2 0.49540255E-02 0.94081428E+02</pdfrwt>
<pdfrwt beam="2">  1       -2 0.16367748E-01 0.94081428E+02</pdfrwt>
<totfact> 0.40861244E+04</totfact>
</mgrwt>
</event>
<event>
 6    1  0.1683416E-002  0.9480922E+02  0.7546771E-02  0.1372387E+00
         -2   -1    0    0    0  501 -0.00000000000E+00  0.00000000000E+00  0.12283199323E+03  0.12283199323E+03  0.00000000000E+00 0.  1.
          2   -1    0    0  501    0  0.00000000000E+00 -0.00000000000E+00 -0.32593336079E+02  0.32593336079E+02  0.00000000000E+00 0. -1.
         23    2    1    2    0    0 -0.21268304650E+02 -0.86457411001E+01  0.92371575146E+02  0.13236803196E+03  0.91987490282E+02 0.  0.
         11    1    3    3    0    0 -0.93424000548E-01 -0.98487590293E+01  0.10645453598E+03  0.10690919050E+03  0.00000000000E+00 0.  1.
        -11    1    3    3    0    0 -0.21174880650E+02  0.12030179292E+01 -0.14082960835E+02  0.25458841461E+02  0.00000000000E+00 0. -1.
         22    1    1    2    0    0  0.21268304650E+02  0.86457411001E+01 -0.21329179945E+01  0.23057297349E+02  0.00000000000E+00 0. -1.
<mgrwt>
<rscale>  0 0.66507938E+02</rscale>
<asrwt>0</asrwt>
<pdfrwt beam="1">  1        2 0.50143595E-02 0.94809219E+02</pdfrwt>
<pdfrwt beam="2">  1       -2 0.18897229E-01 0.94809219E+02</pdfrwt>
<totfact> 0.31769314E+04</totfact>
</mgrwt>
</event>
<event>
 6    1  0.1683416E-002  0.9777334E+02  0.7546771E-02  0.1348612E+00
         -3   -1    0    0    0  501 -0.00000000000E+00  0.00000000000E+00  0.15947063635E+02  0.15947063635E+02  0.00000000000E+00 0.  1.
          3   -1    0    0  501    0  0.00000000000E+00 -0.00000000000E+00 -0.26323960501E+03  0.26323960501E+03  0.00000000000E+00 0. -1.
         23    2    1    2    0    0  0.30586987729E+02 -0.61887521153E+01 -0.17533474644E+03  0.20075332929E+03  0.92659383977E+02 0.  0.
         11    1    3    3    0    0  0.31961925139E+02 -0.23933747516E+02 -0.17829424197E+03  0.18271077048E+03  0.00000000000E+00 0. -1.
        -11    1    3    3    0    0 -0.13749374104E+01  0.17744995401E+02  0.29594955270E+01  0.18042558811E+02  0.00000000000E+00 0.  1.
         22    1    1    2    0    0 -0.30586987729E+02  0.61887521153E+01 -0.71957794929E+02  0.78433339353E+02  0.00000000000E+00 0. -1.
<mgrwt>
<rscale>  0 0.73489899E+02</rscale>
<asrwt>0</asrwt>
<pdfrwt beam="1">  1        3 0.40498400E-01 0.97773339E+02</pdfrwt>
<pdfrwt beam="2">  1       -3 0.24533944E-02 0.97773339E+02</pdfrwt>
<totfact> 0.89007553E+03</totfact>
</mgrwt>
</event>
<event>
 6    1  0.1683416E-002  0.9223398E+02  0.7546771E-02  0.1406448E+00
          4   -1    0    0  501    0  0.00000000000E+00  0.00000000000E+00  0.20626253693E+02  0.20626253693E+02  0.00000000000E+00 0. -1.
         -4   -1    0    0    0  501 -0.00000000000E+00 -0.00000000000E+00 -0.13953392453E+03  0.13953392453E+03  0.00000000000E+00 0.  1.
         23    2    1    2    0    0  0.10721185590E+02 -0.96380135894E+01 -0.96279921228E+02  0.13333015439E+03  0.91100338704E+02 0.  0.
         11    1    3    3    0    0  0.18488621480E+02 -0.40434485813E+01  0.13428014846E+02  0.23205391256E+02  0.00000000000E+00 0. -1.
        -11    1    3    3    0    0 -0.77674358893E+01 -0.55945650081E+01 -0.10970793607E+03  0.11012476314E+03  0.00000000000E+00 0.  1.
         22    1    1    2    0    0 -0.10721185590E+02  0.96380135894E+01 -0.22627749610E+02  0.26830023832E+02  0.00000000000E+00 0. -1.
<mgrwt>
<rscale>  0 0.57994002E+02</rscale>
<asrwt>0</asrwt>
<pdfrwt beam="1">  1        4 0.31732697E-02 0.92233979E+02</pdfrwt>
<pdfrwt beam="2">  1       -4 0.21466758E-01 0.92233979E+02</pdfrwt>
<totfact> 0.14227721E+04</totfact>
</mgrwt>
</event>
<event>
 6    1  0.1683416E-002  0.9094058E+02  0.7546771E-02  0.1426791E+00
         -4   -1    0    0    0  501 -0.00000000000E+00  0.00000000000E+00  0.47891920844E+03  0.47891920844E+03  0.00000000000E+00 0.  1.
          4   -1    0    0  501    0  0.00000000000E+00 -0.00000000000E+00 -0.27565535781E+02  0.27565535781E+02  0.00000000000E+00 0. -1.
         23    2    1    2    0    0 -0.68659563074E+01  0.85714954935E+01  0.47329272353E+03  0.48195040411E+03  0.90275013086E+02 0.  0.
         11    1    3    3    0    0 -0.34573959504E+02 -0.51100010421E+01  0.78242293063E+02  0.85693215660E+02  0.00000000000E+00 0. -1.
        -11    1    3    3    0    0  0.27708003197E+02  0.13681496536E+02  0.39505043047E+03  0.39625718845E+03  0.00000000000E+00 0.  1.
         22    1    1    2    0    0  0.68659563074E+01 -0.85714954935E+01 -0.21939050875E+02  0.24534340103E+02  0.00000000000E+00 0. -1.
<mgrwt>
<rscale>  0 0.53609539E+02</rscale>
<asrwt>0</asrwt>
<pdfrwt beam="1">  1        4 0.42408520E-02 0.90940584E+02</pdfrwt>
<pdfrwt beam="2">  1       -4 0.73679872E-01 0.90940584E+02</pdfrwt>
<totfact> 0.80339170E+02</totfact>
</mgrwt>
</event>
<event>
 6    1  0.1683416E-002  0.9663912E+02  0.7546771E-02  0.1367711E+00
          1   -1    0    0  501    0  0.00000000000E+00  0.00000000000E+00  0.13807319393E+02  0.13807319393E+02  0.00000000000E+00 0. -1.
         -1   -1    0    0    0  501 -0.00000000000E+00 -0.00000000000E+00 -0.35083924098E+03  0.35083924098E+03  0.00000000000E+00 0.  1.
         23    2    1    2    0    0  0.16701894556E+02  0.16423335046E+02 -0.32343177681E+03  0.33756071252E+03  0.93757352642E+02 0.  0.
         11    1    3    3    0    0  0.26014264366E+02 -0.24538646731E+02 -0.53320518046E+02  0.64202529378E+02  0.00000000000E+00 0. -1.
        -11    1    3    3    0    0 -0.93123698096E+01  0.40961981777E+02 -0.27011125876E+03  0.27335818314E+03  0.00000000000E+00 0.  1.
         22    1    1    2    0    0 -0.16701894556E+02 -0.16423335046E+02 -0.13600144783E+02  0.27085847853E+02  0.00000000000E+00 0. -1.
<mgrwt>
<rscale>  0 0.67807784E+02</rscale>
<asrwt>0</asrwt>
<pdfrwt beam="1">  1        1 0.21242030E-02 0.96639125E+02</pdfrwt>
<pdfrwt beam="2">  1       -1 0.53975267E-01 0.96639125E+02</pdfrwt>
<totfact> 0.17725431E+04</totfact>
</mgrwt>
</event>
<event>
 6    1  0.1683416E-002  0.9790801E+02  0.7546771E-02  0.1335512E+00
          2   -1    0    0  501    0  0.00000000000E+00  0.00000000000E+00  0.44630923626E+02  0.44630923626E+02  0.00000000000E+00 0. -1.
         -2   -1    0    0    0  501 -0.00000000000E+00 -0.00000000000E+00 -0.10610105947E+03  0.10610105947E+03  0.00000000000E+00 0.  1.
         23    2    1    2    0    0  0.33955451039E+02  0.19119843281E+02 -0.36716460538E+02  0.10456613529E+03  0.89818912893E+02 0.  0.
         13    1    3    3    0    0 -0.14947373727E+02 -0.21285461092E+02  0.77013383148E+01  0.27125734038E+02  0.00000000000E+00 0. -1.
        -13    1    3    3    0    0  0.48902824766E+02  0.40405304374E+02 -0.44417798853E+02  0.77440401255E+02  0.00000000000E+00 0.  1.
         22    1    1    2    0    0 -0.33955451039E+02 -0.19119843281E+02 -0.24753675309E+02  0.46165847806E+02  0.00000000000E+00 0.  1.
<mgrwt>
<rscale>  0 0.77766398E+02</rscale>
<asrwt>0</asrwt>
<pdfrwt beam="1">  1        2 0.68662959E-02 0.97908009E+02</pdfrwt>
<pdfrwt beam="2">  1       -2 0.16323240E-01 0.97908009E+02</pdfrwt>
<totfact> 0.27194916E+04</totfact>
</mgrwt>
</event>
<event>
 6    1  0.1683416E-002  0.9322360E+02  0.7546771E-02  0.1378582E+00
          4   -1    0    0  501    0  0.00000000000E+00  0.00000000000E+00  0.19628928716E+03  0.19628928716E+03  0.00000000000E+00 0. -1.
         -4   -1    0    0    0  501 -0.00000000000E+00 -0.00000000000E+00 -0.17226642528E+02  0.17226642528E+02  0.00000000000E+00 0.  1.
         23    2    1    2    0    0 -0.45333136110E+01  0.21337976655E+02  0.15628739834E+03  0.18197909371E+03  0.90635420708E+02 0.  0.
         11    1    3    3    0    0 -0.38038507979E+02 -0.17131427273E+02  0.61115135052E+02  0.73996443307E+02  0.00000000000E+00 0.  1.
        -11    1    3    3    0    0  0.33505194368E+02  0.38469403929E+02  0.95172263287E+02  0.10798265040E+03  0.00000000000E+00 0. -1.
         22    1    1    2    0    0  0.45333136110E+01 -0.21337976655E+02  0.22775246297E+02  0.31536835984E+02  0.00000000000E+00 0. -1.
<mgrwt>
<rscale>  0 0.64837957E+02</rscale>
<asrwt>0</asrwt>
<pdfrwt beam="1">  1        4 0.30198350E-01 0.93223600E+02</pdfrwt>
<pdfrwt beam="2">  1       -4 0.26502528E-02 0.93223600E+02</pdfrwt>
<totfact> 0.10087337E+04</totfact>
</mgrwt>
</event>
<event>
 6    1  0.1683416E-002  0.8313673E+02  0.7546771E-02  0.1439159E+00
          2   -1    0    0  501    0  0.00000000000E+00  0.00000000000E+00  0.65106270237E+01  0.65106270237E+01  0.00000000000E+00 0. -1.
         -2   -1    0    0    0  501 -0.00000000000E+00 -0.00000000000E+00 -0.34731569822E+03  0.34731569822E+03  0.00000000000E+00 0.  1.
         23    2    1    2    0    0  0.50380850956E+01 -0.10809721386E+02 -0.29444304287E+03  0.30595493454E+03  0.82276874599E+02 0.  0.
         13    1    3    3    0    0  0.14377276970E+02  0.33993835032E+02 -0.14761943285E+03  0.15216367460E+03  0.00000000000E+00 0. -1.
        -13    1    3    3    0    0 -0.93391918747E+01 -0.44803556418E+02 -0.14682361002E+03  0.15379125994E+03  0.00000000000E+00 0.  1.
         22    1    1    2    0    0 -0.50380850956E+01  0.10809721386E+02 -0.46362028326E+02  0.47871390708E+02  0.00000000000E+00 0. -1.
<mgrwt>
<rscale>  0 0.51164593E+02</rscale>
<asrwt>0</asrwt>
<pdfrwt beam="1">  1        2 0.10016351E-02 0.83136734E+02</pdfrwt>
<pdfrwt beam="2">  1       -2 0.53433174E-01 0.83136734E+02</pdfrwt>
<totfact> 0.41061143E+04</totfact>
</mgrwt>
</event>
<event>
 6    1  0.1683416E-002  0.9454148E+02  0.7546771E-02  0.1415428E+00
         -2   -1    0    0    0  501 -0.00000000000E+00  0.00000000000E+00  0.51246234592E+02  0.51246234592E+02  0.00000000000E+00 0.  1.
          2   -1    0    0  501    0  0.00000000000E+00 -0.00000000000E+00 -0.87070724045E+02  0.87070724045E+02  0.00000000000E+00 0. -1.
         23    2    1    2    0    0 -0.14489492828E+00  0.11637218911E+02  0.61671198320E+01  0.94742412067E+02  0.93822414266E+02 0.  0.
         13    1    3    3    0    0 -0.30726162343E+02  0.41216797487E+02 -0.18724976201E+01  0.51443441708E+02  0.00000000000E+00 0. -1.
        -13    1    3    3    0    0  0.30581267415E+02 -0.29579578575E+02  0.80396174521E+01  0.43298970359E+02  0.00000000000E+00 0.  1.
         22    1    1    2    0    0  0.14489492828E+00 -0.11637218911E+02 -0.41991609285E+02  0.43574546571E+02  0.00000000000E+00 0. -1.
<mgrwt>
<rscale>  0 0.55999933E+02</rscale>
<asrwt>0</asrwt>
<pdfrwt beam="1">  1        2 0.13395496E-01 0.94541479E+02</pdfrwt>
<pdfrwt beam="2">  1       -2 0.78840362E-02 0.94541479E+02</pdfrwt>
<totfact> 0.37792620E+04</totfact>
</mgrwt>
</event>
<event>
 6    1  0.1683416E-002  0.9165642E+02  0.7546771E-02  0.1392455E+00
         -2   -1    0    0    0  501 -0.00000000000E+00  0.00000000000E+00  0.94779607792E+02  0.94779607792E+02  0.00000000000E+00 0.  1.
          2   -1    0    0  501    0  0.00000000000E+00 -0.00000000000E+00 -0.33394327688E+02  0.33394327688E+02  0.00000000000E+00 0. -1.
         23    2    1    2    0    0  0.49654743695E+01 -0.17653319639E+02  0.60481975276E+02  0.10981333664E+03  0.89803139933E+02 0.  0.
         11    1    3    3    0    0  0.28899076665E+02 -0.45675418846E+02  0.28962257964E+02  0.61320574893E+02  0.00000000000E+00 0. -1.
        -11    1    3    3    0    0 -0.23933602296E+02  0.28022099207E+02  0.31519717312E+02  0.48492761751E+02  0.00000000000E+00 0.  1.
         22    1    1    2    0    0 -0.49654743695E+01  0.17653319639E+02  0.90330482836E+00  0.18360598836E+02  0.00000000000E+00 0. -1.
<mgrwt>
<rscale>  0 0.61300261E+02</rscale>
<asrwt>0</asrwt>
<pdfrwt beam="1">  1        2 0.51375889E-02 0.91656421E+02</pdfrwt>
<pdfrwt beam="2">  1       -2 0.14581478E-01 0.91656421E+02</pdfrwt>
<totfact> 0.46868275E+04</totfact>
</mgrwt>
</event>
<event>
 6    1  0.1683416E-002  0.9317841E+02  0.7546771E-02  0.1402939E+00
          3   -1    0    0  501    0  0.00000000000E+00  0.00000000000E+00  0.22509246765E+03  0.22509246765E+03  0.00000000000E+00 0. -1.
         -3   -1    0    0    0  501 -0.00000000000E+00 -0.00000000000E+00 -0.14768190805E+02  0.14768190805E+02  0.00000000000E+00 0.  1.
         23    2    1    2    0    0 -0.71079557884E+01  0.12954024306E+02  0.14119082653E+03  0.16916579490E+03  0.91999385245E+02 0.  0.
         11    1    3    3    0    0 -0.81572225632E-01 -0.37838949034E+01 -0.13189543647E+02  0.13721828460E+02  0.00000000000E+00 0.  1.
        -11    1    3    3    0    0 -0.70263835628E+01  0.16737919209E+02  0.15438037018E+03  0.15544396644E+03  0.00000000000E+00 0. -1.
         22    1    1    2    0    0  0.71079557884E+01 -0.12954024306E+02  0.69133450314E+02  0.70694863559E+02  0.00000000000E+00 0.  1.
<mgrwt>
<rscale>  0 0.58799767E+02</rscale>
<asrwt>0</asrwt>
<pdfrwt beam="1">  1        3 0.34629608E-01 0.93178413E+02</pdfrwt>
<pdfrwt beam="2">  1       -3 0.22720295E-02 0.93178413E+02</pdfrwt>
<totfact> 0.13297820E+04</totfact>
</mgrwt>
</event>
<event>
 6    1  0.1683416E-002  0.9000610E+02  0.7546771E-02  0.1422833E+00
          2   -1    0    0  501    0  0.00000000000E+00  0.00000000000E+00  0.48598324590E+02  0.48598324590E+02  0.00000000000E+00 0. -1.
         -2   -1    0    0    0  501 -0.00000000000E+00 -0.00000000000E+00 -0.53625076293E+02  0.53625076293E+02  0.00000000000E+00 0.  1.
         23    2    1    2    0    0  0.10954406085E+02  0.49815854579E+01 -0.55600545402E+01  0.90177670591E+02  0.89197998073E+02 0.  0.
         11    1    3    3    0    0  0.21117363703E+02  0.39210504523E+02  0.17303681287E+02  0.47778908535E+02  0.00000000000E+00 0. -1.
        -11    1    3    3    0    0 -0.10162957618E+02 -0.34228919065E+02 -0.22863735827E+02  0.42398762056E+02  0.00000000000E+00 0.  1.
         22    1    1    2    0    0 -0.10954406085E+02 -0.49815854579E+01  0.53330283761E+00  0.12045730292E+02  0.00000000000E+00 0. -1.
<mgrwt>
<rscale>  0 0.54425914E+02</rscale>
<asrwt>0</asrwt>
<pdfrwt beam="1">  1        2 0.74766653E-02 0.90006100E+02</pdfrwt>
<pdfrwt beam="2">  1       -2 0.82500118E-02 0.90006100E+02</pdfrwt>
<totfact> 0.70988275E+04</totfact>
</mgrwt>
</event>
<event>
 6    1  0.1683416E-002  0.1185336E+03  0.7546771E-02  0.1367940E+00
         -4   -1    0    0    0  501 -0.00000000000E+00  0.00000000000E+00  0.13454592791E+03  0.13454592791E+03  0.00000000000E+00 0.  1.
          4   -1    0    0  501    0  0.00000000000E+00 -0.00000000000E+00 -0.41691783080E+02  0.41691783080E+02  0.00000000000E+00 0. -1.
         23    2    1    2    0    0  0.12500130789E+02 -0.19121772392E+01  0.10525913044E+03  0.15852349751E+03  0.11785713822E+03 0.  0.
         13    1    3    3    0    0  0.16146148244E+02 -0.58585701070E+02  0.44252613325E+02  0.75174970962E+02  0.00000000000E+00 0. -1.
        -13    1    3    3    0    0 -0.36460174549E+01  0.56673523831E+02  0.61006517117E+02  0.83348526546E+02  0.00000000000E+00 0.  1.
         22    1    1    2    0    0 -0.12500130789E+02  0.19121772392E+01 -0.12404985608E+02  0.17714213487E+02  0.00000000000E+00 0. -1.
<mgrwt>
<rscale>  0 0.67743161E+02</rscale>
<asrwt>0</asrwt>
<pdfrwt beam="1">  1        4 0.64141205E-02 0.11853360E+03</pdfrwt>
<pdfrwt beam="2">  1       -4 0.20699373E-01 0.11853360E+03</pdfrwt>
<totfact> 0.53219956E+03</totfact>
</mgrwt>
</event>
<event>
 6    1  0.1683416E-002  0.1499241E+03  0.7546771E-02  0.1211371E+00
         -2   -1    0    0    0  501 -0.00000000000E+00  0.00000000000E+00  0.29914390358E+03  0.29914390358E+03  0.00000000000E+00 0.  1.
          2   -1    0    0  501    0  0.00000000000E+00 -0.00000000000E+00 -0.61203907517E+02  0.61203907517E+02  0.00000000000E+00 0. -1.
         23    2    1    2    0    0  0.11810266090E+03  0.13260256839E+02  0.11164171212E+03  0.18692540929E+03  0.91395644482E+02 0.  0.
         13    1    3    3    0    0  0.10164589825E+03  0.33684580120E+02  0.46577647887E+02  0.11677335677E+03  0.00000000000E+00 0. -1.
        -13    1    3    3    0    0  0.16456762651E+02 -0.20424323281E+02  0.65064064233E+02  0.70152052521E+02  0.00000000000E+00 0.  1.
         22    1    1    2    0    0 -0.11810266090E+03 -0.13260256839E+02  0.12629828395E+03  0.17342240181E+03  0.00000000000E+00 0.  1.
<mgrwt>
<rscale>  0 0.14146486E+03</rscale>
<asrwt>0</asrwt>
<pdfrwt beam="1">  1        2 0.94159860E-02 0.14992410E+03</pdfrwt>
<pdfrwt beam="2">  1       -2 0.46022138E-01 0.14992410E+03</pdfrwt>
<totfact> 0.30224309E+03</totfact>
</mgrwt>
</event>
<event>
 6    1  0.1683416E-002  0.9234438E+02  0.7546771E-02  0.1427113E+00
          2   -1    0    0  501    0  0.00000000000E+00  0.00000000000E+00  0.11395363200E+03  0.11395363200E+03  0.00000000000E+00 0. -1.
         -2   -1    0    0    0  501 -0.00000000000E+00 -0.00000000000E+00 -0.24508732161E+02  0.24508732161E+02  0.00000000000E+00 0.  1.
         23    2    1    2    0    0 -0.98459386872E+01 -0.34648273716E+01  0.68222350410E+02  0.11481190663E+03  0.91752587267E+02 0.  0.
         13    1    3    3    0    0  0.17943390383E+01  0.19040332178E+02 -0.17193620507E+02  0.25717202184E+02  0.00000000000E+00 0.  1.
        -13    1    3    3    0    0 -0.11640277725E+02 -0.22505159550E+02  0.85415970917E+02  0.89094704442E+02  0.00000000000E+00 0. -1.
         22    1    1    2    0    0  0.98459386872E+01  0.34648273716E+01  0.21222549425E+02  0.23650457532E+02  0.00000000000E+00 0. -1.
<mgrwt>
<rscale>  0 0.53543904E+02</rscale>
<asrwt>0</asrwt>
<pdfrwt beam="1">  1        2 0.17531328E-01 0.92344382E+02</pdfrwt>
<pdfrwt beam="2">  1       -2 0.37705742E-02 0.92344382E+02</pdfrwt>
<totfact> 0.83172525E+04</totfact>
</mgrwt>
</event>
<event>
 6    1  0.1683416E-002  0.1051026E+03  0.7546771E-02  0.1347487E+00
         -2   -1    0    0    0  501 -0.00000000000E+00  0.00000000000E+00  0.15951990203E+03  0.15951990203E+03  0.00000000000E+00 0.  1.
          2   -1    0    0  501    0  0.00000000000E+00 -0.00000000000E+00 -0.68364524077E+02  0.68364524077E+02  0.00000000000E+00 0. -1.
         23    2    1    2    0    0  0.12790069387E+02  0.22189234919E+02  0.13861454079E+03  0.17395558263E+03  0.10193432095E+03 0.  0.
         13    1    3    3    0    0 -0.36755663332E+02  0.13720555665E+02  0.10846504684E+03  0.11534252824E+03  0.00000000000E+00 0. -1.
        -13    1    3    3    0    0  0.49545732720E+02  0.84686792542E+01  0.30149493946E+02  0.58613054384E+02  0.00000000000E+00 0.  1.
         22    1    1    2    0    0 -0.12790069387E+02 -0.22189234919E+02 -0.47459162840E+02  0.53928843476E+02  0.00000000000E+00 0. -1.
<mgrwt>
<rscale>  0 0.73844598E+02</rscale>
<asrwt>0</asrwt>
<pdfrwt beam="1">  1        2 0.10517619E-01 0.10510259E+03</pdfrwt>
<pdfrwt beam="2">  1       -2 0.24541523E-01 0.10510259E+03</pdfrwt>
<totfact> 0.81459029E+03</totfact>
</mgrwt>
</event>
<event>
 6    1  0.1683416E-002  0.9170519E+02  0.7546771E-02  0.1415245E+00
          2   -1    0    0  501    0  0.00000000000E+00  0.00000000000E+00  0.12069268026E+03  0.12069268026E+03  0.00000000000E+00 0.  1.
         -2   -1    0    0    0  501 -0.00000000000E+00 -0.00000000000E+00 -0.24241479145E+02  0.24241479145E+02  0.00000000000E+00 0. -1.
         23    2    1    2    0    0  0.12074307423E+02 -0.42126093712E+01  0.69375633021E+02  0.11499052293E+03  0.90809178667E+02 0.  0.
         13    1    3    3    0    0  0.34097288768E+01  0.18247691218E+02 -0.17092308742E+02  0.25233935562E+02  0.00000000000E+00 0. -1.
        -13    1    3    3    0    0  0.86645785460E+01 -0.22460300590E+02  0.86467941764E+02  0.89756587373E+02  0.00000000000E+00 0.  1.
         22    1    1    2    0    0 -0.12074307423E+02  0.42126093712E+01  0.27075568097E+02  0.29943636473E+02  0.00000000000E+00 0.  1.
<mgrwt>
<rscale>  0 0.56039825E+02</rscale>
<asrwt>0</asrwt>
<pdfrwt beam="1">  1        2 0.18568104E-01 0.91705190E+02</pdfrwt>
<pdfrwt beam="2">  1       -2 0.37294584E-02 0.91705190E+02</pdfrwt>
<totfact> 0.79119730E+04</totfact>
</mgrwt>
</event>
<event>
 6    1  0.1683416E-002  0.9189315E+02  0.7546771E-02  0.1397363E+00
          2   -1    0    0  501    0  0.00000000000E+00  0.00000000000E+00  0.26820861316E+03  0.26820861316E+03  0.00000000000E+00 0.  1.
         -2   -1    0    0    0  501 -0.00000000000E+00 -0.00000000000E+00 -0.11499612103E+02  0.11499612103E+02  0.00000000000E+00 0. -1.
         23    2    1    2    0    0  0.10182079940E+02  0.13395957704E+02  0.19215635439E+03  0.21299862606E+03  0.90339491556E+02 0.  0.
         11    1    3    3    0    0  0.71529003435E+01  0.40683610242E+02  0.37074767674E+02  0.55505481925E+02  0.00000000000E+00 0. -1.
        -11    1    3    3    0    0  0.30291795967E+01 -0.27287652537E+02  0.15508158672E+03  0.15749314413E+03  0.00000000000E+00 0.  1.
         22    1    1    2    0    0 -0.10182079940E+02 -0.13395957704E+02  0.64552646669E+02  0.66709599210E+02  0.00000000000E+00 0.  1.
<mgrwt>
<rscale>  0 0.60111822E+02</rscale>
<asrwt>0</asrwt>
<pdfrwt beam="1">  1        2 0.41262859E-01 0.91893145E+02</pdfrwt>
<pdfrwt beam="2">  1       -2 0.17691713E-02 0.91893145E+02</pdfrwt>
<totfact> 0.98257172E+04</totfact>
</mgrwt>
</event>
<event>
 6    1  0.1683416E-002  0.8976723E+02  0.7546771E-02  0.1407964E+00
         -2   -1    0    0    0  501 -0.00000000000E+00  0.00000000000E+00  0.10811265680E+02  0.10811265680E+02  0.00000000000E+00 0.  1.
          2   -1    0    0  501    0  0.00000000000E+00 -0.00000000000E+00 -0.25542522335E+03  0.25542522335E+03  0.00000000000E+00 0. -1.
         23    2    1    2    0    0 -0.10185485448E+02 -0.11377823423E+02 -0.21215645896E+03  0.23036605271E+03  0.88458782384E+02 0.  0.
         13    1    3    3    0    0 -0.20218828679E+02 -0.28467522260E+02 -0.20695171481E+03  0.20987666169E+03  0.00000000000E+00 0. -1.
        -13    1    3    3    0    0  0.10033343231E+02  0.17089698837E+02 -0.52047441497E+01  0.20489391021E+02  0.00000000000E+00 0.  1.
         22    1    1    2    0    0  0.10185485448E+02  0.11377823423E+02 -0.32457498708E+02  0.35870436323E+02  0.00000000000E+00 0.  1.
<mgrwt>
<rscale>  0 0.57650648E+02</rscale>
<asrwt>0</asrwt>
<pdfrwt beam="1">  1        2 0.39296185E-01 0.89767228E+02</pdfrwt>
<pdfrwt beam="2">  1       -2 0.16632718E-02 0.89767228E+02</pdfrwt>
<totfact> 0.11256104E+05</totfact>
</mgrwt>
</event>
<event>
 6    1  0.1683416E-002  0.9345549E+02  0.7546771E-02  0.1421502E+00
          4   -1    0    0  501    0  0.00000000000E+00  0.00000000000E+00  0.76569192400E+01  0.76569192400E+01  0.00000000000E+00 0. -1.
         -4   -1    0    0    0  501 -0.00000000000E+00 -0.00000000000E+00 -0.38023888860E+03  0.38023888860E+03  0.00000000000E+00 0.  1.
         23    2    1    2    0    0 -0.44316103856E+01  0.10036951167E+02 -0.35561808147E+03  0.36769300972E+03  0.92809212756E+02 0.  0.
         11    1    3    3    0    0  0.25314488199E+02  0.18782841678E-02 -0.24967853303E+02  0.35555829548E+02  0.00000000000E+00 0. -1.
        -11    1    3    3    0    0 -0.29746098584E+02  0.10035072883E+02 -0.33065022816E+03  0.33213718017E+03  0.00000000000E+00 0.  1.
         22    1    1    2    0    0  0.44316103856E+01 -0.10036951167E+02 -0.16963887889E+02  0.20202798114E+02  0.00000000000E+00 0. -1.
<mgrwt>
<rscale>  0 0.54704459E+02</rscale>
<asrwt>0</asrwt>
<pdfrwt beam="1">  1        4 0.11779876E-02 0.93455495E+02</pdfrwt>
<pdfrwt beam="2">  1       -4 0.58498288E-01 0.93455495E+02</pdfrwt>
<totfact> 0.94319184E+03</totfact>
</mgrwt>
</event>
<event>
 6    1  0.1683416E-002  0.9422642E+02  0.7546771E-02  0.1375140E+00
         -4   -1    0    0    0  501 -0.00000000000E+00  0.00000000000E+00  0.54239945200E+02  0.54239945200E+02  0.00000000000E+00 0. -1.
          4   -1    0    0  501    0  0.00000000000E+00 -0.00000000000E+00 -0.63149940333E+02  0.63149940333E+02  0.00000000000E+00 0.  1.
         23    2    1    2    0    0 -0.22348132392E+02 -0.35080005324E+00 -0.30148755997E+01  0.94274641291E+02  0.91537186070E+02 0.  0.
         11    1    3    3    0    0  0.22082981021E+02 -0.32327700430E+02  0.26552482725E+01  0.39240140280E+02  0.00000000000E+00 0. -1.
        -11    1    3    3    0    0 -0.44431113413E+02  0.31976900376E+02 -0.56701238722E+01  0.55034501011E+02  0.00000000000E+00 0.  1.
         22    1    1    2    0    0  0.22348132392E+02  0.35080005324E+00 -0.58951195328E+01  0.23115244242E+02  0.00000000000E+00 0. -1.
<mgrwt>
<rscale>  0 0.65758698E+02</rscale>
<asrwt>0</asrwt>
<pdfrwt beam="1">  1        4 0.97153754E-02 0.94226422E+02</pdfrwt>
<pdfrwt beam="2">  1       -4 0.83446070E-02 0.94226422E+02</pdfrwt>
<totfact> 0.12004877E+04</totfact>
</mgrwt>
</event>
<event>
 6    1  0.1683416E-002  0.9740106E+02  0.7546771E-02  0.1350310E+00
         -1   -1    0    0    0  501 -0.00000000000E+00  0.00000000000E+00  0.76610068597E+02  0.76610068597E+02  0.00000000000E+00 0.  1.
          1   -1    0    0  501    0  0.00000000000E+00 -0.00000000000E+00 -0.54530744214E+02  0.54530744214E+02  0.00000000000E+00 0. -1.
         23    2    1    2    0    0 -0.30395870755E+02 -0.40472506987E+01  0.24331238301E+02  0.10039410057E+03  0.92448239980E+02 0.  0.
         13    1    3    3    0    0  0.29946858251E+02  0.14020749889E+02  0.56899196420E+00  0.33071430244E+02  0.00000000000E+00 0. -1.
        -13    1    3    3    0    0 -0.60342729006E+02 -0.18068000588E+02  0.23762246337E+02  0.67322670328E+02  0.00000000000E+00 0.  1.
         22    1    1    2    0    0  0.30395870755E+02  0.40472506987E+01 -0.22519139184E+01  0.30746712238E+02  0.00000000000E+00 0. -1.
<mgrwt>
<rscale>  0 0.72959263E+02</rscale>
<asrwt>0</asrwt>
<pdfrwt beam="1">  1        1 0.83893453E-02 0.97401059E+02</pdfrwt>
<pdfrwt beam="2">  1       -1 0.11786164E-01 0.97401059E+02</pdfrwt>
<totfact> 0.33699687E+04</totfact>
</mgrwt>
</event>
<event>
 6    1  0.1683416E-002  0.9213448E+02  0.7546771E-02  0.1414431E+00
          4   -1    0    0  501    0  0.00000000000E+00  0.00000000000E+00  0.58795389061E+02  0.58795389061E+02  0.00000000000E+00 0. -1.
         -4   -1    0    0    0  501 -0.00000000000E+00 -0.00000000000E+00 -0.47320574283E+02  0.47320574283E+02  0.00000000000E+00 0.  1.
         23    2    1    2    0    0  0.12180649588E+02  0.38348731969E+01  0.13718796706E+02  0.93150241933E+02  0.91245206517E+02 0.  0.
         13    1    3    3    0    0 -0.19228078905E+02  0.27318902220E+02 -0.22084996341E+02  0.40047328253E+02  0.00000000000E+00 0.  1.
        -13    1    3    3    0    0  0.31408728493E+02 -0.23484029023E+02  0.35803793047E+02  0.53102913679E+02  0.00000000000E+00 0. -1.
         22    1    1    2    0    0 -0.12180649588E+02 -0.38348731969E+01 -0.22439819288E+01  0.12965721411E+02  0.00000000000E+00 0.  1.
<mgrwt>
<rscale>  0 0.56216640E+02</rscale>
<asrwt>0</asrwt>
<pdfrwt beam="1">  1        4 0.90454445E-02 0.92134479E+02</pdfrwt>
<pdfrwt beam="2">  1       -4 0.72800883E-02 0.92134479E+02</pdfrwt>
<totfact> 0.16796499E+04</totfact>
</mgrwt>
</event>
<event>
 6    1  0.1683416E-002  0.8785310E+02  0.7546771E-02  0.1408329E+00
          2   -1    0    0  501    0  0.00000000000E+00  0.00000000000E+00  0.95975476240E+02  0.95975476240E+02  0.00000000000E+00 0. -1.
         -2   -1    0    0    0  501 -0.00000000000E+00 -0.00000000000E+00 -0.31530114701E+02  0.31530114701E+02  0.00000000000E+00 0.  1.
         23    2    1    2    0    0  0.71024681044E+01 -0.14558040439E+02  0.36352146333E+02  0.95077048957E+02  0.86346888194E+02 0.  0.
         13    1    3    3    0    0 -0.66817406839E+01  0.18643768182E+02  0.52169078190E+02  0.55801867977E+02  0.00000000000E+00 0. -1.
        -13    1    3    3    0    0  0.13784208788E+02 -0.33201808621E+02 -0.15816931857E+02  0.39275180980E+02  0.00000000000E+00 0.  1.
         22    1    1    2    0    0 -0.71024681044E+01  0.14558040439E+02  0.28093215206E+02  0.32428541984E+02  0.00000000000E+00 0. -1.
<mgrwt>
<rscale>  0 0.57568442E+02</rscale>
<asrwt>0</asrwt>
<pdfrwt beam="1">  1        2 0.14765458E-01 0.87853097E+02</pdfrwt>
<pdfrwt beam="2">  1       -2 0.48507869E-02 0.87853097E+02</pdfrwt>
<totfact> 0.69329495E+04</totfact>
</mgrwt>
</event>
<event>
 6    1  0.1683416E-002  0.9341075E+02  0.7546771E-02  0.1365631E+00
          2   -1    0    0  501    0  0.00000000000E+00  0.00000000000E+00  0.30249255879E+02  0.30249255879E+02  0.00000000000E+00 0. -1.
         -2   -1    0    0    0  501 -0.00000000000E+00 -0.00000000000E+00 -0.16053379140E+03  0.16053379140E+03  0.00000000000E+00 0.  1.
         23    2    1    2    0    0  0.25304810363E+02  0.89792608148E+01 -0.13434394950E+03  0.16362721192E+03  0.89468470209E+02 0.  0.
         13    1    3    3    0    0 -0.25317026684E+02  0.19206233430E+02 -0.18446233920E+02  0.36743636028E+02  0.00000000000E+00 0. -1.
        -13    1    3    3    0    0  0.50621837047E+02 -0.10226972615E+02 -0.11589771558E+03  0.12688357589E+03  0.00000000000E+00 0.  1.
         22    1    1    2    0    0 -0.25304810363E+02 -0.89792608148E+01  0.40594139770E+01  0.27155835360E+02  0.00000000000E+00 0. -1.
<mgrwt>
<rscale>  0 0.68396924E+02</rscale>
<asrwt>0</asrwt>
<pdfrwt beam="1">  1        2 0.46537317E-02 0.93410747E+02</pdfrwt>
<pdfrwt beam="2">  1       -2 0.24697506E-01 0.93410747E+02</pdfrwt>
<totfact> 0.22181836E+04</totfact>
</mgrwt>
</event>
<event>
 6    1  0.1683416E-002  0.9107845E+02  0.7546771E-02  0.1418073E+00
         -2   -1    0    0    0  501 -0.00000000000E+00  0.00000000000E+00  0.65338401089E+01  0.65338401089E+01  0.00000000000E+00 0.  1.
          2   -1    0    0  501    0  0.00000000000E+00 -0.00000000000E+00 -0.41053776661E+03  0.41053776661E+03  0.00000000000E+00 0. -1.
         23    2    1    2    0    0 -0.87223082421E+01 -0.89477092161E+01 -0.35339509930E+03  0.36494298165E+03  0.90217201699E+02 0.  0.
         11    1    3    3    0    0  0.97747851298E+01  0.38015195785E+02 -0.18633748928E+03  0.19042678763E+03  0.00000000000E+00 0. -1.
        -11    1    3    3    0    0 -0.18497093372E+02 -0.46962905001E+02 -0.16705761003E+03  0.17451619403E+03  0.00000000000E+00 0.  1.
         22    1    1    2    0    0  0.87223082421E+01  0.89477092161E+01 -0.50608827199E+02  0.52128625071E+02  0.00000000000E+00 0. -1.
<mgrwt>
<rscale>  0 0.55430787E+02</rscale>
<asrwt>0</asrwt>
<pdfrwt beam="1">  1        2 0.63159664E-01 0.91078448E+02</pdfrwt>
<pdfrwt beam="2">  1       -2 0.10052061E-02 0.91078448E+02</pdfrwt>
<totfact> 0.14047996E+05</totfact>
</mgrwt>
</event>
<event>
 6    1  0.1683416E-002  0.9354792E+02  0.7546771E-02  0.1407314E+00
         -2   -1    0    0    0  501 -0.00000000000E+00  0.00000000000E+00  0.12924079039E+03  0.12924079039E+03  0.00000000000E+00 0.  1.
          2   -1    0    0  501    0  0.00000000000E+00 -0.00000000000E+00 -0.22222505905E+02  0.22222505905E+02  0.00000000000E+00 0. -1.
         23    2    1    2    0    0  0.37397452561E+01 -0.13108119737E+02  0.93841742212E+02  0.13250466333E+03  0.92549471771E+02 0.  0.
         13    1    3    3    0    0 -0.26523112291E+02  0.28772184854E+02  0.56606884193E+02  0.68816084202E+02  0.00000000000E+00 0. -1.
        -13    1    3    3    0    0  0.30262857547E+02 -0.41880304591E+02  0.37234858019E+02  0.63688579127E+02  0.00000000000E+00 0.  1.
         22    1    1    2    0    0 -0.37397452561E+01  0.13108119737E+02  0.13176542270E+02  0.18958632963E+02  0.00000000000E+00 0. -1.
<mgrwt>
<rscale>  0 0.57797466E+02</rscale>
<asrwt>0</asrwt>
<pdfrwt beam="1">  1        2 0.34188471E-02 0.93547919E+02</pdfrwt>
<pdfrwt beam="2">  1       -2 0.19883198E-01 0.93547919E+02</pdfrwt>
<totfact> 0.48044853E+04</totfact>
</mgrwt>
</event>
<event>
 6    1  0.1683416E-002  0.8642127E+02  0.7546771E-02  0.1414159E+00
         -1   -1    0    0    0  501 -0.00000000000E+00  0.00000000000E+00  0.55157465606E+01  0.55157465606E+01  0.00000000000E+00 0.  1.
          1   -1    0    0  501    0  0.00000000000E+00 -0.00000000000E+00 -0.48618487315E+03  0.48618487315E+03  0.00000000000E+00 0. -1.
         23    2    1    2    0    0  0.12720075326E+02 -0.89256797987E+01 -0.43373739476E+03  0.44226322972E+03  0.85012755966E+02 0.  0.
         13    1    3    3    0    0 -0.20170453560E+02 -0.32026199738E+02 -0.30651610576E+03  0.30884405086E+03  0.00000000000E+00 0. -1.
        -13    1    3    3    0    0  0.32890528886E+02  0.23100519939E+02 -0.12722128900E+03  0.13341917886E+03  0.00000000000E+00 0.  1.
         22    1    1    2    0    0 -0.12720075326E+02  0.89256797987E+01 -0.46931731833E+02  0.49437389990E+02  0.00000000000E+00 0.  1.
<mgrwt>
<rscale>  0 0.56275967E+02</rscale>
<asrwt>0</asrwt>
<pdfrwt beam="1">  1        1 0.74797694E-01 0.86421275E+02</pdfrwt>
<pdfrwt beam="2">  1       -1 0.84857616E-03 0.86421275E+02</pdfrwt>
<totfact> 0.96237570E+04</totfact>
</mgrwt>
</event>
<event>
 6    1  0.1683416E-002  0.9187817E+02  0.7546771E-02  0.1425617E+00
          3   -1    0    0  501    0  0.00000000000E+00  0.00000000000E+00  0.43495366552E+01  0.43495366552E+01  0.00000000000E+00 0. -1.
         -3   -1    0    0    0  501 -0.00000000000E+00 -0.00000000000E+00 -0.73942866928E+03  0.73942866928E+03  0.00000000000E+00 0.  1.
         23    2    1    2    0    0  0.97398111906E+01 -0.47625278361E+01 -0.71569236008E+03  0.72156576476E+03  0.91236248264E+02 0.  0.
         13    1    3    3    0    0  0.91386389520E+01  0.25259002912E+02 -0.63334754659E+03  0.63391690837E+03  0.00000000000E+00 0.  1.
        -13    1    3    3    0    0  0.60117223858E+00 -0.30021530748E+02 -0.82344813494E+02  0.87648856387E+02  0.00000000000E+00 0. -1.
         22    1    1    2    0    0 -0.97398111906E+01  0.47625278361E+01 -0.19386772539E+02  0.22212441174E+02  0.00000000000E+00 0.  1.
<mgrwt>
<rscale>  0 0.53849919E+02</rscale>
<asrwt>0</asrwt>
<pdfrwt beam="1">  1        3 0.66915999E-03 0.91878173E+02</pdfrwt>
<pdfrwt beam="2">  1       -3 0.11375817E+00 0.91878173E+02</pdfrwt>
<totfact> 0.69979704E+03</totfact>
</mgrwt>
</event>
<event>
 6    1  0.1683416E-002  0.8968233E+02  0.7546771E-02  0.1412143E+00
         -2   -1    0    0    0  501 -0.00000000000E+00  0.00000000000E+00  0.37729319693E+03  0.37729319693E+03  0.00000000000E+00 0.  1.
          2   -1    0    0  501    0  0.00000000000E+00 -0.00000000000E+00 -0.87172777363E+01  0.87172777363E+01  0.00000000000E+00 0. -1.
         23    2    1    2    0    0  0.12606596805E+02  0.68498568440E+01  0.35536673029E+03  0.36650843648E+03  0.88527251140E+02 0.  0.
         11    1    3    3    0    0  0.14403568903E+02 -0.32001887353E+02  0.27494538450E+03  0.27717602358E+03  0.00000000000E+00 0.  1.
        -11    1    3    3    0    0 -0.17969720982E+01  0.38851744197E+02  0.80421345786E+02  0.89332412897E+02  0.00000000000E+00 0. -1.
         22    1    1    2    0    0 -0.12606596805E+02 -0.68498568440E+01  0.13209188901E+02  0.19502038181E+02  0.00000000000E+00 0.  1.
<mgrwt>
<rscale>  0 0.56718299E+02</rscale>
<asrwt>0</asrwt>
<pdfrwt beam="1">  1        2 0.13411199E-02 0.89682334E+02</pdfrwt>
<pdfrwt beam="2">  1       -2 0.58045095E-01 0.89682334E+02</pdfrwt>
<totfact> 0.23634302E+04</totfact>
</mgrwt>
</event>
<event>
 6    1  0.1683416E-002  0.9310859E+02  0.7546771E-02  0.1381992E+00
         -2   -1    0    0    0  501 -0.00000000000E+00  0.00000000000E+00  0.33538218604E+03  0.33538218604E+03  0.00000000000E+00 0. -1.
          2   -1    0    0  501    0  0.00000000000E+00 -0.00000000000E+00 -0.19728034757E+02  0.19728034757E+02  0.00000000000E+00 0.  1.
         23    2    1    2    0    0 -0.70919576082E+01  0.19459023626E+02  0.32057495599E+03  0.33382257691E+03  0.90775883250E+02 0.  0.
         13    1    3    3    0    0  0.40099929214E+02 -0.43827214838E+00  0.10917511695E+03  0.11630736248E+03  0.00000000000E+00 0.  1.
        -13    1    3    3    0    0 -0.47191886822E+02  0.19897295775E+02  0.21139983904E+03  0.21751521443E+03  0.00000000000E+00 0. -1.
         22    1    1    2    0    0  0.70919576082E+01 -0.19459023626E+02 -0.49208047138E+01  0.21287643886E+02  0.00000000000E+00 0.  1.
<mgrwt>
<rscale>  0 0.63943013E+02</rscale>
<asrwt>0</asrwt>
<pdfrwt beam="1">  1        2 0.30350825E-02 0.93108595E+02</pdfrwt>
<pdfrwt beam="2">  1       -2 0.51597255E-01 0.93108595E+02</pdfrwt>
<totfact> 0.10000477E+04</totfact>
</mgrwt>
</event>
<event>
 6    1  0.1683416E-002  0.1124964E+03  0.7546771E-02  0.1288854E+00
         -2   -1    0    0    0  501 -0.00000000000E+00  0.00000000000E+00  0.56003149173E+02  0.56003149173E+02  0.00000000000E+00 0.  1.
          2   -1    0    0  501    0  0.00000000000E+00 -0.00000000000E+00 -0.13601156690E+03  0.13601156690E+03  0.00000000000E+00 0. -1.
         23    2    1    2    0    0  0.58751937832E+02  0.10895209191E+02 -0.37119014693E+02  0.11846203648E+03  0.95314936150E+02 0.  0.
         13    1    3    3    0    0 -0.24846983164E+02 -0.15805916238E+01 -0.20653105929E+02  0.32348440871E+02  0.00000000000E+00 0. -1.
        -13    1    3    3    0    0  0.83598920996E+02  0.12475800815E+02 -0.16465908764E+02  0.86113595611E+02  0.00000000000E+00 0.  1.
         22    1    1    2    0    0 -0.58751937832E+02 -0.10895209191E+02 -0.42889403034E+02  0.73552679590E+02  0.00000000000E+00 0. -1.
<mgrwt>
<rscale>  0 0.96038406E+02</rscale>
<asrwt>0</asrwt>
<pdfrwt beam="1">  1        2 0.20924856E-01 0.11249637E+03</pdfrwt>
<pdfrwt beam="2">  1       -2 0.86158693E-02 0.11249637E+03</pdfrwt>
<totfact> 0.20182999E+04</totfact>
</mgrwt>
</event>
<event>
 6    1  0.1683416E-002  0.1089982E+03  0.7546771E-02  0.1299680E+00
          4   -1    0    0  501    0  0.00000000000E+00  0.00000000000E+00  0.44557340086E+03  0.44557340086E+03  0.00000000000E+00 0. -1.
         -4   -1    0    0    0  501 -0.00000000000E+00 -0.00000000000E+00 -0.14881143012E+02  0.14881143012E+02  0.00000000000E+00 0.  1.
         23    2    1    2    0    0  0.47560748044E+02 -0.24953932174E+02  0.27910393112E+03  0.29963245495E+03  0.94846614101E+02 0.  0.
         11    1    3    3    0    0 -0.49663739432E+01  0.55122104251E+01 -0.51068491744E+01  0.90071772717E+01  0.00000000000E+00 0.  1.
        -11    1    3    3    0    0  0.52527121987E+02 -0.30466142599E+02  0.28421078030E+03  0.29062527768E+03  0.00000000000E+00 0. -1.
         22    1    1    2    0    0 -0.47560748044E+02  0.24953932174E+02  0.15158832672E+03  0.16082208892E+03  0.00000000000E+00 0. -1.
<mgrwt>
<rscale>  0 0.91322431E+02</rscale>
<asrwt>0</asrwt>
<pdfrwt beam="1">  1        4 0.68549744E-01 0.10899818E+03</pdfrwt>
<pdfrwt beam="2">  1       -4 0.22894070E-02 0.10899818E+03</pdfrwt>
<totfact> 0.25645110E+03</totfact>
</mgrwt>
</event>
<event>
 6    1  0.1683416E-002  0.9328404E+02  0.7546771E-02  0.1374626E+00
         -4   -1    0    0    0  501 -0.00000000000E+00  0.00000000000E+00  0.22823901907E+02  0.22823901907E+02  0.00000000000E+00 0.  1.
          4   -1    0    0  501    0  0.00000000000E+00 -0.00000000000E+00 -0.16933062608E+03  0.16933062608E+03  0.00000000000E+00 0. -1.
         23    2    1    2    0    0 -0.20349520947E+02  0.11205516879E+02 -0.84224317041E+02  0.12568073729E+03  0.90345146708E+02 0.  0.
         13    1    3    3    0    0  0.34011922556E+02  0.11050301298E+02 -0.49892811581E+02  0.61385769379E+02  0.00000000000E+00 0. -1.
        -13    1    3    3    0    0 -0.54361443503E+02  0.15521558038E+00 -0.34331505459E+02  0.64294967912E+02  0.00000000000E+00 0.  1.
         22    1    1    2    0    0  0.20349520947E+02 -0.11205516879E+02 -0.62282407131E+02  0.66473790695E+02  0.00000000000E+00 0.  1.
<mgrwt>
<rscale>  0 0.65897844E+02</rscale>
<asrwt>0</asrwt>
<pdfrwt beam="1">  1        4 0.26050866E-01 0.93284040E+02</pdfrwt>
<pdfrwt beam="2">  1       -4 0.35113695E-02 0.93284040E+02</pdfrwt>
<totfact> 0.85715578E+03</totfact>
</mgrwt>
</event>
<event>
 6    1  0.1683416E-002  0.9951823E+02  0.7546771E-02  0.1330844E+00
          2   -1    0    0  501    0  0.00000000000E+00  0.00000000000E+00  0.21929197393E+03  0.21929197393E+03  0.00000000000E+00 0. -1.
         -2   -1    0    0    0  501 -0.00000000000E+00 -0.00000000000E+00 -0.25585221219E+02  0.25585221219E+02  0.00000000000E+00 0.  1.
         23    2    1    2    0    0 -0.31951744407E+02 -0.24506413285E+02  0.92155583817E+02  0.13563380557E+03  0.91007688260E+02 0.  0.
         11    1    3    3    0    0  0.22662677495E+02 -0.31318984051E+02  0.61481763974E+02  0.72625636070E+02  0.00000000000E+00 0. -1.
        -11    1    3    3    0    0 -0.54614421902E+02  0.68125707662E+01  0.30673819844E+02  0.63008169502E+02  0.00000000000E+00 0.  1.
         22    1    1    2    0    0  0.31951744407E+02  0.24506413285E+02  0.10155116890E+03  0.10924338958E+03  0.00000000000E+00 0. -1.
<mgrwt>
<rscale>  0 0.79371733E+02</rscale>
<asrwt>0</asrwt>
<pdfrwt beam="1">  1        2 0.33737225E-01 0.99518227E+02</pdfrwt>
<pdfrwt beam="2">  1       -2 0.39361880E-02 0.99518227E+02</pdfrwt>
<totfact> 0.38496495E+04</totfact>
</mgrwt>
</event>
<event>
 6    1  0.1683416E-002  0.9370477E+02  0.7546771E-02  0.1388018E+00
          4   -1    0    0  501    0  0.00000000000E+00  0.00000000000E+00  0.19118895395E+03  0.19118895395E+03  0.00000000000E+00 0. -1.
         -4   -1    0    0    0  501 -0.00000000000E+00 -0.00000000000E+00 -0.16482763004E+02  0.16482763004E+02  0.00000000000E+00 0.  1.
         23    2    1    2    0    0  0.18055214071E+02 -0.36965603011E+01  0.14967681661E+03  0.17658916730E+03  0.91874530012E+02 0.  0.
         13    1    3    3    0    0 -0.35089859040E+02  0.78648117621E+01  0.83609908128E+02  0.91015219654E+02  0.00000000000E+00 0. -1.
        -13    1    3    3    0    0  0.53145073110E+02 -0.11561372063E+02  0.66066908483E+02  0.85573947650E+02  0.00000000000E+00 0.  1.
         22    1    1    2    0    0 -0.18055214071E+02  0.36965603011E+01  0.25029374337E+02  0.31082549652E+02  0.00000000000E+00 0. -1.
<mgrwt>
<rscale>  0 0.62402371E+02</rscale>
<asrwt>0</asrwt>
<pdfrwt beam="1">  1        4 0.29413684E-01 0.93704774E+02</pdfrwt>
<pdfrwt beam="2">  1       -4 0.25358098E-02 0.93704774E+02</pdfrwt>
<totfact> 0.11361790E+04</totfact>
</mgrwt>
</event>
<event>
 6    1  0.1683416E-002  0.1698577E+03  0.7546771E-02  0.1185213E+00
          2   -1    0    0  501    0  0.00000000000E+00  0.00000000000E+00  0.10389423640E+04  0.10389423640E+04  0.00000000000E+00 0. -1.
         -2   -1    0    0    0  501 -0.00000000000E+00 -0.00000000000E+00 -0.41268753818E+02  0.41268753818E+02  0.00000000000E+00 0.  1.
         23    2    1    2    0    0 -0.14294857172E+03 -0.21020485179E+02  0.17106616627E+03  0.24107106915E+03  0.89305499175E+02 0.  0.
         13    1    3    3    0    0 -0.56418467244E+02 -0.70517418583E+01  0.10042574029E+02  0.57737542401E+02  0.00000000000E+00 0. -1.
        -13    1    3    3    0    0 -0.86530104478E+02 -0.13968743321E+02  0.16102359224E+03  0.18333352675E+03  0.00000000000E+00 0.  1.
         22    1    1    2    0    0  0.14294857172E+03  0.21020485179E+02  0.82660744393E+03  0.83914004869E+03  0.00000000000E+00 0. -1.
<mgrwt>
<rscale>  0 0.16312487E+03</rscale>
<asrwt>0</asrwt>
<pdfrwt beam="1">  1        2 0.15983727E+00 0.16985767E+03</pdfrwt>
<pdfrwt beam="2">  1       -2 0.63490398E-02 0.16985767E+03</pdfrwt>
<totfact> 0.33351249E+03</totfact>
</mgrwt>
</event>
<event>
 6    1  0.1683416E-002  0.9112414E+02  0.7546771E-02  0.1427107E+00
         -4   -1    0    0    0  501 -0.00000000000E+00  0.00000000000E+00  0.35982025847E+03  0.35982025847E+03  0.00000000000E+00 0.  1.
          4   -1    0    0  501    0  0.00000000000E+00 -0.00000000000E+00 -0.10254951637E+02  0.10254951637E+02  0.00000000000E+00 0. -1.
         23    2    1    2    0    0  0.47012221297E+01 -0.97939141884E+01  0.34719742116E+03  0.35895634653E+03  0.90474235083E+02 0.  0.
         11    1    3    3    0    0 -0.11176591628E+02  0.10509065075E+02  0.55139858363E+01  0.16302168229E+02  0.00000000000E+00 0. -1.
        -11    1    3    3    0    0  0.15877813758E+02 -0.20302979264E+02  0.34168343532E+03  0.34265417830E+03  0.00000000000E+00 0.  1.
         22    1    1    2    0    0 -0.47012221297E+01  0.97939141884E+01  0.23678856796E+01  0.11118863577E+02  0.00000000000E+00 0. -1.
<mgrwt>
<rscale>  0 0.53545204E+02</rscale>
<asrwt>0</asrwt>
<pdfrwt beam="1">  1        4 0.15776851E-02 0.91124143E+02</pdfrwt>
<pdfrwt beam="2">  1       -4 0.55356953E-01 0.91124143E+02</pdfrwt>
<totfact> 0.67546802E+03</totfact>
</mgrwt>
</event>
<event>
 6    1  0.1683416E-002  0.9209205E+02  0.7546771E-02  0.1389817E+00
          2   -1    0    0  501    0  0.00000000000E+00  0.00000000000E+00  0.14803527794E+03  0.14803527794E+03  0.00000000000E+00 0. -1.
         -2   -1    0    0    0  501 -0.00000000000E+00 -0.00000000000E+00 -0.22302236553E+02  0.22302236553E+02  0.00000000000E+00 0.  1.
         23    2    1    2    0    0 -0.18744088486E+02  0.20948552478E+01  0.84453848870E+02  0.12495358555E+03  0.90139983807E+02 0.  0.
         13    1    3    3    0    0 -0.21910015086E+02  0.13572003951E+02  0.10118667282E+03  0.10441738748E+03  0.00000000000E+00 0. -1.
        -13    1    3    3    0    0  0.31659265992E+01 -0.11477148704E+02 -0.16732823951E+02  0.20536198065E+02  0.00000000000E+00 0.  1.
         22    1    1    2    0    0  0.18744088486E+02 -0.20948552478E+01  0.41279192521E+02  0.45383928950E+02  0.00000000000E+00 0.  1.
<mgrwt>
<rscale>  0 0.61952175E+02</rscale>
<asrwt>0</asrwt>
<pdfrwt beam="1">  1        2 0.22774658E-01 0.92092052E+02</pdfrwt>
<pdfrwt beam="2">  1       -2 0.34311134E-02 0.92092052E+02</pdfrwt>
<totfact> 0.71253407E+04</totfact>
</mgrwt>
</event>
<event>
 6    1  0.1683416E-002  0.9148935E+02  0.7546771E-02  0.1425082E+00
         -2   -1    0    0    0  501 -0.00000000000E+00  0.00000000000E+00  0.72339353394E+01  0.72339353394E+01  0.00000000000E+00 0.  1.
          2   -1    0    0  501    0  0.00000000000E+00 -0.00000000000E+00 -0.36521170733E+03  0.36521170733E+03  0.00000000000E+00 0. -1.
         23    2    1    2    0    0 -0.10652474305E+02 -0.30145804665E+01 -0.31077831741E+03  0.32396521964E+03  0.90817058206E+02 0.  0.
         11    1    3    3    0    0 -0.32694874281E+02  0.20268934357E+02 -0.60856174258E+02  0.71994850160E+02  0.00000000000E+00 0.  1.
        -11    1    3    3    0    0  0.22042399976E+02 -0.23283514823E+02 -0.24992214315E+03  0.25197036948E+03  0.00000000000E+00 0. -1.
         22    1    1    2    0    0  0.10652474305E+02  0.30145804665E+01 -0.47199454577E+02  0.48480423024E+02  0.00000000000E+00 0.  1.
<mgrwt>
<rscale>  0 0.53960105E+02</rscale>
<asrwt>0</asrwt>
<pdfrwt beam="1">  1        2 0.56186426E-01 0.91489349E+02</pdfrwt>
<pdfrwt beam="2">  1       -2 0.11129129E-02 0.91489349E+02</pdfrwt>
<totfact> 0.13762003E+05</totfact>
</mgrwt>
</event>
<event>
 6    1  0.1683416E-002  0.9782149E+02  0.7546771E-02  0.1348285E+00
          2   -1    0    0  501    0  0.00000000000E+00  0.00000000000E+00  0.10704198687E+02  0.10704198687E+02  0.00000000000E+00 0. -1.
         -2   -1    0    0    0  501 -0.00000000000E+00 -0.00000000000E+00 -0.38960644302E+03  0.38960644302E+03  0.00000000000E+00 0.  1.
         23    2    1    2    0    0 -0.28929969890E+02  0.12040216183E+02 -0.28754551828E+03  0.30372927001E+03  0.92666792406E+02 0.  0.
         13    1    3    3    0    0 -0.16556664870E+02  0.28936858638E+02 -0.28562342515E+02  0.43900710124E+02  0.00000000000E+00 0. -1.
        -13    1    3    3    0    0 -0.12373305020E+02 -0.16896642455E+02 -0.25898317577E+03  0.25982855989E+03  0.00000000000E+00 0.  1.
         22    1    1    2    0    0  0.28929969890E+02 -0.12040216183E+02 -0.91356726052E+02  0.96581371696E+02  0.00000000000E+00 0. -1.
<mgrwt>
<rscale>  0 0.73592689E+02</rscale>
<asrwt>0</asrwt>
<pdfrwt beam="1">  1        2 0.16467998E-02 0.97821492E+02</pdfrwt>
<pdfrwt beam="2">  1       -2 0.59939453E-01 0.97821492E+02</pdfrwt>
<totfact> 0.16943159E+04</totfact>
</mgrwt>
</event>
<event>
 6    1  0.1683416E-002  0.9322474E+02  0.7546771E-02  0.1412680E+00
          2   -1    0    0  501    0  0.00000000000E+00  0.00000000000E+00  0.27363859239E+01  0.27363859239E+01  0.00000000000E+00 0. -1.
         -2   -1    0    0    0  501 -0.00000000000E+00 -0.00000000000E+00 -0.14904734449E+04  0.14904734449E+04  0.00000000000E+00 0.  1.
         23    2    1    2    0    0  0.11945305443E+02 -0.42144403440E+01 -0.14568026592E+04  0.14597824630E+04  0.92360162529E+02 0.  0.
         11    1    3    3    0    0  0.28211229939E+02 -0.35615007124E+02 -0.43464372312E+03  0.43701197727E+03  0.00000000000E+00 0. -1.
        -11    1    3    3    0    0 -0.16265924496E+02  0.31400566780E+02 -0.10221589361E+04  0.10227704858E+04  0.00000000000E+00 0.  1.
         22    1    1    2    0    0 -0.11945305443E+02  0.42144403440E+01 -0.30934399759E+02  0.33427367799E+02  0.00000000000E+00 0.  1.
<mgrwt>
<rscale>  0 0.56600003E+02</rscale>
<asrwt>0</asrwt>
<pdfrwt beam="1">  1        2 0.42098229E-03 0.93224736E+02</pdfrwt>
<pdfrwt beam="2">  1       -2 0.22930369E+00 0.93224736E+02</pdfrwt>
<totfact> 0.42457913E+03</totfact>
</mgrwt>
</event>
<event>
 6    1  0.1683416E-002  0.9364189E+02  0.7546771E-02  0.1375676E+00
         -2   -1    0    0    0  501 -0.00000000000E+00  0.00000000000E+00  0.33555820763E+03  0.33555820763E+03  0.00000000000E+00 0.  1.
          2   -1    0    0  501    0  0.00000000000E+00 -0.00000000000E+00 -0.10593259457E+02  0.10593259457E+02  0.00000000000E+00 0. -1.
         23    2    1    2    0    0  0.50528121518E+01  0.21999887768E+02  0.28798154261E+03  0.30282366701E+03  0.90880572430E+02 0.  0.
         13    1    3    3    0    0  0.23132019684E+02  0.52281235671E+02  0.20076721863E+03  0.20874839883E+03  0.00000000000E+00 0.  1.
        -13    1    3    3    0    0 -0.18079207532E+02 -0.30281347903E+02  0.87214323978E+02  0.94075268178E+02  0.00000000000E+00 0. -1.
         22    1    1    2    0    0 -0.50528121518E+01 -0.21999887768E+02  0.36983405563E+02  0.43327800077E+02  0.00000000000E+00 0. -1.
<mgrwt>
<rscale>  0 0.65614290E+02</rscale>
<asrwt>0</asrwt>
<pdfrwt beam="1">  1        2 0.16297325E-02 0.93641895E+02</pdfrwt>
<pdfrwt beam="2">  1       -2 0.51624332E-01 0.93641895E+02</pdfrwt>
<totfact> 0.23060858E+04</totfact>
</mgrwt>
</event>
<event>
 6    1  0.1683416E-002  0.9216592E+02  0.7546771E-02  0.1425630E+00
          2   -1    0    0  501    0  0.00000000000E+00  0.00000000000E+00  0.25465375258E+02  0.25465375258E+02  0.00000000000E+00 0.  1.
         -2   -1    0    0    0  501 -0.00000000000E+00 -0.00000000000E+00 -0.10423103576E+03  0.10423103576E+03  0.00000000000E+00 0. -1.
         23    2    1    2    0    0  0.33513190743E+01 -0.10202231970E+02 -0.68431233073E+02  0.11479281189E+03  0.91538183971E+02 0.  0.
         13    1    3    3    0    0  0.41121407967E+01  0.34609401984E+02 -0.59704776648E+02  0.69133065622E+02  0.00000000000E+00 0. -1.
        -13    1    3    3    0    0 -0.76082172242E+00 -0.44811633955E+02 -0.87264564242E+01  0.45659746266E+02  0.00000000000E+00 0.  1.
         22    1    1    2    0    0 -0.33513190743E+01  0.10202231970E+02 -0.10334427427E+02  0.14903599127E+02  0.00000000000E+00 0.  1.
<mgrwt>
<rscale>  0 0.53847354E+02</rscale>
<asrwt>0</asrwt>
<pdfrwt beam="1">  1        2 0.39177501E-02 0.92165916E+02</pdfrwt>
<pdfrwt beam="2">  1       -2 0.16035544E-01 0.92165916E+02</pdfrwt>
<totfact> 0.57177897E+04</totfact>
</mgrwt>
</event>
<event>
 6    1  0.1683416E-002  0.9556456E+02  0.7546771E-02  0.1362487E+00
         -2   -1    0    0    0  501 -0.00000000000E+00  0.00000000000E+00  0.66936491577E+02  0.66936491577E+02  0.00000000000E+00 0. -1.
          2   -1    0    0  501    0  0.00000000000E+00 -0.00000000000E+00 -0.56020419398E+02  0.56020419398E+02  0.00000000000E+00 0.  1.
         23    2    1    2    0    0 -0.56491404634E+01  0.25816960741E+02  0.13011051832E+02  0.96446211443E+02  0.91837661023E+02 0.  0.
         13    1    3    3    0    0 -0.48730085398E+02  0.10713173929E+02  0.77517201872E+01  0.50492400264E+02  0.00000000000E+00 0. -1.
        -13    1    3    3    0    0  0.43080944935E+02  0.15103786812E+02  0.52593316449E+01  0.45953811179E+02  0.00000000000E+00 0.  1.
         22    1    1    2    0    0  0.56491404634E+01 -0.25816960741E+02 -0.20949796537E+01  0.26510699531E+02  0.00000000000E+00 0.  1.
<mgrwt>
<rscale>  0 0.69300738E+02</rscale>
<asrwt>0</asrwt>
<pdfrwt beam="1">  1        2 0.86185260E-02 0.95564555E+02</pdfrwt>
<pdfrwt beam="2">  1       -2 0.10297922E-01 0.95564555E+02</pdfrwt>
<totfact> 0.42604371E+04</totfact>
</mgrwt>
</event>
<event>
 6    1  0.1683416E-002  0.9254280E+02  0.7546771E-02  0.1371999E+00
         -2   -1    0    0    0  501 -0.00000000000E+00  0.00000000000E+00  0.72686083707E+01  0.72686083707E+01  0.00000000000E+00 0. -1.
          2   -1    0    0  501    0  0.00000000000E+00 -0.00000000000E+00 -0.47494027169E+03  0.47494027169E+03  0.00000000000E+00 0.  1.
         23    2    1    2    0    0 -0.44785248807E+01  0.24438687349E+02 -0.35944438524E+03  0.37116631910E+03  0.89145183429E+02 0.  0.
         13    1    3    3    0    0  0.20677077421E+02  0.45691364291E+02 -0.29005631796E+03  0.29436017035E+03  0.00000000000E+00 0.  1.
        -13    1    3    3    0    0 -0.25155602302E+02 -0.21252676942E+02 -0.69388067276E+02  0.76806148743E+02  0.00000000000E+00 0. -1.
         22    1    1    2    0    0  0.44785248807E+01 -0.24438687349E+02 -0.10822727808E+03  0.11104256097E+03  0.00000000000E+00 0.  1.
<mgrwt>
<rscale>  0 0.66614627E+02</rscale>
<asrwt>0</asrwt>
<pdfrwt beam="1">  1        2 0.73067731E-01 0.92542803E+02</pdfrwt>
<pdfrwt beam="2">  1       -2 0.11182475E-02 0.92542803E+02</pdfrwt>
<totfact> 0.10369065E+05</totfact>
</mgrwt>
</event>
<event>
 6    1  0.1683416E-002  0.9718300E+02  0.7546771E-02  0.1348573E+00
         -1   -1    0    0    0  501 -0.00000000000E+00  0.00000000000E+00  0.19769722726E+03  0.19769722726E+03  0.00000000000E+00 0.  1.
          1   -1    0    0  501    0  0.00000000000E+00 -0.00000000000E+00 -0.37832741610E+02  0.37832741610E+02  0.00000000000E+00 0. -1.
         23    2    1    2    0    0  0.29881503735E+02 -0.10878345239E+02  0.29821879898E+02  0.10165569214E+03  0.91832960109E+02 0.  0.
         11    1    3    3    0    0 -0.24787668800E+02 -0.25057524671E+02  0.28225442116E+02  0.45155106576E+02  0.00000000000E+00 0.  1.
        -11    1    3    3    0    0  0.54669172535E+02  0.14179179432E+02  0.15964377822E+01  0.56500585560E+02  0.00000000000E+00 0. -1.
         22    1    1    2    0    0 -0.29881503735E+02  0.10878345239E+02  0.13004260575E+03  0.13387427673E+03  0.00000000000E+00 0.  1.
<mgrwt>
<rscale>  0 0.73502083E+02</rscale>
<asrwt>0</asrwt>
<pdfrwt beam="1">  1        1 0.58204219E-02 0.97182999E+02</pdfrwt>
<pdfrwt beam="2">  1       -1 0.30414957E-01 0.97182999E+02</pdfrwt>
<totfact> 0.12182923E+04</totfact>
</mgrwt>
</event>
<event>
 6    1  0.1683416E-002  0.9699888E+02  0.7546771E-02  0.1366580E+00
          4   -1    0    0  501    0  0.00000000000E+00  0.00000000000E+00  0.12142578808E+03  0.12142578808E+03  0.00000000000E+00 0. -1.
         -4   -1    0    0    0  501 -0.00000000000E+00 -0.00000000000E+00 -0.30588820178E+02  0.30588820178E+02  0.00000000000E+00 0.  1.
         23    2    1    2    0    0  0.12047971816E+02 -0.20297376124E+02  0.81273333074E+02  0.12654697756E+03  0.94083185306E+02 0.  0.
         13    1    3    3    0    0  0.14537408604E+02 -0.53331240472E+02  0.74444500026E+02  0.92722926201E+02  0.00000000000E+00 0. -1.
        -13    1    3    3    0    0 -0.24894367879E+01  0.33033864348E+02  0.68288330481E+01  0.33824051355E+02  0.00000000000E+00 0.  1.
         22    1    1    2    0    0 -0.12047971816E+02  0.20297376124E+02  0.95636348276E+01  0.25467630701E+02  0.00000000000E+00 0.  1.
<mgrwt>
<rscale>  0 0.68127163E+02</rscale>
<asrwt>0</asrwt>
<pdfrwt beam="1">  1        4 0.18680890E-01 0.96998881E+02</pdfrwt>
<pdfrwt beam="2">  1       -4 0.47059724E-02 0.96998881E+02</pdfrwt>
<totfact> 0.99563598E+03</totfact>
</mgrwt>
</event>
<event>
 6    1  0.1683416E-002  0.8966575E+02  0.7546771E-02  0.1404306E+00
          4   -1    0    0  501    0  0.00000000000E+00  0.00000000000E+00  0.26296412296E+03  0.26296412296E+03  0.00000000000E+00 0. -1.
         -4   -1    0    0    0  501 -0.00000000000E+00 -0.00000000000E+00 -0.10789651383E+02  0.10789651383E+02  0.00000000000E+00 0.  1.
         23    2    1    2    0    0  0.11268395054E+01  0.16188971063E+02  0.20164320077E+03  0.22068059957E+03  0.88184999049E+02 0.  0.
         13    1    3    3    0    0 -0.39237640897E+01  0.39177600179E+02  0.19070326403E+03  0.19472548675E+03  0.00000000000E+00 0. -1.
        -13    1    3    3    0    0  0.50506035951E+01 -0.22988629115E+02  0.10939936743E+02  0.25955112815E+02  0.00000000000E+00 0.  1.
         22    1    1    2    0    0 -0.11268395054E+01 -0.16188971063E+02  0.50531270803E+02  0.53073174772E+02  0.00000000000E+00 0. -1.
<mgrwt>
<rscale>  0 0.58484008E+02</rscale>
<asrwt>0</asrwt>
<pdfrwt beam="1">  1        4 0.40456014E-01 0.89665749E+02</pdfrwt>
<pdfrwt beam="2">  1       -4 0.16599466E-02 0.89665749E+02</pdfrwt>
<totfact> 0.11659116E+04</totfact>
</mgrwt>
</event>
<event>
 6    1  0.1683416E-002  0.9147204E+02  0.7546771E-02  0.1411661E+00
          2   -1    0    0  501    0  0.00000000000E+00  0.00000000000E+00  0.15168987903E+02  0.15168987903E+02  0.00000000000E+00 0. -1.
         -2   -1    0    0    0  501 -0.00000000000E+00 -0.00000000000E+00 -0.21984834490E+03  0.21984834490E+03  0.00000000000E+00 0.  1.
         23    2    1    2    0    0 -0.31042517382E+01 -0.13265128021E+02 -0.20110815972E+03  0.22093353181E+03  0.90451830129E+02 0.  0.
         13    1    3    3    0    0  0.12241039542E+02  0.19077530449E+02 -0.72507499135E+01  0.23798499772E+02  0.00000000000E+00 0. -1.
        -13    1    3    3    0    0 -0.15345291280E+02 -0.32342658470E+02 -0.19385740980E+03  0.19713503204E+03  0.00000000000E+00 0.  1.
         22    1    1    2    0    0  0.31042517382E+01  0.13265128021E+02 -0.35711972766E+01  0.14083800988E+02  0.00000000000E+00 0. -1.
<mgrwt>
<rscale>  0 0.56824878E+02</rscale>
<asrwt>0</asrwt>
<pdfrwt beam="1">  1        2 0.23336904E-02 0.91472037E+02</pdfrwt>
<pdfrwt beam="2">  1       -2 0.33822823E-01 0.91472037E+02</pdfrwt>
<totfact> 0.31544893E+04</totfact>
</mgrwt>
</event>
<event>
 6    1  0.1683416E-002  0.8437790E+02  0.7546771E-02  0.1427132E+00
         -1   -1    0    0    0  501 -0.00000000000E+00  0.00000000000E+00  0.22049559805E+02  0.22049559805E+02  0.00000000000E+00 0.  1.
          1   -1    0    0  501    0  0.00000000000E+00 -0.00000000000E+00 -0.12930460105E+03  0.12930460105E+03  0.00000000000E+00 0. -1.
         23    2    1    2    0    0  0.12792515532E+02 -0.48418886599E+01 -0.63759770889E+02  0.10575886633E+03  0.83261858521E+02 0.  0.
         13    1    3    3    0    0  0.44938101361E+01 -0.15855596896E+02 -0.81578892492E+02  0.83226858541E+02  0.00000000000E+00 0. -1.
        -13    1    3    3    0    0  0.82987053955E+01  0.11013708236E+02  0.17819121603E+02  0.22532007790E+02  0.00000000000E+00 0.  1.
         22    1    1    2    0    0 -0.12792515532E+02  0.48418886599E+01 -0.43495270352E+02  0.45595294520E+02  0.00000000000E+00 0. -1.
<mgrwt>
<rscale>  0 0.53540019E+02</rscale>
<asrwt>0</asrwt>
<pdfrwt beam="1">  1        1 0.19893015E-01 0.84377897E+02</pdfrwt>
<pdfrwt beam="2">  1       -1 0.33922400E-02 0.84377897E+02</pdfrwt>
<totfact> 0.68455611E+04</totfact>
</mgrwt>
</event>
<event>
 6    1  0.1683416E-002  0.9236074E+02  0.7546771E-02  0.1422023E+00
          2   -1    0    0  501    0  0.00000000000E+00  0.00000000000E+00  0.18225886078E+03  0.18225886078E+03  0.00000000000E+00 0. -1.
         -2   -1    0    0    0  501 -0.00000000000E+00 -0.00000000000E+00 -0.15999355960E+02  0.15999355960E+02  0.00000000000E+00 0.  1.
         23    2    1    2    0    0 -0.10442854716E+02 -0.42536999519E+01  0.12459530498E+03  0.15509512225E+03  0.91669840973E+02 0.  0.
         13    1    3    3    0    0  0.38757242864E+00  0.24219800661E+02  0.12215534841E+03  0.12453384320E+03  0.00000000000E+00 0. -1.
        -13    1    3    3    0    0 -0.10830427144E+02 -0.28473500613E+02  0.24399565742E+01  0.30561279053E+02  0.00000000000E+00 0.  1.
         22    1    1    2    0    0  0.10442854716E+02  0.42536999519E+01  0.41664199831E+02  0.43163094485E+02  0.00000000000E+00 0.  1.
<mgrwt>
<rscale>  0 0.54595130E+02</rscale>
<asrwt>0</asrwt>
<pdfrwt beam="1">  1        2 0.28039823E-01 0.92360743E+02</pdfrwt>
<pdfrwt beam="2">  1       -2 0.24614395E-02 0.92360743E+02</pdfrwt>
<totfact> 0.92103995E+04</totfact>
</mgrwt>
</event>
<event>
 6    1  0.1683416E-002  0.9393542E+02  0.7546771E-02  0.1417856E+00
          2   -1    0    0  501    0  0.00000000000E+00  0.00000000000E+00  0.11064280962E+02  0.11064280962E+02  0.00000000000E+00 0. -1.
         -2   -1    0    0    0  501 -0.00000000000E+00 -0.00000000000E+00 -0.25085004525E+03  0.25085004525E+03  0.00000000000E+00 0.  1.
         23    2    1    2    0    0  0.10634515841E+02 -0.41837110834E+01 -0.21430826693E+03  0.23399123116E+03  0.93237688838E+02 0.  0.
         11    1    3    3    0    0  0.31355349735E+02  0.16579058626E+02 -0.19649984330E+03  0.19967526526E+03  0.00000000000E+00 0.  1.
        -11    1    3    3    0    0 -0.20720833895E+02 -0.20762769709E+02 -0.17808423636E+02  0.34315965901E+02  0.00000000000E+00 0. -1.
         22    1    1    2    0    0 -0.10634515841E+02  0.41837110834E+01 -0.25477497355E+02  0.27923095048E+02  0.00000000000E+00 0. -1.
<mgrwt>
<rscale>  0 0.55477058E+02</rscale>
<asrwt>0</asrwt>
<pdfrwt beam="1">  1        2 0.17021972E-02 0.93935419E+02</pdfrwt>
<pdfrwt beam="2">  1       -2 0.38592311E-01 0.93935419E+02</pdfrwt>
<totfact> 0.38012495E+04</totfact>
</mgrwt>
</event>
<event>
 6    1  0.1683416E-002  0.9254430E+02  0.7546771E-02  0.1349761E+00
         -4   -1    0    0    0  501 -0.00000000000E+00  0.00000000000E+00  0.13888939052E+03  0.13888939052E+03  0.00000000000E+00 0.  1.
          4   -1    0    0  501    0  0.00000000000E+00 -0.00000000000E+00 -0.34229006496E+02  0.34229006496E+02  0.00000000000E+00 0. -1.
         23    2    1    2    0    0 -0.26417047996E+02 -0.24583001873E+02  0.10077946405E+03  0.13682451398E+03  0.85218911313E+02 0.  0.
         13    1    3    3    0    0 -0.31609197686E+02 -0.16475114850E+02  0.11458054923E+03  0.11999697100E+03  0.00000000000E+00 0.  1.
        -13    1    3    3    0    0  0.51921496897E+01 -0.81078870230E+01 -0.13801085182E+02  0.16827542975E+02  0.00000000000E+00 0. -1.
         22    1    1    2    0    0  0.26417047996E+02  0.24583001873E+02  0.38809199720E+01  0.36293883035E+02  0.00000000000E+00 0. -1.
<mgrwt>
<rscale>  0 0.73130125E+02</rscale>
<asrwt>0</asrwt>
<pdfrwt beam="1">  1        4 0.52660011E-02 0.92544299E+02</pdfrwt>
<pdfrwt beam="2">  1       -4 0.21367598E-01 0.92544299E+02</pdfrwt>
<totfact> 0.64598018E+03</totfact>
</mgrwt>
</event>
<event>
 6    1  0.1683416E-002  0.9597636E+02  0.7546771E-02  0.1369667E+00
          2   -1    0    0  501    0  0.00000000000E+00  0.00000000000E+00  0.70386358898E+01  0.70386358898E+01  0.00000000000E+00 0. -1.
         -2   -1    0    0    0  501 -0.00000000000E+00 -0.00000000000E+00 -0.50853760684E+03  0.50853760684E+03  0.00000000000E+00 0.  1.
         23    2    1    2    0    0  0.44635943122E+01  0.22714416517E+02 -0.42193925323E+03  0.43271722345E+03  0.93142866953E+02 0.  0.
         11    1    3    3    0    0 -0.21768807751E+01  0.45507123241E+01  0.39388825556E+01  0.64002022118E+01  0.00000000000E+00 0. -1.
        -11    1    3    3    0    0  0.66404750873E+01  0.18163704193E+02 -0.42587813578E+03  0.42631702124E+03  0.00000000000E+00 0.  1.
         22    1    1    2    0    0 -0.44635943122E+01 -0.22714416517E+02 -0.79559717723E+02  0.82859019280E+02  0.00000000000E+00 0. -1.
<mgrwt>
<rscale>  0 0.67259786E+02</rscale>
<asrwt>0</asrwt>
<pdfrwt beam="1">  1        2 0.10828670E-02 0.95976362E+02</pdfrwt>
<pdfrwt beam="2">  1       -2 0.78236557E-01 0.95976362E+02</pdfrwt>
<totfact> 0.17111443E+04</totfact>
</mgrwt>
</event>
<event>
 6    1  0.1683416E-002  0.9190236E+02  0.7546771E-02  0.1373383E+00
         -2   -1    0    0    0  501 -0.00000000000E+00  0.00000000000E+00  0.18823141889E+02  0.18823141889E+02  0.00000000000E+00 0.  1.
          2   -1    0    0  501    0  0.00000000000E+00 -0.00000000000E+00 -0.19739915563E+03  0.19739915563E+03  0.00000000000E+00 0. -1.
         23    2    1    2    0    0 -0.10542057128E+02 -0.22443830724E+02 -0.16244774907E+03  0.18664221254E+03  0.88493976166E+02 0.  0.
         13    1    3    3    0    0  0.18232688672E+02 -0.30166383120E+02 -0.15045037494E+03  0.15452429235E+03  0.00000000000E+00 0. -1.
        -13    1    3    3    0    0 -0.28774745800E+02  0.77225523959E+01 -0.11997374133E+02  0.32117920192E+02  0.00000000000E+00 0.  1.
         22    1    1    2    0    0  0.10542057128E+02  0.22443830724E+02 -0.16128264670E+02  0.29580084979E+02  0.00000000000E+00 0. -1.
<mgrwt>
<rscale>  0 0.66235693E+02</rscale>
<asrwt>0</asrwt>
<pdfrwt beam="1">  1        2 0.30369101E-01 0.91902363E+02</pdfrwt>
<pdfrwt beam="2">  1       -2 0.28958679E-02 0.91902363E+02</pdfrwt>
<totfact> 0.66761770E+04</totfact>
</mgrwt>
</event>
<event>
 6    1  0.1683416E-002  0.9362160E+02  0.7546771E-02  0.1408204E+00
          2   -1    0    0  501    0  0.00000000000E+00  0.00000000000E+00  0.28866464955E+02  0.28866464955E+02  0.00000000000E+00 0. -1.
         -2   -1    0    0    0  501 -0.00000000000E+00 -0.00000000000E+00 -0.10195640978E+03  0.10195640978E+03  0.00000000000E+00 0.  1.
         23    2    1    2    0    0 -0.13274347213E+02 -0.19084147219E+01 -0.70418657855E+02  0.11714858811E+03  0.92656106010E+02 0.  0.
         13    1    3    3    0    0  0.93553605008E+00  0.40839765715E+02 -0.57033548791E+02  0.70154026107E+02  0.00000000000E+00 0.  1.
        -13    1    3    3    0    0 -0.14209883263E+02 -0.42748180437E+02 -0.13385109064E+02  0.46994562001E+02  0.00000000000E+00 0. -1.
         22    1    1    2    0    0  0.13274347213E+02  0.19084147219E+01 -0.26712869691E+01  0.13674286627E+02  0.00000000000E+00 0.  1.
<mgrwt>
<rscale>  0 0.57596482E+02</rscale>
<asrwt>0</asrwt>
<pdfrwt beam="1">  1        2 0.44409947E-02 0.93621602E+02</pdfrwt>
<pdfrwt beam="2">  1       -2 0.15685601E-01 0.93621602E+02</pdfrwt>
<totfact> 0.50434687E+04</totfact>
</mgrwt>
</event>
<event>
 6    1  0.1683416E-002  0.9409847E+02  0.7546771E-02  0.1356665E+00
         -2   -1    0    0    0  501 -0.00000000000E+00  0.00000000000E+00  0.33375746987E+02  0.33375746987E+02  0.00000000000E+00 0.  1.
          2   -1    0    0  501    0  0.00000000000E+00 -0.00000000000E+00 -0.14087001344E+03  0.14087001344E+03  0.00000000000E+00 0. -1.
         23    2    1    2    0    0 -0.28410068675E+02  0.11177772497E+02 -0.44177203219E+02  0.10395262352E+03  0.89008134750E+02 0.  0.
         13    1    3    3    0    0 -0.16215214222E+02 -0.21646663570E+02 -0.59782637358E+02  0.65616118031E+02  0.00000000000E+00 0. -1.
        -13    1    3    3    0    0 -0.12194854454E+02  0.32824436067E+02  0.15605434139E+02  0.38336505486E+02  0.00000000000E+00 0.  1.
         22    1    1    2    0    0  0.28410068675E+02 -0.11177772497E+02 -0.63317063236E+02  0.70293136912E+02  0.00000000000E+00 0. -1.
<mgrwt>
<rscale>  0 0.71017972E+02</rscale>
<asrwt>0</asrwt>
<pdfrwt beam="1">  1        2 0.21672310E-01 0.94098473E+02</pdfrwt>
<pdfrwt beam="2">  1       -2 0.51347302E-02 0.94098473E+02</pdfrwt>
<totfact> 0.41655098E+04</totfact>
</mgrwt>
</event>
<event>
 6    1  0.1683416E-002  0.9195630E+02  0.7546771E-02  0.1405941E+00
         -2   -1    0    0    0  501 -0.00000000000E+00  0.00000000000E+00  0.27768278928E+03  0.27768278928E+03  0.00000000000E+00 0.  1.
          2   -1    0    0  501    0  0.00000000000E+00 -0.00000000000E+00 -0.10455445522E+02  0.10455445522E+02  0.00000000000E+00 0. -1.
         23    2    1    2    0    0  0.11318831310E+02 -0.93222952966E+01  0.24302153496E+03  0.25983731058E+03  0.90779625396E+02 0.  0.
         13    1    3    3    0    0  0.22302157112E+02 -0.17356742511E+02  0.24451917879E+03  0.24614684950E+03  0.00000000000E+00 0.  1.
        -13    1    3    3    0    0 -0.10983325801E+02  0.80344472146E+01 -0.14976438319E+01  0.13690461086E+02  0.00000000000E+00 0. -1.
         22    1    1    2    0    0 -0.11318831310E+02  0.93222952966E+01  0.24205808805E+02  0.28300924221E+02  0.00000000000E+00 0. -1.
<mgrwt>
<rscale>  0 0.58109383E+02</rscale>
<asrwt>0</asrwt>
<pdfrwt beam="1">  1        2 0.16085303E-02 0.91956302E+02</pdfrwt>
<pdfrwt beam="2">  1       -2 0.42720424E-01 0.91956302E+02</pdfrwt>
<totfact> 0.33793117E+04</totfact>
</mgrwt>
</event>
<event>
 6    1  0.1683416E-002  0.1011593E+03  0.7546771E-02  0.1335220E+00
          2   -1    0    0  501    0  0.00000000000E+00  0.00000000000E+00  0.40309064626E+01  0.40309064626E+01  0.00000000000E+00 0. -1.
         -2   -1    0    0    0  501 -0.00000000000E+00 -0.00000000000E+00 -0.17473007430E+04  0.17473007430E+04  0.00000000000E+00 0.  1.
         23    2    1    2    0    0  0.24810070032E+02 -0.25406976147E+02 -0.16170612855E+04  0.16202223349E+04  0.94721483363E+02 0.  0.
         13    1    3    3    0    0 -0.90064807324E+01 -0.26122673457E+02 -0.14207335663E+04  0.14210022439E+04  0.00000000000E+00 0.  1.
        -13    1    3    3    0    0  0.33816550765E+02  0.71569731010E+00 -0.19632771925E+03  0.19922009104E+03  0.00000000000E+00 0. -1.
         22    1    1    2    0    0 -0.24810070032E+02  0.25406976147E+02 -0.12620855103E+03  0.13110931456E+03  0.00000000000E+00 0. -1.
<mgrwt>
<rscale>  0 0.77865706E+02</rscale>
<asrwt>0</asrwt>
<pdfrwt beam="1">  1        2 0.62013849E-03 0.10115935E+03</pdfrwt>
<pdfrwt beam="2">  1       -2 0.26881592E+00 0.10115935E+03</pdfrwt>
<totfact> 0.14907064E+03</totfact>
</mgrwt>
</event>
<event>
 6    1  0.1683416E-002  0.9595137E+02  0.7546771E-02  0.1357262E+00
          2   -1    0    0  501    0  0.00000000000E+00  0.00000000000E+00  0.40110240544E+03  0.40110240544E+03  0.00000000000E+00 0. -1.
         -2   -1    0    0    0  501 -0.00000000000E+00 -0.00000000000E+00 -0.99585197808E+01  0.99585197808E+01  0.00000000000E+00 0.  1.
         23    2    1    2    0    0 -0.24314333410E+02 -0.14880543936E+02  0.32869144146E+03  0.34241017735E+03  0.91619039866E+02 0.  0.
         11    1    3    3    0    0 -0.23620472098E+02  0.15481056631E+02  0.29763808414E+03  0.29897494703E+03  0.00000000000E+00 0. -1.
        -11    1    3    3    0    0 -0.69386131170E+00 -0.30361600567E+02  0.31053357315E+02  0.43435230322E+02  0.00000000000E+00 0.  1.
         22    1    1    2    0    0  0.24314333410E+02  0.14880543936E+02  0.62452444203E+02  0.68650747876E+02  0.00000000000E+00 0. -1.
<mgrwt>
<rscale>  0 0.70839283E+02</rscale>
<asrwt>0</asrwt>
<pdfrwt beam="1">  1        2 0.61708050E-01 0.95951372E+02</pdfrwt>
<pdfrwt beam="2">  1       -2 0.15320803E-02 0.95951372E+02</pdfrwt>
<totfact> 0.79664940E+04</totfact>
</mgrwt>
</event>
<event>
 6    1  0.1683416E-002  0.1300946E+03  0.7546771E-02  0.1245304E+00
         -2   -1    0    0    0  501 -0.00000000000E+00  0.00000000000E+00  0.77669426066E+02  0.77669426066E+02  0.00000000000E+00 0.  1.
          2   -1    0    0  501    0  0.00000000000E+00 -0.00000000000E+00 -0.22069951179E+03  0.22069951179E+03  0.00000000000E+00 0. -1.
         23    2    1    2    0    0  0.82439775627E+02 -0.36300090004E+02 -0.89922149681E+00  0.13009774096E+03  0.93864798850E+02 0.  0.
         11    1    3    3    0    0 -0.13351905191E+02 -0.13662560722E+02 -0.22304303984E+02  0.29367003830E+02  0.00000000000E+00 0. -1.
        -11    1    3    3    0    0  0.95791680819E+02 -0.22637529282E+02  0.21405082487E+02  0.10073073713E+03  0.00000000000E+00 0.  1.
         22    1    1    2    0    0 -0.82439775627E+02  0.36300090004E+02 -0.14213086423E+03  0.16827119690E+03  0.00000000000E+00 0. -1.
<mgrwt>
<rscale>  0 0.11867220E+03</rscale>
<asrwt>0</asrwt>
<pdfrwt beam="1">  1        2 0.33953771E-01 0.13009463E+03</pdfrwt>
<pdfrwt beam="2">  1       -2 0.11949143E-01 0.13009463E+03</pdfrwt>
<totfact> 0.72088227E+03</totfact>
</mgrwt>
</event>
<event>
 6    1  0.1683416E-002  0.9293463E+02  0.7546771E-02  0.1374091E+00
          2   -1    0    0  501    0  0.00000000000E+00  0.00000000000E+00  0.49087980489E+03  0.49087980489E+03  0.00000000000E+00 0.  1.
         -2   -1    0    0    0  501 -0.00000000000E+00 -0.00000000000E+00 -0.69608976503E+01  0.69608976503E+01  0.00000000000E+00 0. -1.
         23    2    1    2    0    0  0.76250096900E+01  0.22441188630E+02  0.37119293684E+03  0.38265002530E+03  0.89861547863E+02 0.  0.
         11    1    3    3    0    0 -0.13056390666E+02  0.20829679946E+02  0.22453623485E+02  0.33294295479E+02  0.00000000000E+00 0. -1.
        -11    1    3    3    0    0  0.20681400356E+02  0.16115086845E+01  0.34873931335E+03  0.34935572982E+03  0.00000000000E+00 0.  1.
         22    1    1    2    0    0 -0.76250096900E+01 -0.22441188630E+02  0.11272597040E+03  0.11519067724E+03  0.00000000000E+00 0.  1.
<mgrwt>
<rscale>  0 0.66042856E+02</rscale>
<asrwt>0</asrwt>
<pdfrwt beam="1">  1        2 0.75519943E-01 0.92934630E+02</pdfrwt>
<pdfrwt beam="2">  1       -2 0.10709077E-02 0.92934630E+02</pdfrwt>
<totfact> 0.10646961E+05</totfact>
</mgrwt>
</event>
<event>
 6    1  0.1683416E-002  0.9303430E+02  0.7546771E-02  0.1381906E+00
         -1   -1    0    0    0  501 -0.00000000000E+00  0.00000000000E+00  0.51737477079E+03  0.51737477079E+03  0.00000000000E+00 0.  1.
          1   -1    0    0  501    0  0.00000000000E+00 -0.00000000000E+00 -0.62858685870E+01  0.62858685870E+01  0.00000000000E+00 0. -1.
         23    2    1    2    0    0 -0.13845736183E+02  0.15508380391E+02  0.40418907383E+03  0.41475798753E+03  0.90681677007E+02 0.  0.
         11    1    3    3    0    0 -0.11234115826E+01  0.43493027970E+02  0.34800298428E+03  0.35071210786E+03  0.00000000000E+00 0.  1.
        -11    1    3    3    0    0 -0.12722324601E+02 -0.27984647578E+02  0.56186089553E+02  0.64045879669E+02  0.00000000000E+00 0. -1.
         22    1    1    2    0    0  0.13845736183E+02 -0.15508380391E+02  0.10689982837E+03  0.10890265184E+03  0.00000000000E+00 0. -1.
<mgrwt>
<rscale>  0 0.63965339E+02</rscale>
<asrwt>0</asrwt>
<pdfrwt beam="1">  1        1 0.96705711E-03 0.93034299E+02</pdfrwt>
<pdfrwt beam="2">  1       -1 0.79596085E-01 0.93034299E+02</pdfrwt>
<totfact> 0.24817244E+04</totfact>
</mgrwt>
</event>
<event>
 6    1  0.1683416E-002  0.9329070E+02  0.7546771E-02  0.1412582E+00
         -2   -1    0    0    0  501 -0.00000000000E+00  0.00000000000E+00  0.75705177371E+03  0.75705177371E+03  0.00000000000E+00 0.  1.
          2   -1    0    0  501    0  0.00000000000E+00 -0.00000000000E+00 -0.38986364850E+01  0.38986364850E+01  0.00000000000E+00 0. -1.
         23    2    1    2    0    0  0.16245842051E+01  0.12554796345E+02  0.70562188480E+03  0.71176217845E+03  0.92427767353E+02 0.  0.
         13    1    3    3    0    0  0.11505705690E+02  0.17232436930E+02  0.32447765907E+02  0.38499294257E+02  0.00000000000E+00 0.  1.
        -13    1    3    3    0    0 -0.98811214850E+01 -0.46776405853E+01  0.67317411890E+03  0.67326288420E+03  0.00000000000E+00 0. -1.
         22    1    1    2    0    0 -0.16245842051E+01 -0.12554796345E+02  0.47531252421E+02  0.49188231741E+02  0.00000000000E+00 0. -1.
<mgrwt>
<rscale>  0 0.56621666E+02</rscale>
<asrwt>0</asrwt>
<pdfrwt beam="1">  1        2 0.59979083E-03 0.93290698E+02</pdfrwt>
<pdfrwt beam="2">  1       -2 0.11646939E+00 0.93290698E+02</pdfrwt>
<totfact> 0.15600498E+04</totfact>
</mgrwt>
</event>
<event>
 6    1  0.1683416E-002  0.8591478E+02  0.7546771E-02  0.1439502E+00
          4   -1    0    0  501    0  0.00000000000E+00  0.00000000000E+00  0.92522356064E+02  0.92522356064E+02  0.00000000000E+00 0. -1.
         -4   -1    0    0    0  501 -0.00000000000E+00 -0.00000000000E+00 -0.52160394720E+02  0.52160394720E+02  0.00000000000E+00 0.  1.
         23    2    1    2    0    0  0.31893377874E+01 -0.10266977434E+02 -0.15925023064E+02  0.87378236871E+02  0.85239469836E+02 0.  0.
         13    1    3    3    0    0  0.19419207042E+02  0.31313456711E+02 -0.21073250765E+02  0.42446673264E+02  0.00000000000E+00 0.  1.
        -13    1    3    3    0    0 -0.16229869255E+02 -0.41580434145E+02  0.51482277005E+01  0.44931563607E+02  0.00000000000E+00 0. -1.
         22    1    1    2    0    0 -0.31893377874E+01  0.10266977434E+02  0.56286984408E+02  0.57304513914E+02  0.00000000000E+00 0. -1.
<mgrwt>
<rscale>  0 0.51099015E+02</rscale>
<asrwt>0</asrwt>
<pdfrwt beam="1">  1        4 0.14234209E-01 0.85914783E+02</pdfrwt>
<pdfrwt beam="2">  1       -4 0.80246761E-02 0.85914783E+02</pdfrwt>
<totfact> 0.65241028E+03</totfact>
</mgrwt>
</event>
<event>
 6    1  0.1683416E-002  0.9759746E+02  0.7546771E-02  0.1342063E+00
         -1   -1    0    0    0  501 -0.00000000000E+00  0.00000000000E+00  0.72752268877E+02  0.72752268877E+02  0.00000000000E+00 0.  1.
          1   -1    0    0  501    0  0.00000000000E+00 -0.00000000000E+00 -0.61807713833E+02  0.61807713833E+02  0.00000000000E+00 0. -1.
         23    2    1    2    0    0  0.32379812012E+02 -0.13582055037E+02  0.16585664673E+02  0.98996707231E+02  0.91062282670E+02 0.  0.
         13    1    3    3    0    0  0.39877495471E+02  0.11113835004E+02 -0.26227322387E+02  0.49006167093E+02  0.00000000000E+00 0. -1.
        -13    1    3    3    0    0 -0.74976834598E+01 -0.24695890041E+02  0.42812987061E+02  0.49990540138E+02  0.00000000000E+00 0.  1.
         22    1    1    2    0    0 -0.32379812012E+02  0.13582055037E+02 -0.56411096291E+01  0.35563275479E+02  0.00000000000E+00 0.  1.
<mgrwt>
<rscale>  0 0.75586796E+02</rscale>
<asrwt>0</asrwt>
<pdfrwt beam="1">  1        1 0.95088791E-02 0.97597458E+02</pdfrwt>
<pdfrwt beam="2">  1       -1 0.11192657E-01 0.97597458E+02</pdfrwt>
<totfact> 0.30911626E+04</totfact>
</mgrwt>
</event>
<event>
 6    1  0.1683416E-002  0.1048625E+03  0.7546771E-02  0.1400316E+00
          1   -1    0    0  501    0  0.00000000000E+00  0.00000000000E+00  0.79697994021E+02  0.79697994021E+02  0.00000000000E+00 0. -1.
         -1   -1    0    0    0  501 -0.00000000000E+00 -0.00000000000E+00 -0.56806631456E+02  0.56806631456E+02  0.00000000000E+00 0.  1.
         23    2    1    2    0    0 -0.10547470372E+02 -0.23462373693E+01 -0.66261061938E+01  0.10507160267E+03  0.10430427816E+03 0.  0.
         11    1    3    3    0    0  0.14120693993E+02  0.38538774192E+02 -0.31023106570E+02  0.51449628340E+02  0.00000000000E+00 0.  1.
        -11    1    3    3    0    0 -0.24668164365E+02 -0.40885011561E+02  0.24397000377E+02  0.53621974328E+02  0.00000000000E+00 0. -1.
         22    1    1    2    0    0  0.10547470372E+02  0.23462373693E+01  0.29517468758E+02  0.31433022809E+02  0.00000000000E+00 0. -1.
<mgrwt>
<rscale>  0 0.59411976E+02</rscale>
<asrwt>0</asrwt>
<pdfrwt beam="1">  1        1 0.12261230E-01 0.10486246E+03</pdfrwt>
<pdfrwt beam="2">  1       -1 0.87394818E-02 0.10486246E+03</pdfrwt>
<totfact> 0.32519881E+04</totfact>
</mgrwt>
</event>
<event>
 6    1  0.1683416E-002  0.1068427E+03  0.7546771E-02  0.1300324E+00
         -2   -1    0    0    0  501 -0.00000000000E+00  0.00000000000E+00  0.26873566411E+03  0.26873566411E+03  0.00000000000E+00 0.  1.
          2   -1    0    0  501    0  0.00000000000E+00 -0.00000000000E+00 -0.25386223561E+02  0.25386223561E+02  0.00000000000E+00 0. -1.
         23    2    1    2    0    0 -0.52491979218E+02 -0.20502262465E+02  0.18011741927E+03  0.20942218777E+03  0.90772338062E+02 0.  0.
         13    1    3    3    0    0  0.85932368203E+01  0.67739036437E+01  0.11679832560E+03  0.11730975387E+03  0.00000000000E+00 0. -1.
        -13    1    3    3    0    0 -0.61085216038E+02 -0.27276166109E+02  0.63319093670E+02  0.92112433901E+02  0.00000000000E+00 0.  1.
         22    1    1    2    0    0  0.52491979218E+02  0.20502262465E+02  0.63232021281E+02  0.84699699903E+02  0.00000000000E+00 0. -1.
<mgrwt>
<rscale>  0 0.91052006E+02</rscale>
<asrwt>0</asrwt>
<pdfrwt beam="1">  1        2 0.39055730E-02 0.10684273E+03</pdfrwt>
<pdfrwt beam="2">  1       -2 0.41343946E-01 0.10684273E+03</pdfrwt>
<totfact> 0.11162291E+04</totfact>
</mgrwt>
</event>
<event>
 6    1  0.1683416E-002  0.1057986E+03  0.7546771E-02  0.1305110E+00
          1   -1    0    0  501    0  0.00000000000E+00  0.00000000000E+00  0.16803297572E+03  0.16803297572E+03  0.00000000000E+00 0. -1.
         -1   -1    0    0    0  501 -0.00000000000E+00 -0.00000000000E+00 -0.72365727946E+02  0.72365727946E+02  0.00000000000E+00 0.  1.
         23    2    1    2    0    0 -0.15312334112E+02 -0.50904283353E+02 -0.24850948982E+02  0.10867797869E+03  0.91474694570E+02 0.  0.
         13    1    3    3    0    0 -0.22693412263E+02 -0.40890488299E+01 -0.49974005731E+02  0.55037373932E+02  0.00000000000E+00 0.  1.
        -13    1    3    3    0    0  0.73810781508E+01 -0.46815234523E+02  0.25123056749E+02  0.53640604756E+02  0.00000000000E+00 0. -1.
         22    1    1    2    0    0  0.15312334112E+02  0.50904283353E+02  0.12051819675E+03  0.13172072498E+03  0.00000000000E+00 0. -1.
<mgrwt>
<rscale>  0 0.89073970E+02</rscale>
<asrwt>0</asrwt>
<pdfrwt beam="1">  1        1 0.25851227E-01 0.10579855E+03</pdfrwt>
<pdfrwt beam="2">  1       -1 0.11133189E-01 0.10579855E+03</pdfrwt>
<totfact> 0.87401960E+03</totfact>
</mgrwt>
</event>
<event>
 6    1  0.1683416E-002  0.9269265E+02  0.7546771E-02  0.1390542E+00
          2   -1    0    0  501    0  0.00000000000E+00  0.00000000000E+00  0.47239886874E+02  0.47239886874E+02  0.00000000000E+00 0. -1.
         -2   -1    0    0    0  501 -0.00000000000E+00 -0.00000000000E+00 -0.67249736337E+02  0.67249736337E+02  0.00000000000E+00 0.  1.
         23    2    1    2    0    0 -0.11291194997E+02 -0.14378842676E+02 -0.24059431256E+02  0.95764204288E+02  0.90871801949E+02 0.  0.
         11    1    3    3    0    0 -0.38681843483E+02 -0.15047504251E+02 -0.45045298596E+02  0.61251867931E+02  0.00000000000E+00 0.  1.
        -11    1    3    3    0    0  0.27390648486E+02  0.66866157529E+00  0.20985867340E+02  0.34512336357E+02  0.00000000000E+00 0. -1.
         22    1    1    2    0    0  0.11291194997E+02  0.14378842676E+02  0.40495817927E+01  0.18725418923E+02  0.00000000000E+00 0. -1.
<mgrwt>
<rscale>  0 0.61771994E+02</rscale>
<asrwt>0</asrwt>
<pdfrwt beam="1">  1        2 0.72676749E-02 0.92692646E+02</pdfrwt>
<pdfrwt beam="2">  1       -2 0.10346113E-01 0.92692646E+02</pdfrwt>
<totfact> 0.52057286E+04</totfact>
</mgrwt>
</event>
<event>
 6    1  0.1683416E-002  0.1023879E+03  0.7546771E-02  0.1320493E+00
         -2   -1    0    0    0  501 -0.00000000000E+00  0.00000000000E+00  0.71651503727E+02  0.71651503727E+02  0.00000000000E+00 0.  1.
          2   -1    0    0  501    0  0.00000000000E+00 -0.00000000000E+00 -0.99237607550E+02  0.99237607550E+02  0.00000000000E+00 0. -1.
         23    2    1    2    0    0 -0.39578497117E+02  0.20157252400E+02  0.21573722433E+02  0.10463610549E+03  0.92252462374E+02 0.  0.
         11    1    3    3    0    0 -0.32147921785E+01 -0.23426077064E+02 -0.22601976376E+02  0.32710324233E+02  0.00000000000E+00 0. -1.
        -11    1    3    3    0    0 -0.36363704938E+02  0.43583329464E+02  0.44175698809E+02  0.71925781256E+02  0.00000000000E+00 0.  1.
         22    1    1    2    0    0  0.39578497117E+02 -0.20157252400E+02 -0.49159826257E+02  0.66253005788E+02  0.00000000000E+00 0. -1.
<mgrwt>
<rscale>  0 0.83094294E+02</rscale>
<asrwt>0</asrwt>
<pdfrwt beam="1">  1        2 0.15267324E-01 0.10238793E+03</pdfrwt>
<pdfrwt beam="2">  1       -2 0.11023308E-01 0.10238793E+03</pdfrwt>
<totfact> 0.19482504E+04</totfact>
</mgrwt>
</event>
<event>
 6    1  0.1683416E-002  0.9580763E+02  0.7546771E-02  0.1390523E+00
          2   -1    0    0  501    0  0.00000000000E+00  0.00000000000E+00  0.45718007122E+02  0.45718007122E+02  0.00000000000E+00 0. -1.
         -2   -1    0    0    0  501 -0.00000000000E+00 -0.00000000000E+00 -0.12312758325E+03  0.12312758325E+03  0.00000000000E+00 0.  1.
         23    2    1    2    0    0  0.42093717671E+01 -0.16017713403E+02 -0.10152310438E+03  0.13959241622E+03  0.94365332562E+02 0.  0.
         11    1    3    3    0    0  0.14049261396E+02 -0.53912775537E+02 -0.49830446994E+02  0.74746522057E+02  0.00000000000E+00 0. -1.
        -11    1    3    3    0    0 -0.98398896289E+01  0.37895062135E+02 -0.51692657384E+02  0.64845894161E+02  0.00000000000E+00 0.  1.
         22    1    1    2    0    0 -0.42093717671E+01  0.16017713403E+02  0.24113528251E+02  0.29253174153E+02  0.00000000000E+00 0. -1.
<mgrwt>
<rscale>  0 0.61776816E+02</rscale>
<asrwt>0</asrwt>
<pdfrwt beam="1">  1        2 0.70335397E-02 0.95807630E+02</pdfrwt>
<pdfrwt beam="2">  1       -2 0.18942705E-01 0.95807630E+02</pdfrwt>
<totfact> 0.20583114E+04</totfact>
</mgrwt>
</event>
<event>
 6    1  0.1683416E-002  0.9340122E+02  0.7546771E-02  0.1414268E+00
          3   -1    0    0  501    0  0.00000000000E+00  0.00000000000E+00  0.31560613924E+03  0.31560613924E+03  0.00000000000E+00 0. -1.
         -3   -1    0    0    0  501 -0.00000000000E+00 -0.00000000000E+00 -0.12749117322E+02  0.12749117322E+02  0.00000000000E+00 0.  1.
         23    2    1    2    0    0  0.12267226136E+02  0.72522904355E+00  0.30191294316E+03  0.31603040042E+03  0.92589297146E+02 0.  0.
         13    1    3    3    0    0  0.39272669610E-01 -0.31499870971E+02  0.25937783247E+03  0.26128356893E+03  0.00000000000E+00 0. -1.
        -13    1    3    3    0    0  0.12227953467E+02  0.32225100014E+02  0.42535110686E+02  0.54746831488E+02  0.00000000000E+00 0.  1.
         22    1    1    2    0    0 -0.12267226136E+02 -0.72522904355E+00  0.94407875578E+00  0.12324856143E+02  0.00000000000E+00 0. -1.
<mgrwt>
<rscale>  0 0.56252318E+02</rscale>
<asrwt>0</asrwt>
<pdfrwt beam="1">  1        3 0.48554785E-01 0.93401225E+02</pdfrwt>
<pdfrwt beam="2">  1       -3 0.19614029E-02 0.93401225E+02</pdfrwt>
<totfact> 0.86939296E+03</totfact>
</mgrwt>
</event>
<event>
 6    1  0.1683416E-002  0.7605101E+02  0.7546771E-02  0.1445695E+00
          2   -1    0    0  501    0  0.00000000000E+00  0.00000000000E+00  0.58509213387E+02  0.58509213387E+02  0.00000000000E+00 0. -1.
         -2   -1    0    0    0  501 -0.00000000000E+00 -0.00000000000E+00 -0.39427767772E+02  0.39427767772E+02  0.00000000000E+00 0.  1.
         23    2    1    2    0    0  0.13969650310E+02  0.21540517385E+01  0.24225888245E+01  0.76089588220E+02  0.74725935459E+02 0.  0.
         11    1    3    3    0    0 -0.27971005115E+02  0.12545996046E+02  0.99494915508E+01  0.32229978685E+02  0.00000000000E+00 0. -1.
        -11    1    3    3    0    0  0.41940655425E+02 -0.10391944307E+02 -0.75269027264E+01  0.43859609535E+02  0.00000000000E+00 0.  1.
         22    1    1    2    0    0 -0.13969650310E+02 -0.21540517385E+01  0.16658856790E+02  0.21847392939E+02  0.00000000000E+00 0. -1.
<mgrwt>
<rscale>  0 0.49934506E+02</rscale>
<asrwt>0</asrwt>
<pdfrwt beam="1">  1        2 0.90014174E-02 0.76051012E+02</pdfrwt>
<pdfrwt beam="2">  1       -2 0.60658104E-02 0.76051012E+02</pdfrwt>
<totfact> 0.87540369E+04</totfact>
</mgrwt>
</event>
<event>
 6    1  0.1683416E-002  0.9397071E+02  0.7546771E-02  0.1401259E+00
         -2   -1    0    0    0  501 -0.00000000000E+00  0.00000000000E+00  0.29443251340E+02  0.29443251340E+02  0.00000000000E+00 0.  1.
          2   -1    0    0  501    0  0.00000000000E+00 -0.00000000000E+00 -0.10142716516E+03  0.10142716516E+03  0.00000000000E+00 0. -1.
         23    2    1    2    0    0  0.12168286158E+02 -0.84113497060E+01 -0.57495342104E+02  0.11016445837E+03  0.92799113853E+02 0.  0.
         11    1    3    3    0    0  0.87919202542E+01 -0.17000459636E+02 -0.81882431775E+02  0.84089512563E+02  0.00000000000E+00 0. -1.
        -11    1    3    3    0    0  0.33763659034E+01  0.85891099296E+01  0.24387089671E+02  0.26074945805E+02  0.00000000000E+00 0.  1.
         22    1    1    2    0    0 -0.12168286158E+02  0.84113497060E+01 -0.14488571720E+02  0.20705958137E+02  0.00000000000E+00 0.  1.
<mgrwt>
<rscale>  0 0.59190873E+02</rscale>
<asrwt>0</asrwt>
<pdfrwt beam="1">  1        2 0.15604179E-01 0.93970706E+02</pdfrwt>
<pdfrwt beam="2">  1       -2 0.45297310E-02 0.93970706E+02</pdfrwt>
<totfact> 0.72703846E+04</totfact>
</mgrwt>
</event>
<event>
 6    1  0.1683416E-002  0.9236004E+02  0.7546771E-02  0.1424635E+00
          1   -1    0    0  501    0  0.00000000000E+00  0.00000000000E+00  0.90839404916E+02  0.90839404916E+02  0.00000000000E+00 0. -1.
         -1   -1    0    0    0  501 -0.00000000000E+00 -0.00000000000E+00 -0.57962318643E+02  0.57962318643E+02  0.00000000000E+00 0.  1.
         23    2    1    2    0    0  0.41715095267E+01 -0.99990964482E+01 -0.20272821322E+02  0.94558787625E+02  0.91722372468E+02 0.  0.
         13    1    3    3    0    0  0.20682205808E+02 -0.21560048557E+02  0.28806499200E+02  0.41501852091E+02  0.00000000000E+00 0. -1.
        -13    1    3    3    0    0 -0.16510696281E+02  0.11560952109E+02 -0.49079320521E+02  0.53056935533E+02  0.00000000000E+00 0.  1.
         22    1    1    2    0    0 -0.41715095267E+01  0.99990964482E+01  0.53149907594E+02  0.54242935934E+02  0.00000000000E+00 0. -1.
<mgrwt>
<rscale>  0 0.54052269E+02</rscale>
<asrwt>0</asrwt>
<pdfrwt beam="1">  1        1 0.13975293E-01 0.92360040E+02</pdfrwt>
<pdfrwt beam="2">  1       -1 0.89172798E-02 0.92360040E+02</pdfrwt>
<totfact> 0.26234294E+04</totfact>
</mgrwt>
</event>
<event>
 6    1  0.1683416E-002  0.9543935E+02  0.7546771E-02  0.1374492E+00
         -4   -1    0    0    0  501 -0.00000000000E+00  0.00000000000E+00  0.14644972092E+03  0.14644972092E+03  0.00000000000E+00 0.  1.
          4   -1    0    0  501    0  0.00000000000E+00 -0.00000000000E+00 -0.30305847658E+02  0.30305847658E+02  0.00000000000E+00 0. -1.
         23    2    1    2    0    0 -0.15990834484E+02  0.14728213744E+02  0.12136635843E+03  0.15439709325E+03  0.92930309260E+02 0.  0.
         13    1    3    3    0    0  0.20383075811E+02 -0.13480785256E+01 -0.57367519907E+01  0.21217856127E+02  0.00000000000E+00 0. -1.
        -13    1    3    3    0    0 -0.36373910295E+02  0.16076292270E+02  0.12710311042E+03  0.13317923713E+03  0.00000000000E+00 0.  1.
         22    1    1    2    0    0  0.15990834484E+02 -0.14728213744E+02 -0.52224851658E+01  0.22358475326E+02  0.00000000000E+00 0. -1.
<mgrwt>
<rscale>  0 0.65934152E+02</rscale>
<asrwt>0</asrwt>
<pdfrwt beam="1">  1        4 0.46624382E-02 0.95439350E+02</pdfrwt>
<pdfrwt beam="2">  1       -4 0.22530726E-01 0.95439350E+02</pdfrwt>
<totfact> 0.71907113E+03</totfact>
</mgrwt>
</event>
<event>
 6    1  0.1683416E-002  0.9116170E+02  0.7546771E-02  0.1424065E+00
         -2   -1    0    0    0  501 -0.00000000000E+00  0.00000000000E+00  0.51275163883E+02  0.51275163883E+02  0.00000000000E+00 0.  1.
          2   -1    0    0  501    0  0.00000000000E+00 -0.00000000000E+00 -0.51526489085E+02  0.51526489085E+02  0.00000000000E+00 0. -1.
         23    2    1    2    0    0 -0.50552783384E+01 -0.10179734083E+02 -0.25864773929E+01  0.91198387874E+02  0.90450391157E+02 0.  0.
         11    1    3    3    0    0 -0.40013369478E+02 -0.22429958481E+02  0.17457266116E+02  0.49080840607E+02  0.00000000000E+00 0.  1.
        -11    1    3    3    0    0  0.34958091140E+02  0.12250224397E+02 -0.20043743509E+02  0.42117547267E+02  0.00000000000E+00 0. -1.
         22    1    1    2    0    0  0.50552783384E+01  0.10179734083E+02  0.23351521912E+01  0.11603265094E+02  0.00000000000E+00 0.  1.
<mgrwt>
<rscale>  0 0.54170135E+02</rscale>
<asrwt>0</asrwt>
<pdfrwt beam="1">  1        2 0.79271522E-02 0.91161703E+02</pdfrwt>
<pdfrwt beam="2">  1       -2 0.78884868E-02 0.91161703E+02</pdfrwt>
<totfact> 0.70822508E+04</totfact>
</mgrwt>
</event>
<event>
 6    1  0.1683416E-002  0.9801329E+02  0.7546771E-02  0.1348913E+00
         -2   -1    0    0    0  501 -0.00000000000E+00  0.00000000000E+00  0.11362327469E+02  0.11362327469E+02  0.00000000000E+00 0.  1.
          2   -1    0    0  501    0  0.00000000000E+00 -0.00000000000E+00 -0.37647611793E+03  0.37647611793E+03  0.00000000000E+00 0. -1.
         23    2    1    2    0    0  0.25460309987E+02  0.17366788524E+02 -0.24611699103E+03  0.26491541662E+03  0.93041775367E+02 0.  0.
         13    1    3    3    0    0 -0.31965292335E+02 -0.94417253967E+01 -0.10636684601E+03  0.11146673056E+03  0.00000000000E+00 0. -1.
        -13    1    3    3    0    0  0.57425602322E+02  0.26808513921E+02 -0.13975014502E+03  0.15344868606E+03  0.00000000000E+00 0.  1.
         22    1    1    2    0    0 -0.25460309987E+02 -0.17366788524E+02 -0.11899679944E+03  0.12292302878E+03  0.00000000000E+00 0.  1.
<mgrwt>
<rscale>  0 0.73395530E+02</rscale>
<asrwt>0</asrwt>
<pdfrwt beam="1">  1        2 0.57919403E-01 0.98013288E+02</pdfrwt>
<pdfrwt beam="2">  1       -2 0.17480504E-02 0.98013288E+02</pdfrwt>
<totfact> 0.70713165E+04</totfact>
</mgrwt>
</event>
<event>
 6    1  0.1683416E-002  0.9183635E+02  0.7546771E-02  0.1425376E+00
         -1   -1    0    0    0  501 -0.00000000000E+00  0.00000000000E+00  0.49973186454E+03  0.49973186454E+03  0.00000000000E+00 0.  1.
          1   -1    0    0  501    0  0.00000000000E+00 -0.00000000000E+00 -0.52905289218E+01  0.52905289218E+01  0.00000000000E+00 0. -1.
         23    2    1    2    0    0  0.72002020770E+01 -0.81789531527E+01  0.43461347805E+03  0.44421029987E+03  0.91187592533E+02 0.  0.
         11    1    3    3    0    0  0.21079394374E+02  0.20975410378E+02  0.49500603570E+02  0.57746155383E+02  0.00000000000E+00 0. -1.
        -11    1    3    3    0    0 -0.13879192297E+02 -0.29154363530E+02  0.38511287448E+03  0.38646414449E+03  0.00000000000E+00 0.  1.
         22    1    1    2    0    0 -0.72002020770E+01  0.81789531527E+01  0.59827857570E+02  0.60812093583E+02  0.00000000000E+00 0.  1.
<mgrwt>
<rscale>  0 0.53899503E+02</rscale>
<asrwt>0</asrwt>
<pdfrwt beam="1">  1        1 0.81392792E-03 0.91836350E+02</pdfrwt>
<pdfrwt beam="2">  1       -1 0.76881788E-01 0.91836350E+02</pdfrwt>
<totfact> 0.33740163E+04</totfact>
</mgrwt>
</event>
<event>
 6    1  0.1683416E-002  0.1022622E+03  0.7546771E-02  0.1383147E+00
          2   -1    0    0  501    0  0.00000000000E+00  0.00000000000E+00  0.69029461313E+02  0.69029461313E+02  0.00000000000E+00 0. -1.
         -2   -1    0    0    0  501 -0.00000000000E+00 -0.00000000000E+00 -0.50116615116E+02  0.50116615116E+02  0.00000000000E+00 0.  1.
         23    2    1    2    0    0 -0.15228256286E+02 -0.18640017983E+01  0.17367950262E+02  0.10372657593E+03  0.10110480980E+03 0.  0.
         13    1    3    3    0    0 -0.21910443430E+02 -0.49488769257E+02  0.10794964576E+02  0.55188196873E+02  0.00000000000E+00 0. -1.
        -13    1    3    3    0    0  0.66821871438E+01  0.47624767459E+02  0.65729856855E+01  0.48538379056E+02  0.00000000000E+00 0.  1.
         22    1    1    2    0    0  0.15228256286E+02  0.18640017983E+01  0.15448959353E+01  0.15419500500E+02  0.00000000000E+00 0. -1.
<mgrwt>
<rscale>  0 0.63643817E+02</rscale>
<asrwt>0</asrwt>
<pdfrwt beam="1">  1        2 0.10619917E-01 0.10226220E+03</pdfrwt>
<pdfrwt beam="2">  1       -2 0.77102485E-02 0.10226220E+03</pdfrwt>
<totfact> 0.52096791E+04</totfact>
</mgrwt>
</event>
<event>
 6    1  0.1683416E-002  0.9215019E+02  0.7546771E-02  0.1404872E+00
          2   -1    0    0  501    0  0.00000000000E+00  0.00000000000E+00  0.12919967359E+03  0.12919967359E+03  0.00000000000E+00 0. -1.
         -2   -1    0    0    0  501 -0.00000000000E+00 -0.00000000000E+00 -0.25665640617E+02  0.25665640617E+02  0.00000000000E+00 0.  1.
         23    2    1    2    0    0 -0.14766197408E+02 -0.12400596554E+01  0.62786278331E+02  0.11150683358E+03  0.90950969509E+02 0.  0.
         13    1    3    3    0    0 -0.44404309864E+00 -0.43955769673E+01 -0.23536282058E+02  0.23947334805E+02  0.00000000000E+00 0.  1.
        -13    1    3    3    0    0 -0.14322154309E+02  0.31555173119E+01  0.86322560389E+02  0.87559498775E+02  0.00000000000E+00 0. -1.
         22    1    1    2    0    0  0.14766197408E+02  0.12400596554E+01  0.40747754644E+02  0.43358480628E+02  0.00000000000E+00 0. -1.
<mgrwt>
<rscale>  0 0.58354030E+02</rscale>
<asrwt>0</asrwt>
<pdfrwt beam="1">  1        2 0.19876872E-01 0.92150188E+02</pdfrwt>
<pdfrwt beam="2">  1       -2 0.39485602E-02 0.92150188E+02</pdfrwt>
<totfact> 0.67450744E+04</totfact>
</mgrwt>
</event>
<event>
 6    1  0.1683416E-002  0.1179616E+03  0.7546771E-02  0.1269003E+00
          1   -1    0    0  501    0  0.00000000000E+00  0.00000000000E+00  0.60470773821E+03  0.60470773821E+03  0.00000000000E+00 0. -1.
         -1   -1    0    0    0  501 -0.00000000000E+00 -0.00000000000E+00 -0.15848858121E+02  0.15848858121E+02  0.00000000000E+00 0.  1.
         23    2    1    2    0    0  0.53722569189E+02  0.53288612410E+02  0.40224720422E+03  0.41918701516E+03  0.90493920889E+02 0.  0.
         13    1    3    3    0    0  0.12884388120E+02  0.51616024685E+02  0.34364952049E+03  0.34774302926E+03  0.00000000000E+00 0. -1.
        -13    1    3    3    0    0  0.40838181069E+02  0.16725877243E+01  0.58597683730E+02  0.71443985900E+02  0.00000000000E+00 0.  1.
         22    1    1    2    0    0 -0.53722569189E+02 -0.53288612410E+02  0.18661167587E+03  0.20136958118E+03  0.00000000000E+00 0. -1.
<mgrwt>
<rscale>  0 0.10556864E+03</rscale>
<asrwt>0</asrwt>
<pdfrwt beam="1">  1        1 0.93031942E-01 0.11796161E+03</pdfrwt>
<pdfrwt beam="2">  1       -1 0.24382863E-02 0.11796161E+03</pdfrwt>
<totfact> 0.16682624E+04</totfact>
</mgrwt>
</event>
<event>
 6    1  0.1683416E-002  0.9119987E+02  0.7546771E-02  0.1430501E+00
         -3   -1    0    0    0  501 -0.00000000000E+00  0.00000000000E+00  0.38848289718E+02  0.38848289718E+02  0.00000000000E+00 0.  1.
          3   -1    0    0  501    0  0.00000000000E+00 -0.00000000000E+00 -0.66815834775E+02  0.66815834775E+02  0.00000000000E+00 0. -1.
         23    2    1    2    0    0 -0.33802292185E+01  0.97214319299E+01 -0.22188177467E+02  0.93860172694E+02  0.90617242347E+02 0.  0.
         13    1    3    3    0    0 -0.43582440644E+02  0.22256793575E+02 -0.92218376484E+01  0.49797954600E+02  0.00000000000E+00 0.  1.
        -13    1    3    3    0    0  0.40202211426E+02 -0.12535361645E+02 -0.12966339819E+02  0.44062218094E+02  0.00000000000E+00 0. -1.
         22    1    1    2    0    0  0.33802292185E+01 -0.97214319299E+01 -0.57793675902E+01  0.11803951799E+02  0.00000000000E+00 0.  1.
<mgrwt>
<rscale>  0 0.52859636E+02</rscale>
<asrwt>0</asrwt>
<pdfrwt beam="1">  1        3 0.10279359E-01 0.91199873E+02</pdfrwt>
<pdfrwt beam="2">  1       -3 0.59766600E-02 0.91199873E+02</pdfrwt>
<totfact> 0.24551302E+04</totfact>
</mgrwt>
</event>
<event>
 6    1  0.1683416E-002  0.9219660E+02  0.7546771E-02  0.1395879E+00
         -1   -1    0    0    0  501 -0.00000000000E+00  0.00000000000E+00  0.75206125653E+02  0.75206125653E+02  0.00000000000E+00 0.  1.
          1   -1    0    0  501    0  0.00000000000E+00 -0.00000000000E+00 -0.46593818464E+02  0.46593818464E+02  0.00000000000E+00 0. -1.
         23    2    1    2    0    0  0.16808181332E+02 -0.29137167576E+01  0.40813923747E+02  0.10082652876E+03  0.90604678828E+02 0.  0.
         11    1    3    3    0    0  0.52632104399E+02 -0.11299087093E+02  0.15000866316E+02  0.55882320754E+02  0.00000000000E+00 0. -1.
        -11    1    3    3    0    0 -0.35823923067E+02  0.83853703351E+01  0.25813057432E+02  0.44944208008E+02  0.00000000000E+00 0.  1.
         22    1    1    2    0    0 -0.16808181332E+02  0.29137167576E+01 -0.12201616558E+02  0.20973415355E+02  0.00000000000E+00 0. -1.
<mgrwt>
<rscale>  0 0.60467731E+02</rscale>
<asrwt>0</asrwt>
<pdfrwt beam="1">  1        1 0.71682798E-02 0.92196597E+02</pdfrwt>
<pdfrwt beam="2">  1       -1 0.11570173E-01 0.92196597E+02</pdfrwt>
<totfact> 0.42413949E+04</totfact>
</mgrwt>
</event>
<event>
 6    1  0.1683416E-002  0.1024559E+03  0.7546771E-02  0.1324415E+00
         -4   -1    0    0    0  501 -0.00000000000E+00  0.00000000000E+00  0.11523381763E+04  0.11523381763E+04  0.00000000000E+00 0.  1.
          4   -1    0    0  501    0  0.00000000000E+00 -0.00000000000E+00 -0.47842700414E+01  0.47842700414E+01  0.00000000000E+00 0. -1.
         23    2    1    2    0    0  0.41221848627E+02  0.30975023774E+01  0.93413852446E+03  0.93974038518E+03  0.93746324400E+02 0.  0.
         13    1    3    3    0    0  0.41043290307E+02  0.42592366304E+02  0.42873037216E+03  0.43279139705E+03  0.00000000000E+00 0. -1.
        -13    1    3    3    0    0  0.17855832017E+00 -0.39494863926E+02  0.50540815230E+03  0.50694898813E+03  0.00000000000E+00 0.  1.
         22    1    1    2    0    0 -0.41221848627E+02 -0.30975023774E+01  0.21341538181E+03  0.21738206117E+03  0.00000000000E+00 0.  1.
<mgrwt>
<rscale>  0 0.81656397E+02</rscale>
<asrwt>0</asrwt>
<pdfrwt beam="1">  1        4 0.73604246E-03 0.10245589E+03</pdfrwt>
<pdfrwt beam="2">  1       -4 0.17728258E+00 0.10245589E+03</pdfrwt>
<totfact> 0.14870997E+03</totfact>
</mgrwt>
</event>
<event>
 6    1  0.1683416E-002  0.1332265E+03  0.7546771E-02  0.1238754E+00
         -2   -1    0    0    0  501 -0.00000000000E+00  0.00000000000E+00  0.61651243824E+02  0.61651243824E+02  0.00000000000E+00 0.  1.
          2   -1    0    0  501    0  0.00000000000E+00 -0.00000000000E+00 -0.23330154492E+03  0.23330154492E+03  0.00000000000E+00 0. -1.
         23    2    1    2    0    0 -0.57992432196E+02  0.76208010429E+02 -0.55267070786E+02  0.14423504147E+03  0.92620273316E+02 0.  0.
         11    1    3    3    0    0  0.13154226439E+02  0.38641938642E+02 -0.48652538173E+02  0.63508287379E+02  0.00000000000E+00 0. -1.
        -11    1    3    3    0    0 -0.71146658635E+02  0.37566071787E+02 -0.66145326137E+01  0.80726754091E+02  0.00000000000E+00 0.  1.
         22    1    1    2    0    0  0.57992432196E+02 -0.76208010429E+02 -0.11638323031E+03  0.15071774727E+03  0.00000000000E+00 0.  1.
<mgrwt>
<rscale>  0 0.12267152E+03</rscale>
<asrwt>0</asrwt>
<pdfrwt beam="1">  1        2 0.35892546E-01 0.13322649E+03</pdfrwt>
<pdfrwt beam="2">  1       -2 0.94848066E-02 0.13322649E+03</pdfrwt>
<totfact> 0.97987068E+03</totfact>
</mgrwt>
</event>
<event>
 6    1  0.1683416E-002  0.9378109E+02  0.7546771E-02  0.1363189E+00
          2   -1    0    0  501    0  0.00000000000E+00  0.00000000000E+00  0.52078787766E+03  0.52078787766E+03  0.00000000000E+00 0. -1.
         -2   -1    0    0    0  501 -0.00000000000E+00 -0.00000000000E+00 -0.70848764926E+01  0.70848764926E+01  0.00000000000E+00 0.  1.
         23    2    1    2    0    0 -0.25756857100E+02 -0.10022284085E+02  0.38926792908E+03  0.40040531113E+03  0.89616018117E+02 0.  0.
         13    1    3    3    0    0 -0.26868616638E+02  0.28551402073E+02  0.83896168165E+02  0.92604925102E+02  0.00000000000E+00 0.  1.
        -13    1    3    3    0    0  0.11117595388E+01 -0.38573686158E+02  0.30537176092E+03  0.30780038603E+03  0.00000000000E+00 0. -1.
         22    1    1    2    0    0  0.25756857100E+02  0.10022284085E+02  0.12443507209E+03  0.12746744303E+03  0.00000000000E+00 0.  1.
<mgrwt>
<rscale>  0 0.69097655E+02</rscale>
<asrwt>0</asrwt>
<pdfrwt beam="1">  1        2 0.80121182E-01 0.93781089E+02</pdfrwt>
<pdfrwt beam="2">  1       -2 0.10899814E-02 0.93781089E+02</pdfrwt>
<totfact> 0.97514203E+04</totfact>
</mgrwt>
</event>
<event>
 6    1  0.1683416E-002  0.9526902E+02  0.7546771E-02  0.1374607E+00
          4   -1    0    0  501    0  0.00000000000E+00  0.00000000000E+00  0.81386413960E+01  0.81386413960E+01  0.00000000000E+00 0. -1.
         -4   -1    0    0    0  501 -0.00000000000E+00 -0.00000000000E+00 -0.55193179764E+03  0.55193179764E+03  0.00000000000E+00 0.  1.
         23    2    1    2    0    0  0.21723878308E+02  0.19949349166E+01 -0.51608699473E+03  0.52480660431E+03  0.92737689953E+02 0.  0.
         11    1    3    3    0    0  0.39162056499E+02  0.32218222882E+02 -0.18298573724E+03  0.18988275485E+03  0.00000000000E+00 0. -1.
        -11    1    3    3    0    0 -0.17438178191E+02 -0.30223287965E+02 -0.33310125749E+03  0.33492384946E+03  0.00000000000E+00 0.  1.
         22    1    1    2    0    0 -0.21723878308E+02 -0.19949349166E+01 -0.27706161509E+02  0.35263834727E+02  0.00000000000E+00 0. -1.
<mgrwt>
<rscale>  0 0.65902818E+02</rscale>
<asrwt>0</asrwt>
<pdfrwt beam="1">  1        4 0.12520984E-02 0.95269018E+02</pdfrwt>
<pdfrwt beam="2">  1       -4 0.84912603E-01 0.95269018E+02</pdfrwt>
<totfact> 0.38928510E+03</totfact>
</mgrwt>
</event>
<event>
 6    1  0.1683416E-002  0.9817848E+02  0.7546771E-02  0.1374642E+00
          2   -1    0    0  501    0  0.00000000000E+00  0.00000000000E+00  0.44365757020E+02  0.44365757020E+02  0.00000000000E+00 0. -1.
         -2   -1    0    0    0  501 -0.00000000000E+00 -0.00000000000E+00 -0.78894751766E+02  0.78894751766E+02  0.00000000000E+00 0.  1.
         23    2    1    2    0    0  0.19757190732E+02  0.25522599267E+01 -0.31513959662E+02  0.10311228175E+03  0.96136113801E+02 0.  0.
         13    1    3    3    0    0  0.57446064238E+02  0.90861213420E+01 -0.28430460720E+02  0.64737153121E+02  0.00000000000E+00 0.  1.
        -13    1    3    3    0    0 -0.37688873506E+02 -0.65338614153E+01 -0.30834989422E+01  0.38375128624E+02  0.00000000000E+00 0. -1.
         22    1    1    2    0    0 -0.19757190732E+02 -0.25522599267E+01 -0.30150350832E+01  0.20148227041E+02  0.00000000000E+00 0.  1.
<mgrwt>
<rscale>  0 0.65893407E+02</rscale>
<asrwt>0</asrwt>
<pdfrwt beam="1">  1        2 0.68255010E-02 0.98178475E+02</pdfrwt>
<pdfrwt beam="2">  1       -2 0.12137654E-01 0.98178475E+02</pdfrwt>
<totfact> 0.44165996E+04</totfact>
</mgrwt>
</event>
<event>
 6    1  0.1683416E-002  0.9327352E+02  0.7546771E-02  0.1375048E+00
          1   -1    0    0  501    0  0.00000000000E+00  0.00000000000E+00  0.22659072889E+02  0.22659072889E+02  0.00000000000E+00 0. -1.
         -1   -1    0    0    0  501 -0.00000000000E+00 -0.00000000000E+00 -0.17385680072E+03  0.17385680072E+03  0.00000000000E+00 0.  1.
         23    2    1    2    0    0  0.21411186348E+02  0.86104175381E+01 -0.14535863207E+03  0.17271097431E+03  0.90373505749E+02 0.  0.
         13    1    3    3    0    0 -0.16436515389E+02 -0.12460516420E+02 -0.12153773397E+03  0.12327548129E+03  0.00000000000E+00 0. -1.
        -13    1    3    3    0    0  0.37847701737E+02  0.21070933959E+02 -0.23820898091E+02  0.49435493024E+02  0.00000000000E+00 0.  1.
         22    1    1    2    0    0 -0.21411186348E+02 -0.86104175381E+01 -0.58390957627E+01  0.23804899292E+02  0.00000000000E+00 0. -1.
<mgrwt>
<rscale>  0 0.65783455E+02</rscale>
<asrwt>0</asrwt>
<pdfrwt beam="1">  1        1 0.34860111E-02 0.93273516E+02</pdfrwt>
<pdfrwt beam="2">  1       -1 0.26747201E-01 0.93273516E+02</pdfrwt>
<totfact> 0.30060507E+04</totfact>
</mgrwt>
</event>
<event>
 6    1  0.1683416E-002  0.8275192E+02  0.7546771E-02  0.1413371E+00
         -4   -1    0    0    0  501 -0.00000000000E+00  0.00000000000E+00  0.10107168513E+04  0.10107168513E+04  0.00000000000E+00 0.  1.
          4   -1    0    0  501    0  0.00000000000E+00 -0.00000000000E+00 -0.30512155344E+01  0.30512155344E+01  0.00000000000E+00 0. -1.
         23    2    1    2    0    0  0.47970423942E+01  0.17263150934E+02  0.94427132371E+03  0.94789040144E+03  0.80788937214E+02 0.  0.
         13    1    3    3    0    0  0.75689115527E+01 -0.80404536208E+01  0.85472594571E+03  0.85479727397E+03  0.00000000000E+00 0.  1.
        -13    1    3    3    0    0 -0.27718691585E+01  0.25303604555E+02  0.89545378002E+02  0.93093127478E+02  0.00000000000E+00 0. -1.
         22    1    1    2    0    0 -0.47970423942E+01 -0.17263150934E+02  0.63394312025E+02  0.65877665358E+02  0.00000000000E+00 0.  1.
<mgrwt>
<rscale>  0 0.56448373E+02</rscale>
<asrwt>0</asrwt>
<pdfrwt beam="1">  1        4 0.46941858E-03 0.82751921E+02</pdfrwt>
<pdfrwt beam="2">  1       -4 0.15549463E+00 0.82751921E+02</pdfrwt>
<totfact> 0.38456092E+03</totfact>
</mgrwt>
</event>
<event>
 6    1  0.1683416E-002  0.9077993E+02  0.7546771E-02  0.1430848E+00
         -2   -1    0    0    0  501 -0.00000000000E+00  0.00000000000E+00  0.11146810170E+02  0.11146810170E+02  0.00000000000E+00 0.  1.
          2   -1    0    0  501    0  0.00000000000E+00 -0.00000000000E+00 -0.22990139615E+03  0.22990139615E+03  0.00000000000E+00 0. -1.
         23    2    1    2    0    0  0.98732124385E+01  0.32071499862E+01 -0.19316683694E+03  0.21343482123E+03  0.90184421532E+02 0.  0.
         13    1    3    3    0    0 -0.10438700795E+02 -0.36757407530E+02 -0.13314241127E+03  0.13851705730E+03  0.00000000000E+00 0. -1.
        -13    1    3    3    0    0  0.20311913233E+02  0.39964557516E+02 -0.60024425665E+02  0.74917763935E+02  0.00000000000E+00 0.  1.
         22    1    1    2    0    0 -0.98732124385E+01 -0.32071499862E+01 -0.25587749040E+02  0.27613385084E+02  0.00000000000E+00 0.  1.
<mgrwt>
<rscale>  0 0.52790123E+02</rscale>
<asrwt>0</asrwt>
<pdfrwt beam="1">  1        2 0.35369445E-01 0.90779932E+02</pdfrwt>
<pdfrwt beam="2">  1       -2 0.17148939E-02 0.90779932E+02</pdfrwt>
<totfact> 0.12059511E+05</totfact>
</mgrwt>
</event>
<event>
 6    1  0.1683416E-002  0.9073333E+02  0.7546771E-02  0.1424511E+00
         -2   -1    0    0    0  501 -0.00000000000E+00  0.00000000000E+00  0.17851543706E+03  0.17851543706E+03  0.00000000000E+00 0.  1.
          2   -1    0    0  501    0  0.00000000000E+00 -0.00000000000E+00 -0.15313721851E+02  0.15313721851E+02  0.00000000000E+00 0. -1.
         23    2    1    2    0    0  0.11431722503E+02 -0.63419086332E+00  0.15548357660E+03  0.18002132993E+03  0.90008056096E+02 0.  0.
         13    1    3    3    0    0  0.18423360379E+02  0.17217076442E+02  0.19455204994E+01  0.25290966349E+02  0.00000000000E+00 0. -1.
        -13    1    3    3    0    0 -0.69916378759E+01 -0.17851267306E+02  0.15353805610E+03  0.15473036359E+03  0.00000000000E+00 0.  1.
         22    1    1    2    0    0 -0.11431722503E+02  0.63419086332E+00  0.77181386118E+01  0.13807828977E+02  0.00000000000E+00 0. -1.
<mgrwt>
<rscale>  0 0.54077906E+02</rscale>
<asrwt>0</asrwt>
<pdfrwt beam="1">  1        2 0.23559573E-02 0.90733327E+02</pdfrwt>
<pdfrwt beam="2">  1       -2 0.27463912E-01 0.90733327E+02</pdfrwt>
<totfact> 0.45139084E+04</totfact>
</mgrwt>
</event>
<event>
 6    1  0.1683416E-002  0.9177309E+02  0.7546771E-02  0.1377769E+00
          1   -1    0    0  501    0  0.00000000000E+00  0.00000000000E+00  0.61883404623E+01  0.61883404623E+01  0.00000000000E+00 0. -1.
         -1   -1    0    0    0  501 -0.00000000000E+00 -0.00000000000E+00 -0.54708469138E+03  0.54708469138E+03  0.00000000000E+00 0.  1.
         23    2    1    2    0    0 -0.12921778410E+02 -0.19233299589E+02 -0.46281124013E+03  0.47182257637E+03  0.88799816489E+02 0.  0.
         13    1    3    3    0    0 -0.13535772902E+02  0.19818616201E+02 -0.36236264447E+02  0.43463335782E+02  0.00000000000E+00 0. -1.
        -13    1    3    3    0    0  0.61399449171E+00 -0.39051915790E+02 -0.42657497569E+03  0.42835924059E+03  0.00000000000E+00 0.  1.
         22    1    1    2    0    0  0.12921778410E+02  0.19233299589E+02 -0.78085110783E+02  0.81450455470E+02  0.00000000000E+00 0.  1.
<mgrwt>
<rscale>  0 0.65053758E+02</rscale>
<asrwt>0</asrwt>
<pdfrwt beam="1">  1        1 0.95205205E-03 0.91773087E+02</pdfrwt>
<pdfrwt beam="2">  1       -1 0.84166904E-01 0.91773087E+02</pdfrwt>
<totfact> 0.22590392E+04</totfact>
</mgrwt>
</event>
<event>
 6    1  0.1683416E-002  0.9193250E+02  0.7546771E-02  0.1423373E+00
         -2   -1    0    0    0  501 -0.00000000000E+00  0.00000000000E+00  0.37863842699E+01  0.37863842699E+01  0.00000000000E+00 0.  1.
          2   -1    0    0  501    0  0.00000000000E+00 -0.00000000000E+00 -0.72983103449E+03  0.72983103449E+03  0.00000000000E+00 0. -1.
         23    2    1    2    0    0  0.25565873454E+01  0.10904514848E+02 -0.68212430162E+03  0.68829147029E+03  0.91247688410E+02 0.  0.
         11    1    3    3    0    0 -0.16184066423E+02 -0.28373476548E+02 -0.11642022878E+03  0.12091587095E+03  0.00000000000E+00 0.  1.
        -11    1    3    3    0    0  0.18740653768E+02  0.39277991395E+02 -0.56570407283E+03  0.56737559934E+03  0.00000000000E+00 0. -1.
         22    1    1    2    0    0 -0.25565873454E+01 -0.10904514848E+02 -0.43920348606E+02  0.45325948469E+02  0.00000000000E+00 0.  1.
<mgrwt>
<rscale>  0 0.54313564E+02</rscale>
<asrwt>0</asrwt>
<pdfrwt beam="1">  1        2 0.11228161E+00 0.91932504E+02</pdfrwt>
<pdfrwt beam="2">  1       -2 0.58252112E-03 0.91932504E+02</pdfrwt>
<totfact> 0.16076616E+05</totfact>
</mgrwt>
</event>
<event>
 6    1  0.1683416E-002  0.8998717E+02  0.7546771E-02  0.1430973E+00
          2   -1    0    0  501    0  0.00000000000E+00  0.00000000000E+00  0.15036539387E+02  0.15036539387E+02  0.00000000000E+00 0. -1.
         -2   -1    0    0    0  501 -0.00000000000E+00 -0.00000000000E+00 -0.18074579494E+03  0.18074579494E+03  0.00000000000E+00 0.  1.
         23    2    1    2    0    0 -0.26998556819E+01  0.10289399844E+02 -0.16034155456E+03  0.18386708427E+03  0.89356195032E+02 0.  0.
         13    1    3    3    0    0 -0.25281629992E+02 -0.24027158459E+02 -0.12468350785E+03  0.12946985089E+03  0.00000000000E+00 0. -1.
        -13    1    3    3    0    0  0.22581774310E+02  0.34316558304E+02 -0.35658046702E+02  0.54397233380E+02  0.00000000000E+00 0.  1.
         22    1    1    2    0    0  0.26998556819E+01 -0.10289399844E+02 -0.53677009936E+01  0.11915250053E+02  0.00000000000E+00 0. -1.
<mgrwt>
<rscale>  0 0.52765192E+02</rscale>
<asrwt>0</asrwt>
<pdfrwt beam="1">  1        2 0.23133138E-02 0.89987169E+02</pdfrwt>
<pdfrwt beam="2">  1       -2 0.27807045E-01 0.89987169E+02</pdfrwt>
<totfact> 0.45203150E+04</totfact>
</mgrwt>
</event>
<event>
 6    1  0.1683416E-002  0.9413548E+02  0.7546771E-02  0.1385867E+00
         -4   -1    0    0    0  501 -0.00000000000E+00  0.00000000000E+00  0.31744178040E+03  0.31744178040E+03  0.00000000000E+00 0.  1.
          4   -1    0    0  501    0  0.00000000000E+00 -0.00000000000E+00 -0.10117645397E+02  0.10117645397E+02  0.00000000000E+00 0. -1.
         23    2    1    2    0    0 -0.16309744859E+02 -0.93911411613E+01  0.24528351061E+03  0.26272702352E+03  0.92234955423E+02 0.  0.
         13    1    3    3    0    0 -0.15969778666E+02  0.80909304702E+01  0.11191548301E+01  0.17937377011E+02  0.00000000000E+00 0. -1.
        -13    1    3    3    0    0 -0.33996619392E+00 -0.17482071631E+02  0.24416435578E+03  0.24478964651E+03  0.00000000000E+00 0.  1.
         22    1    1    2    0    0  0.16309744859E+02  0.93911411613E+01  0.62040624392E+02  0.64832402274E+02  0.00000000000E+00 0. -1.
<mgrwt>
<rscale>  0 0.62946454E+02</rscale>
<asrwt>0</asrwt>
<pdfrwt beam="1">  1        4 0.15565611E-02 0.94135478E+02</pdfrwt>
<pdfrwt beam="2">  1       -4 0.48837189E-01 0.94135478E+02</pdfrwt>
<totfact> 0.89775877E+03</totfact>
</mgrwt>
</event>
<event>
 6    1  0.1683416E-002  0.9227089E+02  0.7546771E-02  0.1370294E+00
         -1   -1    0    0    0  501 -0.00000000000E+00  0.00000000000E+00  0.81245396417E+01  0.81245396417E+01  0.00000000000E+00 0.  1.
          1   -1    0    0  501    0  0.00000000000E+00 -0.00000000000E+00 -0.42893656836E+03  0.42893656836E+03  0.00000000000E+00 0. -1.
         23    2    1    2    0    0  0.48597061871E+01 -0.25320229883E+02 -0.33156426802E+03  0.34416388751E+03  0.88595636756E+02 0.  0.
         11    1    3    3    0    0 -0.12857260190E+02  0.30797717073E+02 -0.11465348144E+03  0.11941201499E+03  0.00000000000E+00 0. -1.
        -11    1    3    3    0    0  0.17716966378E+02 -0.56117946957E+02 -0.21691078658E+03  0.22475187252E+03  0.00000000000E+00 0.  1.
         22    1    1    2    0    0 -0.48597061871E+01  0.25320229883E+02 -0.89247760690E+02  0.92897220485E+02  0.00000000000E+00 0. -1.
<mgrwt>
<rscale>  0 0.67085593E+02</rscale>
<asrwt>0</asrwt>
<pdfrwt beam="1">  1        1 0.65990233E-01 0.92270893E+02</pdfrwt>
<pdfrwt beam="2">  1       -1 0.12499293E-02 0.92270893E+02</pdfrwt>
<totfact> 0.65909283E+04</totfact>
</mgrwt>
</event>
<event>
 6    1  0.1683416E-002  0.9737942E+02  0.7546771E-02  0.1350120E+00
          2   -1    0    0  501    0  0.00000000000E+00  0.00000000000E+00  0.52030960544E+01  0.52030960544E+01  0.00000000000E+00 0. -1.
         -2   -1    0    0    0  501 -0.00000000000E+00 -0.00000000000E+00 -0.79933285529E+03  0.79933285529E+03  0.00000000000E+00 0.  1.
         23    2    1    2    0    0 -0.18934672713E+02  0.24271730067E+02 -0.63950559781E+03  0.64687723764E+03  0.92385671138E+02 0.  0.
         13    1    3    3    0    0 -0.54680971257E+02  0.81395163024E+01 -0.29396288641E+03  0.29911609608E+03  0.00000000000E+00 0.  1.
        -13    1    3    3    0    0  0.35746298545E+02  0.16132213765E+02 -0.34554271140E+03  0.34776114156E+03  0.00000000000E+00 0. -1.
         22    1    1    2    0    0  0.18934672713E+02 -0.24271730067E+02 -0.15462416142E+03  0.15765871370E+03  0.00000000000E+00 0.  1.
<mgrwt>
<rscale>  0 0.73018134E+02</rscale>
<asrwt>0</asrwt>
<pdfrwt beam="1">  1        2 0.80047607E-03 0.97379417E+02</pdfrwt>
<pdfrwt beam="2">  1       -2 0.12297432E+00 0.97379417E+02</pdfrwt>
<totfact> 0.92645788E+03</totfact>
</mgrwt>
</event>
<event>
 6    1  0.1683416E-002  0.9272385E+02  0.7546771E-02  0.1376285E+00
          4   -1    0    0  501    0  0.00000000000E+00  0.00000000000E+00  0.31520862457E+02  0.31520862457E+02  0.00000000000E+00 0. -1.
         -4   -1    0    0    0  501 -0.00000000000E+00 -0.00000000000E+00 -0.35649074791E+03  0.35649074791E+03  0.00000000000E+00 0.  1.
         23    2    1    2    0    0  0.22579985807E+02 -0.44710116729E+01 -0.34515721891E+03  0.35739504400E+03  0.89821300406E+02 0.  0.
         13    1    3    3    0    0  0.40224978971E+02 -0.75533505601E+01 -0.33354826569E+03  0.33604991829E+03  0.00000000000E+00 0.  1.
        -13    1    3    3    0    0 -0.17644993164E+02  0.30823388872E+01 -0.11608953220E+02  0.21345125711E+02  0.00000000000E+00 0. -1.
         22    1    1    2    0    0 -0.22579985807E+02  0.44710116729E+01  0.20187333452E+02  0.30616566370E+02  0.00000000000E+00 0. -1.
<mgrwt>
<rscale>  0 0.65450393E+02</rscale>
<asrwt>0</asrwt>
<pdfrwt beam="1">  1        4 0.48493638E-02 0.92723847E+02</pdfrwt>
<pdfrwt beam="2">  1       -4 0.54844726E-01 0.92723847E+02</pdfrwt>
<totfact> 0.12141608E+03</totfact>
</mgrwt>
</event>
<event>
 6    1  0.1683416E-002  0.1307228E+03  0.7546771E-02  0.1252257E+00
          2   -1    0    0  501    0  0.00000000000E+00  0.00000000000E+00  0.24020418334E+03  0.24020418334E+03  0.00000000000E+00 0. -1.
         -2   -1    0    0    0  501 -0.00000000000E+00 -0.00000000000E+00 -0.47328418903E+02  0.47328418903E+02  0.00000000000E+00 0.  1.
         23    2    1    2    0    0  0.55424605978E+02 -0.53809012312E+02  0.89258881914E+02  0.15828959432E+03  0.10545686756E+03 0.  0.
         13    1    3    3    0    0  0.54801403680E+02 -0.31701059291E+02  0.11067491883E+03  0.12750328884E+03  0.00000000000E+00 0. -1.
        -13    1    3    3    0    0  0.62320229766E+00 -0.22107953021E+02 -0.21416036919E+02  0.30786305482E+02  0.00000000000E+00 0.  1.
         22    1    1    2    0    0 -0.55424605978E+02  0.53809012312E+02  0.10361688253E+03  0.12924300793E+03  0.00000000000E+00 0.  1.
<mgrwt>
<rscale>  0 0.11461348E+03</rscale>
<asrwt>0</asrwt>
<pdfrwt beam="1">  1        2 0.36954489E-01 0.13072279E+03</pdfrwt>
<pdfrwt beam="2">  1       -2 0.72812954E-02 0.13072279E+03</pdfrwt>
<totfact> 0.14278436E+04</totfact>
</mgrwt>
</event>
<event>
 6    1  0.1683416E-002  0.9244453E+02  0.7546771E-02  0.1400048E+00
         -3   -1    0    0    0  501 -0.00000000000E+00  0.00000000000E+00  0.37800651556E+03  0.37800651556E+03  0.00000000000E+00 0.  1.
          3   -1    0    0  501    0  0.00000000000E+00 -0.00000000000E+00 -0.88005206602E+01  0.88005206602E+01  0.00000000000E+00 0. -1.
         23    2    1    2    0    0  0.13445080221E+02  0.83705629056E+01  0.34953208953E+03  0.36155037259E+03  0.91077734924E+02 0.  0.
         11    1    3    3    0    0 -0.31832543910E+02 -0.17212313588E+02  0.92847901627E+02  0.99650927881E+02  0.00000000000E+00 0. -1.
        -11    1    3    3    0    0  0.45277624131E+02  0.25582876494E+02  0.25668418790E+03  0.26189944470E+03  0.00000000000E+00 0.  1.
         22    1    1    2    0    0 -0.13445080221E+02 -0.83705629056E+01  0.19673905367E+02  0.25256663633E+02  0.00000000000E+00 0. -1.
<mgrwt>
<rscale>  0 0.59475040E+02</rscale>
<asrwt>0</asrwt>
<pdfrwt beam="1">  1        3 0.13539265E-02 0.92444526E+02</pdfrwt>
<pdfrwt beam="2">  1       -3 0.58154836E-01 0.92444526E+02</pdfrwt>
<totfact> 0.10541723E+04</totfact>
</mgrwt>
</event>
<event>
 6    1  0.1683416E-002  0.1057363E+03  0.7546771E-02  0.1305223E+00
         -4   -1    0    0    0  501 -0.00000000000E+00  0.00000000000E+00  0.33742515069E+03  0.33742515069E+03  0.00000000000E+00 0. -1.
          4   -1    0    0  501    0  0.00000000000E+00 -0.00000000000E+00 -0.24967217058E+02  0.24967217058E+02  0.00000000000E+00 0.  1.
         23    2    1    2    0    0  0.49495547790E+02 -0.19344242096E+02  0.28193155680E+03  0.30110722570E+03  0.91411977856E+02 0.  0.
         13    1    3    3    0    0  0.32270170796E+02 -0.31964053897E+02  0.27489798267E+03  0.27862513444E+03  0.00000000000E+00 0. -1.
        -13    1    3    3    0    0  0.17225376993E+02  0.12619811801E+02  0.70335741309E+01  0.22482091262E+02  0.00000000000E+00 0.  1.
         22    1    1    2    0    0 -0.49495547790E+02  0.19344242096E+02  0.30526376828E+02  0.61285142045E+02  0.00000000000E+00 0.  1.
<mgrwt>
<rscale>  0 0.89027924E+02</rscale>
<asrwt>0</asrwt>
<pdfrwt beam="1">  1        4 0.38411106E-02 0.10573627E+03</pdfrwt>
<pdfrwt beam="2">  1       -4 0.51911558E-01 0.10573627E+03</pdfrwt>
<totfact> 0.20302274E+03</totfact>
</mgrwt>
</event>
<event>
 6    1  0.1683416E-002  0.1236190E+03  0.7546771E-02  0.1255597E+00
          2   -1    0    0  501    0  0.00000000000E+00  0.00000000000E+00  0.20771581260E+03  0.20771581260E+03  0.00000000000E+00 0. -1.
         -2   -1    0    0    0  501 -0.00000000000E+00 -0.00000000000E+00 -0.72130308153E+02  0.72130308153E+02  0.00000000000E+00 0.  1.
         23    2    1    2    0    0 -0.82869326444E+02  0.20990239726E+02  0.14868490800E+03  0.19336196149E+03  0.89295749371E+02 0.  0.
         11    1    3    3    0    0  0.10937070912E+02 -0.29103061636E+01  0.63234568562E+02  0.64239396505E+02  0.00000000000E+00 0.  1.
        -11    1    3    3    0    0 -0.93806397355E+02  0.23900545890E+02  0.85450339440E+02  0.12912256499E+03  0.00000000000E+00 0. -1.
         22    1    1    2    0    0  0.82869326444E+02 -0.20990239726E+02 -0.13099403557E+02  0.86484159258E+02  0.00000000000E+00 0.  1.
<mgrwt>
<rscale>  0 0.11272961E+03</rscale>
<asrwt>0</asrwt>
<pdfrwt beam="1">  1        2 0.31956279E-01 0.12361896E+03</pdfrwt>
<pdfrwt beam="2">  1       -2 0.11096971E-01 0.12361896E+03</pdfrwt>
<totfact> 0.86198284E+03</totfact>
</mgrwt>
</event>
<event>
 6    1  0.1683416E-002  0.1086382E+03  0.7546771E-02  0.1294185E+00
          2   -1    0    0  501    0  0.00000000000E+00  0.00000000000E+00  0.38918059911E+02  0.38918059911E+02  0.00000000000E+00 0. -1.
         -2   -1    0    0    0  501 -0.00000000000E+00 -0.00000000000E+00 -0.19075940940E+03  0.19075940940E+03  0.00000000000E+00 0.  1.
         23    2    1    2    0    0 -0.57532912789E+02 -0.17235288140E+02 -0.74383378251E+02  0.13166303915E+03  0.90527220807E+02 0.  0.
         13    1    3    3    0    0 -0.24381843193E+01  0.16589434457E+02 -0.64030993319E+02  0.66190045957E+02  0.00000000000E+00 0.  1.
        -13    1    3    3    0    0 -0.55094728470E+02 -0.33824722597E+02 -0.10352384932E+02  0.65472993193E+02  0.00000000000E+00 0. -1.
         22    1    1    2    0    0  0.57532912789E+02  0.17235288140E+02 -0.77457971234E+02  0.98014430156E+02  0.00000000000E+00 0.  1.
<mgrwt>
<rscale>  0 0.93676726E+02</rscale>
<asrwt>0</asrwt>
<pdfrwt beam="1">  1        2 0.59873937E-02 0.10863825E+03</pdfrwt>
<pdfrwt beam="2">  1       -2 0.29347602E-01 0.10863825E+03</pdfrwt>
<totfact> 0.12047086E+04</totfact>
</mgrwt>
</event>
<event>
 6    1  0.1683416E-002  0.9126199E+02  0.7546771E-02  0.1378902E+00
         -1   -1    0    0    0  501 -0.00000000000E+00  0.00000000000E+00  0.44375906626E+03  0.44375906626E+03  0.00000000000E+00 0.  1.
          1   -1    0    0  501    0  0.00000000000E+00 -0.00000000000E+00 -0.16521084507E+02  0.16521084507E+02  0.00000000000E+00 0. -1.
         23    2    1    2    0    0 -0.23011816366E+02 -0.23358271005E+01  0.42751606730E+03  0.43714841688E+03  0.88282222490E+02 0.  0.
         11    1    3    3    0    0  0.23546635693E+02  0.22431151762E+01  0.30639005935E+03  0.30730171507E+03  0.00000000000E+00 0.  1.
        -11    1    3    3    0    0 -0.46558452059E+02 -0.45789422767E+01  0.12112600795E+03  0.12984670181E+03  0.00000000000E+00 0. -1.
         22    1    1    2    0    0  0.23011816366E+02  0.23358271005E+01 -0.27808554564E+00  0.23131733880E+02  0.00000000000E+00 0.  1.
<mgrwt>
<rscale>  0 0.64753261E+02</rscale>
<asrwt>0</asrwt>
<pdfrwt beam="1">  1        1 0.25417056E-02 0.91261989E+02</pdfrwt>
<pdfrwt beam="2">  1       -1 0.68270616E-01 0.91261989E+02</pdfrwt>
<totfact> 0.88318705E+03</totfact>
</mgrwt>
</event>
<event>
 6    1  0.1683416E-002  0.9724837E+02  0.7546771E-02  0.1341330E+00
          2   -1    0    0  501    0  0.00000000000E+00  0.00000000000E+00  0.33548510168E+02  0.33548510168E+02  0.00000000000E+00 0. -1.
         -2   -1    0    0    0  501 -0.00000000000E+00 -0.00000000000E+00 -0.19337116951E+03  0.19337116951E+03  0.00000000000E+00 0.  1.
         23    2    1    2    0    0  0.35213345571E+02 -0.72169549443E+01 -0.16406880739E+03  0.19072446012E+03  0.90361396551E+02 0.  0.
         11    1    3    3    0    0 -0.58146557082E+01 -0.35670706899E+02 -0.27800039375E+02  0.45596619841E+02  0.00000000000E+00 0. -1.
        -11    1    3    3    0    0  0.41028001279E+02  0.28453751954E+02 -0.13626876801E+03  0.14512784028E+03  0.00000000000E+00 0.  1.
         22    1    1    2    0    0 -0.35213345571E+02  0.72169549443E+01  0.42461480507E+01  0.36195219550E+02  0.00000000000E+00 0.  1.
<mgrwt>
<rscale>  0 0.75826720E+02</rscale>
<asrwt>0</asrwt>
<pdfrwt beam="1">  1        2 0.51613093E-02 0.97248373E+02</pdfrwt>
<pdfrwt beam="2">  1       -2 0.29749411E-01 0.97248373E+02</pdfrwt>
<totfact> 0.14062209E+04</totfact>
</mgrwt>
</event>
<event>
 6    1  0.1683416E-002  0.1030266E+03  0.7546771E-02  0.1329989E+00
         -2   -1    0    0    0  501 -0.00000000000E+00  0.00000000000E+00  0.96883135210E+03  0.96883135210E+03  0.00000000000E+00 0.  1.
          2   -1    0    0  501    0  0.00000000000E+00 -0.00000000000E+00 -0.79201671818E+01  0.79201671818E+01  0.00000000000E+00 0. -1.
         23    2    1    2    0    0  0.70344799567E+01  0.36164015476E+02  0.89765982892E+03  0.90355279006E+03  0.96214115654E+02 0.  0.
         13    1    3    3    0    0  0.19011427170E+02  0.66001551437E+02  0.69123450727E+03  0.69463859898E+03  0.00000000000E+00 0.  1.
        -13    1    3    3    0    0 -0.11976947213E+02 -0.29837535962E+02  0.20642532165E+03  0.20891419108E+03  0.00000000000E+00 0. -1.
         22    1    1    2    0    0 -0.70344799567E+01 -0.36164015476E+02  0.63251355998E+02  0.73198729219E+02  0.00000000000E+00 0. -1.
<mgrwt>
<rscale>  0 0.79670444E+02</rscale>
<asrwt>0</asrwt>
<pdfrwt beam="1">  1        2 0.12184880E-02 0.10302658E+03</pdfrwt>
<pdfrwt beam="2">  1       -2 0.14905088E+00 0.10302658E+03</pdfrwt>
<totfact> 0.32599052E+03</totfact>
</mgrwt>
</event>
<event>
 6    1  0.1683416E-002  0.9823445E+02  0.7546771E-02  0.1347203E+00
          4   -1    0    0  501    0  0.00000000000E+00  0.00000000000E+00  0.28337252618E+03  0.28337252618E+03  0.00000000000E+00 0.  1.
         -4   -1    0    0    0  501 -0.00000000000E+00 -0.00000000000E+00 -0.14890201125E+02  0.14890201125E+02  0.00000000000E+00 0. -1.
         23    2    1    2    0    0  0.31168760798E+02  0.46973070887E+01  0.20943627052E+03  0.23132997823E+03  0.93040050901E+02 0.  0.
         11    1    3    3    0    0 -0.29057111217E+02 -0.16484353820E+02  0.57065425275E+02  0.66124975576E+02  0.00000000000E+00 0. -1.
        -11    1    3    3    0    0  0.60225872015E+02  0.21181660908E+02  0.15237084525E+03  0.16520500265E+03  0.00000000000E+00 0.  1.
         22    1    1    2    0    0 -0.31168760798E+02 -0.46973070887E+01  0.59046054536E+02  0.66932749083E+02  0.00000000000E+00 0.  1.
<mgrwt>
<rscale>  0 0.73934464E+02</rscale>
<asrwt>0</asrwt>
<pdfrwt beam="1">  1        4 0.43595769E-01 0.98234451E+02</pdfrwt>
<pdfrwt beam="2">  1       -4 0.22908004E-02 0.98234451E+02</pdfrwt>
<totfact> 0.63202927E+03</totfact>
</mgrwt>
</event>
<event>
 6    1  0.1683416E-002  0.8641081E+02  0.7546771E-02  0.1418225E+00
          1   -1    0    0  501    0  0.00000000000E+00  0.00000000000E+00  0.26785972999E+03  0.26785972999E+03  0.00000000000E+00 0. -1.
         -1   -1    0    0    0  501 -0.00000000000E+00 -0.00000000000E+00 -0.95998647239E+01  0.95998647239E+01  0.00000000000E+00 0.  1.
         23    2    1    2    0    0  0.11782427820E+02 -0.86175877273E+01  0.21139718042E+03  0.22837599609E+03  0.85168886771E+02 0.  0.
         13    1    3    3    0    0  0.16039348928E+02  0.16030152379E+01  0.21584372469E+03  0.21644478248E+03  0.00000000000E+00 0. -1.
        -13    1    3    3    0    0 -0.42569211073E+01 -0.10220602965E+02 -0.44465442687E+01  0.11931213611E+02  0.00000000000E+00 0.  1.
         22    1    1    2    0    0 -0.11782427820E+02  0.86175877273E+01  0.46862684838E+02  0.49083598623E+02  0.00000000000E+00 0. -1.
<mgrwt>
<rscale>  0 0.55398248E+02</rscale>
<asrwt>0</asrwt>
<pdfrwt beam="1">  1        1 0.41209184E-01 0.86410808E+02</pdfrwt>
<pdfrwt beam="2">  1       -1 0.14769025E-02 0.86410808E+02</pdfrwt>
<totfact> 0.91951175E+04</totfact>
</mgrwt>
</event>
<event>
 6    1  0.1683416E-002  0.8900713E+02  0.7546771E-02  0.1423621E+00
          1   -1    0    0  501    0  0.00000000000E+00  0.00000000000E+00  0.51954305852E+01  0.51954305852E+01  0.00000000000E+00 0. -1.
         -1   -1    0    0    0  501 -0.00000000000E+00 -0.00000000000E+00 -0.52576948343E+03  0.52576948343E+03  0.00000000000E+00 0.  1.
         23    2    1    2    0    0  0.12173490407E+02 -0.17215832500E+01 -0.48987665808E+03  0.49789698752E+03  0.88153912724E+02 0.  0.
         13    1    3    3    0    0 -0.26052958429E+02  0.11212094591E+02 -0.37623812511E+03  0.37730570430E+03  0.00000000000E+00 0.  1.
        -13    1    3    3    0    0  0.38226448836E+02 -0.12933677841E+02 -0.11363853297E+03  0.12059128322E+03  0.00000000000E+00 0. -1.
         22    1    1    2    0    0 -0.12173490407E+02  0.17215832500E+01 -0.30697394760E+02  0.33067926494E+02  0.00000000000E+00 0. -1.
<mgrwt>
<rscale>  0 0.54262201E+02</rscale>
<asrwt>0</asrwt>
<pdfrwt beam="1">  1        1 0.79929686E-03 0.89007135E+02</pdfrwt>
<pdfrwt beam="2">  1       -1 0.80887629E-01 0.89007135E+02</pdfrwt>
<totfact> 0.31093111E+04</totfact>
</mgrwt>
</event>
<event>
 6    1  0.1683416E-002  0.1011997E+03  0.7546771E-02  0.1371388E+00
          1   -1    0    0  501    0  0.00000000000E+00  0.00000000000E+00  0.21331473638E+02  0.21331473638E+02  0.00000000000E+00 0. -1.
         -1   -1    0    0    0  501 -0.00000000000E+00 -0.00000000000E+00 -0.17233390097E+03  0.17233390097E+03  0.00000000000E+00 0.  1.
         23    2    1    2    0    0 -0.13573398760E+02 -0.13568344081E+02 -0.13472660014E+03  0.16850112088E+03  0.99363141238E+02 0.  0.
         13    1    3    3    0    0  0.35846669677E+02  0.18865378575E+02 -0.69745858181E+02  0.80655879942E+02  0.00000000000E+00 0.  1.
        -13    1    3    3    0    0 -0.49420068437E+02 -0.32433722656E+02 -0.64980741962E+02  0.87845240939E+02  0.00000000000E+00 0. -1.
         22    1    1    2    0    0  0.13573398760E+02  0.13568344081E+02 -0.16275827189E+02  0.25164253728E+02  0.00000000000E+00 0.  1.
<mgrwt>
<rscale>  0 0.66782853E+02</rscale>
<asrwt>0</asrwt>
<pdfrwt beam="1">  1        1 0.32817652E-02 0.10119966E+03</pdfrwt>
<pdfrwt beam="2">  1       -1 0.26512908E-01 0.10119966E+03</pdfrwt>
<totfact> 0.33476574E+04</totfact>
</mgrwt>
</event>
<event>
 6    1  0.1683416E-002  0.9151350E+02  0.7546771E-02  0.1420254E+00
          2   -1    0    0  501    0  0.00000000000E+00  0.00000000000E+00  0.23394147154E+03  0.23394147154E+03  0.00000000000E+00 0. -1.
         -2   -1    0    0    0  501 -0.00000000000E+00 -0.00000000000E+00 -0.11448182075E+02  0.11448182075E+02  0.00000000000E+00 0.  1.
         23    2    1    2    0    0  0.43509789702E+01  0.11088109016E+02  0.19369583837E+03  0.21422604713E+03  0.90735022387E+02 0.  0.
         13    1    3    3    0    0 -0.10611540431E+02  0.17962496739E+02  0.10620740791E+01  0.20889808059E+02  0.00000000000E+00 0.  1.
        -13    1    3    3    0    0  0.14962519401E+02 -0.68743877227E+01  0.19263376429E+03  0.19333623907E+03  0.00000000000E+00 0. -1.
         22    1    1    2    0    0 -0.43509789702E+01 -0.11088109016E+02  0.28797451101E+02  0.31163606490E+02  0.00000000000E+00 0.  1.
<mgrwt>
<rscale>  0 0.54967117E+02</rscale>
<asrwt>0</asrwt>
<pdfrwt beam="1">  1        2 0.35990992E-01 0.91513504E+02</pdfrwt>
<pdfrwt beam="2">  1       -2 0.17612590E-02 0.91513504E+02</pdfrwt>
<totfact> 0.11410391E+05</totfact>
</mgrwt>
</event>
<event>
 6    1  0.1683416E-002  0.9303229E+02  0.7546771E-02  0.1396280E+00
         -1   -1    0    0    0  501 -0.00000000000E+00  0.00000000000E+00  0.43261866829E+02  0.43261866829E+02  0.00000000000E+00 0.  1.
          1   -1    0    0  501    0  0.00000000000E+00 -0.00000000000E+00 -0.83221811468E+02  0.83221811468E+02  0.00000000000E+00 0. -1.
         23    2    1    2    0    0  0.96055010028E+01  0.13412916917E+02 -0.11706040282E+02  0.93765868145E+02  0.91557821404E+02 0.  0.
         13    1    3    3    0    0  0.29163118099E+02 -0.21607523613E+02  0.21068411388E+02  0.41967255001E+02  0.00000000000E+00 0.  1.
        -13    1    3    3    0    0 -0.19557617096E+02  0.35020440530E+02 -0.32774451669E+02  0.51798613144E+02  0.00000000000E+00 0. -1.
         22    1    1    2    0    0 -0.96055010028E+01 -0.13412916917E+02 -0.28253904357E+02  0.32717810152E+02  0.00000000000E+00 0. -1.
<mgrwt>
<rscale>  0 0.60371325E+02</rscale>
<asrwt>0</asrwt>
<pdfrwt beam="1">  1        1 0.12803356E-01 0.93032288E+02</pdfrwt>
<pdfrwt beam="2">  1       -1 0.66556718E-02 0.93032288E+02</pdfrwt>
<totfact> 0.45461699E+04</totfact>
</mgrwt>
</event>
<event>
 6    1  0.1683416E-002  0.9887024E+02  0.7546771E-02  0.1364631E+00
         -1   -1    0    0    0  501 -0.00000000000E+00  0.00000000000E+00  0.10297986076E+03  0.10297986076E+03  0.00000000000E+00 0.  1.
          1   -1    0    0  501    0  0.00000000000E+00 -0.00000000000E+00 -0.65138928312E+02  0.65138928312E+02  0.00000000000E+00 0. -1.
         23    2    1    2    0    0  0.22323641382E+02  0.56378051780E+01  0.75210635462E+02  0.12422545797E+03  0.96151936590E+02 0.  0.
         11    1    3    3    0    0  0.54137471246E+02  0.98003282914E+01  0.16701718028E+02  0.57496605227E+02  0.00000000000E+00 0. -1.
        -11    1    3    3    0    0 -0.31813829865E+02 -0.41625231134E+01  0.58508917434E+02  0.66728852745E+02  0.00000000000E+00 0.  1.
         22    1    1    2    0    0 -0.22323641382E+02 -0.56378051780E+01 -0.37369703013E+02  0.43893331100E+02  0.00000000000E+00 0.  1.
<mgrwt>
<rscale>  0 0.68682639E+02</rscale>
<asrwt>0</asrwt>
<pdfrwt beam="1">  1        1 0.10021374E-01 0.98870242E+02</pdfrwt>
<pdfrwt beam="2">  1       -1 0.15843055E-01 0.98870242E+02</pdfrwt>
<totfact> 0.16915910E+04</totfact>
</mgrwt>
</event>
<event>
 6    1  0.1683416E-002  0.9366513E+02  0.7546771E-02  0.1378207E+00
         -2   -1    0    0    0  501 -0.00000000000E+00  0.00000000000E+00  0.16028166016E+03  0.16028166016E+03  0.00000000000E+00 0.  1.
          2   -1    0    0  501    0  0.00000000000E+00 -0.00000000000E+00 -0.24330500125E+02  0.24330500125E+02  0.00000000000E+00 0. -1.
         23    2    1    2    0    0 -0.15346797098E+02  0.15255914381E+02  0.13314643015E+03  0.16279167417E+03  0.91131170367E+02 0.  0.
         13    1    3    3    0    0 -0.31915827579E+02 -0.31010347082E+02  0.65008752639E+02  0.78780705734E+02  0.00000000000E+00 0. -1.
        -13    1    3    3    0    0  0.16569030481E+02  0.46266261464E+02  0.68137677509E+02  0.84010968434E+02  0.00000000000E+00 0.  1.
         22    1    1    2    0    0  0.15346797098E+02 -0.15255914381E+02  0.28047298906E+01  0.21820486121E+02  0.00000000000E+00 0. -1.
<mgrwt>
<rscale>  0 0.64937442E+02</rscale>
<asrwt>0</asrwt>
<pdfrwt beam="1">  1        2 0.37431540E-02 0.93665134E+02</pdfrwt>
<pdfrwt beam="2">  1       -2 0.24658716E-01 0.93665134E+02</pdfrwt>
<totfact> 0.29567934E+04</totfact>
</mgrwt>
</event>
<event>
 6    1  0.1683416E-002  0.9247911E+02  0.7546771E-02  0.1422222E+00
          1   -1    0    0  501    0  0.00000000000E+00  0.00000000000E+00  0.44408485784E+02  0.44408485784E+02  0.00000000000E+00 0. -1.
         -1   -1    0    0    0  501 -0.00000000000E+00 -0.00000000000E+00 -0.66164406115E+02  0.66164406115E+02  0.00000000000E+00 0.  1.
         23    2    1    2    0    0 -0.10609867594E+02  0.35830623188E+01 -0.29370239071E+02  0.97030902539E+02  0.91798570133E+02 0.  0.
         11    1    3    3    0    0  0.39087966836E+02 -0.10377294109E+02 -0.83566601805E+01  0.41296381849E+02  0.00000000000E+00 0. -1.
        -11    1    3    3    0    0 -0.49697834431E+02  0.13960356428E+02 -0.21013578891E+02  0.55734520690E+02  0.00000000000E+00 0.  1.
         22    1    1    2    0    0  0.10609867594E+02 -0.35830623188E+01  0.76143187410E+01  0.13541989360E+02  0.00000000000E+00 0. -1.
<mgrwt>
<rscale>  0 0.54553574E+02</rscale>
<asrwt>0</asrwt>
<pdfrwt beam="1">  1        1 0.68320748E-02 0.92479106E+02</pdfrwt>
<pdfrwt beam="2">  1       -1 0.10179139E-01 0.92479106E+02</pdfrwt>
<totfact> 0.54946928E+04</totfact>
</mgrwt>
</event>
<event>
 6    1  0.1683416E-002  0.9235537E+02  0.7546771E-02  0.1401119E+00
         -2   -1    0    0    0  501 -0.00000000000E+00  0.00000000000E+00  0.71240152188E+02  0.71240152188E+02  0.00000000000E+00 0.  1.
          2   -1    0    0  501    0  0.00000000000E+00 -0.00000000000E+00 -0.43039959199E+02  0.43039959199E+02  0.00000000000E+00 0. -1.
         23    2    1    2    0    0 -0.15218750965E+02  0.35040022193E+01  0.14462762055E+02  0.93480942626E+02  0.91025418074E+02 0.  0.
         13    1    3    3    0    0  0.13661237331E+02 -0.86553561365E+01  0.46159032526E+02  0.48910130638E+02  0.00000000000E+00 0.  1.
        -13    1    3    3    0    0 -0.28879988296E+02  0.12159358356E+02 -0.31696270470E+02  0.44570811989E+02  0.00000000000E+00 0. -1.
         22    1    1    2    0    0  0.15218750965E+02 -0.35040022193E+01  0.13737430934E+02  0.20799168761E+02  0.00000000000E+00 0. -1.
<mgrwt>
<rscale>  0 0.59223698E+02</rscale>
<asrwt>0</asrwt>
<pdfrwt beam="1">  1        2 0.66215322E-02 0.92355374E+02</pdfrwt>
<pdfrwt beam="2">  1       -2 0.10960023E-01 0.92355374E+02</pdfrwt>
<totfact> 0.53448265E+04</totfact>
</mgrwt>
</event>
<event>
 6    1  0.1683416E-002  0.9467623E+02  0.7546771E-02  0.1372786E+00
         -2   -1    0    0    0  501 -0.00000000000E+00  0.00000000000E+00  0.21814189248E+02  0.21814189248E+02  0.00000000000E+00 0.  1.
          2   -1    0    0  501    0  0.00000000000E+00 -0.00000000000E+00 -0.18497929585E+03  0.18497929585E+03  0.00000000000E+00 0. -1.
         23    2    1    2    0    0 -0.15970408966E+02 -0.16417872706E+02 -0.91922461453E+02  0.13195956903E+03  0.91863966990E+02 0.  0.
         11    1    3    3    0    0  0.18927135724E+02  0.27983900889E+02 -0.54799864365E+02  0.64376706270E+02  0.00000000000E+00 0. -1.
        -11    1    3    3    0    0 -0.34897544690E+02 -0.44401773595E+02 -0.37122597088E+02  0.67582862756E+02  0.00000000000E+00 0.  1.
         22    1    1    2    0    0  0.15970408966E+02  0.16417872706E+02 -0.71242645152E+02  0.74833916074E+02  0.00000000000E+00 0.  1.
<mgrwt>
<rscale>  0 0.66398660E+02</rscale>
<asrwt>0</asrwt>
<pdfrwt beam="1">  1        2 0.28458354E-01 0.94676232E+02</pdfrwt>
<pdfrwt beam="2">  1       -2 0.33560291E-02 0.94676232E+02</pdfrwt>
<totfact> 0.57973086E+04</totfact>
</mgrwt>
</event>
<event>
 6    1  0.1683416E-002  0.7919484E+02  0.7546771E-02  0.1404469E+00
         -1   -1    0    0    0  501 -0.00000000000E+00  0.00000000000E+00  0.16381652991E+03  0.16381652991E+03  0.00000000000E+00 0.  1.
          1   -1    0    0  501    0  0.00000000000E+00 -0.00000000000E+00 -0.24501547029E+02  0.24501547029E+02  0.00000000000E+00 0. -1.
         23    2    1    2    0    0  0.10692895315E+02  0.20918699601E+02  0.14402026347E+03  0.16435832593E+03  0.75629974286E+02 0.  0.
         13    1    3    3    0    0 -0.26649232370E+02  0.30638502312E+02  0.74403286831E+02  0.84762895780E+02  0.00000000000E+00 0. -1.
        -13    1    3    3    0    0  0.37342127686E+02 -0.97198027113E+01  0.69616976635E+02  0.79595430150E+02  0.00000000000E+00 0.  1.
         22    1    1    2    0    0 -0.10692895315E+02 -0.20918699601E+02 -0.47052805812E+01  0.23959751012E+02  0.00000000000E+00 0. -1.
<mgrwt>
<rscale>  0 0.58446455E+02</rscale>
<asrwt>0</asrwt>
<pdfrwt beam="1">  1        1 0.37694689E-02 0.79194842E+02</pdfrwt>
<pdfrwt beam="2">  1       -1 0.25202542E-01 0.79194842E+02</pdfrwt>
<totfact> 0.29132856E+04</totfact>
</mgrwt>
</event>
<event>
 6    1  0.1683416E-002  0.9186787E+02  0.7546771E-02  0.1419028E+00
         -2   -1    0    0    0  501 -0.00000000000E+00  0.00000000000E+00  0.54308403322E+02  0.54308403322E+02  0.00000000000E+00 0.  1.
          2   -1    0    0  501    0  0.00000000000E+00 -0.00000000000E+00 -0.74039656474E+02  0.74039656474E+02  0.00000000000E+00 0. -1.
         23    2    1    2    0    0 -0.10245676167E+02  0.62437377178E+01  0.13649631573E+02  0.92876358317E+02  0.91080993360E+02 0.  0.
         11    1    3    3    0    0 -0.37488563063E+02 -0.29373971878E+01 -0.24668504404E+02  0.44972833715E+02  0.00000000000E+00 0. -1.
        -11    1    3    3    0    0  0.27242886897E+02  0.91811349056E+01  0.38318135977E+02  0.47903524603E+02  0.00000000000E+00 0.  1.
         22    1    1    2    0    0  0.10245676167E+02 -0.62437377178E+01 -0.33380884725E+02  0.35471701479E+02  0.00000000000E+00 0. -1.
<mgrwt>
<rscale>  0 0.55227103E+02</rscale>
<asrwt>0</asrwt>
<pdfrwt beam="1">  1        2 0.11390716E-01 0.91867870E+02</pdfrwt>
<pdfrwt beam="2">  1       -2 0.83551390E-02 0.91867870E+02</pdfrwt>
<totfact> 0.41744987E+04</totfact>
</mgrwt>
</event>
<event>
 6    1  0.1683416E-002  0.9122157E+02  0.7546771E-02  0.1431023E+00
          2   -1    0    0  501    0  0.00000000000E+00  0.00000000000E+00  0.72364021794E+01  0.72364021794E+01  0.00000000000E+00 0. -1.
         -2   -1    0    0    0  501 -0.00000000000E+00 -0.00000000000E+00 -0.42476864077E+03  0.42476864077E+03  0.00000000000E+00 0.  1.
         23    2    1    2    0    0  0.85966847524E+01 -0.54969870680E+01 -0.40789005134E+03  0.41796611028E+03  0.90649078884E+02 0.  0.
         13    1    3    3    0    0  0.31183053869E+02  0.28052987905E+02 -0.29667332262E+03  0.29962378633E+03  0.00000000000E+00 0. -1.
        -13    1    3    3    0    0 -0.22586369116E+02 -0.33549974973E+02 -0.11121672872E+03  0.11834232395E+03  0.00000000000E+00 0.  1.
         22    1    1    2    0    0 -0.85966847524E+01  0.54969870680E+01 -0.96421872455E+01  0.14038932667E+02  0.00000000000E+00 0.  1.
<mgrwt>
<rscale>  0 0.52755150E+02</rscale>
<asrwt>0</asrwt>
<pdfrwt beam="1">  1        2 0.11132926E-02 0.91221573E+02</pdfrwt>
<pdfrwt beam="2">  1       -2 0.65349024E-01 0.91221573E+02</pdfrwt>
<totfact> 0.23957224E+04</totfact>
</mgrwt>
</event>
<event>
 6    1  0.1683416E-002  0.9204517E+02  0.7546771E-02  0.1426936E+00
          2   -1    0    0  501    0  0.00000000000E+00  0.00000000000E+00  0.67384742801E+02  0.67384742801E+02  0.00000000000E+00 0.  1.
         -2   -1    0    0    0  501 -0.00000000000E+00 -0.00000000000E+00 -0.39374255144E+02  0.39374255144E+02  0.00000000000E+00 0. -1.
         23    2    1    2    0    0 -0.53409674250E+01  0.91194378136E+01  0.27933357975E+02  0.96190363783E+02  0.91436445238E+02 0.  0.
         13    1    3    3    0    0 -0.15293668333E+02  0.26486672948E+02 -0.25061375593E+02  0.39541278198E+02  0.00000000000E+00 0. -1.
        -13    1    3    3    0    0  0.99527009075E+01 -0.17367235134E+02  0.52994733568E+02  0.56649085584E+02  0.00000000000E+00 0.  1.
         22    1    1    2    0    0  0.53409674250E+01 -0.91194378136E+01  0.77129682547E-01  0.10568634162E+02  0.00000000000E+00 0.  1.
<mgrwt>
<rscale>  0 0.53579984E+02</rscale>
<asrwt>0</asrwt>
<pdfrwt beam="1">  1        2 0.10366884E-01 0.92045172E+02</pdfrwt>
<pdfrwt beam="2">  1       -2 0.60575777E-02 0.92045172E+02</pdfrwt>
<totfact> 0.76157550E+04</totfact>
</mgrwt>
</event>
<event>
 6    1  0.1683416E-002  0.9078955E+02  0.7546771E-02  0.1431022E+00
         -4   -1    0    0    0  501 -0.00000000000E+00  0.00000000000E+00  0.20321780472E+02  0.20321780472E+02  0.00000000000E+00 0.  1.
          4   -1    0    0  501    0  0.00000000000E+00 -0.00000000000E+00 -0.14498047954E+03  0.14498047954E+03  0.00000000000E+00 0. -1.
         23    2    1    2    0    0  0.33723004237E+01  0.97857191495E+01 -0.85191316043E+02  0.12450021310E+03  0.90197616504E+02 0.  0.
         11    1    3    3    0    0  0.16657399344E+02 -0.45949419330E+01  0.14713508181E+02  0.22695148540E+02  0.00000000000E+00 0.  1.
        -11    1    3    3    0    0 -0.13285098920E+02  0.14380661083E+02 -0.99904824224E+02  0.10180506456E+03  0.00000000000E+00 0. -1.
         22    1    1    2    0    0 -0.33723004237E+01 -0.97857191495E+01 -0.39467383026E+02  0.40802046914E+02  0.00000000000E+00 0. -1.
<mgrwt>
<rscale>  0 0.52755430E+02</rscale>
<asrwt>0</asrwt>
<pdfrwt beam="1">  1        4 0.22304689E-01 0.90789552E+02</pdfrwt>
<pdfrwt beam="2">  1       -4 0.31264278E-02 0.90789552E+02</pdfrwt>
<totfact> 0.13525435E+04</totfact>
</mgrwt>
</event>
<event>
 6    1  0.1683416E-002  0.9266491E+02  0.7546771E-02  0.1405743E+00
         -1   -1    0    0    0  501 -0.00000000000E+00  0.00000000000E+00  0.12981851262E+02  0.12981851262E+02  0.00000000000E+00 0.  1.
          1   -1    0    0  501    0  0.00000000000E+00 -0.00000000000E+00 -0.25654825052E+03  0.25654825052E+03  0.00000000000E+00 0. -1.
         23    2    1    2    0    0  0.13097883698E+02  0.59223082796E+01 -0.16134652067E+03  0.18606312192E+03  0.91543199161E+02 0.  0.
         11    1    3    3    0    0 -0.31627755702E+02  0.28206128675E+02 -0.81753646500E+02  0.92084522813E+02  0.00000000000E+00 0. -1.
        -11    1    3    3    0    0  0.44725639400E+02 -0.22283820395E+02 -0.79592874172E+02  0.93978599107E+02  0.00000000000E+00 0.  1.
         22    1    1    2    0    0 -0.13097883698E+02 -0.59223082796E+01 -0.82219878589E+02  0.83466979866E+02  0.00000000000E+00 0. -1.
<mgrwt>
<rscale>  0 0.58154752E+02</rscale>
<asrwt>0</asrwt>
<pdfrwt beam="1">  1        1 0.39468962E-01 0.92664910E+02</pdfrwt>
<pdfrwt beam="2">  1       -1 0.19972078E-02 0.92664910E+02</pdfrwt>
<totfact> 0.63747755E+04</totfact>
</mgrwt>
</event>
<event>
 6    1  0.1683416E-002  0.8983828E+02  0.7546771E-02  0.1419078E+00
          1   -1    0    0  501    0  0.00000000000E+00  0.00000000000E+00  0.51243374249E+02  0.51243374249E+02  0.00000000000E+00 0. -1.
         -1   -1    0    0    0  501 -0.00000000000E+00 -0.00000000000E+00 -0.73642136048E+02  0.73642136048E+02  0.00000000000E+00 0.  1.
         23    2    1    2    0    0  0.35570646024E+01  0.12316771697E+02 -0.43793383259E+02  0.99943870394E+02  0.88918846362E+02 0.  0.
         11    1    3    3    0    0  0.15799103605E+02 -0.41810625253E+01  0.24039265711E+02  0.29068526872E+02  0.00000000000E+00 0. -1.
        -11    1    3    3    0    0 -0.12242039003E+02  0.16497834222E+02 -0.67832648971E+02  0.70875343522E+02  0.00000000000E+00 0.  1.
         22    1    1    2    0    0 -0.35570646024E+01 -0.12316771697E+02  0.21394621460E+02  0.24941639903E+02  0.00000000000E+00 0. -1.
<mgrwt>
<rscale>  0 0.55216533E+02</rscale>
<asrwt>0</asrwt>
<pdfrwt beam="1">  1        1 0.78835960E-02 0.89838281E+02</pdfrwt>
<pdfrwt beam="2">  1       -1 0.11329559E-01 0.89838281E+02</pdfrwt>
<totfact> 0.38456614E+04</totfact>
</mgrwt>
</event>
<event>
 6    1  0.1683416E-002  0.9032812E+02  0.7546771E-02  0.1433605E+00
          2   -1    0    0  501    0  0.00000000000E+00  0.00000000000E+00  0.35075943796E+03  0.35075943796E+03  0.00000000000E+00 0. -1.
         -2   -1    0    0    0  501 -0.00000000000E+00 -0.00000000000E+00 -0.74017855736E+01  0.74017855736E+01  0.00000000000E+00 0.  1.
         23    2    1    2    0    0  0.33831826823E+00 -0.10101928084E+02  0.32357002058E+03  0.33594155245E+03  0.89760821290E+02 0.  0.
         11    1    3    3    0    0 -0.21583055160E+02 -0.16336968909E+02  0.30592048181E+03  0.30711572088E+03  0.00000000000E+00 0. -1.
        -11    1    3    3    0    0  0.21921373428E+02  0.62350408250E+01  0.17649538769E+02  0.28825831572E+02  0.00000000000E+00 0.  1.
         22    1    1    2    0    0 -0.33831826823E+00  0.10101928084E+02  0.19787631809E+02  0.22219671080E+02  0.00000000000E+00 0.  1.
<mgrwt>
<rscale>  0 0.52243124E+02</rscale>
<asrwt>0</asrwt>
<pdfrwt beam="1">  1        2 0.53962978E-01 0.90328115E+02</pdfrwt>
<pdfrwt beam="2">  1       -2 0.11387365E-02 0.90328115E+02</pdfrwt>
<totfact> 0.13869399E+05</totfact>
</mgrwt>
</event>
<event>
 6    1  0.1683416E-002  0.9111997E+02  0.7546771E-02  0.1425775E+00
         -1   -1    0    0    0  501 -0.00000000000E+00  0.00000000000E+00  0.67039273367E+03  0.67039273367E+03  0.00000000000E+00 0.  1.
          1   -1    0    0  501    0  0.00000000000E+00 -0.00000000000E+00 -0.78322262964E+01  0.78322262964E+01  0.00000000000E+00 0. -1.
         23    2    1    2    0    0 -0.86129988614E+01  0.69827659438E+01  0.66073413826E+03  0.66698759401E+03  0.90442834577E+02 0.  0.
         11    1    3    3    0    0  0.37147213653E+01  0.22430413399E+02  0.63023383227E+03  0.63064380275E+03  0.00000000000E+00 0.  1.
        -11    1    3    3    0    0 -0.12327720227E+02 -0.15447647455E+02  0.30500305987E+02  0.36343791261E+02  0.00000000000E+00 0. -1.
         22    1    1    2    0    0  0.86129988614E+01 -0.69827659438E+01  0.18263691152E+01  0.11237365962E+02  0.00000000000E+00 0.  1.
<mgrwt>
<rscale>  0 0.53817442E+02</rscale>
<asrwt>0</asrwt>
<pdfrwt beam="1">  1        1 0.12049584E-02 0.91119971E+02</pdfrwt>
<pdfrwt beam="2">  1       -1 0.10313730E+00 0.91119971E+02</pdfrwt>
<totfact> 0.10571247E+04</totfact>
</mgrwt>
</event>
<event>
 6    1  0.1683416E-002  0.9264856E+02  0.7546771E-02  0.1406606E+00
          3   -1    0    0  501    0  0.00000000000E+00  0.00000000000E+00  0.48804833797E+02  0.48804833797E+02  0.00000000000E+00 0. -1.
         -3   -1    0    0    0  501 -0.00000000000E+00 -0.00000000000E+00 -0.61854411878E+02  0.61854411878E+02  0.00000000000E+00 0.  1.
         23    2    1    2    0    0  0.67163110347E+01 -0.12498265328E+02 -0.20117766093E+02  0.94807597435E+02  0.91555669123E+02 0.  0.
         13    1    3    3    0    0 -0.20101489044E+02 -0.10335158852E+02  0.30215883963E+02  0.37734400935E+02  0.00000000000E+00 0. -1.
        -13    1    3    3    0    0  0.26817800079E+02 -0.21631064758E+01 -0.50333650056E+02  0.57073196500E+02  0.00000000000E+00 0.  1.
         22    1    1    2    0    0 -0.67163110347E+01  0.12498265328E+02  0.70681880125E+01  0.15851648239E+02  0.00000000000E+00 0. -1.
<mgrwt>
<rscale>  0 0.57958035E+02</rscale>
<asrwt>0</asrwt>
<pdfrwt beam="1">  1        3 0.75084360E-02 0.92648562E+02</pdfrwt>
<pdfrwt beam="2">  1       -3 0.95160633E-02 0.92648562E+02</pdfrwt>
<totfact> 0.19441504E+04</totfact>
</mgrwt>
</event>
<event>
 6    1  0.1683416E-002  0.9496659E+02  0.7546771E-02  0.1378610E+00
          2   -1    0    0  501    0  0.00000000000E+00  0.00000000000E+00  0.13477328855E+03  0.13477328855E+03  0.00000000000E+00 0. -1.
         -2   -1    0    0    0  501 -0.00000000000E+00 -0.00000000000E+00 -0.72298447062E+02  0.72298447062E+02  0.00000000000E+00 0.  1.
         23    2    1    2    0    0 -0.18360063011E+02 -0.93979023419E+01 -0.39630526159E+02  0.10290399308E+03  0.92699734117E+02 0.  0.
         11    1    3    3    0    0 -0.34716628508E+02 -0.25265582528E+02 -0.59017875952E+02  0.72984269794E+02  0.00000000000E+00 0.  1.
        -11    1    3    3    0    0  0.16356565498E+02  0.15867680187E+02  0.19387349792E+02  0.29919723283E+02  0.00000000000E+00 0. -1.
         22    1    1    2    0    0  0.18360063011E+02  0.93979023419E+01  0.10210536765E+03  0.10416774254E+03  0.00000000000E+00 0. -1.
<mgrwt>
<rscale>  0 0.64830506E+02</rscale>
<asrwt>0</asrwt>
<pdfrwt beam="1">  1        2 0.20734352E-01 0.94966590E+02</pdfrwt>
<pdfrwt beam="2">  1       -2 0.11122838E-01 0.94966590E+02</pdfrwt>
<totfact> 0.13464029E+04</totfact>
</mgrwt>
</event>
<event>
 6    1  0.1683416E-002  0.1037590E+03  0.7546771E-02  0.1313464E+00
          2   -1    0    0  501    0  0.00000000000E+00  0.00000000000E+00  0.20923217590E+03  0.20923217590E+03  0.00000000000E+00 0. -1.
         -2   -1    0    0    0  501 -0.00000000000E+00 -0.00000000000E+00 -0.32358878455E+02  0.32358878455E+02  0.00000000000E+00 0.  1.
         23    2    1    2    0    0 -0.94919748099E+00 -0.48408955136E+02  0.72633778162E+02  0.12665539717E+03  0.91769254045E+02 0.  0.
         13    1    3    3    0    0 -0.41157104523E+02 -0.52917591525E+00  0.26484969532E+02  0.48945284665E+02  0.00000000000E+00 0. -1.
        -13    1    3    3    0    0  0.40207907042E+02 -0.47879779220E+02  0.46148808630E+02  0.77710112500E+02  0.00000000000E+00 0.  1.
         22    1    1    2    0    0  0.94919748099E+00  0.48408955136E+02  0.10423951928E+03  0.11493565719E+03  0.00000000000E+00 0. -1.
<mgrwt>
<rscale>  0 0.85757386E+02</rscale>
<asrwt>0</asrwt>
<pdfrwt beam="1">  1        2 0.32189565E-01 0.10375897E+03</pdfrwt>
<pdfrwt beam="2">  1       -2 0.49782891E-02 0.10375897E+03</pdfrwt>
<totfact> 0.28718280E+04</totfact>
</mgrwt>
</event>
<event>
 6    1  0.1683416E-002  0.9268412E+02  0.7546771E-02  0.1418833E+00
          4   -1    0    0  501    0  0.00000000000E+00  0.00000000000E+00  0.79648303734E+02  0.79648303734E+02  0.00000000000E+00 0. -1.
         -4   -1    0    0    0  501 -0.00000000000E+00 -0.00000000000E+00 -0.92778750986E+02  0.92778750986E+02  0.00000000000E+00 0.  1.
         23    2    1    2    0    0 -0.55736136045E+01  0.10308863993E+02 -0.68868998808E+02  0.11546984293E+03  0.91940240284E+02 0.  0.
         13    1    3    3    0    0 -0.34271108404E+02 -0.32345359584E+01 -0.75566701516E+02  0.83037927913E+02  0.00000000000E+00 0.  1.
        -13    1    3    3    0    0  0.28697494799E+02  0.13543399951E+02  0.66977027072E+01  0.32431915015E+02  0.00000000000E+00 0. -1.
         22    1    1    2    0    0  0.55736136045E+01 -0.10308863993E+02  0.55738551557E+02  0.56957211792E+02  0.00000000000E+00 0. -1.
<mgrwt>
<rscale>  0 0.55268511E+02</rscale>
<asrwt>0</asrwt>
<pdfrwt beam="1">  1        4 0.12253585E-01 0.92684117E+02</pdfrwt>
<pdfrwt beam="2">  1       -4 0.14273654E-01 0.92684117E+02</pdfrwt>
<totfact> 0.32742714E+03</totfact>
</mgrwt>
</event>
<event>
 6    1  0.1683416E-002  0.8542266E+02  0.7546771E-02  0.1397022E+00
         -2   -1    0    0    0  501 -0.00000000000E+00  0.00000000000E+00  0.24337215218E+02  0.24337215218E+02  0.00000000000E+00 0.  1.
          2   -1    0    0  501    0  0.00000000000E+00 -0.00000000000E+00 -0.14866854392E+03  0.14866854392E+03  0.00000000000E+00 0. -1.
         23    2    1    2    0    0  0.19662465436E+02 -0.75461256901E+01 -0.57595567393E+02  0.10302563055E+03  0.82785714991E+02 0.  0.
         11    1    3    3    0    0 -0.70599422060E+01 -0.33922880870E+02 -0.45509882028E+00  0.34652730707E+02  0.00000000000E+00 0.  1.
        -11    1    3    3    0    0  0.26722407642E+02  0.26376755180E+02 -0.57140468573E+02  0.68372899842E+02  0.00000000000E+00 0. -1.
         22    1    1    2    0    0 -0.19662465436E+02  0.75461256901E+01 -0.66735761309E+02  0.69980128590E+02  0.00000000000E+00 0.  1.
<mgrwt>
<rscale>  0 0.60193341E+02</rscale>
<asrwt>0</asrwt>
<pdfrwt beam="1">  1        2 0.22872083E-01 0.85422662E+02</pdfrwt>
<pdfrwt beam="2">  1       -2 0.37441870E-02 0.85422662E+02</pdfrwt>
<totfact> 0.61738845E+04</totfact>
</mgrwt>
</event>
<event>
 6    1  0.1683416E-002  0.9242129E+02  0.7546771E-02  0.1384683E+00
         -2   -1    0    0    0  501 -0.00000000000E+00  0.00000000000E+00  0.17267159215E+02  0.17267159215E+02  0.00000000000E+00 0.  1.
          2   -1    0    0  501    0  0.00000000000E+00 -0.00000000000E+00 -0.19058053250E+03  0.19058053250E+03  0.00000000000E+00 0. -1.
         23    2    1    2    0    0 -0.12699117550E+02 -0.15801094359E+02 -0.12502246676E+03  0.15547447506E+03  0.90170688317E+02 0.  0.
         11    1    3    3    0    0  0.16531496001E+02  0.31562107952E+02 -0.37275255132E+02  0.51564538818E+02  0.00000000000E+00 0. -1.
        -11    1    3    3    0    0 -0.29230613551E+02 -0.47363202311E+02 -0.87747211629E+02  0.10390993624E+03  0.00000000000E+00 0.  1.
         22    1    1    2    0    0  0.12699117550E+02  0.15801094359E+02 -0.48290906526E+02  0.52373216653E+02  0.00000000000E+00 0. -1.
<mgrwt>
<rscale>  0 0.63248702E+02</rscale>
<asrwt>0</asrwt>
<pdfrwt beam="1">  1        2 0.29320081E-01 0.92421292E+02</pdfrwt>
<pdfrwt beam="2">  1       -2 0.26564861E-02 0.92421292E+02</pdfrwt>
<totfact> 0.78626746E+04</totfact>
</mgrwt>
</event>
<event>
 6    1  0.1683416E-002  0.8773352E+02  0.7546771E-02  0.1413823E+00
         -1   -1    0    0    0  501 -0.00000000000E+00  0.00000000000E+00  0.44040021965E+02  0.44040021965E+02  0.00000000000E+00 0.  1.
          1   -1    0    0  501    0  0.00000000000E+00 -0.00000000000E+00 -0.12063820820E+03  0.12063820820E+03  0.00000000000E+00 0. -1.
         23    2    1    2    0    0 -0.14522613330E+02 -0.34645590714E+01 -0.11232092797E+01  0.87740712569E+02  0.86453811805E+02 0.  0.
         13    1    3    3    0    0 -0.40613149338E+02  0.33551479385E+00  0.27326875884E+02  0.48952003176E+02  0.00000000000E+00 0.  1.
        -13    1    3    3    0    0  0.26090536009E+02 -0.38000738652E+01 -0.28450085164E+02  0.38788709394E+02  0.00000000000E+00 0. -1.
         22    1    1    2    0    0  0.14522613330E+02  0.34645590714E+01 -0.75474976957E+02  0.76937517598E+02  0.00000000000E+00 0. -1.
<mgrwt>
<rscale>  0 0.56349523E+02</rscale>
<asrwt>0</asrwt>
<pdfrwt beam="1">  1        1 0.18559724E-01 0.87733523E+02</pdfrwt>
<pdfrwt beam="2">  1       -1 0.67753882E-02 0.87733523E+02</pdfrwt>
<totfact> 0.27358555E+04</totfact>
</mgrwt>
</event>
<event>
 6    1  0.1683416E-002  0.9227174E+02  0.7546771E-02  0.1412793E+00
          3   -1    0    0  501    0  0.00000000000E+00  0.00000000000E+00  0.25081950455E+03  0.25081950455E+03  0.00000000000E+00 0. -1.
         -3   -1    0    0    0  501 -0.00000000000E+00 -0.00000000000E+00 -0.12793413824E+02  0.12793413824E+02  0.00000000000E+00 0.  1.
         23    2    1    2    0    0 -0.12874862507E+02  0.20732848024E+01  0.16164671007E+03  0.18612827226E+03  0.91345576043E+02 0.  0.
         13    1    3    3    0    0 -0.78591458957E+01  0.93383588228E+01 -0.90555775356E+01  0.15197848671E+02  0.00000000000E+00 0.  1.
        -13    1    3    3    0    0 -0.50157166113E+01 -0.72650740203E+01  0.17070228761E+03  0.17093042359E+03  0.00000000000E+00 0. -1.
         22    1    1    2    0    0  0.12874862507E+02 -0.20732848024E+01  0.76379380651E+02  0.77484646112E+02  0.00000000000E+00 0.  1.
<mgrwt>
<rscale>  0 0.56575319E+02</rscale>
<asrwt>0</asrwt>
<pdfrwt beam="1">  1        3 0.38587613E-01 0.92271745E+02</pdfrwt>
<pdfrwt beam="2">  1       -3 0.19682177E-02 0.92271745E+02</pdfrwt>
<totfact> 0.13444301E+04</totfact>
</mgrwt>
</event>
<event>
 6    1  0.1683416E-002  0.1302383E+03  0.7546771E-02  0.1244345E+00
         -2   -1    0    0    0  501 -0.00000000000E+00  0.00000000000E+00  0.19979798240E+04  0.19979798240E+04  0.00000000000E+00 0.  1.
          2   -1    0    0  501    0  0.00000000000E+00 -0.00000000000E+00 -0.12830090661E+02  0.12830090661E+02  0.00000000000E+00 0. -1.
         23    2    1    2    0    0 -0.90947040195E+02 -0.10318102879E+02  0.17956081050E+04  0.18003251022E+04  0.92650848934E+02 0.  0.
         11    1    3    3    0    0 -0.92690611930E+02 -0.36539155385E+02  0.15768003827E+04  0.15799449694E+04  0.00000000000E+00 0. -1.
        -11    1    3    3    0    0  0.17435717352E+01  0.26221052505E+02  0.21880772229E+03  0.22038013289E+03  0.00000000000E+00 0.  1.
         22    1    1    2    0    0  0.90947040195E+02  0.10318102879E+02  0.18954162834E+03  0.21048481238E+03  0.00000000000E+00 0.  1.
<mgrwt>
<rscale>  0 0.11924643E+03</rscale>
<asrwt>0</asrwt>
<pdfrwt beam="1">  1        2 0.19738617E-02 0.13023827E+03</pdfrwt>
<pdfrwt beam="2">  1       -2 0.30738126E+00 0.13023827E+03</pdfrwt>
<totfact> 0.18494674E+02</totfact>
</mgrwt>
</event>
<event>
 6    1  0.1683416E-002  0.8904397E+02  0.7546771E-02  0.1378199E+00
         -3   -1    0    0    0  501 -0.00000000000E+00  0.00000000000E+00  0.65337634634E+02  0.65337634634E+02  0.00000000000E+00 0.  1.
          3   -1    0    0  501    0  0.00000000000E+00 -0.00000000000E+00 -0.73525406389E+02  0.73525406389E+02  0.00000000000E+00 0. -1.
         23    2    1    2    0    0 -0.10059823563E+02  0.23093698980E+02  0.29262898628E+02  0.93729110384E+02  0.85406732256E+02 0.  0.
         11    1    3    3    0    0  0.17361002188E+02  0.32893528780E+02  0.46766727647E+02  0.59753790234E+02  0.00000000000E+00 0.  1.
        -11    1    3    3    0    0 -0.27420825751E+02 -0.97998297994E+01 -0.17503829019E+02  0.33975320150E+02  0.00000000000E+00 0. -1.
         22    1    1    2    0    0  0.10059823563E+02 -0.23093698980E+02 -0.37450670383E+02  0.45133930638E+02  0.00000000000E+00 0. -1.
<mgrwt>
<rscale>  0 0.64939504E+02</rscale>
<asrwt>0</asrwt>
<pdfrwt beam="1">  1        3 0.11311601E-01 0.89043972E+02</pdfrwt>
<pdfrwt beam="2">  1       -3 0.10051944E-01 0.89043972E+02</pdfrwt>
<totfact> 0.90336403E+03</totfact>
</mgrwt>
</event>
<event>
 6    1  0.1683416E-002  0.1774276E+03  0.7546771E-02  0.1176544E+00
         -2   -1    0    0    0  501 -0.00000000000E+00  0.00000000000E+00  0.26363382522E+02  0.26363382522E+02  0.00000000000E+00 0.  1.
          2   -1    0    0  501    0  0.00000000000E+00 -0.00000000000E+00 -0.13489010641E+04  0.13489010641E+04  0.00000000000E+00 0. -1.
         23    2    1    2    0    0 -0.98777720793E+02  0.11815121517E+03 -0.10249068217E+04  0.10401512172E+04  0.88112506130E+02 0.  0.
         13    1    3    3    0    0 -0.37477253603E+01  0.52102203115E+02 -0.49532457821E+03  0.49807140331E+03  0.00000000000E+00 0.  1.
        -13    1    3    3    0    0 -0.95029995433E+02  0.66049012059E+02 -0.52958224348E+03  0.54207981390E+03  0.00000000000E+00 0. -1.
         22    1    1    2    0    0  0.98777720793E+02 -0.11815121517E+03 -0.29763085990E+03  0.33511322942E+03  0.00000000000E+00 0.  1.
<mgrwt>
<rscale>  0 0.17125680E+03</rscale>
<asrwt>0</asrwt>
<pdfrwt beam="1">  1        2 0.20752322E+00 0.17742762E+03</pdfrwt>
<pdfrwt beam="2">  1       -2 0.40559055E-02 0.17742762E+03</pdfrwt>
<totfact> 0.44005500E+03</totfact>
</mgrwt>
</event>
<event>
 6    1  0.1683416E-002  0.9657235E+02  0.7546771E-02  0.1337091E+00
         -3   -1    0    0    0  501 -0.00000000000E+00  0.00000000000E+00  0.23160575489E+03  0.23160575489E+03  0.00000000000E+00 0.  1.
          3   -1    0    0  501    0  0.00000000000E+00 -0.00000000000E+00 -0.20034221463E+02  0.20034221463E+02  0.00000000000E+00 0. -1.
         23    2    1    2    0    0  0.35412472448E+02 -0.17512116888E+02  0.14455530432E+03  0.17384606652E+03  0.88122082341E+02 0.  0.
         11    1    3    3    0    0  0.27776302571E+02 -0.88219613527E+01  0.31775788259E+00  0.29145341938E+02  0.00000000000E+00 0. -1.
        -11    1    3    3    0    0  0.76361698775E+01 -0.86901555350E+01  0.14423754643E+03  0.14470072458E+03  0.00000000000E+00 0.  1.
         22    1    1    2    0    0 -0.35412472448E+02  0.17512116888E+02  0.67016229112E+02  0.77793909833E+02  0.00000000000E+00 0.  1.
<mgrwt>
<rscale>  0 0.77233397E+02</rscale>
<asrwt>0</asrwt>
<pdfrwt beam="1">  1        3 0.30821881E-02 0.96572350E+02</pdfrwt>
<pdfrwt beam="2">  1       -3 0.35631653E-01 0.96572350E+02</pdfrwt>
<totfact> 0.79812469E+03</totfact>
</mgrwt>
</event>
<event>
 6    1  0.1683416E-002  0.9296852E+02  0.7546771E-02  0.1363032E+00
          1   -1    0    0  501    0  0.00000000000E+00  0.00000000000E+00  0.12399143658E+03  0.12399143658E+03  0.00000000000E+00 0. -1.
         -1   -1    0    0    0  501 -0.00000000000E+00 -0.00000000000E+00 -0.64551426389E+02  0.64551426389E+02  0.00000000000E+00 0.  1.
         23    2    1    2    0    0 -0.99265949349E+01 -0.26655148438E+02 -0.27595414760E+02  0.96977588864E+02  0.88510516894E+02 0.  0.
         13    1    3    3    0    0 -0.24857967300E+02  0.12341218811E+02  0.19588635469E+02  0.33969675588E+02  0.00000000000E+00 0. -1.
        -13    1    3    3    0    0  0.14931372365E+02 -0.38996367249E+02 -0.47184050230E+02  0.63007913276E+02  0.00000000000E+00 0.  1.
         22    1    1    2    0    0  0.99265949349E+01  0.26655148438E+02  0.87035424950E+02  0.91565274102E+02  0.00000000000E+00 0. -1.
<mgrwt>
<rscale>  0 0.69142934E+02</rscale>
<asrwt>0</asrwt>
<pdfrwt beam="1">  1        1 0.19075606E-01 0.92968521E+02</pdfrwt>
<pdfrwt beam="2">  1       -1 0.99309887E-02 0.92968521E+02</pdfrwt>
<totfact> 0.15025274E+04</totfact>
</mgrwt>
</event>
<event>
 6    1  0.1683416E-002  0.1282819E+03  0.7546771E-02  0.1247014E+00
          1   -1    0    0  501    0  0.00000000000E+00  0.00000000000E+00  0.12262322521E+03  0.12262322521E+03  0.00000000000E+00 0. -1.
         -1   -1    0    0    0  501 -0.00000000000E+00 -0.00000000000E+00 -0.17195443307E+03  0.17195443307E+03  0.00000000000E+00 0.  1.
         23    2    1    2    0    0 -0.72351614880E+02  0.54821564416E+02 -0.12296084169E+03  0.17769531112E+03  0.90642677059E+02 0.  0.
         11    1    3    3    0    0 -0.54806715077E+02  0.45507923741E+02 -0.13628256902E+03  0.15377804056E+03  0.00000000000E+00 0.  1.
        -11    1    3    3    0    0 -0.17544899803E+02  0.93136406750E+01  0.13321727333E+02  0.23917270556E+02  0.00000000000E+00 0. -1.
         22    1    1    2    0    0  0.72351614880E+02 -0.54821564416E+02  0.73629633829E+02  0.11688234716E+03  0.00000000000E+00 0. -1.
<mgrwt>
<rscale>  0 0.11765654E+03</rscale>
<asrwt>0</asrwt>
<pdfrwt beam="1">  1        1 0.18865112E-01 0.12828194E+03</pdfrwt>
<pdfrwt beam="2">  1       -1 0.26454528E-01 0.12828194E+03</pdfrwt>
<totfact> 0.33500736E+03</totfact>
</mgrwt>
</event>
<event>
 6    1  0.1683416E-002  0.1034178E+03  0.7546771E-02  0.1318857E+00
          2   -1    0    0  501    0  0.00000000000E+00  0.00000000000E+00  0.56365609381E+03  0.56365609381E+03  0.00000000000E+00 0. -1.
         -2   -1    0    0    0  501 -0.00000000000E+00 -0.00000000000E+00 -0.10059171272E+02  0.10059171272E+02  0.00000000000E+00 0.  1.
         23    2    1    2    0    0 -0.22639868240E+02  0.38172689033E+02  0.33265398948E+03  0.34835888623E+03  0.93410486962E+02 0.  0.
         11    1    3    3    0    0  0.11053891533E+02  0.44535796003E+02  0.29011133244E+03  0.29371791034E+03  0.00000000000E+00 0. -1.
        -11    1    3    3    0    0 -0.33693759773E+02 -0.63631069704E+01  0.42542657039E+02  0.54640975887E+02  0.00000000000E+00 0.  1.
         22    1    1    2    0    0  0.22639868240E+02 -0.38172689033E+02  0.22094293306E+03  0.22535637886E+03  0.00000000000E+00 0. -1.
<mgrwt>
<rscale>  0 0.83704134E+02</rscale>
<asrwt>0</asrwt>
<pdfrwt beam="1">  1        2 0.86716297E-01 0.10341778E+03</pdfrwt>
<pdfrwt beam="2">  1       -2 0.15475653E-02 0.10341778E+03</pdfrwt>
<totfact> 0.54935832E+04</totfact>
</mgrwt>
</event>
<event>
 6    1  0.1683416E-002  0.9488994E+02  0.7546771E-02  0.1367521E+00
          1   -1    0    0  501    0  0.00000000000E+00  0.00000000000E+00  0.31267230297E+02  0.31267230297E+02  0.00000000000E+00 0. -1.
         -1   -1    0    0    0  501 -0.00000000000E+00 -0.00000000000E+00 -0.11738986065E+03  0.11738986065E+03  0.00000000000E+00 0.  1.
         23    2    1    2    0    0 -0.23979328178E+02 -0.64107197642E+01 -0.58286848103E+02  0.11136183279E+03  0.91586001287E+02 0.  0.
         13    1    3    3    0    0 -0.38143901969E+02 -0.41710572037E+02 -0.39367833148E+02  0.68880732893E+02  0.00000000000E+00 0. -1.
        -13    1    3    3    0    0  0.14164573791E+02  0.35299852273E+02 -0.18919014955E+02  0.42481099892E+02  0.00000000000E+00 0.  1.
         22    1    1    2    0    0  0.23979328178E+02  0.64107197642E+01 -0.27835782247E+02  0.37295258158E+02  0.00000000000E+00 0.  1.
<mgrwt>
<rscale>  0 0.67861276E+02</rscale>
<asrwt>0</asrwt>
<pdfrwt beam="1">  1        1 0.48103431E-02 0.94889942E+02</pdfrwt>
<pdfrwt beam="2">  1       -1 0.18059979E-01 0.94889942E+02</pdfrwt>
<totfact> 0.36526327E+04</totfact>
</mgrwt>
</event>
<event>
 6    1  0.1683416E-002  0.9361360E+02  0.7546771E-02  0.1388645E+00
          2   -1    0    0  501    0  0.00000000000E+00  0.00000000000E+00  0.41887942785E+03  0.41887942785E+03  0.00000000000E+00 0. -1.
         -2   -1    0    0    0  501 -0.00000000000E+00 -0.00000000000E+00 -0.75274470838E+01  0.75274470838E+01  0.00000000000E+00 0.  1.
         23    2    1    2    0    0  0.17102057511E+02  0.65065943182E+01  0.35634970742E+03  0.36844079680E+03  0.91807900690E+02 0.  0.
         13    1    3    3    0    0  0.31679026257E+02 -0.35236821720E+02  0.22206703524E+03  0.22706598699E+03  0.00000000000E+00 0. -1.
        -13    1    3    3    0    0 -0.14576968746E+02  0.41743416038E+02  0.13428267218E+03  0.14137480981E+03  0.00000000000E+00 0.  1.
         22    1    1    2    0    0 -0.17102057511E+02 -0.65065943182E+01  0.55002273352E+02  0.57966078137E+02  0.00000000000E+00 0. -1.
<mgrwt>
<rscale>  0 0.62245079E+02</rscale>
<asrwt>0</asrwt>
<pdfrwt beam="1">  1        2 0.64442971E-01 0.93613604E+02</pdfrwt>
<pdfrwt beam="2">  1       -2 0.11580691E-02 0.93613604E+02</pdfrwt>
<totfact> 0.11298129E+05</totfact>
</mgrwt>
</event>
<event>
 6    1  0.1683416E-002  0.8880929E+02  0.7546771E-02  0.1395135E+00
         -2   -1    0    0    0  501 -0.00000000000E+00  0.00000000000E+00  0.35325386428E+02  0.35325386428E+02  0.00000000000E+00 0.  1.
          2   -1    0    0  501    0  0.00000000000E+00 -0.00000000000E+00 -0.90519663379E+02  0.90519663379E+02  0.00000000000E+00 0. -1.
         23    2    1    2    0    0  0.18648352545E+02  0.50263147489E+01 -0.29252126018E+02  0.93502816000E+02  0.86683705682E+02 0.  0.
         13    1    3    3    0    0  0.20560861817E+01 -0.39610987916E+02 -0.21926249856E+02  0.45321278521E+02  0.00000000000E+00 0. -1.
        -13    1    3    3    0    0  0.16592266363E+02  0.44637302665E+02 -0.73258761620E+01  0.48181537479E+02  0.00000000000E+00 0.  1.
         22    1    1    2    0    0 -0.18648352545E+02 -0.50263147489E+01 -0.25942150933E+02  0.32342233807E+02  0.00000000000E+00 0.  1.
<mgrwt>
<rscale>  0 0.60647237E+02</rscale>
<asrwt>0</asrwt>
<pdfrwt beam="1">  1        2 0.13926102E-01 0.88809288E+02</pdfrwt>
<pdfrwt beam="2">  1       -2 0.54346749E-02 0.88809288E+02</pdfrwt>
<totfact> 0.62771855E+04</totfact>
</mgrwt>
</event>
<event>
 6    1  0.1683416E-002  0.9302108E+02  0.7546771E-02  0.1402929E+00
         -1   -1    0    0    0  501 -0.00000000000E+00  0.00000000000E+00  0.11229747154E+02  0.11229747154E+02  0.00000000000E+00 0.  1.
          1   -1    0    0  501    0  0.00000000000E+00 -0.00000000000E+00 -0.26072930200E+03  0.26072930200E+03  0.00000000000E+00 0. -1.
         23    2    1    2    0    0  0.14445816470E+01  0.14782892344E+02 -0.22208449955E+03  0.24077883140E+03  0.91827555715E+02 0.  0.
         13    1    3    3    0    0 -0.10538038100E+02  0.77286118211E+01 -0.22596502897E+03  0.22634260758E+03  0.00000000000E+00 0. -1.
        -13    1    3    3    0    0  0.11982619747E+02  0.70542805230E+01  0.38805294203E+01  0.14436223824E+02  0.00000000000E+00 0.  1.
         22    1    1    2    0    0 -0.14445816470E+01 -0.14782892344E+02 -0.27415055300E+02  0.31180217756E+02  0.00000000000E+00 0.  1.
<mgrwt>
<rscale>  0 0.58801961E+02</rscale>
<asrwt>0</asrwt>
<pdfrwt beam="1">  1        1 0.40112198E-01 0.93021077E+02</pdfrwt>
<pdfrwt beam="2">  1       -1 0.17276535E-02 0.93021077E+02</pdfrwt>
<totfact> 0.76895242E+04</totfact>
</mgrwt>
</event>
<event>
 6    1  0.1683416E-002  0.1062008E+03  0.7546771E-02  0.1303697E+00
         -2   -1    0    0    0  501 -0.00000000000E+00  0.00000000000E+00  0.11957646017E+02  0.11957646017E+02  0.00000000000E+00 0.  1.
          2   -1    0    0  501    0  0.00000000000E+00 -0.00000000000E+00 -0.54372171436E+03  0.54372171436E+03  0.00000000000E+00 0. -1.
         23    2    1    2    0    0 -0.43007624815E+02  0.32543497305E+02 -0.32036521585E+03  0.33750922070E+03  0.91486980088E+02 0.  0.
         11    1    3    3    0    0  0.29031618973E+01 -0.27894729427E+02 -0.12043280829E+03  0.12365518829E+03  0.00000000000E+00 0. -1.
        -11    1    3    3    0    0 -0.45910786712E+02  0.60438226732E+02 -0.19993240756E+03  0.21385403241E+03  0.00000000000E+00 0.  1.
         22    1    1    2    0    0  0.43007624815E+02 -0.32543497305E+02 -0.21139885249E+03  0.21817013967E+03  0.00000000000E+00 0. -1.
<mgrwt>
<rscale>  0 0.89651746E+02</rscale>
<asrwt>0</asrwt>
<pdfrwt beam="1">  1        2 0.83649486E-01 0.10620077E+03</pdfrwt>
<pdfrwt beam="2">  1       -2 0.18396380E-02 0.10620077E+03</pdfrwt>
<totfact> 0.44740409E+04</totfact>
</mgrwt>
</event>
<event>
 6    1  0.1683416E-002  0.9463392E+02  0.7546771E-02  0.1375379E+00
          2   -1    0    0  501    0  0.00000000000E+00  0.00000000000E+00  0.99377619636E+02  0.99377619636E+02  0.00000000000E+00 0. -1.
         -2   -1    0    0    0  501 -0.00000000000E+00 -0.00000000000E+00 -0.84032781077E+02  0.84032781077E+02  0.00000000000E+00 0.  1.
         23    2    1    2    0    0 -0.83139090499E+01  0.20343871127E+02 -0.55176030311E+02  0.10954439282E+03  0.92046648505E+02 0.  0.
         13    1    3    3    0    0 -0.61962258035E+01  0.32305391483E+02  0.16531864011E+02  0.36814861955E+02  0.00000000000E+00 0. -1.
        -13    1    3    3    0    0 -0.21176832464E+01 -0.11961520356E+02 -0.71707894322E+02  0.72729530863E+02  0.00000000000E+00 0.  1.
         22    1    1    2    0    0  0.83139090499E+01 -0.20343871127E+02  0.70520868870E+02  0.73866007895E+02  0.00000000000E+00 0. -1.
<mgrwt>
<rscale>  0 0.65694328E+02</rscale>
<asrwt>0</asrwt>
<pdfrwt beam="1">  1        2 0.15288865E-01 0.94633925E+02</pdfrwt>
<pdfrwt beam="2">  1       -2 0.12928120E-01 0.94633925E+02</pdfrwt>
<totfact> 0.14988134E+04</totfact>
</mgrwt>
</event>
<event>
 6    1  0.1683416E-002  0.9501151E+02  0.7546771E-02  0.1403010E+00
          1   -1    0    0  501    0  0.00000000000E+00  0.00000000000E+00  0.60216118085E+03  0.60216118085E+03  0.00000000000E+00 0. -1.
         -1   -1    0    0    0  501 -0.00000000000E+00 -0.00000000000E+00 -0.49273285716E+01  0.49273285716E+01  0.00000000000E+00 0.  1.
         23    2    1    2    0    0 -0.15961574062E+01  0.13829690977E+02  0.51838964723E+03  0.52702468026E+03  0.93986058395E+02 0.  0.
         13    1    3    3    0    0 -0.52736775938E+01 -0.37013983639E+02  0.12888200091E+03  0.13419544261E+03  0.00000000000E+00 0.  1.
        -13    1    3    3    0    0  0.36775201876E+01  0.50843674617E+02  0.38950764632E+03  0.39282923764E+03  0.00000000000E+00 0. -1.
         22    1    1    2    0    0  0.15961574062E+01 -0.13829690977E+02  0.78844205053E+02  0.80063829170E+02  0.00000000000E+00 0.  1.
<mgrwt>
<rscale>  0 0.58783258E+02</rscale>
<asrwt>0</asrwt>
<pdfrwt beam="1">  1        1 0.92640124E-01 0.95011511E+02</pdfrwt>
<pdfrwt beam="2">  1       -1 0.75805102E-03 0.95011511E+02</pdfrwt>
<totfact> 0.86437209E+04</totfact>
</mgrwt>
</event>
<event>
 6    1  0.1683416E-002  0.1045970E+03  0.7546771E-02  0.1316497E+00
         -1   -1    0    0    0  501 -0.00000000000E+00  0.00000000000E+00  0.12899832788E+02  0.12899832788E+02  0.00000000000E+00 0.  1.
          1   -1    0    0  501    0  0.00000000000E+00 -0.00000000000E+00 -0.44919294794E+03  0.44919294794E+03  0.00000000000E+00 0. -1.
         23    2    1    2    0    0 -0.17502507321E+02  0.41186357095E+02 -0.26103172234E+03  0.28120826071E+03  0.94540319694E+02 0.  0.
         11    1    3    3    0    0 -0.28460847518E+02  0.57659399126E+02 -0.99496750126E+02  0.11846615312E+03  0.00000000000E+00 0.  1.
        -11    1    3    3    0    0  0.10958340197E+02 -0.16473042031E+02 -0.16153497222E+03  0.16274210759E+03  0.00000000000E+00 0. -1.
         22    1    1    2    0    0  0.17502507321E+02 -0.41186357095E+02 -0.17526139281E+03  0.18088452002E+03  0.00000000000E+00 0. -1.
<mgrwt>
<rscale>  0 0.84594097E+02</rscale>
<asrwt>0</asrwt>
<pdfrwt beam="1">  1        1 0.69106615E-01 0.10459697E+03</pdfrwt>
<pdfrwt beam="2">  1       -1 0.19845894E-02 0.10459697E+03</pdfrwt>
<totfact> 0.32700190E+04</totfact>
</mgrwt>
</event>
<event>
 6    1  0.1683416E-002  0.9738823E+02  0.7546771E-02  0.1346799E+00
         -2   -1    0    0    0  501 -0.00000000000E+00  0.00000000000E+00  0.47929398322E+02  0.47929398322E+02  0.00000000000E+00 0. -1.
          2   -1    0    0  501    0  0.00000000000E+00 -0.00000000000E+00 -0.91908549714E+02  0.91908549714E+02  0.00000000000E+00 0.  1.
         23    2    1    2    0    0  0.32512881032E+02  0.20005281954E+01 -0.20080140893E+02  0.99436806357E+02  0.91778956489E+02 0.  0.
         13    1    3    3    0    0  0.37942045993E+02 -0.57540807675E+01 -0.52857769671E+02  0.65319615080E+02  0.00000000000E+00 0.  1.
        -13    1    3    3    0    0 -0.54291649606E+01  0.77546089629E+01  0.32777628778E+02  0.34117191278E+02  0.00000000000E+00 0. -1.
         22    1    1    2    0    0 -0.32512881032E+02 -0.20005281954E+01 -0.23899010500E+02  0.40401141679E+02  0.00000000000E+00 0. -1.
<mgrwt>
<rscale>  0 0.74062581E+02</rscale>
<asrwt>0</asrwt>
<pdfrwt beam="1">  1        2 0.14139777E-01 0.97388225E+02</pdfrwt>
<pdfrwt beam="2">  1       -2 0.73737536E-02 0.97388225E+02</pdfrwt>
<totfact> 0.39436197E+04</totfact>
</mgrwt>
</event>
<event>
 6    1  0.1683416E-002  0.7986013E+02  0.7546771E-02  0.1420543E+00
          1   -1    0    0  501    0  0.00000000000E+00  0.00000000000E+00  0.10672226988E+03  0.10672226988E+03  0.00000000000E+00 0. -1.
         -1   -1    0    0    0  501 -0.00000000000E+00 -0.00000000000E+00 -0.24177793630E+02  0.24177793630E+02  0.00000000000E+00 0.  1.
         23    2    1    2    0    0 -0.17600959826E+02  0.29354343632E+01  0.79708378438E+02  0.11283202508E+03  0.77841054268E+02 0.  0.
         11    1    3    3    0    0 -0.15018742222E+02 -0.36952012017E+02  0.39447404088E+02  0.56099122090E+02  0.00000000000E+00 0.  1.
        -11    1    3    3    0    0 -0.25822176047E+01  0.39887446380E+02  0.40260974350E+02  0.56732902994E+02  0.00000000000E+00 0. -1.
         22    1    1    2    0    0  0.17600959826E+02 -0.29354343632E+01  0.28360978091E+01  0.18068038424E+02  0.00000000000E+00 0. -1.
<mgrwt>
<rscale>  0 0.54906144E+02</rscale>
<asrwt>0</asrwt>
<pdfrwt beam="1">  1        1 0.16418811E-01 0.79860130E+02</pdfrwt>
<pdfrwt beam="2">  1       -1 0.37196606E-02 0.79860130E+02</pdfrwt>
<totfact> 0.75683008E+04</totfact>
</mgrwt>
</event>
<event>
 6    1  0.1683416E-002  0.9287411E+02  0.7546771E-02  0.1403848E+00
         -2   -1    0    0    0  501 -0.00000000000E+00  0.00000000000E+00  0.62606659647E+02  0.62606659647E+02  0.00000000000E+00 0. -1.
          2   -1    0    0  501    0  0.00000000000E+00 -0.00000000000E+00 -0.46296966758E+02  0.46296966758E+02  0.00000000000E+00 0.  1.
         23    2    1    2    0    0  0.51231923883E+01 -0.13788404335E+02  0.15616356964E+02  0.94177869750E+02  0.91701872126E+02 0.  0.
         11    1    3    3    0    0 -0.14405308347E+02  0.29730017291E+02  0.29720058758E+02  0.44437244844E+02  0.00000000000E+00 0. -1.
        -11    1    3    3    0    0  0.19528500735E+02 -0.43518421626E+02 -0.14103701794E+02  0.49740624907E+02  0.00000000000E+00 0.  1.
         22    1    1    2    0    0 -0.51231923883E+01  0.13788404335E+02  0.69333592584E+00  0.14725756655E+02  0.00000000000E+00 0.  1.
<mgrwt>
<rscale>  0 0.58589519E+02</rscale>
<asrwt>0</asrwt>
<pdfrwt beam="1">  1        2 0.71226103E-02 0.92874111E+02</pdfrwt>
<pdfrwt beam="2">  1       -2 0.96317938E-02 0.92874111E+02</pdfrwt>
<totfact> 0.59691862E+04</totfact>
</mgrwt>
</event>
<event>
 6    1  0.1683416E-002  0.9221421E+02  0.7546771E-02  0.1392698E+00
         -2   -1    0    0    0  501 -0.00000000000E+00  0.00000000000E+00  0.65892851212E+02  0.65892851212E+02  0.00000000000E+00 0. -1.
          2   -1    0    0  501    0  0.00000000000E+00 -0.00000000000E+00 -0.56156434330E+02  0.56156434330E+02  0.00000000000E+00 0.  1.
         23    2    1    2    0    0  0.43927306995E+01  0.17391508810E+02  0.28078212277E+02  0.96394225222E+02  0.90452750040E+02 0.  0.
         11    1    3    3    0    0 -0.70191850232E+01  0.63140976230E+01  0.59995577710E+02  0.60733896071E+02  0.00000000000E+00 0. -1.
        -11    1    3    3    0    0  0.11411915723E+02  0.11077411187E+02 -0.31917365432E+02  0.35660329152E+02  0.00000000000E+00 0.  1.
         22    1    1    2    0    0 -0.43927306995E+01 -0.17391508810E+02 -0.18341795395E+02  0.25655060320E+02  0.00000000000E+00 0.  1.
<mgrwt>
<rscale>  0 0.61240681E+02</rscale>
<asrwt>0</asrwt>
<pdfrwt beam="1">  1        2 0.86394515E-02 0.92214211E+02</pdfrwt>
<pdfrwt beam="2">  1       -2 0.10137362E-01 0.92214211E+02</pdfrwt>
<totfact> 0.43324441E+04</totfact>
</mgrwt>
</event>
<event>
 6    1  0.1683416E-002  0.1118460E+03  0.7546771E-02  0.1377927E+00
          2   -1    0    0  501    0  0.00000000000E+00  0.00000000000E+00  0.11829177622E+03  0.11829177622E+03  0.00000000000E+00 0.  1.
         -2   -1    0    0    0  501 -0.00000000000E+00 -0.00000000000E+00 -0.43437339635E+02  0.43437339635E+02  0.00000000000E+00 0. -1.
         23    2    1    2    0    0 -0.91202208383E+01  0.89349356659E+01  0.31012536798E+02  0.11606596134E+03  0.11111488847E+03 0.  0.
         11    1    3    3    0    0 -0.37305871751E+02 -0.20780074925E+02  0.54200091454E+02  0.69001373135E+02  0.00000000000E+00 0.  1.
        -11    1    3    3    0    0  0.28185650913E+02  0.29715010591E+02 -0.23187554656E+02  0.47064588203E+02  0.00000000000E+00 0. -1.
         22    1    1    2    0    0  0.91202208383E+01 -0.89349356659E+01  0.43841899789E+02  0.45663154519E+02  0.00000000000E+00 0.  1.
<mgrwt>
<rscale>  0 0.65011869E+02</rscale>
<asrwt>0</asrwt>
<pdfrwt beam="1">  1        2 0.18198735E-01 0.11184601E+03</pdfrwt>
<pdfrwt beam="2">  1       -2 0.66826677E-02 0.11184601E+03</pdfrwt>
<totfact> 0.34837962E+04</totfact>
</mgrwt>
</event>
<event>
 6    1  0.1683416E-002  0.9211239E+02  0.7546771E-02  0.1424564E+00
          2   -1    0    0  501    0  0.00000000000E+00  0.00000000000E+00  0.30933048280E+03  0.30933048280E+03  0.00000000000E+00 0. -1.
         -2   -1    0    0    0  501 -0.00000000000E+00 -0.00000000000E+00 -0.91646508125E+01  0.91646508125E+01  0.00000000000E+00 0.  1.
         23    2    1    2    0    0 -0.70032686538E+00 -0.10911258158E+02  0.23480764432E+03  0.25222871144E+03  0.91461177729E+02 0.  0.
         11    1    3    3    0    0  0.19283754402E+02  0.45272906241E+01  0.42075478136E+01  0.20250012415E+02  0.00000000000E+00 0.  1.
        -11    1    3    3    0    0 -0.19984081267E+02 -0.15438548782E+02  0.23060009651E+03  0.23197869903E+03  0.00000000000E+00 0. -1.
         22    1    1    2    0    0  0.70032686538E+00  0.10911258158E+02  0.65358187665E+02  0.66266422169E+02  0.00000000000E+00 0. -1.
<mgrwt>
<rscale>  0 0.54066772E+02</rscale>
<asrwt>0</asrwt>
<pdfrwt beam="1">  1        2 0.47589297E-01 0.92112394E+02</pdfrwt>
<pdfrwt beam="2">  1       -2 0.14099465E-02 0.92112394E+02</pdfrwt>
<totfact> 0.11710036E+05</totfact>
</mgrwt>
</event>
<event>
 6    1  0.1683416E-002  0.9613673E+02  0.7546771E-02  0.1398101E+00
          2   -1    0    0  501    0  0.00000000000E+00  0.00000000000E+00  0.64977726177E+02  0.64977726177E+02  0.00000000000E+00 0. -1.
         -2   -1    0    0    0  501 -0.00000000000E+00 -0.00000000000E+00 -0.47570055143E+02  0.47570055143E+02  0.00000000000E+00 0.  1.
         23    2    1    2    0    0  0.67328795614E+01  0.12868808339E+02  0.11323916477E+02  0.96801354273E+02  0.95033326836E+02 0.  0.
         13    1    3    3    0    0  0.19045581499E+02  0.31371769565E+02  0.43991445721E+02  0.57290220779E+02  0.00000000000E+00 0. -1.
        -13    1    3    3    0    0 -0.12312701937E+02 -0.18502961226E+02 -0.32667529244E+02  0.39511133495E+02  0.00000000000E+00 0.  1.
         22    1    1    2    0    0 -0.67328795614E+01 -0.12868808339E+02  0.60837545563E+01  0.15746427047E+02  0.00000000000E+00 0.  1.
<mgrwt>
<rscale>  0 0.59935805E+02</rscale>
<asrwt>0</asrwt>
<pdfrwt beam="1">  1        2 0.99965732E-02 0.96136731E+02</pdfrwt>
<pdfrwt beam="2">  1       -2 0.73184700E-02 0.96136731E+02</pdfrwt>
<totfact> 0.60180718E+04</totfact>
</mgrwt>
</event>
<event>
 6    1  0.1683416E-002  0.9160203E+02  0.7546771E-02  0.1397731E+00
          2   -1    0    0  501    0  0.00000000000E+00  0.00000000000E+00  0.11201979646E+03  0.11201979646E+03  0.00000000000E+00 0. -1.
         -2   -1    0    0    0  501 -0.00000000000E+00 -0.00000000000E+00 -0.27128246909E+02  0.27128246909E+02  0.00000000000E+00 0.  1.
         23    2    1    2    0    0  0.15995512924E+02  0.54180710406E+01  0.61638990185E+02  0.11040968147E+03  0.90031776191E+02 0.  0.
         13    1    3    3    0    0  0.38910329846E+02 -0.20420076660E+02  0.52093644687E+01  0.44250771492E+02  0.00000000000E+00 0.  1.
        -13    1    3    3    0    0 -0.22914816921E+02  0.25838147701E+02  0.56429625716E+02  0.66158909979E+02  0.00000000000E+00 0. -1.
         22    1    1    2    0    0 -0.15995512924E+02 -0.54180710406E+01  0.23252559367E+02  0.28738361899E+02  0.00000000000E+00 0. -1.
<mgrwt>
<rscale>  0 0.60023981E+02</rscale>
<asrwt>0</asrwt>
<pdfrwt beam="1">  1        2 0.17233815E-01 0.91602034E+02</pdfrwt>
<pdfrwt beam="2">  1       -2 0.41735765E-02 0.91602034E+02</pdfrwt>
<totfact> 0.72959346E+04</totfact>
</mgrwt>
</event>
<event>
 6    1  0.1683416E-002  0.1126377E+03  0.7546771E-02  0.1300851E+00
          2   -1    0    0  501    0  0.00000000000E+00  0.00000000000E+00  0.36750285114E+03  0.36750285114E+03  0.00000000000E+00 0. -1.
         -2   -1    0    0    0  501 -0.00000000000E+00 -0.00000000000E+00 -0.23358903532E+02  0.23358903532E+02  0.00000000000E+00 0.  1.
         23    2    1    2    0    0  0.38569899801E+02 -0.27948554967E+02  0.13241782350E+03  0.17384398922E+03  0.10207102287E+03 0.  0.
         13    1    3    3    0    0  0.49008791018E+02 -0.58075833329E+02  0.68029158547E+02  0.10199328618E+03  0.00000000000E+00 0.  1.
        -13    1    3    3    0    0 -0.10438891216E+02  0.30127278362E+02  0.64388664956E+02  0.71850703032E+02  0.00000000000E+00 0. -1.
         22    1    1    2    0    0 -0.38569899801E+02  0.27948554967E+02  0.21172612410E+03  0.21701776545E+03  0.00000000000E+00 0. -1.
<mgrwt>
<rscale>  0 0.90831479E+02</rscale>
<asrwt>0</asrwt>
<pdfrwt beam="1">  1        2 0.56538896E-01 0.11263771E+03</pdfrwt>
<pdfrwt beam="2">  1       -2 0.35936777E-02 0.11263771E+03</pdfrwt>
<totfact> 0.25898758E+04</totfact>
</mgrwt>
</event>
<event>
 6    1  0.1683416E-002  0.9357441E+02  0.7546771E-02  0.1382877E+00
          2   -1    0    0  501    0  0.00000000000E+00  0.00000000000E+00  0.28524514780E+03  0.28524514780E+03  0.00000000000E+00 0. -1.
         -2   -1    0    0    0  501 -0.00000000000E+00 -0.00000000000E+00 -0.11664895514E+02  0.11664895514E+02  0.00000000000E+00 0.  1.
         23    2    1    2    0    0  0.16567413510E+02  0.11402260888E+02  0.20316212556E+03  0.22367614873E+03  0.91387523802E+02 0.  0.
         13    1    3    3    0    0  0.48359259617E+02 -0.43475491145E+01  0.65611163312E+02  0.81623182523E+02  0.00000000000E+00 0. -1.
        -13    1    3    3    0    0 -0.31791846108E+02  0.15749810003E+02  0.13755096224E+03  0.14205296621E+03  0.00000000000E+00 0.  1.
         22    1    1    2    0    0 -0.16567413510E+02 -0.11402260888E+02  0.70418126730E+02  0.73233894584E+02  0.00000000000E+00 0.  1.
<mgrwt>
<rscale>  0 0.63713490E+02</rscale>
<asrwt>0</asrwt>
<pdfrwt beam="1">  1        2 0.43883863E-01 0.93574410E+02</pdfrwt>
<pdfrwt beam="2">  1       -2 0.17945995E-02 0.93574410E+02</pdfrwt>
<totfact> 0.90498971E+04</totfact>
</mgrwt>
</event>
<event>
 6    1  0.1683416E-002  0.9970777E+02  0.7546771E-02  0.1336746E+00
          2   -1    0    0  501    0  0.00000000000E+00  0.00000000000E+00  0.15259930006E+03  0.15259930006E+03  0.00000000000E+00 0. -1.
         -2   -1    0    0    0  501 -0.00000000000E+00 -0.00000000000E+00 -0.32235486035E+02  0.32235486035E+02  0.00000000000E+00 0.  1.
         23    2    1    2    0    0 -0.21825852773E+02  0.28768880747E+02  0.66008339905E+02  0.11957734272E+03  0.92938816469E+02 0.  0.
         13    1    3    3    0    0  0.18085881305E+02 -0.55331480322E+01  0.64190854719E+02  0.66919209942E+02  0.00000000000E+00 0. -1.
        -13    1    3    3    0    0 -0.39911734078E+02  0.34302028780E+02  0.18174851860E+01  0.52658132780E+02  0.00000000000E+00 0.  1.
         22    1    1    2    0    0  0.21825852773E+02 -0.28768880747E+02  0.54355474119E+02  0.65257443371E+02  0.00000000000E+00 0. -1.
<mgrwt>
<rscale>  0 0.77349434E+02</rscale>
<asrwt>0</asrwt>
<pdfrwt beam="1">  1        2 0.23476815E-01 0.99707773E+02</pdfrwt>
<pdfrwt beam="2">  1       -2 0.49593056E-02 0.99707773E+02</pdfrwt>
<totfact> 0.40456525E+04</totfact>
</mgrwt>
</event>
<event>
 6    1  0.1683416E-002  0.9339380E+02  0.7546771E-02  0.1390473E+00
          4   -1    0    0  501    0  0.00000000000E+00  0.00000000000E+00  0.14467372200E+03  0.14467372200E+03  0.00000000000E+00 0. -1.
         -4   -1    0    0    0  501 -0.00000000000E+00 -0.00000000000E+00 -0.23969678130E+02  0.23969678130E+02  0.00000000000E+00 0.  1.
         23    2    1    2    0    0 -0.13874695090E+02 -0.11299027294E+02  0.75725198949E+02  0.12023604870E+03  0.91663659486E+02 0.  0.
         13    1    3    3    0    0 -0.12281070686E+02  0.38046099368E+02  0.51629899018E+02  0.65299133585E+02  0.00000000000E+00 0. -1.
        -13    1    3    3    0    0 -0.15936244036E+01 -0.49345126662E+02  0.24095299932E+02  0.54936915119E+02  0.00000000000E+00 0.  1.
         22    1    1    2    0    0  0.13874695090E+02  0.11299027294E+02  0.44978844916E+02  0.48407351421E+02  0.00000000000E+00 0. -1.
<mgrwt>
<rscale>  0 0.61789117E+02</rscale>
<asrwt>0</asrwt>
<pdfrwt beam="1">  1        4 0.22257495E-01 0.93393799E+02</pdfrwt>
<pdfrwt beam="2">  1       -4 0.36876429E-02 0.93393799E+02</pdfrwt>
<totfact> 0.10579380E+04</totfact>
</mgrwt>
</event>
<event>
 6    1  0.1683416E-002  0.9571649E+02  0.7546771E-02  0.1377082E+00
          2   -1    0    0  501    0  0.00000000000E+00  0.00000000000E+00  0.78801601925E+02  0.78801601925E+02  0.00000000000E+00 0. -1.
         -2   -1    0    0    0  501 -0.00000000000E+00 -0.00000000000E+00 -0.68355867062E+02  0.68355867062E+02  0.00000000000E+00 0.  1.
         23    2    1    2    0    0 -0.19163338458E+02 -0.77053795992E+01 -0.31198367216E+02  0.10067265799E+03  0.93461433403E+02 0.  0.
         13    1    3    3    0    0 -0.55629369630E+02  0.75894514873E+01 -0.19505167890E+02  0.59436336645E+02  0.00000000000E+00 0.  1.
        -13    1    3    3    0    0  0.36466031172E+02 -0.15294831086E+02 -0.11693199326E+02  0.41236321343E+02  0.00000000000E+00 0. -1.
         22    1    1    2    0    0  0.19163338458E+02  0.77053795992E+01  0.41644102079E+02  0.46484810999E+02  0.00000000000E+00 0. -1.
<mgrwt>
<rscale>  0 0.65236926E+02</rscale>
<asrwt>0</asrwt>
<pdfrwt beam="1">  1        2 0.12123323E-01 0.95716487E+02</pdfrwt>
<pdfrwt beam="2">  1       -2 0.10516287E-01 0.95716487E+02</pdfrwt>
<totfact> 0.27282052E+04</totfact>
</mgrwt>
</event>
<event>
 6    1  0.1683416E-002  0.9357841E+02  0.7546771E-02  0.1379481E+00
         -2   -1    0    0    0  501 -0.00000000000E+00  0.00000000000E+00  0.10093679877E+02  0.10093679877E+02  0.00000000000E+00 0.  1.
          2   -1    0    0  501    0  0.00000000000E+00 -0.00000000000E+00 -0.33324272911E+03  0.33324272911E+03  0.00000000000E+00 0. -1.
         23    2    1    2    0    0 -0.14214804073E+02  0.15799388699E+02 -0.24235627238E+03  0.25979507713E+03  0.91133078503E+02 0.  0.
         11    1    3    3    0    0 -0.18907589198E+02 -0.24728896440E+02 -0.19420141495E+03  0.19668046374E+03  0.00000000000E+00 0. -1.
        -11    1    3    3    0    0  0.46927851255E+01  0.40528285138E+02 -0.48154857434E+02  0.63114613387E+02  0.00000000000E+00 0.  1.
         22    1    1    2    0    0  0.14214804073E+02 -0.15799388699E+02 -0.80792776845E+02  0.83541331857E+02  0.00000000000E+00 0.  1.
<mgrwt>
<rscale>  0 0.64600484E+02</rscale>
<asrwt>0</asrwt>
<pdfrwt beam="1">  1        2 0.51268105E-01 0.93578413E+02</pdfrwt>
<pdfrwt beam="2">  1       -2 0.15528741E-02 0.93578413E+02</pdfrwt>
<totfact> 0.94604920E+04</totfact>
</mgrwt>
</event>
<event>
 6    1  0.1683416E-002  0.9971341E+02  0.7546771E-02  0.1332189E+00
          2   -1    0    0  501    0  0.00000000000E+00  0.00000000000E+00  0.18059154834E+03  0.18059154834E+03  0.00000000000E+00 0. -1.
         -2   -1    0    0    0  501 -0.00000000000E+00 -0.00000000000E+00 -0.29022299936E+02  0.29022299936E+02  0.00000000000E+00 0.  1.
         23    2    1    2    0    0  0.35218816813E+02  0.16977177287E+02  0.79126203933E+02  0.12729383674E+03  0.91728812910E+02 0.  0.
         13    1    3    3    0    0  0.38402901902E+01  0.40324029778E+02  0.78319419840E+02  0.88174297447E+02  0.00000000000E+00 0. -1.
        -13    1    3    3    0    0  0.31378526623E+02 -0.23346852491E+02  0.80678409345E+00  0.39119539297E+02  0.00000000000E+00 0.  1.
         22    1    1    2    0    0 -0.35218816813E+02 -0.16977177287E+02  0.72443044476E+02  0.82320011536E+02  0.00000000000E+00 0. -1.
<mgrwt>
<rscale>  0 0.78904459E+02</rscale>
<asrwt>0</asrwt>
<pdfrwt beam="1">  1        2 0.27783314E-01 0.99713413E+02</pdfrwt>
<pdfrwt beam="2">  1       -2 0.44649693E-02 0.99713413E+02</pdfrwt>
<totfact> 0.39352427E+04</totfact>
</mgrwt>
</event>
<event>
 6    1  0.1683416E-002  0.9770134E+02  0.7546771E-02  0.1357094E+00
         -2   -1    0    0    0  501 -0.00000000000E+00  0.00000000000E+00  0.60603058265E+02  0.60603058265E+02  0.00000000000E+00 0.  1.
          2   -1    0    0  501    0  0.00000000000E+00 -0.00000000000E+00 -0.79977013022E+02  0.79977013022E+02  0.00000000000E+00 0. -1.
         23    2    1    2    0    0 -0.70600704277E+01  0.26142242420E+02  0.12790143229E+02  0.98534968927E+02  0.93873803078E+02 0.  0.
         13    1    3    3    0    0 -0.18356046143E+02  0.53236860855E+02 -0.14825915259E+02  0.58231568302E+02  0.00000000000E+00 0.  1.
        -13    1    3    3    0    0  0.11295975715E+02 -0.27094618435E+02  0.27616058488E+02  0.40303400625E+02  0.00000000000E+00 0. -1.
         22    1    1    2    0    0  0.70600704277E+01 -0.26142242420E+02 -0.32164097987E+02  0.42045102360E+02  0.00000000000E+00 0. -1.
<mgrwt>
<rscale>  0 0.70889637E+02</rscale>
<asrwt>0</asrwt>
<pdfrwt beam="1">  1        2 0.12304156E-01 0.97701343E+02</pdfrwt>
<pdfrwt beam="2">  1       -2 0.93235475E-02 0.97701343E+02</pdfrwt>
<totfact> 0.32411480E+04</totfact>
</mgrwt>
</event>
<event>
 6    1  0.1683416E-002  0.1339079E+03  0.7546771E-02  0.1236288E+00
          2   -1    0    0  501    0  0.00000000000E+00  0.00000000000E+00  0.85376521921E+02  0.85376521921E+02  0.00000000000E+00 0. -1.
         -2   -1    0    0    0  501 -0.00000000000E+00 -0.00000000000E+00 -0.21007380040E+03  0.21007380040E+03  0.00000000000E+00 0.  1.
         23    2    1    2    0    0 -0.31923241133E+02 -0.93894326718E+02  0.27836240290E+01  0.13393679837E+03  0.89978216702E+02 0.  0.
         11    1    3    3    0    0 -0.43151880108E+02 -0.47926872303E+01 -0.54307025994E+01  0.43755538374E+02  0.00000000000E+00 0.  1.
        -11    1    3    3    0    0  0.11228638975E+02 -0.89101639488E+02  0.82143266284E+01  0.90181259997E+02  0.00000000000E+00 0. -1.
         22    1    1    2    0    0  0.31923241133E+02  0.93894326718E+02 -0.12748090251E+03  0.16151352395E+03  0.00000000000E+00 0.  1.
<mgrwt>
<rscale>  0 0.12422319E+03</rscale>
<asrwt>0</asrwt>
<pdfrwt beam="1">  1        2 0.13134850E-01 0.13390787E+03</pdfrwt>
<pdfrwt beam="2">  1       -2 0.32319046E-01 0.13390787E+03</pdfrwt>
<totfact> 0.38981724E+03</totfact>
</mgrwt>
</event>
<event>
 6    1  0.1683416E-002  0.9276200E+02  0.7546771E-02  0.1421410E+00
         -2   -1    0    0    0  501 -0.00000000000E+00  0.00000000000E+00  0.63348076502E+02  0.63348076502E+02  0.00000000000E+00 0.  1.
          2   -1    0    0  501    0  0.00000000000E+00 -0.00000000000E+00 -0.45227962121E+02  0.45227962121E+02  0.00000000000E+00 0. -1.
         23    2    1    2    0    0  0.10990712762E+02  0.23327135234E+01  0.24109334462E+02  0.95843871620E+02  0.92079044302E+02 0.  0.
         11    1    3    3    0    0 -0.14289152485E+02  0.41354270334E+02  0.63181658476E+00  0.43757910666E+02  0.00000000000E+00 0. -1.
        -11    1    3    3    0    0  0.25279865247E+02 -0.39021556811E+02  0.23477517877E+02  0.52085960954E+02  0.00000000000E+00 0.  1.
         22    1    1    2    0    0 -0.10990712762E+02 -0.23327135234E+01 -0.59892200815E+01  0.12732167003E+02  0.00000000000E+00 0. -1.
<mgrwt>
<rscale>  0 0.54723773E+02</rscale>
<asrwt>0</asrwt>
<pdfrwt beam="1">  1        2 0.69581480E-02 0.92761995E+02</pdfrwt>
<pdfrwt beam="2">  1       -2 0.97458579E-02 0.92761995E+02</pdfrwt>
<totfact> 0.60345319E+04</totfact>
</mgrwt>
</event>
<event>
 6    1  0.1683416E-002  0.9103607E+02  0.7546771E-02  0.1395398E+00
          1   -1    0    0  501    0  0.00000000000E+00  0.00000000000E+00  0.55673671915E+02  0.55673671915E+02  0.00000000000E+00 0. -1.
         -1   -1    0    0    0  501 -0.00000000000E+00 -0.00000000000E+00 -0.91356676408E+02  0.91356676408E+02  0.00000000000E+00 0.  1.
         23    2    1    2    0    0  0.17665174289E+02 -0.26038712864E+01 -0.65586476610E+02  0.11220139237E+03  0.89267732168E+02 0.  0.
         11    1    3    3    0    0  0.39067915884E+02 -0.17050478867E+02 -0.99336799564E+00  0.42638101049E+02  0.00000000000E+00 0. -1.
        -11    1    3    3    0    0 -0.21402741595E+02  0.14446607581E+02 -0.64593108615E+02  0.69563291317E+02  0.00000000000E+00 0.  1.
         22    1    1    2    0    0 -0.17665174289E+02  0.26038712864E+01  0.29903472117E+02  0.34828955956E+02  0.00000000000E+00 0. -1.
<mgrwt>
<rscale>  0 0.60583796E+02</rscale>
<asrwt>0</asrwt>
<pdfrwt beam="1">  1        1 0.85651803E-02 0.91036073E+02</pdfrwt>
<pdfrwt beam="2">  1       -1 0.14054873E-01 0.91036073E+02</pdfrwt>
<totfact> 0.24815871E+04</totfact>
</mgrwt>
</event>
<event>
 6    1  0.1683416E-002  0.1096857E+03  0.7546771E-02  0.1327322E+00
          2   -1    0    0  501    0  0.00000000000E+00  0.00000000000E+00  0.97085903434E+02  0.97085903434E+02  0.00000000000E+00 0. -1.
         -2   -1    0    0    0  501 -0.00000000000E+00 -0.00000000000E+00 -0.64424828996E+02  0.64424828996E+02  0.00000000000E+00 0.  1.
         23    2    1    2    0    0  0.24758419675E+02  0.20274686931E+02 -0.77553258883E+01  0.10995951818E+03  0.10491381360E+03 0.  0.
         13    1    3    3    0    0  0.49730068593E+02  0.31304742064E+02 -0.37403877497E+02  0.69657136388E+02  0.00000000000E+00 0.  1.
        -13    1    3    3    0    0 -0.24971648919E+02 -0.11030055133E+02  0.29648551609E+02  0.40302381796E+02  0.00000000000E+00 0. -1.
         22    1    1    2    0    0 -0.24758419675E+02 -0.20274686931E+02  0.40416400326E+02  0.51551214246E+02  0.00000000000E+00 0.  1.
<mgrwt>
<rscale>  0 0.80612467E+02</rscale>
<asrwt>0</asrwt>
<pdfrwt beam="1">  1        2 0.14936293E-01 0.10968569E+03</pdfrwt>
<pdfrwt beam="2">  1       -2 0.99115122E-02 0.10968569E+03</pdfrwt>
<totfact> 0.23788650E+04</totfact>
</mgrwt>
</event>
<event>
 6    1  0.1683416E-002  0.9431991E+02  0.7546771E-02  0.1390527E+00
          2   -1    0    0  501    0  0.00000000000E+00  0.00000000000E+00  0.42503625688E+03  0.42503625688E+03  0.00000000000E+00 0. -1.
         -2   -1    0    0    0  501 -0.00000000000E+00 -0.00000000000E+00 -0.74028415125E+01  0.74028415125E+01  0.00000000000E+00 0.  1.
         23    2    1    2    0    0 -0.10925723400E+01 -0.17322134265E+02  0.36640893977E+03  0.37835400848E+03  0.92709193423E+02 0.  0.
         11    1    3    3    0    0 -0.61486158668E+01 -0.20685308743E+02  0.13632126405E+02  0.25524935753E+02  0.00000000000E+00 0.  1.
        -11    1    3    3    0    0  0.50560435267E+01  0.33631744775E+01  0.35277681336E+03  0.35282907273E+03  0.00000000000E+00 0. -1.
         22    1    1    2    0    0  0.10925723400E+01  0.17322134265E+02  0.51224475599E+02  0.54085089907E+02  0.00000000000E+00 0.  1.
<mgrwt>
<rscale>  0 0.61775804E+02</rscale>
<asrwt>0</asrwt>
<pdfrwt beam="1">  1        2 0.65390174E-01 0.94319906E+02</pdfrwt>
<pdfrwt beam="2">  1       -2 0.11388990E-02 0.94319906E+02</pdfrwt>
<totfact> 0.11404378E+05</totfact>
</mgrwt>
</event>
<event>
 6    1  0.1683416E-002  0.9297510E+02  0.7546771E-02  0.1421602E+00
         -2   -1    0    0    0  501 -0.00000000000E+00  0.00000000000E+00  0.14250837715E+03  0.14250837715E+03  0.00000000000E+00 0.  1.
          2   -1    0    0  501    0  0.00000000000E+00 -0.00000000000E+00 -0.43437519696E+02  0.43437519696E+02  0.00000000000E+00 0. -1.
         23    2    1    2    0    0 -0.11091980849E+02 -0.86307102802E+00  0.12612677670E+03  0.15669184248E+03  0.92307056974E+02 0.  0.
         11    1    3    3    0    0  0.24151905676E+02  0.34431491567E+02  0.69458093619E+02  0.81198946597E+02  0.00000000000E+00 0. -1.
        -11    1    3    3    0    0 -0.35243886524E+02 -0.35294562595E+02  0.56668683081E+02  0.75492895879E+02  0.00000000000E+00 0.  1.
         22    1    1    2    0    0  0.11091980849E+02  0.86307102802E+00 -0.27055919246E+02  0.29254054369E+02  0.00000000000E+00 0. -1.
<mgrwt>
<rscale>  0 0.54683331E+02</rscale>
<asrwt>0</asrwt>
<pdfrwt beam="1">  1        2 0.66826954E-02 0.92975103E+02</pdfrwt>
<pdfrwt beam="2">  1       -2 0.21924365E-01 0.92975103E+02</pdfrwt>
<totfact> 0.17108903E+04</totfact>
</mgrwt>
</event>
<event>
 6    1  0.1683416E-002  0.1044939E+03  0.7546771E-02  0.1309560E+00
         -2   -1    0    0    0  501 -0.00000000000E+00  0.00000000000E+00  0.20251285590E+02  0.20251285590E+02  0.00000000000E+00 0. -1.
          2   -1    0    0  501    0  0.00000000000E+00 -0.00000000000E+00 -0.30144354577E+03  0.30144354577E+03  0.00000000000E+00 0.  1.
         23    2    1    2    0    0 -0.45532386438E+01  0.50671244130E+02 -0.17241674278E+03  0.20160977755E+03  0.91272461607E+02 0.  0.
         11    1    3    3    0    0  0.41086394551E+02  0.35220661723E+02 -0.70487169019E+02  0.88865222814E+02  0.00000000000E+00 0. -1.
        -11    1    3    3    0    0 -0.45639633195E+02  0.15450582407E+02 -0.10192957377E+03  0.11274455474E+03  0.00000000000E+00 0.  1.
         22    1    1    2    0    0  0.45532386438E+01 -0.50671244130E+02 -0.10877551740E+03  0.12008505381E+03  0.00000000000E+00 0. -1.
<mgrwt>
<rscale>  0 0.87286100E+02</rscale>
<asrwt>0</asrwt>
<pdfrwt beam="1">  1        2 0.46375930E-01 0.10449387E+03</pdfrwt>
<pdfrwt beam="2">  1       -2 0.31155824E-02 0.10449387E+03</pdfrwt>
<totfact> 0.39014280E+04</totfact>
</mgrwt>
</event>
<event>
 6    1  0.1683416E-002  0.9392541E+02  0.7546771E-02  0.1403263E+00
          4   -1    0    0  501    0  0.00000000000E+00  0.00000000000E+00  0.44684272655E+02  0.44684272655E+02  0.00000000000E+00 0. -1.
         -4   -1    0    0    0  501 -0.00000000000E+00 -0.00000000000E+00 -0.88885174438E+02  0.88885174438E+02  0.00000000000E+00 0.  1.
         23    2    1    2    0    0  0.13240380507E+02 -0.55398719652E+01 -0.60598845400E+02  0.11177746664E+03  0.92822325582E+02 0.  0.
         11    1    3    3    0    0  0.33326810216E+02  0.28746081065E+02 -0.56805735215E+02  0.71860315955E+02  0.00000000000E+00 0.  1.
        -11    1    3    3    0    0 -0.20086429709E+02 -0.34285953031E+02 -0.37931101849E+01  0.39917150682E+02  0.00000000000E+00 0. -1.
         22    1    1    2    0    0 -0.13240380507E+02  0.55398719652E+01  0.16397943617E+02  0.21791980457E+02  0.00000000000E+00 0. -1.
<mgrwt>
<rscale>  0 0.58724611E+02</rscale>
<asrwt>0</asrwt>
<pdfrwt beam="1">  1        4 0.68745035E-02 0.93925406E+02</pdfrwt>
<pdfrwt beam="2">  1       -4 0.13674642E-01 0.93925406E+02</pdfrwt>
<totfact> 0.92395764E+03</totfact>
</mgrwt>
</event>
<event>
 6    1  0.1683416E-002  0.9543869E+02  0.7546771E-02  0.1405157E+00
         -1   -1    0    0    0  501 -0.00000000000E+00  0.00000000000E+00  0.42527055802E+02  0.42527055802E+02  0.00000000000E+00 0.  1.
          1   -1    0    0  501    0  0.00000000000E+00 -0.00000000000E+00 -0.69626024427E+02  0.69626024427E+02  0.00000000000E+00 0. -1.
         23    2    1    2    0    0 -0.23031671709E+01  0.13077704633E+02 -0.25438102259E+02  0.98770650906E+02  0.94510388299E+02 0.  0.
         13    1    3    3    0    0 -0.46250328013E+02 -0.74451706019E+01 -0.10355088269E+02  0.47976569903E+02  0.00000000000E+00 0.  1.
        -13    1    3    3    0    0  0.43947160842E+02  0.20522875235E+02 -0.15083013990E+02  0.50794081004E+02  0.00000000000E+00 0. -1.
         22    1    1    2    0    0  0.23031671709E+01 -0.13077704633E+02 -0.16608663658E+01  0.13382429323E+02  0.00000000000E+00 0. -1.
<mgrwt>
<rscale>  0 0.58288708E+02</rscale>
<asrwt>0</asrwt>
<pdfrwt beam="1">  1        1 0.10711696E-01 0.95438695E+02</pdfrwt>
<pdfrwt beam="2">  1       -1 0.65426240E-02 0.95438695E+02</pdfrwt>
<totfact> 0.59002099E+04</totfact>
</mgrwt>
</event>
<event>
 6    1  0.1683416E-002  0.9345223E+02  0.7546771E-02  0.1377424E+00
         -2   -1    0    0    0  501 -0.00000000000E+00  0.00000000000E+00  0.17085252995E+02  0.17085252995E+02  0.00000000000E+00 0.  1.
          2   -1    0    0  501    0  0.00000000000E+00 -0.00000000000E+00 -0.22408632203E+03  0.22408632203E+03  0.00000000000E+00 0. -1.
         23    2    1    2    0    0 -0.47453151737E+00  0.22063599620E+02 -0.12391080502E+03  0.15520053582E+03  0.90809091557E+02 0.  0.
         11    1    3    3    0    0  0.33052136600E+02  0.19561782581E+02 -0.11377997998E+03  0.12008743030E+03  0.00000000000E+00 0. -1.
        -11    1    3    3    0    0 -0.33526668117E+02  0.25018170391E+01 -0.10130825047E+02  0.35113105526E+02  0.00000000000E+00 0.  1.
         22    1    1    2    0    0  0.47453151737E+00 -0.22063599620E+02 -0.83090264014E+02  0.85971039207E+02  0.00000000000E+00 0. -1.
<mgrwt>
<rscale>  0 0.65145803E+02</rscale>
<asrwt>0</asrwt>
<pdfrwt beam="1">  1        2 0.34474821E-01 0.93452227E+02</pdfrwt>
<pdfrwt beam="2">  1       -2 0.26285003E-02 0.93452227E+02</pdfrwt>
<totfact> 0.67296598E+04</totfact>
</mgrwt>
</event>
<event>
 6    1  0.1683416E-002  0.2267283E+03  0.7546771E-02  0.1132441E+00
          1   -1    0    0  501    0  0.00000000000E+00  0.00000000000E+00  0.10282081942E+03  0.10282081942E+03  0.00000000000E+00 0. -1.
         -1   -1    0    0    0  501 -0.00000000000E+00 -0.00000000000E+00 -0.46250963144E+03  0.46250963144E+03  0.00000000000E+00 0.  1.
         23    2    1    2    0    0 -0.19213775307E+03  0.80170408586E+02 -0.20860880259E+03  0.30809635549E+03  0.89785974307E+02 0.  0.
         13    1    3    3    0    0 -0.19908814616E+03  0.72371649535E+02 -0.20908211918E+03  0.29763917444E+03  0.00000000000E+00 0. -1.
        -13    1    3    3    0    0  0.69503930974E+01  0.77987590512E+01  0.47331659168E+00  0.10457181051E+02  0.00000000000E+00 0.  1.
         22    1    1    2    0    0  0.19213775307E+03 -0.80170408586E+02 -0.15108000943E+03  0.25723409536E+03  0.00000000000E+00 0.  1.
<mgrwt>
<rscale>  0 0.22194518E+03</rscale>
<asrwt>0</asrwt>
<pdfrwt beam="1">  1        1 0.15818588E-01 0.22672832E+03</pdfrwt>
<pdfrwt beam="2">  1       -1 0.71155328E-01 0.22672832E+03</pdfrwt>
<totfact> 0.72033995E+02</totfact>
</mgrwt>
</event>
<event>
 6    1  0.1683416E-002  0.8861367E+02  0.7546771E-02  0.1430348E+00
         -2   -1    0    0    0  501 -0.00000000000E+00  0.00000000000E+00  0.12086449898E+03  0.12086449898E+03  0.00000000000E+00 0.  1.
          2   -1    0    0  501    0  0.00000000000E+00 -0.00000000000E+00 -0.25356465840E+02  0.25356465840E+02  0.00000000000E+00 0. -1.
         23    2    1    2    0    0  0.80844195741E+01  0.78175085069E+01  0.10043882376E+03  0.13394155216E+03  0.87897160352E+02 0.  0.
         11    1    3    3    0    0  0.37237300669E+02  0.34173542872E+01  0.98408888836E+01  0.38667013920E+02  0.00000000000E+00 0. -1.
        -11    1    3    3    0    0 -0.29152881095E+02  0.44001542198E+01  0.90597934874E+02  0.95274538240E+02  0.00000000000E+00 0.  1.
         22    1    1    2    0    0 -0.80844195741E+01 -0.78175085069E+01 -0.49307906198E+01  0.12279412659E+02  0.00000000000E+00 0.  1.
<mgrwt>
<rscale>  0 0.52890116E+02</rscale>
<asrwt>0</asrwt>
<pdfrwt beam="1">  1        2 0.39009948E-02 0.88613668E+02</pdfrwt>
<pdfrwt beam="2">  1       -2 0.18594538E-01 0.88613668E+02</pdfrwt>
<totfact> 0.44814408E+04</totfact>
</mgrwt>
</event>
<event>
 6    1  0.1683416E-002  0.9375011E+02  0.7546771E-02  0.1372662E+00
          2   -1    0    0  501    0  0.00000000000E+00  0.00000000000E+00  0.13398038364E+03  0.13398038364E+03  0.00000000000E+00 0. -1.
         -2   -1    0    0    0  501 -0.00000000000E+00 -0.00000000000E+00 -0.26850785848E+02  0.26850785848E+02  0.00000000000E+00 0.  1.
         23    2    1    2    0    0  0.77264862410E+01  0.22339419771E+02  0.97635427299E+02  0.13535789842E+03  0.90721197831E+02 0.  0.
         11    1    3    3    0    0  0.11589274879E+02 -0.19990978727E+02 -0.55463750975E+01  0.23763686570E+02  0.00000000000E+00 0.  1.
        -11    1    3    3    0    0 -0.38627886376E+01  0.42330398497E+02  0.10318180240E+03  0.11159421185E+03  0.00000000000E+00 0. -1.
         22    1    1    2    0    0 -0.77264862410E+01 -0.22339419771E+02  0.94941704891E+01  0.25473271062E+02  0.00000000000E+00 0.  1.
<mgrwt>
<rscale>  0 0.66432543E+02</rscale>
<asrwt>0</asrwt>
<pdfrwt beam="1">  1        2 0.20612366E-01 0.93750115E+02</pdfrwt>
<pdfrwt beam="2">  1       -2 0.41308902E-02 0.93750115E+02</pdfrwt>
<totfact> 0.60753507E+04</totfact>
</mgrwt>
</event>
<event>
 6    1  0.1683416E-002  0.8839078E+02  0.7546771E-02  0.1432946E+00
         -1   -1    0    0    0  501 -0.00000000000E+00  0.00000000000E+00  0.19950563552E+03  0.19950563552E+03  0.00000000000E+00 0.  1.
          1   -1    0    0  501    0  0.00000000000E+00 -0.00000000000E+00 -0.13834106794E+02  0.13834106794E+02  0.00000000000E+00 0. -1.
         23    2    1    2    0    0 -0.89651276234E+01 -0.61903242639E+01  0.18111022612E+03  0.20152876821E+03  0.87716798758E+02 0.  0.
         11    1    3    3    0    0 -0.44082189110E+02 -0.37488372279E+01  0.54933284760E+02  0.70533388915E+02  0.00000000000E+00 0. -1.
        -11    1    3    3    0    0  0.35117061487E+02 -0.24414870361E+01  0.12617694136E+03  0.13099537930E+03  0.00000000000E+00 0.  1.
         22    1    1    2    0    0  0.89651276234E+01  0.61903242639E+01  0.45613026094E+01  0.11810974104E+02  0.00000000000E+00 0.  1.
<mgrwt>
<rscale>  0 0.52373146E+02</rscale>
<asrwt>0</asrwt>
<pdfrwt beam="1">  1        1 0.21283243E-02 0.88390782E+02</pdfrwt>
<pdfrwt beam="2">  1       -1 0.30693173E-01 0.88390782E+02</pdfrwt>
<totfact> 0.46759039E+04</totfact>
</mgrwt>
</event>
<event>
 6    1  0.1683416E-002  0.9356278E+02  0.7546771E-02  0.1395432E+00
         -2   -1    0    0    0  501 -0.00000000000E+00  0.00000000000E+00  0.21639321790E+03  0.21639321790E+03  0.00000000000E+00 0.  1.
          2   -1    0    0  501    0  0.00000000000E+00 -0.00000000000E+00 -0.16046052746E+02  0.16046052746E+02  0.00000000000E+00 0. -1.
         23    2    1    2    0    0 -0.15979954492E+02  0.38589234474E+01  0.19289735994E+03  0.21439072961E+03  0.92107237706E+02 0.  0.
         13    1    3    3    0    0 -0.51708972609E+02  0.67420137179E+01  0.76372742643E+02  0.92477394081E+02  0.00000000000E+00 0. -1.
        -13    1    3    3    0    0  0.35729018117E+02 -0.28830902705E+01  0.11652461729E+03  0.12191333553E+03  0.00000000000E+00 0.  1.
         22    1    1    2    0    0  0.15979954492E+02 -0.38589234474E+01  0.74498052214E+01  0.18048541037E+02  0.00000000000E+00 0. -1.
<mgrwt>
<rscale>  0 0.60575651E+02</rscale>
<asrwt>0</asrwt>
<pdfrwt beam="1">  1        2 0.24686237E-02 0.93562778E+02</pdfrwt>
<pdfrwt beam="2">  1       -2 0.33291262E-01 0.93562778E+02</pdfrwt>
<totfact> 0.30202679E+04</totfact>
</mgrwt>
</event>
<event>
 6    1  0.1683416E-002  0.1021560E+03  0.7546771E-02  0.1377520E+00
          2   -1    0    0  501    0  0.00000000000E+00  0.00000000000E+00  0.79778364388E+02  0.79778364388E+02  0.00000000000E+00 0.  1.
         -2   -1    0    0    0  501 -0.00000000000E+00 -0.00000000000E+00 -0.45378725800E+02  0.45378725800E+02  0.00000000000E+00 0. -1.
         23    2    1    2    0    0 -0.12462899311E+02 -0.11367154751E+02  0.22754144474E+02  0.10465944155E+03  0.10075371730E+03 0.  0.
         13    1    3    3    0    0 -0.36236040787E+02  0.53154666915E+01 -0.28055768930E+02  0.46134921787E+02  0.00000000000E+00 0. -1.
        -13    1    3    3    0    0  0.23773141476E+02 -0.16682621443E+02  0.50809913403E+02  0.58524519766E+02  0.00000000000E+00 0.  1.
         22    1    1    2    0    0  0.12462899311E+02  0.11367154751E+02  0.11645494115E+02  0.20497648635E+02  0.00000000000E+00 0.  1.
<mgrwt>
<rscale>  0 0.65120101E+02</rscale>
<asrwt>0</asrwt>
<pdfrwt beam="1">  1        2 0.12273595E-01 0.10215600E+03</pdfrwt>
<pdfrwt beam="2">  1       -2 0.69813424E-02 0.10215600E+03</pdfrwt>
<totfact> 0.50949993E+04</totfact>
</mgrwt>
</event>
<event>
 6    1  0.1683416E-002  0.9435173E+02  0.7546771E-02  0.1419787E+00
         -2   -1    0    0    0  501 -0.00000000000E+00  0.00000000000E+00  0.40976228856E+03  0.40976228856E+03  0.00000000000E+00 0.  1.
          2   -1    0    0  501    0  0.00000000000E+00 -0.00000000000E+00 -0.74173050833E+01  0.74173050833E+01  0.00000000000E+00 0. -1.
         23    2    1    2    0    0 -0.42990485827E+01  0.10067286881E+02  0.38696549236E+03  0.39830207180E+03  0.93714545514E+02 0.  0.
         13    1    3    3    0    0  0.56957001867E+01 -0.48013609067E+00 -0.40572210773E+01  0.70094631857E+01  0.00000000000E+00 0. -1.
        -13    1    3    3    0    0 -0.99947487694E+01  0.10547422971E+02  0.39102271344E+03  0.39129260861E+03  0.00000000000E+00 0.  1.
         22    1    1    2    0    0  0.42990485827E+01 -0.10067286881E+02  0.15379491119E+02  0.18877521843E+02  0.00000000000E+00 0. -1.
<mgrwt>
<rscale>  0 0.55066063E+02</rscale>
<asrwt>0</asrwt>
<pdfrwt beam="1">  1        2 0.11411242E-02 0.94351726E+02</pdfrwt>
<pdfrwt beam="2">  1       -2 0.63040334E-01 0.94351726E+02</pdfrwt>
<totfact> 0.25071668E+04</totfact>
</mgrwt>
</event>
<event>
 6    1  0.1683416E-002  0.1020417E+03  0.7546771E-02  0.1325404E+00
          2   -1    0    0  501    0  0.00000000000E+00  0.00000000000E+00  0.16264338086E+02  0.16264338086E+02  0.00000000000E+00 0. -1.
         -2   -1    0    0    0  501 -0.00000000000E+00 -0.00000000000E+00 -0.31513902414E+03  0.31513902414E+03  0.00000000000E+00 0.  1.
         23    2    1    2    0    0 -0.27395856629E+02  0.30659362499E+02 -0.21005485224E+03  0.23352848114E+03  0.93391547177E+02 0.  0.
         11    1    3    3    0    0 -0.26554475055E+02 -0.24834599236E+02 -0.13723582911E+03  0.14197031470E+03  0.00000000000E+00 0.  1.
        -11    1    3    3    0    0 -0.84138157359E+00  0.55493961735E+02 -0.72819023132E+02  0.91558166440E+02  0.00000000000E+00 0. -1.
         22    1    1    2    0    0  0.27395856629E+02 -0.30659362499E+02 -0.88819833820E+02  0.97874881094E+02  0.00000000000E+00 0. -1.
<mgrwt>
<rscale>  0 0.81299175E+02</rscale>
<asrwt>0</asrwt>
<pdfrwt beam="1">  1        2 0.25022059E-02 0.10204171E+03</pdfrwt>
<pdfrwt beam="2">  1       -2 0.48482926E-01 0.10204171E+03</pdfrwt>
<totfact> 0.14780462E+04</totfact>
</mgrwt>
</event>
<event>
 6    1  0.1683416E-002  0.9743224E+02  0.7546771E-02  0.1342832E+00
          2   -1    0    0  501    0  0.00000000000E+00  0.00000000000E+00  0.46115115477E+03  0.46115115477E+03  0.00000000000E+00 0. -1.
         -2   -1    0    0    0  501 -0.00000000000E+00 -0.00000000000E+00 -0.20392286313E+02  0.20392286313E+02  0.00000000000E+00 0.  1.
         23    2    1    2    0    0  0.11418589417E+02  0.32902006930E+02  0.43556719350E+03  0.44633151507E+03  0.90995137512E+02 0.  0.
         11    1    3    3    0    0  0.43556437697E+02 -0.18500337662E+01  0.12988496484E+03  0.13700616768E+03  0.00000000000E+00 0. -1.
        -11    1    3    3    0    0 -0.32137848280E+02  0.34752040697E+02  0.30568222866E+03  0.30932534740E+03  0.00000000000E+00 0.  1.
         22    1    1    2    0    0 -0.11418589417E+02 -0.32902006930E+02  0.51916749553E+01  0.35211926008E+02  0.00000000000E+00 0.  1.
<mgrwt>
<rscale>  0 0.75336651E+02</rscale>
<asrwt>0</asrwt>
<pdfrwt beam="1">  1        2 0.70946324E-01 0.97432240E+02</pdfrwt>
<pdfrwt beam="2">  1       -2 0.31372752E-02 0.97432240E+02</pdfrwt>
<totfact> 0.24463641E+04</totfact>
</mgrwt>
</event>
<event>
 6    1  0.1683416E-002  0.1013484E+03  0.7546771E-02  0.1330572E+00
         -4   -1    0    0    0  501 -0.00000000000E+00  0.00000000000E+00  0.13644263118E+04  0.13644263118E+04  0.00000000000E+00 0.  1.
          4   -1    0    0  501    0  0.00000000000E+00 -0.00000000000E+00 -0.73980972286E+01  0.73980972286E+01  0.00000000000E+00 0. -1.
         23    2    1    2    0    0  0.37009240462E+02 -0.98898251030E+01  0.12947297070E+04  0.12986903091E+04  0.93829698803E+02 0.  0.
         11    1    3    3    0    0  0.56159026532E+02 -0.37169331917E+02  0.93357725959E+03  0.93600314910E+03  0.00000000000E+00 0.  1.
        -11    1    3    3    0    0 -0.19149786070E+02  0.27279506814E+02  0.36115244737E+03  0.36268716002E+03  0.00000000000E+00 0. -1.
         22    1    1    2    0    0 -0.37009240462E+02  0.98898251030E+01  0.62298507622E+02  0.73134099927E+02  0.00000000000E+00 0. -1.
<mgrwt>
<rscale>  0 0.79466625E+02</rscale>
<asrwt>0</asrwt>
<pdfrwt beam="1">  1        4 0.11381699E-02 0.10134843E+03</pdfrwt>
<pdfrwt beam="2">  1       -4 0.20991154E+00 0.10134843E+03</pdfrwt>
<totfact> 0.48374542E+02</totfact>
</mgrwt>
</event>
<event>
 6    1  0.1683416E-002  0.9284207E+02  0.7546771E-02  0.1417377E+00
         -1   -1    0    0    0  501 -0.00000000000E+00  0.00000000000E+00  0.20877065713E+03  0.20877065713E+03  0.00000000000E+00 0.  1.
          1   -1    0    0  501    0  0.00000000000E+00 -0.00000000000E+00 -0.14794326718E+02  0.14794326718E+02  0.00000000000E+00 0. -1.
         23    2    1    2    0    0  0.99692994943E+01 -0.65422622079E+01  0.18913885357E+03  0.21069683288E+03  0.92073130327E+02 0.  0.
         13    1    3    3    0    0  0.30269008507E+02  0.56969050016E+01  0.13778862265E+02  0.33742030881E+02  0.00000000000E+00 0. -1.
        -13    1    3    3    0    0 -0.20299709013E+02 -0.12239167210E+02  0.17535999130E+03  0.17695480200E+03  0.00000000000E+00 0.  1.
         22    1    1    2    0    0 -0.99692994943E+01  0.65422622079E+01  0.48374768445E+01  0.12868150971E+02  0.00000000000E+00 0. -1.
<mgrwt>
<rscale>  0 0.55579741E+02</rscale>
<asrwt>0</asrwt>
<pdfrwt beam="1">  1        1 0.22760504E-02 0.92842067E+02</pdfrwt>
<pdfrwt beam="2">  1       -1 0.32118560E-01 0.92842067E+02</pdfrwt>
<totfact> 0.39798852E+04</totfact>
</mgrwt>
</event>
<event>
 6    1  0.1683416E-002  0.9249368E+02  0.7546771E-02  0.1376217E+00
         -2   -1    0    0    0  501 -0.00000000000E+00  0.00000000000E+00  0.66736484242E+02  0.66736484242E+02  0.00000000000E+00 0.  1.
          2   -1    0    0  501    0  0.00000000000E+00 -0.00000000000E+00 -0.66318957759E+02  0.66318957759E+02  0.00000000000E+00 0. -1.
         23    2    1    2    0    0  0.18829826514E+02  0.13581508952E+02  0.28343553821E+02  0.96739016586E+02  0.89532455205E+02 0.  0.
         11    1    3    3    0    0  0.45723268400E+02 -0.92702820745E+01 -0.65488773260E+01  0.47110966846E+02  0.00000000000E+00 0. -1.
        -11    1    3    3    0    0 -0.26893441887E+02  0.22851791027E+02  0.34892431147E+02  0.49628049740E+02  0.00000000000E+00 0.  1.
         22    1    1    2    0    0 -0.18829826514E+02 -0.13581508952E+02 -0.27926027339E+02  0.36316425415E+02  0.00000000000E+00 0. -1.
<mgrwt>
<rscale>  0 0.65468836E+02</rscale>
<asrwt>0</asrwt>
<pdfrwt beam="1">  1        2 0.10202917E-01 0.92493677E+02</pdfrwt>
<pdfrwt beam="2">  1       -2 0.10267151E-01 0.92493677E+02</pdfrwt>
<totfact> 0.34683219E+04</totfact>
</mgrwt>
</event>
<event>
 6    1  0.1683416E-002  0.1036212E+03  0.7546771E-02  0.1325028E+00
          2   -1    0    0  501    0  0.00000000000E+00  0.00000000000E+00  0.27849569101E+03  0.27849569101E+03  0.00000000000E+00 0. -1.
         -2   -1    0    0    0  501 -0.00000000000E+00 -0.00000000000E+00 -0.20061575184E+02  0.20061575184E+02  0.00000000000E+00 0.  1.
         23    2    1    2    0    0  0.23741827973E+02  0.31602739752E+02  0.14339349639E+03  0.17691536685E+03  0.95785931461E+02 0.  0.
         13    1    3    3    0    0  0.51613518595E+02  0.47798298167E+02  0.10942215075E+03  0.13008397167E+03  0.00000000000E+00 0. -1.
        -13    1    3    3    0    0 -0.27871690622E+02 -0.16195558415E+02  0.33971345637E+02  0.46831395184E+02  0.00000000000E+00 0.  1.
         22    1    1    2    0    0 -0.23741827973E+02 -0.31602739752E+02  0.11504061944E+03  0.12164189934E+03  0.00000000000E+00 0. -1.
<mgrwt>
<rscale>  0 0.81434933E+02</rscale>
<asrwt>0</asrwt>
<pdfrwt beam="1">  1        2 0.42845488E-01 0.10362120E+03</pdfrwt>
<pdfrwt beam="2">  1       -2 0.30863964E-02 0.10362120E+03</pdfrwt>
<totfact> 0.42940294E+04</totfact>
</mgrwt>
</event>
<event>
 6    1  0.1683416E-002  0.9041861E+02  0.7546771E-02  0.1405523E+00
          2   -1    0    0  501    0  0.00000000000E+00  0.00000000000E+00  0.33441472507E+02  0.33441472507E+02  0.00000000000E+00 0. -1.
         -2   -1    0    0    0  501 -0.00000000000E+00 -0.00000000000E+00 -0.18177624259E+03  0.18177624259E+03  0.00000000000E+00 0.  1.
         23    2    1    2    0    0 -0.21604977516E+01  0.15375164928E+02 -0.16762430681E+03  0.19045585583E+03  0.89075593397E+02 0.  0.
         13    1    3    3    0    0  0.17551400599E+02 -0.32998069238E+02 -0.57632710301E+02  0.68691000379E+02  0.00000000000E+00 0. -1.
        -13    1    3    3    0    0 -0.19711898351E+02  0.48373234166E+02 -0.10999159651E+03  0.12176485545E+03  0.00000000000E+00 0.  1.
         22    1    1    2    0    0  0.21604977516E+01 -0.15375164928E+02  0.19289536729E+02  0.24761859266E+02  0.00000000000E+00 0. -1.
<mgrwt>
<rscale>  0 0.58204932E+02</rscale>
<asrwt>0</asrwt>
<pdfrwt beam="1">  1        2 0.51448420E-02 0.90418609E+02</pdfrwt>
<pdfrwt beam="2">  1       -2 0.27965575E-01 0.90418609E+02</pdfrwt>
<totfact> 0.15627649E+04</totfact>
</mgrwt>
</event>
<event>
 6    1  0.1683416E-002  0.9140266E+02  0.7546771E-02  0.1416881E+00
          2   -1    0    0  501    0  0.00000000000E+00  0.00000000000E+00  0.13948468603E+02  0.13948468603E+02  0.00000000000E+00 0. -1.
         -2   -1    0    0    0  501 -0.00000000000E+00 -0.00000000000E+00 -0.30242961995E+03  0.30242961995E+03  0.00000000000E+00 0.  1.
         23    2    1    2    0    0 -0.12217803866E+02 -0.30495599111E+01 -0.28965180395E+03  0.30373115318E+03  0.90531051746E+02 0.  0.
         11    1    3    3    0    0 -0.32567433677E+02 -0.35215922439E+02 -0.10859622228E+03  0.11871789429E+03  0.00000000000E+00 0. -1.
        -11    1    3    3    0    0  0.20349629812E+02  0.32166362528E+02 -0.18105558167E+03  0.18501325889E+03  0.00000000000E+00 0.  1.
         22    1    1    2    0    0  0.12217803866E+02  0.30495599111E+01  0.11706526028E+01  0.12646935379E+02  0.00000000000E+00 0. -1.
<mgrwt>
<rscale>  0 0.55686292E+02</rscale>
<asrwt>0</asrwt>
<pdfrwt beam="1">  1        2 0.21459183E-02 0.91402658E+02</pdfrwt>
<pdfrwt beam="2">  1       -2 0.46527632E-01 0.91402658E+02</pdfrwt>
<totfact> 0.19417476E+04</totfact>
</mgrwt>
</event>
<event>
 6    1  0.1683416E-002  0.9356877E+02  0.7546771E-02  0.1383214E+00
         -2   -1    0    0    0  501 -0.00000000000E+00  0.00000000000E+00  0.11192109520E+02  0.11192109520E+02  0.00000000000E+00 0.  1.
          2   -1    0    0  501    0  0.00000000000E+00 -0.00000000000E+00 -0.28860095751E+03  0.28860095751E+03  0.00000000000E+00 0. -1.
         23    2    1    2    0    0 -0.19361498259E+00 -0.20004797928E+02 -0.22378600403E+03  0.24255987018E+03  0.91405063301E+02 0.  0.
         13    1    3    3    0    0 -0.22222268450E+01 -0.49293582303E+01 -0.22695712422E+03  0.22702152563E+03  0.00000000000E+00 0. -1.
        -13    1    3    3    0    0  0.20286118624E+01 -0.15075439698E+02  0.31711201921E+01  0.15538344553E+02  0.00000000000E+00 0.  1.
         22    1    1    2    0    0  0.19361498259E+00  0.20004797928E+02 -0.53622843961E+02  0.57233196847E+02  0.00000000000E+00 0. -1.
<mgrwt>
<rscale>  0 0.63626323E+02</rscale>
<asrwt>0</asrwt>
<pdfrwt beam="1">  1        2 0.44400144E-01 0.93568772E+02</pdfrwt>
<pdfrwt beam="2">  1       -2 0.17218631E-02 0.93568772E+02</pdfrwt>
<totfact> 0.94857553E+04</totfact>
</mgrwt>
</event>
<event>
 6    1  0.1683416E-002  0.9550426E+02  0.7546771E-02  0.1357168E+00
          2   -1    0    0  501    0  0.00000000000E+00  0.00000000000E+00  0.12916138970E+03  0.12916138970E+03  0.00000000000E+00 0.  1.
         -2   -1    0    0    0  501 -0.00000000000E+00 -0.00000000000E+00 -0.30236025471E+02  0.30236025471E+02  0.00000000000E+00 0. -1.
         23    2    1    2    0    0  0.27961306133E+02  0.75189244783E+01  0.69503787545E+02  0.11811790403E+03  0.91009306679E+02 0.  0.
         13    1    3    3    0    0  0.21143520987E+02  0.18806470696E+02 -0.15386250752E+02  0.32209758334E+02  0.00000000000E+00 0. -1.
        -13    1    3    3    0    0  0.68177851466E+01 -0.11287546217E+02  0.84890038298E+02  0.85908145691E+02  0.00000000000E+00 0.  1.
         22    1    1    2    0    0 -0.27961306133E+02 -0.75189244783E+01  0.29421576687E+02  0.41279511149E+02  0.00000000000E+00 0. -1.
<mgrwt>
<rscale>  0 0.70867389E+02</rscale>
<asrwt>0</asrwt>
<pdfrwt beam="1">  1        2 0.19870983E-01 0.95504255E+02</pdfrwt>
<pdfrwt beam="2">  1       -2 0.46516963E-02 0.95504255E+02</pdfrwt>
<totfact> 0.53237121E+04</totfact>
</mgrwt>
</event>
<event>
 6    1  0.1683416E-002  0.9554537E+02  0.7546771E-02  0.1363071E+00
          3   -1    0    0  501    0  0.00000000000E+00  0.00000000000E+00  0.13783870525E+02  0.13783870525E+02  0.00000000000E+00 0. -1.
         -3   -1    0    0    0  501 -0.00000000000E+00 -0.00000000000E+00 -0.39812804579E+03  0.39812804579E+03  0.00000000000E+00 0.  1.
         23    2    1    2    0    0  0.16001214395E+02  0.20729439423E+02 -0.36982815862E+03  0.38197092000E+03  0.91886714488E+02 0.  0.
         13    1    3    3    0    0  0.36740144458E+02  0.23786142752E+02 -0.78398840459E+02  0.89788623929E+02  0.00000000000E+00 0. -1.
        -13    1    3    3    0    0 -0.20738930064E+02 -0.30567033297E+01 -0.29142931816E+03  0.29218229607E+03  0.00000000000E+00 0.  1.
         22    1    1    2    0    0 -0.16001214395E+02 -0.20729439423E+02 -0.14516016647E+02  0.29940996312E+02  0.00000000000E+00 0. -1.
<mgrwt>
<rscale>  0 0.69131794E+02</rscale>
<asrwt>0</asrwt>
<pdfrwt beam="1">  1        3 0.21205956E-02 0.95545365E+02</pdfrwt>
<pdfrwt beam="2">  1       -3 0.61250466E-01 0.95545365E+02</pdfrwt>
<totfact> 0.48679592E+03</totfact>
</mgrwt>
</event>
<event>
 6    1  0.1683416E-002  0.8759950E+02  0.7546771E-02  0.1341814E+00
          2   -1    0    0  501    0  0.00000000000E+00  0.00000000000E+00  0.28998047204E+02  0.28998047204E+02  0.00000000000E+00 0.  1.
         -2   -1    0    0    0  501 -0.00000000000E+00 -0.00000000000E+00 -0.17411344547E+03  0.17411344547E+03  0.00000000000E+00 0. -1.
         23    2    1    2    0    0 -0.68154346771E+00 -0.48764880983E+02 -0.11907241820E+03  0.14782392690E+03  0.72768086883E+02 0.  0.
         13    1    3    3    0    0 -0.14374985570E+02 -0.17063445667E+02 -0.10983371905E+03  0.11207697011E+03  0.00000000000E+00 0. -1.
        -13    1    3    3    0    0  0.13693442102E+02 -0.31701435317E+02 -0.92386991502E+01  0.35746956790E+02  0.00000000000E+00 0.  1.
         22    1    1    2    0    0  0.68154346771E+00  0.48764880983E+02 -0.26042980066E+02  0.55287565777E+02  0.00000000000E+00 0.  1.
<mgrwt>
<rscale>  0 0.75668238E+02</rscale>
<asrwt>0</asrwt>
<pdfrwt beam="1">  1        2 0.44612381E-02 0.87599501E+02</pdfrwt>
<pdfrwt beam="2">  1       -2 0.26786684E-01 0.87599501E+02</pdfrwt>
<totfact> 0.20186349E+04</totfact>
</mgrwt>
</event>
<event>
 6    1  0.1683416E-002  0.9144171E+02  0.7546771E-02  0.1420235E+00
          1   -1    0    0  501    0  0.00000000000E+00  0.00000000000E+00  0.10473469693E+03  0.10473469693E+03  0.00000000000E+00 0. -1.
         -1   -1    0    0    0  501 -0.00000000000E+00 -0.00000000000E+00 -0.29946847944E+02  0.29946847944E+02  0.00000000000E+00 0.  1.
         23    2    1    2    0    0 -0.11940249016E+02  0.24825170738E+00  0.43637729437E+02  0.10132047290E+03  0.90658455879E+02 0.  0.
         11    1    3    3    0    0  0.25318646952E+02  0.27961536090E+02  0.39630391944E+02  0.54712424089E+02  0.00000000000E+00 0. -1.
        -11    1    3    3    0    0 -0.37258895968E+02 -0.27713284383E+02  0.40073374932E+01  0.46608048809E+02  0.00000000000E+00 0.  1.
         22    1    1    2    0    0  0.11940249016E+02 -0.24825170738E+00  0.31150119553E+02  0.33361071980E+02  0.00000000000E+00 0. -1.
<mgrwt>
<rscale>  0 0.54971181E+02</rscale>
<asrwt>0</asrwt>
<pdfrwt beam="1">  1        1 0.16113030E-01 0.91441713E+02</pdfrwt>
<pdfrwt beam="2">  1       -1 0.46072074E-02 0.91441713E+02</pdfrwt>
<totfact> 0.57986826E+04</totfact>
</mgrwt>
</event>
<event>
 6    1  0.1683416E-002  0.9444189E+02  0.7546771E-02  0.1365579E+00
         -1   -1    0    0    0  501 -0.00000000000E+00  0.00000000000E+00  0.58801452998E+02  0.58801452998E+02  0.00000000000E+00 0.  1.
          1   -1    0    0  501    0  0.00000000000E+00 -0.00000000000E+00 -0.75796756750E+02  0.75796756750E+02  0.00000000000E+00 0. -1.
         23    2    1    2    0    0  0.13696991415E+02  0.22103256168E+02  0.12513354461E+02  0.95267275147E+02  0.90791564404E+02 0.  0.
         13    1    3    3    0    0  0.39306873735E+02  0.20269750309E+02 -0.24240774165E+02  0.50433205654E+02  0.00000000000E+00 0. -1.
        -13    1    3    3    0    0 -0.25609882320E+02  0.18335058584E+01  0.36754128626E+02  0.44834069492E+02  0.00000000000E+00 0.  1.
         22    1    1    2    0    0 -0.13696991415E+02 -0.22103256168E+02 -0.29508658213E+02  0.39330934601E+02  0.00000000000E+00 0. -1.
<mgrwt>
<rscale>  0 0.68411607E+02</rscale>
<asrwt>0</asrwt>
<pdfrwt beam="1">  1        1 0.11661040E-01 0.94441885E+02</pdfrwt>
<pdfrwt beam="2">  1       -1 0.90463774E-02 0.94441885E+02</pdfrwt>
<totfact> 0.32530639E+04</totfact>
</mgrwt>
</event>
<event>
 6    1  0.1683416E-002  0.9197581E+02  0.7546771E-02  0.1411630E+00
         -2   -1    0    0    0  501 -0.00000000000E+00  0.00000000000E+00  0.10333930151E+04  0.10333930151E+04  0.00000000000E+00 0. -1.
          2   -1    0    0  501    0  0.00000000000E+00 -0.00000000000E+00 -0.31015185888E+01  0.31015185888E+01  0.00000000000E+00 0.  1.
         23    2    1    2    0    0 -0.11512854583E+02 -0.68709117430E+01  0.98432119562E+03  0.98860900547E+03  0.90993375049E+02 0.  0.
         11    1    3    3    0    0 -0.24720445272E+02  0.23974635813E+02  0.82852868317E+03  0.82924403068E+03  0.00000000000E+00 0. -1.
        -11    1    3    3    0    0  0.13207590689E+02 -0.30845547556E+02  0.15579251245E+03  0.15936497480E+03  0.00000000000E+00 0.  1.
         22    1    1    2    0    0  0.11512854583E+02  0.68709117430E+01  0.45970300934E+02  0.47885528260E+02  0.00000000000E+00 0. -1.
<mgrwt>
<rscale>  0 0.56831669E+02</rscale>
<asrwt>0</asrwt>
<pdfrwt beam="1">  1        2 0.47715753E-03 0.91975810E+02</pdfrwt>
<pdfrwt beam="2">  1       -2 0.15898327E+00 0.91975810E+02</pdfrwt>
<totfact> 0.99044011E+03</totfact>
</mgrwt>
</event>
<event>
 6    1  0.1683416E-002  0.9473709E+02  0.7546771E-02  0.1417261E+00
         -4   -1    0    0    0  501 -0.00000000000E+00  0.00000000000E+00  0.89597021290E+02  0.89597021290E+02  0.00000000000E+00 0.  1.
          4   -1    0    0  501    0  0.00000000000E+00 -0.00000000000E+00 -0.34737534507E+02  0.34737534507E+02  0.00000000000E+00 0. -1.
         23    2    1    2    0    0 -0.62054092303E+01 -0.93754632038E+01  0.59823409302E+02  0.11204444022E+03  0.94067581402E+02 0.  0.
         11    1    3    3    0    0 -0.30599843433E+02 -0.27326016112E+02 -0.41790952569E+01  0.41237439444E+02  0.00000000000E+00 0. -1.
        -11    1    3    3    0    0  0.24394434203E+02  0.17950552909E+02  0.64002504559E+02  0.70807000781E+02  0.00000000000E+00 0.  1.
         22    1    1    2    0    0  0.62054092303E+01  0.93754632038E+01 -0.49639225190E+01  0.12290115572E+02  0.00000000000E+00 0. -1.
<mgrwt>
<rscale>  0 0.55604658E+02</rscale>
<asrwt>0</asrwt>
<pdfrwt beam="1">  1        4 0.53442361E-02 0.94737090E+02</pdfrwt>
<pdfrwt beam="2">  1       -4 0.13784157E-01 0.94737090E+02</pdfrwt>
<totfact> 0.13716538E+04</totfact>
</mgrwt>
</event>
<event>
 6    1  0.1683416E-002  0.9470947E+02  0.7546771E-02  0.1368892E+00
          2   -1    0    0  501    0  0.00000000000E+00  0.00000000000E+00  0.22608470194E+03  0.22608470194E+03  0.00000000000E+00 0. -1.
         -2   -1    0    0    0  501 -0.00000000000E+00 -0.00000000000E+00 -0.21348298614E+02  0.21348298614E+02  0.00000000000E+00 0.  1.
         23    2    1    2    0    0  0.23612973235E+02 -0.61545400319E+01  0.91827399671E+02  0.13191722685E+03  0.91511925679E+02 0.  0.
         11    1    3    3    0    0  0.22741536929E+02 -0.73356984496E+01  0.11056730127E+03  0.11311992788E+03  0.00000000000E+00 0. -1.
        -11    1    3    3    0    0  0.87143630651E+00  0.11811584177E+01 -0.18739901601E+02  0.18797298967E+02  0.00000000000E+00 0.  1.
         22    1    1    2    0    0 -0.23612973235E+02  0.61545400319E+01  0.11290900365E+03  0.11551577370E+03  0.00000000000E+00 0. -1.
<mgrwt>
<rscale>  0 0.67476227E+02</rscale>
<asrwt>0</asrwt>
<pdfrwt beam="1">  1        2 0.34782260E-01 0.94709468E+02</pdfrwt>
<pdfrwt beam="2">  1       -2 0.32843538E-02 0.94709468E+02</pdfrwt>
<totfact> 0.48303335E+04</totfact>
</mgrwt>
</event>
<event>
 6    1  0.1683416E-002  0.9233602E+02  0.7546771E-02  0.1381726E+00
         -2   -1    0    0    0  501 -0.00000000000E+00  0.00000000000E+00  0.12068812654E+03  0.12068812654E+03  0.00000000000E+00 0.  1.
          2   -1    0    0  501    0  0.00000000000E+00 -0.00000000000E+00 -0.27976711479E+02  0.27976711479E+02  0.00000000000E+00 0. -1.
         23    2    1    2    0    0 -0.20119309298E+02  0.70759074535E+01  0.61796002772E+02  0.11110664597E+03  0.89839221655E+02 0.  0.
         11    1    3    3    0    0  0.26709825832E+02  0.27573480180E+02  0.13254556474E+02  0.40612742736E+02  0.00000000000E+00 0. -1.
        -11    1    3    3    0    0 -0.46829135130E+02 -0.20497572726E+02  0.48541446298E+02  0.70493903236E+02  0.00000000000E+00 0.  1.
         22    1    1    2    0    0  0.20119309298E+02 -0.70759074535E+01  0.30915412293E+02  0.37558192051E+02  0.00000000000E+00 0. -1.
<mgrwt>
<rscale>  0 0.64012162E+02</rscale>
<asrwt>0</asrwt>
<pdfrwt beam="1">  1        2 0.43041095E-02 0.92336021E+02</pdfrwt>
<pdfrwt beam="2">  1       -2 0.18567404E-01 0.92336021E+02</pdfrwt>
<totfact> 0.39741100E+04</totfact>
</mgrwt>
</event>
<event>
 6    1  0.1683416E-002  0.9540148E+02  0.7546771E-02  0.1395194E+00
         -2   -1    0    0    0  501 -0.00000000000E+00  0.00000000000E+00  0.96921971970E+01  0.96921971970E+01  0.00000000000E+00 0.  1.
          2   -1    0    0  501    0  0.00000000000E+00 -0.00000000000E+00 -0.32345071566E+03  0.32345071566E+03  0.00000000000E+00 0. -1.
         23    2    1    2    0    0  0.10629478714E+02  0.11371595254E+02 -0.25203011709E+03  0.26948213583E+03  0.94123018501E+02 0.  0.
         13    1    3    3    0    0 -0.31698822872E+02 -0.37216084186E+01 -0.19123980954E+03  0.19388483823E+03  0.00000000000E+00 0. -1.
        -13    1    3    3    0    0  0.42328301585E+02  0.15093203673E+02 -0.60790307548E+02  0.75597297597E+02  0.00000000000E+00 0.  1.
         22    1    1    2    0    0 -0.10629478714E+02 -0.11371595254E+02 -0.61728401371E+02  0.63660777031E+02  0.00000000000E+00 0.  1.
<mgrwt>
<rscale>  0 0.60633170E+02</rscale>
<asrwt>0</asrwt>
<pdfrwt beam="1">  1        2 0.49761648E-01 0.95401476E+02</pdfrwt>
<pdfrwt beam="2">  1       -2 0.14911073E-02 0.95401476E+02</pdfrwt>
<totfact> 0.10372393E+05</totfact>
</mgrwt>
</event>
<event>
 6    1  0.1683416E-002  0.9387813E+02  0.7546771E-02  0.1356819E+00
         -2   -1    0    0    0  501 -0.00000000000E+00  0.00000000000E+00  0.29616595528E+02  0.29616595528E+02  0.00000000000E+00 0. -1.
          2   -1    0    0  501    0  0.00000000000E+00 -0.00000000000E+00 -0.14970248529E+03  0.14970248529E+03  0.00000000000E+00 0.  1.
         23    2    1    2    0    0 -0.17921097090E+02  0.24884156739E+02 -0.58754082180E+02  0.11074811321E+03  0.88728323714E+02 0.  0.
         11    1    3    3    0    0  0.23950955812E+02  0.33491675797E+02 -0.41233927790E+01  0.41380466406E+02  0.00000000000E+00 0. -1.
        -11    1    3    3    0    0 -0.41872052902E+02 -0.86075190582E+01 -0.54630689401E+02  0.69367646803E+02  0.00000000000E+00 0.  1.
         22    1    1    2    0    0  0.17921097090E+02 -0.24884156739E+02 -0.61331807578E+02  0.68570967605E+02  0.00000000000E+00 0. -1.
<mgrwt>
<rscale>  0 0.70971933E+02</rscale>
<asrwt>0</asrwt>
<pdfrwt beam="1">  1        2 0.23031152E-01 0.93878125E+02</pdfrwt>
<pdfrwt beam="2">  1       -2 0.45563993E-02 0.93878125E+02</pdfrwt>
<totfact> 0.46497481E+04</totfact>
</mgrwt>
</event>
<event>
 6    1  0.1683416E-002  0.9278825E+02  0.7546771E-02  0.1399174E+00
         -4   -1    0    0    0  501 -0.00000000000E+00  0.00000000000E+00  0.11966856543E+02  0.11966856543E+02  0.00000000000E+00 0. -1.
          4   -1    0    0  501    0  0.00000000000E+00 -0.00000000000E+00 -0.28651362877E+03  0.28651362877E+03  0.00000000000E+00 0.  1.
         23    2    1    2    0    0  0.24663132102E+01  0.15688141943E+02 -0.17897117298E+03  0.20159449216E+03  0.91419133729E+02 0.  0.
         11    1    3    3    0    0 -0.42471756673E+02  0.18652498952E+02 -0.73543314270E+02  0.86950473868E+02  0.00000000000E+00 0. -1.
        -11    1    3    3    0    0  0.44938069883E+02 -0.29643570089E+01 -0.10542785871E+03  0.11464401829E+03  0.00000000000E+00 0.  1.
         22    1    1    2    0    0 -0.24663132102E+01 -0.15688141943E+02 -0.95575599246E+02  0.96885993155E+02  0.00000000000E+00 0.  1.
<mgrwt>
<rscale>  0 0.59681257E+02</rscale>
<asrwt>0</asrwt>
<pdfrwt beam="1">  1        4 0.44079014E-01 0.92788246E+02</pdfrwt>
<pdfrwt beam="2">  1       -4 0.18410551E-02 0.92788246E+02</pdfrwt>
<totfact> 0.85014780E+03</totfact>
</mgrwt>
</event>
<event>
 6    1  0.1683416E-002  0.9165762E+02  0.7546771E-02  0.1406526E+00
          2   -1    0    0  501    0  0.00000000000E+00  0.00000000000E+00  0.30264454000E+03  0.30264454000E+03  0.00000000000E+00 0. -1.
         -2   -1    0    0    0  501 -0.00000000000E+00 -0.00000000000E+00 -0.99446171858E+01  0.99446171858E+01  0.00000000000E+00 0.  1.
         23    2    1    2    0    0  0.10888342767E+02  0.98344114773E+01  0.21838790840E+03  0.23684255895E+03  0.90475673743E+02 0.  0.
         11    1    3    3    0    0 -0.14167727879E+01  0.44045788592E+02  0.17385512693E+03  0.17935340503E+03  0.00000000000E+00 0.  1.
        -11    1    3    3    0    0  0.12305115555E+02 -0.34211377115E+02  0.44532781470E+02  0.57489153919E+02  0.00000000000E+00 0. -1.
         22    1    1    2    0    0 -0.10888342767E+02 -0.98344114773E+01  0.74312014413E+02  0.75746598230E+02  0.00000000000E+00 0. -1.
<mgrwt>
<rscale>  0 0.57976205E+02</rscale>
<asrwt>0</asrwt>
<pdfrwt beam="1">  1        2 0.46560692E-01 0.91657619E+02</pdfrwt>
<pdfrwt beam="2">  1       -2 0.15299413E-02 0.91657619E+02</pdfrwt>
<totfact> 0.10655058E+05</totfact>
</mgrwt>
</event>
<event>
 6    1  0.1683416E-002  0.9315654E+02  0.7546771E-02  0.1394206E+00
         -2   -1    0    0    0  501 -0.00000000000E+00  0.00000000000E+00  0.63629398094E+02  0.63629398094E+02  0.00000000000E+00 0.  1.
          2   -1    0    0  501    0  0.00000000000E+00 -0.00000000000E+00 -0.52147041600E+02  0.52147041600E+02  0.00000000000E+00 0. -1.
         23    2    1    2    0    0  0.10599117001E+02 -0.13271191273E+02  0.22105723108E+02  0.95743424015E+02  0.91595166078E+02 0.  0.
         11    1    3    3    0    0  0.49652858752E+02 -0.15877839619E+02  0.22053560725E+02  0.56602753590E+02  0.00000000000E+00 0.  1.
        -11    1    3    3    0    0 -0.39053741752E+02  0.26066483466E+01  0.52162382531E-01  0.39140670425E+02  0.00000000000E+00 0. -1.
         22    1    1    2    0    0 -0.10599117001E+02  0.13271191273E+02 -0.10623366614E+02  0.20033015679E+02  0.00000000000E+00 0. -1.
<mgrwt>
<rscale>  0 0.60872591E+02</rscale>
<asrwt>0</asrwt>
<pdfrwt beam="1">  1        2 0.80226218E-02 0.93156536E+02</pdfrwt>
<pdfrwt beam="2">  1       -2 0.97891382E-02 0.93156536E+02</pdfrwt>
<totfact> 0.50200264E+04</totfact>
</mgrwt>
</event>
<event>
 6    1  0.1683416E-002  0.9427722E+02  0.7546771E-02  0.1374915E+00
          1   -1    0    0  501    0  0.00000000000E+00  0.00000000000E+00  0.74215675742E+01  0.74215675742E+01  0.00000000000E+00 0. -1.
         -1   -1    0    0    0  501 -0.00000000000E+00 -0.00000000000E+00 -0.54076930259E+03  0.54076930259E+03  0.00000000000E+00 0.  1.
         23    2    1    2    0    0  0.20620437915E+02 -0.87434068329E+01 -0.49399490563E+03  0.50291068903E+03  0.91578079968E+02 0.  0.
         11    1    3    3    0    0 -0.17902835631E+02 -0.36229902281E+01 -0.19099353157E+02  0.26427691402E+02  0.00000000000E+00 0. -1.
        -11    1    3    3    0    0  0.38523273547E+02 -0.51204166047E+01 -0.47489555247E+03  0.47648299762E+03  0.00000000000E+00 0.  1.
         22    1    1    2    0    0 -0.20620437915E+02  0.87434068329E+01 -0.39352829394E+02  0.45280181141E+02  0.00000000000E+00 0. -1.
<mgrwt>
<rscale>  0 0.65819585E+02</rscale>
<asrwt>0</asrwt>
<pdfrwt beam="1">  1        1 0.11417791E-02 0.94277221E+02</pdfrwt>
<pdfrwt beam="2">  1       -1 0.83195314E-01 0.94277221E+02</pdfrwt>
<totfact> 0.18044074E+04</totfact>
</mgrwt>
</event>
<event>
 6    1  0.1683416E-002  0.9318493E+02  0.7546771E-02  0.1387899E+00
         -3   -1    0    0    0  501 -0.00000000000E+00  0.00000000000E+00  0.16368555253E+03  0.16368555253E+03  0.00000000000E+00 0.  1.
          3   -1    0    0  501    0  0.00000000000E+00 -0.00000000000E+00 -0.21574198088E+02  0.21574198088E+02  0.00000000000E+00 0. -1.
         23    2    1    2    0    0  0.18172150973E+02 -0.47232433940E+01  0.13719812085E+03  0.16585160894E+03  0.91273740597E+02 0.  0.
         13    1    3    3    0    0 -0.17111168027E+02 -0.17239840970E+02  0.12368854895E+03  0.12605102669E+03  0.00000000000E+00 0.  1.
        -13    1    3    3    0    0  0.35283319001E+02  0.12516597576E+02  0.13509571907E+02  0.39800582253E+02  0.00000000000E+00 0. -1.
         22    1    1    2    0    0 -0.18172150973E+02  0.47232433940E+01  0.49132335867E+01  0.19408141679E+02  0.00000000000E+00 0.  1.
<mgrwt>
<rscale>  0 0.62432356E+02</rscale>
<asrwt>0</asrwt>
<pdfrwt beam="1">  1        3 0.33191075E-02 0.93184933E+02</pdfrwt>
<pdfrwt beam="2">  1       -3 0.25182392E-01 0.93184933E+02</pdfrwt>
<totfact> 0.13350469E+04</totfact>
</mgrwt>
</event>
<event>
 6    1  0.1683416E-002  0.8642903E+02  0.7546771E-02  0.1416307E+00
         -1   -1    0    0    0  501 -0.00000000000E+00  0.00000000000E+00  0.36821479301E+02  0.36821479301E+02  0.00000000000E+00 0.  1.
          1   -1    0    0  501    0  0.00000000000E+00 -0.00000000000E+00 -0.13090994104E+03  0.13090994104E+03  0.00000000000E+00 0. -1.
         23    2    1    2    0    0  0.14985223238E+02  0.11181268102E+01 -0.15610166373E+02  0.87827415643E+02  0.85112693068E+02 0.  0.
         13    1    3    3    0    0 -0.28037790908E+02  0.92229096871E+01 -0.29664682635E+02  0.41847021136E+02  0.00000000000E+00 0. -1.
        -13    1    3    3    0    0  0.43023014146E+02 -0.81047828769E+01  0.14054516262E+02  0.45980394508E+02  0.00000000000E+00 0.  1.
         22    1    1    2    0    0 -0.14985223238E+02 -0.11181268102E+01 -0.78478295371E+02  0.79904004702E+02  0.00000000000E+00 0. -1.
<mgrwt>
<rscale>  0 0.55809990E+02</rscale>
<asrwt>0</asrwt>
<pdfrwt beam="1">  1        1 0.20139991E-01 0.86429032E+02</pdfrwt>
<pdfrwt beam="2">  1       -1 0.56648430E-02 0.86429032E+02</pdfrwt>
<totfact> 0.32081889E+04</totfact>
</mgrwt>
</event>
<event>
 6    1  0.1683416E-002  0.9355471E+02  0.7546771E-02  0.1378593E+00
          2   -1    0    0  501    0  0.00000000000E+00  0.00000000000E+00  0.11941674542E+03  0.11941674542E+03  0.00000000000E+00 0.  1.
         -2   -1    0    0    0  501 -0.00000000000E+00 -0.00000000000E+00 -0.20253388888E+03  0.20253388888E+03  0.00000000000E+00 0. -1.
         23    2    1    2    0    0 -0.20700868823E+02  0.60949827137E+01 -0.19060021504E+03  0.21232269325E+03  0.91031913680E+02 0.  0.
         13    1    3    3    0    0 -0.46277992676E+02  0.15517724218E+02 -0.17329015437E+03  0.18003313576E+03  0.00000000000E+00 0.  1.
        -13    1    3    3    0    0  0.25577123853E+02 -0.94227415040E+01 -0.17310060678E+02  0.32289557488E+02  0.00000000000E+00 0. -1.
         22    1    1    2    0    0  0.20700868823E+02 -0.60949827137E+01  0.10748307158E+03  0.10962794106E+03  0.00000000000E+00 0.  1.
<mgrwt>
<rscale>  0 0.64835011E+02</rscale>
<asrwt>0</asrwt>
<pdfrwt beam="1">  1        2 0.18371807E-01 0.93554712E+02</pdfrwt>
<pdfrwt beam="2">  1       -2 0.31159059E-01 0.93554712E+02</pdfrwt>
<totfact> 0.27606518E+03</totfact>
</mgrwt>
</event>
<event>
 6    1  0.1683416E-002  0.1079082E+03  0.7546771E-02  0.1297470E+00
         -4   -1    0    0    0  501 -0.00000000000E+00  0.00000000000E+00  0.18270460167E+03  0.18270460167E+03  0.00000000000E+00 0.  1.
          4   -1    0    0  501    0  0.00000000000E+00 -0.00000000000E+00 -0.42627377032E+02  0.42627377032E+02  0.00000000000E+00 0. -1.
         23    2    1    2    0    0  0.41977552148E+02  0.39530881367E+02  0.12616273291E+03  0.16601572001E+03  0.91210627928E+02 0.  0.
         13    1    3    3    0    0 -0.11279916970E+02 -0.18976175594E+02  0.56281759052E+02  0.60456332745E+02  0.00000000000E+00 0.  1.
        -13    1    3    3    0    0  0.53257469118E+02  0.58507056961E+02  0.69880973862E+02  0.10555938726E+03  0.00000000000E+00 0. -1.
         22    1    1    2    0    0 -0.41977552148E+02 -0.39530881367E+02  0.13914491727E+02  0.59316258699E+02  0.00000000000E+00 0.  1.
<mgrwt>
<rscale>  0 0.92259624E+02</rscale>
<asrwt>0</asrwt>
<pdfrwt beam="1">  1        4 0.65580581E-02 0.10790822E+03</pdfrwt>
<pdfrwt beam="2">  1       -4 0.28108400E-01 0.10790822E+03</pdfrwt>
<totfact> 0.28620520E+03</totfact>
</mgrwt>
</event>
<event>
 6    1  0.1683416E-002  0.9304932E+02  0.7546771E-02  0.1411443E+00
          2   -1    0    0  501    0  0.00000000000E+00  0.00000000000E+00  0.42475047650E+01  0.42475047650E+01  0.00000000000E+00 0. -1.
         -2   -1    0    0    0  501 -0.00000000000E+00 -0.00000000000E+00 -0.87946709232E+03  0.87946709232E+03  0.00000000000E+00 0.  1.
         23    2    1    2    0    0 -0.71439666976E+01  0.10844883426E+02 -0.85235881142E+03  0.85742271921E+03  0.92138636059E+02 0.  0.
         11    1    3    3    0    0  0.38133630958E+02 -0.45111148361E+01 -0.54673647403E+03  0.54808329294E+03  0.00000000000E+00 0. -1.
        -11    1    3    3    0    0 -0.45277597655E+02  0.15355998262E+02 -0.30562233740E+03  0.30933942627E+03  0.00000000000E+00 0.  1.
         22    1    1    2    0    0  0.71439666976E+01 -0.10844883426E+02 -0.22860776132E+02  0.26291877872E+02  0.00000000000E+00 0.  1.
<mgrwt>
<rscale>  0 0.56873175E+02</rscale>
<asrwt>0</asrwt>
<pdfrwt beam="1">  1        2 0.65346182E-03 0.93049320E+02</pdfrwt>
<pdfrwt beam="2">  1       -2 0.13530272E+00 0.93049320E+02</pdfrwt>
<totfact> 0.96547431E+03</totfact>
</mgrwt>
</event>
<event>
 6    1  0.1683416E-002  0.9626547E+02  0.7546771E-02  0.1395822E+00
          4   -1    0    0  501    0  0.00000000000E+00  0.00000000000E+00  0.53787198577E+02  0.53787198577E+02  0.00000000000E+00 0. -1.
         -4   -1    0    0    0  501 -0.00000000000E+00 -0.00000000000E+00 -0.68015081267E+02  0.68015081267E+02  0.00000000000E+00 0.  1.
         23    2    1    2    0    0  0.32092624888E+01  0.14652227322E+02 -0.29212497790E+02  0.10060025586E+03  0.95089717221E+02 0.  0.
         13    1    3    3    0    0  0.44808832073E+02  0.58822914188E+01 -0.35701862200E+02  0.57593886383E+02  0.00000000000E+00 0.  1.
        -13    1    3    3    0    0 -0.41599569584E+02  0.87699359032E+01  0.64893644105E+01  0.43006369480E+02  0.00000000000E+00 0. -1.
         22    1    1    2    0    0 -0.32092624888E+01 -0.14652227322E+02  0.14984615099E+02  0.21202023981E+02  0.00000000000E+00 0. -1.
<mgrwt>
<rscale>  0 0.60481510E+02</rscale>
<asrwt>0</asrwt>
<pdfrwt beam="1">  1        4 0.82749536E-02 0.96265474E+02</pdfrwt>
<pdfrwt beam="2">  1       -4 0.10463859E-01 0.96265474E+02</pdfrwt>
<totfact> 0.10818632E+04</totfact>
</mgrwt>
</event>
<event>
 6    1  0.1683416E-002  0.1036199E+03  0.7546771E-02  0.1367114E+00
          2   -1    0    0  501    0  0.00000000000E+00  0.00000000000E+00  0.38405932551E+03  0.38405932551E+03  0.00000000000E+00 0.  1.
         -2   -1    0    0    0  501 -0.00000000000E+00 -0.00000000000E+00 -0.98497362943E+01  0.98497362943E+01  0.00000000000E+00 0. -1.
         23    2    1    2    0    0 -0.11456502349E+02 -0.15396012281E+02  0.30716139069E+03  0.32416847415E+03  0.10182726091E+03 0.  0.
         13    1    3    3    0    0 -0.20511782765E+02 -0.57002941851E+02  0.16515288508E+03  0.17591345617E+03  0.00000000000E+00 0. -1.
        -13    1    3    3    0    0  0.90552804163E+01  0.41606929569E+02  0.14200850561E+03  0.14825501799E+03  0.00000000000E+00 0.  1.
         22    1    1    2    0    0  0.11456502349E+02  0.15396012281E+02  0.67048198530E+02  0.69740587654E+02  0.00000000000E+00 0.  1.
<mgrwt>
<rscale>  0 0.67976039E+02</rscale>
<asrwt>0</asrwt>
<pdfrwt beam="1">  1        2 0.59086038E-01 0.10361988E+03</pdfrwt>
<pdfrwt beam="2">  1       -2 0.15153443E-02 0.10361988E+03</pdfrwt>
<totfact> 0.85623656E+04</totfact>
</mgrwt>
</event>
<event>
 6    1  0.1683416E-002  0.9404229E+02  0.7546771E-02  0.1416375E+00
         -4   -1    0    0    0  501 -0.00000000000E+00  0.00000000000E+00  0.95418012737E+01  0.95418012737E+01  0.00000000000E+00 0. -1.
          4   -1    0    0  501    0  0.00000000000E+00 -0.00000000000E+00 -0.30641000340E+03  0.30641000340E+03  0.00000000000E+00 0.  1.
         23    2    1    2    0    0 -0.11529741931E+02  0.16869341945E+01 -0.23731268597E+03  0.25526704382E+03  0.93317586977E+02 0.  0.
         11    1    3    3    0    0 -0.42896241525E+02  0.29504622368E+02 -0.13574346152E+03  0.14538534184E+03  0.00000000000E+00 0.  1.
        -11    1    3    3    0    0  0.31366499595E+02 -0.27817688173E+02 -0.10156922445E+03  0.10988170197E+03  0.00000000000E+00 0. -1.
         22    1    1    2    0    0  0.11529741931E+02 -0.16869341945E+01 -0.59555516151E+02  0.60684760855E+02  0.00000000000E+00 0. -1.
<mgrwt>
<rscale>  0 0.55795241E+02</rscale>
<asrwt>0</asrwt>
<pdfrwt beam="1">  1        4 0.47140002E-01 0.94042292E+02</pdfrwt>
<pdfrwt beam="2">  1       -4 0.14679694E-02 0.94042292E+02</pdfrwt>
<totfact> 0.10528971E+04</totfact>
</mgrwt>
</event>
<event>
 6    1  0.1683416E-002  0.9136690E+02  0.7546771E-02  0.1409692E+00
          2   -1    0    0  501    0  0.00000000000E+00  0.00000000000E+00  0.14467790876E+03  0.14467790876E+03  0.00000000000E+00 0. -1.
         -2   -1    0    0    0  501 -0.00000000000E+00 -0.00000000000E+00 -0.19267938790E+02  0.19267938790E+02  0.00000000000E+00 0.  1.
         23    2    1    2    0    0  0.12998967836E+02  0.54538064692E+01  0.10573160353E+03  0.13973933447E+03  0.90272877671E+02 0.  0.
         13    1    3    3    0    0  0.22748459848E+02 -0.18735637306E+02 -0.13755225769E+01  0.29502687896E+02  0.00000000000E+00 0.  1.
        -13    1    3    3    0    0 -0.97494920115E+01  0.24189443775E+02  0.10710712611E+03  0.11023664658E+03  0.00000000000E+00 0. -1.
         22    1    1    2    0    0 -0.12998967836E+02 -0.54538064692E+01  0.19678366438E+02  0.24206513080E+02  0.00000000000E+00 0.  1.
<mgrwt>
<rscale>  0 0.57262602E+02</rscale>
<asrwt>0</asrwt>
<pdfrwt beam="1">  1        2 0.22258139E-01 0.91366896E+02</pdfrwt>
<pdfrwt beam="2">  1       -2 0.29642984E-02 0.91366896E+02</pdfrwt>
<totfact> 0.90336828E+04</totfact>
</mgrwt>
</event>
<event>
 6    1  0.1683416E-002  0.9222653E+02  0.7546771E-02  0.1390470E+00
         -1   -1    0    0    0  501 -0.00000000000E+00  0.00000000000E+00  0.11932674826E+04  0.11932674826E+04  0.00000000000E+00 0.  1.
          1   -1    0    0  501    0  0.00000000000E+00 -0.00000000000E+00 -0.34882565779E+01  0.34882565779E+01  0.00000000000E+00 0. -1.
         23    2    1    2    0    0  0.15331558059E+02  0.10500317399E+02  0.11382148507E+04  0.11419451732E+04  0.90335037230E+02 0.  0.
         11    1    3    3    0    0  0.53002130337E+02  0.12552555389E+02  0.68713079561E+03  0.68928624152E+03  0.00000000000E+00 0.  1.
        -11    1    3    3    0    0 -0.37670572278E+02 -0.20522379898E+01  0.45108405506E+03  0.45265893168E+03  0.00000000000E+00 0. -1.
         22    1    1    2    0    0 -0.15331558059E+02 -0.10500317399E+02  0.51564375307E+02  0.54810565941E+02  0.00000000000E+00 0. -1.
<mgrwt>
<rscale>  0 0.61790052E+02</rscale>
<asrwt>0</asrwt>
<pdfrwt beam="1">  1        1 0.53665581E-03 0.92226527E+02</pdfrwt>
<pdfrwt beam="2">  1       -1 0.18357929E+00 0.92226527E+02</pdfrwt>
<totfact> 0.77541072E+03</totfact>
</mgrwt>
</event>
<event>
 6    1  0.1683416E-002  0.9514564E+02  0.7546771E-02  0.1383851E+00
         -2   -1    0    0    0  501 -0.00000000000E+00  0.00000000000E+00  0.12388358790E+03  0.12388358790E+03  0.00000000000E+00 0.  1.
          2   -1    0    0  501    0  0.00000000000E+00 -0.00000000000E+00 -0.62044429832E+02  0.62044429832E+02  0.00000000000E+00 0. -1.
         23    2    1    2    0    0 -0.18776899493E+02  0.14372129481E+01  0.10326969182E+03  0.14041838509E+03  0.93263369480E+02 0.  0.
         11    1    3    3    0    0 -0.27843534275E+02 -0.21515448270E+02  0.98801200835E+00  0.35201606255E+02  0.00000000000E+00 0. -1.
        -11    1    3    3    0    0  0.90666347820E+01  0.22952661218E+02  0.10228167981E+03  0.10521677883E+03  0.00000000000E+00 0.  1.
         22    1    1    2    0    0  0.18776899493E+02 -0.14372129481E+01 -0.41430533756E+02  0.45509632639E+02  0.00000000000E+00 0. -1.
<mgrwt>
<rscale>  0 0.63462148E+02</rscale>
<asrwt>0</asrwt>
<pdfrwt beam="1">  1        2 0.95452969E-02 0.95145644E+02</pdfrwt>
<pdfrwt beam="2">  1       -2 0.19059013E-01 0.95145644E+02</pdfrwt>
<totfact> 0.13946548E+04</totfact>
</mgrwt>
</event>
<event>
 6    1  0.1683416E-002  0.9144303E+02  0.7546771E-02  0.1430851E+00
         -2   -1    0    0    0  501 -0.00000000000E+00  0.00000000000E+00  0.33956380443E+02  0.33956380443E+02  0.00000000000E+00 0.  1.
          2   -1    0    0  501    0  0.00000000000E+00 -0.00000000000E+00 -0.80406578903E+02  0.80406578903E+02  0.00000000000E+00 0. -1.
         23    2    1    2    0    0 -0.95504712505E+01 -0.34558152371E+01 -0.32372958028E+02  0.97004305647E+02  0.90877239959E+02 0.  0.
         13    1    3    3    0    0  0.56329912063E+01 -0.33992782417E+02  0.15861125694E+02  0.37931717002E+02  0.00000000000E+00 0.  1.
        -13    1    3    3    0    0 -0.15183462457E+02  0.30536967180E+02 -0.48234083723E+02  0.59072588646E+02  0.00000000000E+00 0. -1.
         22    1    1    2    0    0  0.95504712505E+01  0.34558152371E+01 -0.14077240431E+02  0.17358653698E+02  0.00000000000E+00 0. -1.
<mgrwt>
<rscale>  0 0.52789650E+02</rscale>
<asrwt>0</asrwt>
<pdfrwt beam="1">  1        2 0.12370243E-01 0.91443025E+02</pdfrwt>
<pdfrwt beam="2">  1       -2 0.52240585E-02 0.91443025E+02</pdfrwt>
<totfact> 0.76855376E+04</totfact>
</mgrwt>
</event>
<event>
 6    1  0.1683416E-002  0.8819680E+02  0.7546771E-02  0.1424493E+00
          2   -1    0    0  501    0  0.00000000000E+00  0.00000000000E+00  0.11936923814E+02  0.11936923814E+02  0.00000000000E+00 0. -1.
         -2   -1    0    0    0  501 -0.00000000000E+00 -0.00000000000E+00 -0.27450564853E+03  0.27450564853E+03  0.00000000000E+00 0.  1.
         23    2    1    2    0    0  0.10274588399E+02 -0.70648332293E+01 -0.25880107820E+03  0.27341666755E+03  0.87310921342E+02 0.  0.
         13    1    3    3    0    0  0.15441072076E+02  0.30645248650E+02 -0.20293992912E+03  0.20582072977E+03  0.00000000000E+00 0.  1.
        -13    1    3    3    0    0 -0.51664836770E+01 -0.37710081879E+02 -0.55861149078E+02  0.67595937786E+02  0.00000000000E+00 0. -1.
         22    1    1    2    0    0 -0.10274588399E+02  0.70648332293E+01 -0.37676465206E+01  0.13025904791E+02  0.00000000000E+00 0.  1.
<mgrwt>
<rscale>  0 0.54081485E+02</rscale>
<asrwt>0</asrwt>
<pdfrwt beam="1">  1        2 0.18364499E-02 0.88196803E+02</pdfrwt>
<pdfrwt beam="2">  1       -2 0.42231637E-01 0.88196803E+02</pdfrwt>
<totfact> 0.28692107E+04</totfact>
</mgrwt>
</event>
<event>
 6    1  0.1683416E-002  0.9412834E+02  0.7546771E-02  0.1408850E+00
          2   -1    0    0  501    0  0.00000000000E+00  0.00000000000E+00  0.51549574030E+02  0.51549574030E+02  0.00000000000E+00 0.  1.
         -2   -1    0    0    0  501 -0.00000000000E+00 -0.00000000000E+00 -0.85544412334E+02  0.85544412334E+02  0.00000000000E+00 0. -1.
         23    2    1    2    0    0  0.52902222368E+01 -0.11943612749E+02 -0.57429416078E+02  0.11026460374E+03  0.93217534129E+02 0.  0.
         13    1    3    3    0    0 -0.21546942208E+02  0.28875830080E+02 -0.15783208965E+01  0.36063490932E+02  0.00000000000E+00 0.  1.
        -13    1    3    3    0    0  0.26837164444E+02 -0.40819442829E+02 -0.55851095181E+02  0.74201112803E+02  0.00000000000E+00 0. -1.
         22    1    1    2    0    0 -0.52902222368E+01  0.11943612749E+02  0.23434577774E+02  0.26829382629E+02  0.00000000000E+00 0.  1.
<mgrwt>
<rscale>  0 0.57451219E+02</rscale>
<asrwt>0</asrwt>
<pdfrwt beam="1">  1        2 0.79307039E-02 0.94128343E+02</pdfrwt>
<pdfrwt beam="2">  1       -2 0.13160679E-01 0.94128343E+02</pdfrwt>
<totfact> 0.32002713E+04</totfact>
</mgrwt>
</event>
<event>
 6    1  0.1683416E-002  0.9416674E+02  0.7546771E-02  0.1375316E+00
         -2   -1    0    0    0  501 -0.00000000000E+00  0.00000000000E+00  0.68698020462E+02  0.68698020462E+02  0.00000000000E+00 0.  1.
          2   -1    0    0  501    0  0.00000000000E+00 -0.00000000000E+00 -0.49409306371E+02  0.49409306371E+02  0.00000000000E+00 0. -1.
         23    2    1    2    0    0 -0.13293036729E+02  0.17940749674E+02  0.14605539230E+02  0.95292694443E+02  0.91481148405E+02 0.  0.
         11    1    3    3    0    0  0.11058148441E+01  0.53881068154E+02 -0.55545207254E-01  0.53892443043E+02  0.00000000000E+00 0.  1.
        -11    1    3    3    0    0 -0.14398851573E+02 -0.35940318480E+02  0.14661084437E+02  0.41400251399E+02  0.00000000000E+00 0. -1.
         22    1    1    2    0    0  0.13293036729E+02 -0.17940749674E+02  0.46831748614E+01  0.22814632391E+02  0.00000000000E+00 0.  1.
<mgrwt>
<rscale>  0 0.65711218E+02</rscale>
<asrwt>0</asrwt>
<pdfrwt beam="1">  1        2 0.76014318E-02 0.94166745E+02</pdfrwt>
<pdfrwt beam="2">  1       -2 0.10568926E-01 0.94166745E+02</pdfrwt>
<totfact> 0.47709302E+04</totfact>
</mgrwt>
</event>
<event>
 6    1  0.1683416E-002  0.9250170E+02  0.7546771E-02  0.1390545E+00
          2   -1    0    0  501    0  0.00000000000E+00  0.00000000000E+00  0.59961250166E+03  0.59961250166E+03  0.00000000000E+00 0. -1.
         -2   -1    0    0    0  501 -0.00000000000E+00 -0.00000000000E+00 -0.51316026485E+01  0.51316026485E+01  0.00000000000E+00 0.  1.
         23    2    1    2    0    0 -0.11910027252E+02 -0.14018649519E+02  0.48934946115E+03  0.49801552093E+03  0.90654247966E+02 0.  0.
         13    1    3    3    0    0 -0.33989941297E+02 -0.10464119431E+02  0.74393177008E+02  0.82457011164E+02  0.00000000000E+00 0.  1.
        -13    1    3    3    0    0  0.22079914044E+02 -0.35545300888E+01  0.41495628414E+03  0.41555850977E+03  0.00000000000E+00 0. -1.
         22    1    1    2    0    0  0.11910027252E+02  0.14018649519E+02  0.10513143786E+03  0.10672858338E+03  0.00000000000E+00 0.  1.
<mgrwt>
<rscale>  0 0.61771260E+02</rscale>
<asrwt>0</asrwt>
<pdfrwt beam="1">  1        2 0.92248022E-01 0.92501697E+02</pdfrwt>
<pdfrwt beam="2">  1       -2 0.78947780E-03 0.92501697E+02</pdfrwt>
<totfact> 0.13147471E+05</totfact>
</mgrwt>
</event>
<event>
 6    1  0.1683416E-002  0.9182180E+02  0.7546771E-02  0.1404650E+00
          2   -1    0    0  501    0  0.00000000000E+00  0.00000000000E+00  0.80627963506E+01  0.80627963506E+01  0.00000000000E+00 0. -1.
         -2   -1    0    0    0  501 -0.00000000000E+00 -0.00000000000E+00 -0.65152479617E+03  0.65152479617E+03  0.00000000000E+00 0.  1.
         23    2    1    2    0    0 -0.10755510539E+02 -0.10498515430E+02 -0.63638434460E+03  0.64297455437E+03  0.90583352111E+02 0.  0.
         11    1    3    3    0    0  0.21824809111E+02 -0.29886602944E+02 -0.12977146133E+03  0.13494503883E+03  0.00000000000E+00 0. -1.
        -11    1    3    3    0    0 -0.32580319649E+02  0.19388087514E+02 -0.50661288327E+03  0.50802951554E+03  0.00000000000E+00 0.  1.
         22    1    1    2    0    0  0.10755510539E+02  0.10498515430E+02 -0.70776552155E+01  0.16613038149E+02  0.00000000000E+00 0. -1.
<mgrwt>
<rscale>  0 0.58404842E+02</rscale>
<asrwt>0</asrwt>
<pdfrwt beam="1">  1        2 0.12404299E-02 0.91821803E+02</pdfrwt>
<pdfrwt beam="2">  1       -2 0.10023461E+00 0.91821803E+02</pdfrwt>
<totfact> 0.81473409E+03</totfact>
</mgrwt>
</event>
<event>
 6    1  0.1683416E-002  0.9416947E+02  0.7546771E-02  0.1373472E+00
          2   -1    0    0  501    0  0.00000000000E+00  0.00000000000E+00  0.25124115143E+02  0.25124115143E+02  0.00000000000E+00 0. -1.
         -2   -1    0    0    0  501 -0.00000000000E+00 -0.00000000000E+00 -0.14055961050E+03  0.14055961050E+03  0.00000000000E+00 0.  1.
         23    2    1    2    0    0 -0.14682569242E+02  0.17722163625E+02 -0.80709614243E+02  0.12402391597E+03  0.91313947333E+02 0.  0.
         11    1    3    3    0    0 -0.16642044991E+02  0.28223202742E+02 -0.98204263987E+02  0.10352576636E+03  0.00000000000E+00 0.  1.
        -11    1    3    3    0    0  0.19594757496E+01 -0.10501039118E+02  0.17494649744E+02  0.20498149610E+02  0.00000000000E+00 0. -1.
         22    1    1    2    0    0  0.14682569242E+02 -0.17722163625E+02 -0.34725881117E+02  0.41659809678E+02  0.00000000000E+00 0.  1.
<mgrwt>
<rscale>  0 0.66211211E+02</rscale>
<asrwt>0</asrwt>
<pdfrwt beam="1">  1        2 0.38652484E-02 0.94169474E+02</pdfrwt>
<pdfrwt beam="2">  1       -2 0.21624556E-01 0.94169474E+02</pdfrwt>
<totfact> 0.35515232E+04</totfact>
</mgrwt>
</event>
<event>
 6    1  0.1683416E-002  0.9352040E+02  0.7546771E-02  0.1374306E+00
         -3   -1    0    0    0  501 -0.00000000000E+00  0.00000000000E+00  0.12289814968E+02  0.12289814968E+02  0.00000000000E+00 0.  1.
          3   -1    0    0  501    0  0.00000000000E+00 -0.00000000000E+00 -0.28614883417E+03  0.28614883417E+03  0.00000000000E+00 0. -1.
         23    2    1    2    0    0  0.13789684246E+02  0.18627708949E+02 -0.19537925182E+03  0.21660820969E+03  0.90603076827E+02 0.  0.
         11    1    3    3    0    0 -0.28308717576E+02  0.10895713969E+02 -0.20606541429E+02  0.36670555264E+02  0.00000000000E+00 0.  1.
        -11    1    3    3    0    0  0.42098401822E+02  0.77319949804E+01 -0.17477271039E+03  0.17993765442E+03  0.00000000000E+00 0. -1.
         22    1    1    2    0    0 -0.13789684246E+02 -0.18627708949E+02 -0.78479767382E+02  0.81830439451E+02  0.00000000000E+00 0.  1.
<mgrwt>
<rscale>  0 0.65984418E+02</rscale>
<asrwt>0</asrwt>
<pdfrwt beam="1">  1        3 0.44022898E-01 0.93520396E+02</pdfrwt>
<pdfrwt beam="2">  1       -3 0.18907407E-02 0.93520396E+02</pdfrwt>
<totfact> 0.11129737E+04</totfact>
</mgrwt>
</event>
<event>
 6    1  0.1683416E-002  0.9099273E+02  0.7546771E-02  0.1410223E+00
         -2   -1    0    0    0  501 -0.00000000000E+00  0.00000000000E+00  0.15889870110E+03  0.15889870110E+03  0.00000000000E+00 0.  1.
          2   -1    0    0  501    0  0.00000000000E+00 -0.00000000000E+00 -0.17463051482E+02  0.17463051482E+02  0.00000000000E+00 0. -1.
         23    2    1    2    0    0  0.12955218078E+02  0.56995766987E+01  0.12597861877E+03  0.15540363596E+03  0.89885231437E+02 0.  0.
         11    1    3    3    0    0  0.33729743924E+02 -0.54394331207E+01  0.79953405253E+01  0.35088581163E+02  0.00000000000E+00 0. -1.
        -11    1    3    3    0    0 -0.20774525847E+02  0.11139009819E+02  0.11798327825E+03  0.12031505479E+03  0.00000000000E+00 0.  1.
         22    1    1    2    0    0 -0.12955218078E+02 -0.56995766987E+01  0.15457030845E+02  0.20958116627E+02  0.00000000000E+00 0.  1.
<mgrwt>
<rscale>  0 0.57144093E+02</rscale>
<asrwt>0</asrwt>
<pdfrwt beam="1">  1        2 0.26866234E-02 0.90992734E+02</pdfrwt>
<pdfrwt beam="2">  1       -2 0.24445953E-01 0.90992734E+02</pdfrwt>
<totfact> 0.46387238E+04</totfact>
</mgrwt>
</event>
<event>
 6    1  0.1683416E-002  0.9150615E+02  0.7546771E-02  0.1412758E+00
          2   -1    0    0  501    0  0.00000000000E+00  0.00000000000E+00  0.15187346320E+02  0.15187346320E+02  0.00000000000E+00 0. -1.
         -2   -1    0    0    0  501 -0.00000000000E+00 -0.00000000000E+00 -0.20730559885E+03  0.20730559885E+03  0.00000000000E+00 0.  1.
         23    2    1    2    0    0 -0.40532198041E+01 -0.12749113377E+02 -0.18696488705E+03  0.20815677907E+03  0.90522965043E+02 0.  0.
         13    1    3    3    0    0  0.22860206584E+00 -0.41658322458E+01  0.10064014191E+02  0.10894530684E+02  0.00000000000E+00 0. -1.
        -13    1    3    3    0    0 -0.42818218699E+01 -0.85832811314E+01 -0.19702890125E+03  0.19726224839E+03  0.00000000000E+00 0.  1.
         22    1    1    2    0    0  0.40532198041E+01  0.12749113377E+02 -0.51533654774E+01  0.14336166099E+02  0.00000000000E+00 0. -1.
<mgrwt>
<rscale>  0 0.56582846E+02</rscale>
<asrwt>0</asrwt>
<pdfrwt beam="1">  1        2 0.23365147E-02 0.91506151E+02</pdfrwt>
<pdfrwt beam="2">  1       -2 0.31893171E-01 0.91506151E+02</pdfrwt>
<totfact> 0.35029261E+04</totfact>
</mgrwt>
</event>
<event>
 6    1  0.1683416E-002  0.9104894E+02  0.7546771E-02  0.1427993E+00
         -4   -1    0    0    0  501 -0.00000000000E+00  0.00000000000E+00  0.22458291577E+03  0.22458291577E+03  0.00000000000E+00 0.  1.
          4   -1    0    0  501    0  0.00000000000E+00 -0.00000000000E+00 -0.14480657172E+02  0.14480657172E+02  0.00000000000E+00 0. -1.
         23    2    1    2    0    0 -0.91392179473E+01  0.56503817712E+01  0.20935023720E+03  0.22829242374E+03  0.90412702672E+02 0.  0.
         13    1    3    3    0    0  0.40314119872E+01 -0.19724406071E+02  0.34607049538E+01  0.20427455942E+02  0.00000000000E+00 0. -1.
        -13    1    3    3    0    0 -0.13170629935E+02  0.25374787843E+02  0.20588953224E+03  0.20786496780E+03  0.00000000000E+00 0.  1.
         22    1    1    2    0    0  0.91392179473E+01 -0.56503817712E+01  0.75202139848E+00  0.10771149197E+02  0.00000000000E+00 0.  1.
<mgrwt>
<rscale>  0 0.53364986E+02</rscale>
<asrwt>0</asrwt>
<pdfrwt beam="1">  1        4 0.22277936E-02 0.91048937E+02</pdfrwt>
<pdfrwt beam="2">  1       -4 0.34551215E-01 0.91048937E+02</pdfrwt>
<totfact> 0.10143168E+04</totfact>
</mgrwt>
</event>
<event>
 6    1  0.1683416E-002  0.9845396E+02  0.7546771E-02  0.1334127E+00
         -1   -1    0    0    0  501 -0.00000000000E+00  0.00000000000E+00  0.78908426110E+02  0.78908426110E+02  0.00000000000E+00 0.  1.
          1   -1    0    0  501    0  0.00000000000E+00 -0.00000000000E+00 -0.94227493150E+02  0.94227493150E+02  0.00000000000E+00 0. -1.
         23    2    1    2    0    0 -0.38516134334E+02 -0.76186883484E+01  0.39182858879E+02  0.10596451951E+03  0.90286466028E+02 0.  0.
         11    1    3    3    0    0 -0.31924301654E+02  0.23765354367E+02 -0.15386612886E+02  0.42669672607E+02  0.00000000000E+00 0. -1.
        -11    1    3    3    0    0 -0.65918326805E+01 -0.31384042715E+02  0.54569471765E+02  0.63294846899E+02  0.00000000000E+00 0.  1.
         22    1    1    2    0    0  0.38516134334E+02  0.76186883484E+01 -0.54501925919E+02  0.67171399755E+02  0.00000000000E+00 0. -1.
<mgrwt>
<rscale>  0 0.78238254E+02</rscale>
<asrwt>0</asrwt>
<pdfrwt beam="1">  1        1 0.14496537E-01 0.98453964E+02</pdfrwt>
<pdfrwt beam="2">  1       -1 0.12139758E-01 0.98453964E+02</pdfrwt>
<totfact> 0.15793425E+04</totfact>
</mgrwt>
</event>
<event>
 6    1  0.1683416E-002  0.9597245E+02  0.7546771E-02  0.1422304E+00
          2   -1    0    0  501    0  0.00000000000E+00  0.00000000000E+00  0.45320853208E+02  0.45320853208E+02  0.00000000000E+00 0.  1.
         -2   -1    0    0    0  501 -0.00000000000E+00 -0.00000000000E+00 -0.63791439069E+02  0.63791439069E+02  0.00000000000E+00 0. -1.
         23    2    1    2    0    0 -0.92466908919E+01  0.38262137983E+01 -0.22070345071E+02  0.98477468778E+02  0.95449308645E+02 0.  0.
         13    1    3    3    0    0 -0.21127572861E+02  0.46614710016E+02 -0.16211230150E+02  0.53685282041E+02  0.00000000000E+00 0.  1.
        -13    1    3    3    0    0  0.11880881969E+02 -0.42788496218E+02 -0.58591149210E+01  0.44792186736E+02  0.00000000000E+00 0. -1.
         22    1    1    2    0    0  0.92466908919E+01 -0.38262137983E+01  0.35997592105E+01  0.10634823499E+02  0.00000000000E+00 0. -1.
<mgrwt>
<rscale>  0 0.54536410E+02</rscale>
<asrwt>0</asrwt>
<pdfrwt beam="1">  1        2 0.69724389E-02 0.95972453E+02</pdfrwt>
<pdfrwt beam="2">  1       -2 0.98140676E-02 0.95972453E+02</pdfrwt>
<totfact> 0.59832343E+04</totfact>
</mgrwt>
</event>
<event>
 6    1  0.1683416E-002  0.7708277E+02  0.7546771E-02  0.1423322E+00
          2   -1    0    0  501    0  0.00000000000E+00  0.00000000000E+00  0.37898628088E+03  0.37898628088E+03  0.00000000000E+00 0.  1.
         -2   -1    0    0    0  501 -0.00000000000E+00 -0.00000000000E+00 -0.63589650032E+01  0.63589650032E+01  0.00000000000E+00 0. -1.
         23    2    1    2    0    0 -0.93591286515E+01  0.16552542652E+02  0.26231868466E+03  0.27340966584E+03  0.74700556215E+02 0.  0.
         13    1    3    3    0    0 -0.37849443859E+02  0.16576902450E+02  0.93775445332E+02  0.10247540311E+03  0.00000000000E+00 0.  1.
        -13    1    3    3    0    0  0.28490315207E+02 -0.24359798136E-01  0.16854323933E+03  0.17093426274E+03  0.00000000000E+00 0. -1.
         22    1    1    2    0    0  0.93591286515E+01 -0.16552542652E+02  0.11030863122E+03  0.11193558004E+03  0.00000000000E+00 0.  1.
<mgrwt>
<rscale>  0 0.54324222E+02</rscale>
<asrwt>0</asrwt>
<pdfrwt beam="1">  1        2 0.58305564E-01 0.77082768E+02</pdfrwt>
<pdfrwt beam="2">  1       -2 0.97830261E-03 0.77082768E+02</pdfrwt>
<totfact> 0.15449354E+05</totfact>
</mgrwt>
</event>
<event>
 6    1  0.1683416E-002  0.8912487E+02  0.7546771E-02  0.1406379E+00
         -2   -1    0    0    0  501 -0.00000000000E+00  0.00000000000E+00  0.46061793793E+02  0.46061793793E+02  0.00000000000E+00 0.  1.
          2   -1    0    0  501    0  0.00000000000E+00 -0.00000000000E+00 -0.60088569780E+02  0.60088569780E+02  0.00000000000E+00 0. -1.
         23    2    1    2    0    0 -0.78315105926E+01  0.13947600429E+02 -0.10230009029E+02  0.89710060802E+02  0.87677669953E+02 0.  0.
         11    1    3    3    0    0 -0.31235511695E+02  0.10889542672E+02 -0.39879298157E+02  0.51813104056E+02  0.00000000000E+00 0. -1.
        -11    1    3    3    0    0  0.23404001102E+02  0.30580577571E+01  0.29649289127E+02  0.37896956746E+02  0.00000000000E+00 0.  1.
         22    1    1    2    0    0  0.78315105926E+01 -0.13947600429E+02 -0.37967669574E+01  0.16440302772E+02  0.00000000000E+00 0.  1.
<mgrwt>
<rscale>  0 0.58009777E+02</rscale>
<asrwt>0</asrwt>
<pdfrwt beam="1">  1        2 0.92443953E-02 0.89124867E+02</pdfrwt>
<pdfrwt beam="2">  1       -2 0.70864298E-02 0.89124867E+02</pdfrwt>
<totfact> 0.68753032E+04</totfact>
</mgrwt>
</event>
<event>
 6    1  0.1683416E-002  0.9922437E+02  0.7546771E-02  0.1407330E+00
          2   -1    0    0  501    0  0.00000000000E+00  0.00000000000E+00  0.27083461257E+02  0.27083461257E+02  0.00000000000E+00 0. -1.
         -2   -1    0    0    0  501 -0.00000000000E+00 -0.00000000000E+00 -0.11313877777E+03  0.11313877777E+03  0.00000000000E+00 0.  1.
         23    2    1    2    0    0 -0.18221327125E+00 -0.11418754735E+02 -0.78603287844E+02  0.12658574781E+03  0.98564971101E+02 0.  0.
         11    1    3    3    0    0  0.29057213107E+02 -0.64056315981E+01  0.11365858988E+02  0.31851789593E+02  0.00000000000E+00 0. -1.
        -11    1    3    3    0    0 -0.29239426379E+02 -0.50131231367E+01 -0.89969146831E+02  0.94733958220E+02  0.00000000000E+00 0.  1.
         22    1    1    2    0    0  0.18221327125E+00  0.11418754735E+02 -0.74520286708E+01  0.13636491216E+02  0.00000000000E+00 0. -1.
<mgrwt>
<rscale>  0 0.57793934E+02</rscale>
<asrwt>0</asrwt>
<pdfrwt beam="1">  1        2 0.41666864E-02 0.99224365E+02</pdfrwt>
<pdfrwt beam="2">  1       -2 0.17405966E-01 0.99224365E+02</pdfrwt>
<totfact> 0.46599837E+04</totfact>
</mgrwt>
</event>
<event>
 6    1  0.1683416E-002  0.1014007E+03  0.7546771E-02  0.1355617E+00
          1   -1    0    0  501    0  0.00000000000E+00  0.00000000000E+00  0.11915089303E+03  0.11915089303E+03  0.00000000000E+00 0. -1.
         -1   -1    0    0    0  501 -0.00000000000E+00 -0.00000000000E+00 -0.59661313275E+02  0.59661313275E+02  0.00000000000E+00 0.  1.
         23    2    1    2    0    0  0.77551771748E+01  0.23592013222E+02 -0.12959072639E+02  0.10222543790E+03  0.98312647861E+02 0.  0.
         11    1    3    3    0    0  0.39931446534E+02 -0.18714014694E+02  0.84900524127E+01  0.44908971912E+02  0.00000000000E+00 0. -1.
        -11    1    3    3    0    0 -0.32176269359E+02  0.42306027916E+02 -0.21449125052E+02  0.57316465988E+02  0.00000000000E+00 0.  1.
         22    1    1    2    0    0 -0.77551771748E+01 -0.23592013222E+02  0.72448652396E+02  0.76586768406E+02  0.00000000000E+00 0. -1.
<mgrwt>
<rscale>  0 0.71333288E+02</rscale>
<asrwt>0</asrwt>
<pdfrwt beam="1">  1        1 0.18330907E-01 0.10140070E+03</pdfrwt>
<pdfrwt beam="2">  1       -1 0.91786636E-02 0.10140070E+03</pdfrwt>
<totfact> 0.17955713E+04</totfact>
</mgrwt>
</event>
<event>
 6    1  0.1683416E-002  0.1206353E+03  0.7546771E-02  0.1269640E+00
         -1   -1    0    0    0  501 -0.00000000000E+00  0.00000000000E+00  0.74567818732E+03  0.74567818732E+03  0.00000000000E+00 0.  1.
          1   -1    0    0  501    0  0.00000000000E+00 -0.00000000000E+00 -0.15582886377E+02  0.15582886377E+02  0.00000000000E+00 0. -1.
         23    2    1    2    0    0 -0.86762034392E+00  0.69875868355E+02  0.61414261374E+03  0.62587859546E+03  0.98333496333E+02 0.  0.
         11    1    3    3    0    0  0.28792918921E+02  0.30154586624E+02  0.49610067304E+03  0.49784958478E+03  0.00000000000E+00 0.  1.
        -11    1    3    3    0    0 -0.29660539265E+02  0.39721281731E+02  0.11804194070E+03  0.12802901068E+03  0.00000000000E+00 0. -1.
         22    1    1    2    0    0  0.86762034392E+00 -0.69875868355E+02  0.11595268720E+03  0.13538247823E+03  0.00000000000E+00 0. -1.
<mgrwt>
<rscale>  0 0.10524364E+03</rscale>
<asrwt>0</asrwt>
<pdfrwt beam="1">  1        1 0.23973677E-02 0.12063526E+03</pdfrwt>
<pdfrwt beam="2">  1       -1 0.11471969E+00 0.12063526E+03</pdfrwt>
<totfact> 0.32849172E+03</totfact>
</mgrwt>
</event>
<event>
 6    1  0.1683416E-002  0.9315271E+02  0.7546771E-02  0.1402910E+00
          2   -1    0    0  501    0  0.00000000000E+00  0.00000000000E+00  0.71158732496E+02  0.71158732496E+02  0.00000000000E+00 0. -1.
         -2   -1    0    0    0  501 -0.00000000000E+00 -0.00000000000E+00 -0.40993364280E+02  0.40993364280E+02  0.00000000000E+00 0.  1.
         23    2    1    2    0    0  0.87660946090E+01  0.11918343983E+02  0.27420631385E+02  0.97104674464E+02  0.91970296505E+02 0.  0.
         11    1    3    3    0    0 -0.17909272643E+02 -0.34834575523E+02  0.14333447819E+02  0.41708960966E+02  0.00000000000E+00 0. -1.
        -11    1    3    3    0    0  0.26675367252E+02  0.46752919505E+02  0.13087183565E+02  0.55395713498E+02  0.00000000000E+00 0.  1.
         22    1    1    2    0    0 -0.87660946090E+01 -0.11918343983E+02  0.27447368312E+01  0.15047422313E+02  0.00000000000E+00 0. -1.
<mgrwt>
<rscale>  0 0.58806480E+02</rscale>
<asrwt>0</asrwt>
<pdfrwt beam="1">  1        2 0.10947497E-01 0.93152707E+02</pdfrwt>
<pdfrwt beam="2">  1       -2 0.63066715E-02 0.93152707E+02</pdfrwt>
<totfact> 0.67243921E+04</totfact>
</mgrwt>
</event>
<event>
 6    1  0.1683416E-002  0.7301353E+02  0.7546771E-02  0.1466117E+00
          2   -1    0    0  501    0  0.00000000000E+00  0.00000000000E+00  0.37146162238E+02  0.37146162238E+02  0.00000000000E+00 0. -1.
         -2   -1    0    0    0  501 -0.00000000000E+00 -0.00000000000E+00 -0.49547062095E+02  0.49547062095E+02  0.00000000000E+00 0.  1.
         23    2    1    2    0    0 -0.97259782312E+01  0.67732709668E+01 -0.15050475763E+02  0.74548591583E+02  0.72045151358E+02 0.  0.
         11    1    3    3    0    0 -0.44162449515E+01  0.53096288272E+01  0.29175107002E+02  0.29981364984E+02  0.00000000000E+00 0. -1.
        -11    1    3    3    0    0 -0.53097332797E+01  0.14636421396E+01 -0.44225582765E+02  0.44567226599E+02  0.00000000000E+00 0.  1.
         22    1    1    2    0    0  0.97259782312E+01 -0.67732709668E+01  0.26495759063E+01  0.12144632750E+02  0.00000000000E+00 0. -1.
<mgrwt>
<rscale>  0 0.46344818E+02</rscale>
<asrwt>0</asrwt>
<pdfrwt beam="1">  1        2 0.57147942E-02 0.73013531E+02</pdfrwt>
<pdfrwt beam="2">  1       -2 0.76226250E-02 0.73013531E+02</pdfrwt>
<totfact> 0.10850923E+05</totfact>
</mgrwt>
</event>
<event>
 6    1  0.1683416E-002  0.8598330E+02  0.7546771E-02  0.1425256E+00
         -2   -1    0    0    0  501 -0.00000000000E+00  0.00000000000E+00  0.86520564078E+02  0.86520564078E+02  0.00000000000E+00 0. -1.
          2   -1    0    0  501    0  0.00000000000E+00 -0.00000000000E+00 -0.30067497442E+02  0.30067497442E+02  0.00000000000E+00 0.  1.
         23    2    1    2    0    0 -0.13171610467E+02 -0.18530371742E+01  0.57190899619E+02  0.10326629487E+03  0.84948240645E+02 0.  0.
         13    1    3    3    0    0 -0.72398058280E+01  0.31528827698E+02 -0.47078669332E+01  0.32690147988E+02  0.00000000000E+00 0.  1.
        -13    1    3    3    0    0 -0.59318046387E+01 -0.33381864872E+02  0.61898766552E+02  0.70576146886E+02  0.00000000000E+00 0. -1.
         22    1    1    2    0    0  0.13171610467E+02  0.18530371742E+01 -0.73783298238E+00  0.13321766646E+02  0.00000000000E+00 0.  1.
<mgrwt>
<rscale>  0 0.53924270E+02</rscale>
<asrwt>0</asrwt>
<pdfrwt beam="1">  1        2 0.46257689E-02 0.85983305E+02</pdfrwt>
<pdfrwt beam="2">  1       -2 0.13310856E-01 0.85983305E+02</pdfrwt>
<totfact> 0.61529953E+04</totfact>
</mgrwt>
</event>
<event>
 6    1  0.1683416E-002  0.8633123E+02  0.7546771E-02  0.1411759E+00
          2   -1    0    0  501    0  0.00000000000E+00  0.00000000000E+00  0.27482402167E+02  0.27482402167E+02  0.00000000000E+00 0. -1.
         -2   -1    0    0    0  501 -0.00000000000E+00 -0.00000000000E+00 -0.95614619947E+02  0.95614619947E+02  0.00000000000E+00 0.  1.
         23    2    1    2    0    0 -0.14512167798E+02  0.71553140825E+01 -0.58032649367E+02  0.10402340641E+03  0.84801410102E+02 0.  0.
         11    1    3    3    0    0 -0.34330383785E+01  0.13077400076E+01 -0.79276102970E+02  0.79361177149E+02  0.00000000000E+00 0.  1.
        -11    1    3    3    0    0 -0.11079129419E+02  0.58475740748E+01  0.21243453603E+02  0.24662229263E+02  0.00000000000E+00 0. -1.
         22    1    1    2    0    0  0.14512167798E+02 -0.71553140825E+01 -0.10099568413E+02  0.19073615702E+02  0.00000000000E+00 0.  1.
<mgrwt>
<rscale>  0 0.56803155E+02</rscale>
<asrwt>0</asrwt>
<pdfrwt beam="1">  1        2 0.42280619E-02 0.86331227E+02</pdfrwt>
<pdfrwt beam="2">  1       -2 0.14709941E-01 0.86331227E+02</pdfrwt>
<totfact> 0.58943070E+04</totfact>
</mgrwt>
</event>
<event>
 6    1  0.1683416E-002  0.9598989E+02  0.7546771E-02  0.1364067E+00
          2   -1    0    0  501    0  0.00000000000E+00  0.00000000000E+00  0.13581065758E+03  0.13581065758E+03  0.00000000000E+00 0. -1.
         -2   -1    0    0    0  501 -0.00000000000E+00 -0.00000000000E+00 -0.27205537310E+02  0.27205537310E+02  0.00000000000E+00 0.  1.
         23    2    1    2    0    0  0.23021399592E+02 -0.10727824909E+02  0.89413167010E+02  0.13118221719E+03  0.92568831715E+02 0.  0.
         13    1    3    3    0    0 -0.85046935148E+01 -0.37467156164E+02  0.80055668161E+02  0.88797677940E+02  0.00000000000E+00 0. -1.
        -13    1    3    3    0    0  0.31526093107E+02  0.26739331255E+02  0.93574988490E+01  0.42384539248E+02  0.00000000000E+00 0.  1.
         22    1    1    2    0    0 -0.23021399592E+02  0.10727824909E+02  0.19191953263E+02  0.31833977705E+02  0.00000000000E+00 0. -1.
<mgrwt>
<rscale>  0 0.68844631E+02</rscale>
<asrwt>0</asrwt>
<pdfrwt beam="1">  1        2 0.20893947E-01 0.95989894E+02</pdfrwt>
<pdfrwt beam="2">  1       -2 0.41854674E-02 0.95989894E+02</pdfrwt>
<totfact> 0.58886513E+04</totfact>
</mgrwt>
</event>
<event>
 6    1  0.1683416E-002  0.9974787E+02  0.7546771E-02  0.1353973E+00
          4   -1    0    0  501    0  0.00000000000E+00  0.00000000000E+00  0.86538062171E+02  0.86538062171E+02  0.00000000000E+00 0. -1.
         -4   -1    0    0    0  501 -0.00000000000E+00 -0.00000000000E+00 -0.49327089896E+02  0.49327089896E+02  0.00000000000E+00 0.  1.
         23    2    1    2    0    0  0.25987796060E+02 -0.66525900269E+01  0.14658994078E+02  0.10081926474E+03  0.96072969855E+02 0.  0.
         11    1    3    3    0    0 -0.23479960710E+02 -0.17589144854E+02 -0.23340664402E+02  0.37489641054E+02  0.00000000000E+00 0.  1.
        -11    1    3    3    0    0  0.49467756770E+02  0.10936554827E+02  0.37999658480E+02  0.63329623684E+02  0.00000000000E+00 0. -1.
         22    1    1    2    0    0 -0.25987796060E+02  0.66525900269E+01  0.22551978196E+02  0.35045887329E+02  0.00000000000E+00 0. -1.
<mgrwt>
<rscale>  0 0.71831647E+02</rscale>
<asrwt>0</asrwt>
<pdfrwt beam="1">  1        4 0.13313548E-01 0.99747872E+02</pdfrwt>
<pdfrwt beam="2">  1       -4 0.75887831E-02 0.99747872E+02</pdfrwt>
<totfact> 0.83755036E+03</totfact>
</mgrwt>
</event>
<event>
 6    1  0.1683416E-002  0.2081465E+03  0.7546771E-02  0.1147430E+00
         -2   -1    0    0    0  501 -0.00000000000E+00  0.00000000000E+00  0.43193651484E+02  0.43193651484E+02  0.00000000000E+00 0.  1.
          2   -1    0    0  501    0  0.00000000000E+00 -0.00000000000E+00 -0.90598466553E+03  0.90598466553E+03  0.00000000000E+00 0. -1.
         23    2    1    2    0    0 -0.14334013696E+03 -0.12076049363E+03 -0.44539098156E+03  0.49162801508E+03  0.90528929450E+02 0.  0.
         11    1    3    3    0    0  0.28483415655E+01 -0.40274956133E+02 -0.10596815740E+03  0.11339945116E+03  0.00000000000E+00 0. -1.
        -11    1    3    3    0    0 -0.14618847852E+03 -0.80485537497E+02 -0.33942282416E+03  0.37822856391E+03  0.00000000000E+00 0.  1.
         22    1    1    2    0    0  0.14334013696E+03  0.12076049363E+03 -0.41740003248E+03  0.45755030193E+03  0.00000000000E+00 0. -1.
<mgrwt>
<rscale>  0 0.20276167E+03</rscale>
<asrwt>0</asrwt>
<pdfrwt beam="1">  1        2 0.13938226E+00 0.20814653E+03</pdfrwt>
<pdfrwt beam="2">  1       -2 0.66451769E-02 0.20814653E+03</pdfrwt>
<totfact> 0.37719102E+03</totfact>
</mgrwt>
</event>
<event>
 6    1  0.1683416E-002  0.9896177E+02  0.7546771E-02  0.1366784E+00
         -2   -1    0    0    0  501 -0.00000000000E+00  0.00000000000E+00  0.25828594308E+02  0.25828594308E+02  0.00000000000E+00 0.  1.
          2   -1    0    0  501    0  0.00000000000E+00 -0.00000000000E+00 -0.14806885757E+03  0.14806885757E+03  0.00000000000E+00 0. -1.
         23    2    1    2    0    0  0.14356487737E+02 -0.16869492967E+02 -0.84466838853E+02  0.13010795400E+03  0.96450735064E+02 0.  0.
         13    1    3    3    0    0  0.32143483535E+01 -0.28042146911E+02 -0.10240138317E+03  0.10622023025E+03  0.00000000000E+00 0. -1.
        -13    1    3    3    0    0  0.11142139384E+02  0.11172653944E+02  0.17934544315E+02  0.23887723751E+02  0.00000000000E+00 0.  1.
         22    1    1    2    0    0 -0.14356487737E+02  0.16869492967E+02 -0.37773424412E+02  0.43789497884E+02  0.00000000000E+00 0.  1.
<mgrwt>
<rscale>  0 0.68069309E+02</rscale>
<asrwt>0</asrwt>
<pdfrwt beam="1">  1        2 0.22779825E-01 0.98961775E+02</pdfrwt>
<pdfrwt beam="2">  1       -2 0.39736298E-02 0.98961775E+02</pdfrwt>
<totfact> 0.58008014E+04</totfact>
</mgrwt>
</event>
<event>
 6    1  0.1683416E-002  0.9250474E+02  0.7546771E-02  0.1395903E+00
          2   -1    0    0  501    0  0.00000000000E+00  0.00000000000E+00  0.40523850444E+01  0.40523850444E+01  0.00000000000E+00 0. -1.
         -2   -1    0    0    0  501 -0.00000000000E+00 -0.00000000000E+00 -0.12022202733E+04  0.12022202733E+04  0.00000000000E+00 0.  1.
         23    2    1    2    0    0  0.85667643155E+01  0.14547729955E+02 -0.11683555938E+04  0.11720119111E+04  0.90951088102E+02 0.  0.
         13    1    3    3    0    0 -0.29380901693E+02  0.33414363070E+02 -0.79801071401E+03  0.79925018406E+03  0.00000000000E+00 0.  1.
        -13    1    3    3    0    0  0.37947666008E+02 -0.18866633116E+02 -0.37034487977E+03  0.37276172707E+03  0.00000000000E+00 0. -1.
         22    1    1    2    0    0 -0.85667643155E+01 -0.14547729955E+02 -0.29812294499E+02  0.34260747233E+02  0.00000000000E+00 0. -1.
<mgrwt>
<rscale>  0 0.60462141E+02</rscale>
<asrwt>0</asrwt>
<pdfrwt beam="1">  1        2 0.62344382E-03 0.92504737E+02</pdfrwt>
<pdfrwt beam="2">  1       -2 0.18495698E+00 0.92504737E+02</pdfrwt>
<totfact> 0.45908503E+03</totfact>
</mgrwt>
</event>
<event>
 6    1  0.1683416E-002  0.9607890E+02  0.7546771E-02  0.1412601E+00
          1   -1    0    0  501    0  0.00000000000E+00  0.00000000000E+00  0.71600479876E+02  0.71600479876E+02  0.00000000000E+00 0. -1.
         -1   -1    0    0    0  501 -0.00000000000E+00 -0.00000000000E+00 -0.47839418747E+02  0.47839418747E+02  0.00000000000E+00 0.  1.
         23    2    1    2    0    0 -0.71453470950E+01 -0.91198011156E+01  0.35509347865E+01  0.96144492118E+02  0.95377814345E+02 0.  0.
         13    1    3    3    0    0  0.13833402911E+02  0.13622537433E+02  0.42309077408E+02  0.46550989177E+02  0.00000000000E+00 0. -1.
        -13    1    3    3    0    0 -0.20978750006E+02 -0.22742338548E+02 -0.38758142622E+02  0.49593502941E+02  0.00000000000E+00 0.  1.
         22    1    1    2    0    0  0.71453470950E+01  0.91198011156E+01  0.20210126342E+02  0.23295406505E+02  0.00000000000E+00 0.  1.
<mgrwt>
<rscale>  0 0.56617526E+02</rscale>
<asrwt>0</asrwt>
<pdfrwt beam="1">  1        1 0.11015458E-01 0.96078896E+02</pdfrwt>
<pdfrwt beam="2">  1       -1 0.73599105E-02 0.96078896E+02</pdfrwt>
<totfact> 0.47808854E+04</totfact>
</mgrwt>
</event>
<event>
 6    1  0.1683416E-002  0.9237744E+02  0.7546771E-02  0.1394466E+00
          1   -1    0    0  501    0  0.00000000000E+00  0.00000000000E+00  0.34996564568E+02  0.34996564568E+02  0.00000000000E+00 0. -1.
         -1   -1    0    0    0  501 -0.00000000000E+00 -0.00000000000E+00 -0.18456400604E+03  0.18456400604E+03  0.00000000000E+00 0.  1.
         23    2    1    2    0    0 -0.66042976909E+01  0.16038888906E+02 -0.16956076413E+03  0.19309180304E+03  0.90734386884E+02 0.  0.
         11    1    3    3    0    0  0.26437403154E+02 -0.26057807536E+02 -0.88379599598E+02  0.95858746311E+02  0.00000000000E+00 0.  1.
        -11    1    3    3    0    0 -0.33041700845E+02  0.42096696442E+02 -0.81181164534E+02  0.97233056731E+02  0.00000000000E+00 0. -1.
         22    1    1    2    0    0  0.66042976909E+01 -0.16038888906E+02  0.19993322662E+02  0.26468767565E+02  0.00000000000E+00 0. -1.
<mgrwt>
<rscale>  0 0.60809368E+02</rscale>
<asrwt>0</asrwt>
<pdfrwt beam="1">  1        1 0.53840870E-02 0.92377441E+02</pdfrwt>
<pdfrwt beam="2">  1       -1 0.28394462E-01 0.92377441E+02</pdfrwt>
<totfact> 0.15085916E+04</totfact>
</mgrwt>
</event>
<event>
 6    1  0.1683416E-002  0.9459494E+02  0.7546771E-02  0.1374641E+00
          1   -1    0    0  501    0  0.00000000000E+00  0.00000000000E+00  0.84231848401E+02  0.84231848401E+02  0.00000000000E+00 0. -1.
         -1   -1    0    0    0  501 -0.00000000000E+00 -0.00000000000E+00 -0.42525648234E+02  0.42525648234E+02  0.00000000000E+00 0.  1.
         23    2    1    2    0    0  0.21724544060E+02 -0.49103985935E+01  0.44075508453E+02  0.10435925004E+03  0.91935492567E+02 0.  0.
         11    1    3    3    0    0  0.22316603197E+02 -0.17113733391E+01  0.72434787671E+02  0.75813969965E+02  0.00000000000E+00 0. -1.
        -11    1    3    3    0    0 -0.59205913698E+00 -0.31990252543E+01 -0.28359279217E+02  0.28545280071E+02  0.00000000000E+00 0.  1.
         22    1    1    2    0    0 -0.21724544060E+02  0.49103985935E+01 -0.23693082861E+01  0.22398246599E+02  0.00000000000E+00 0.  1.
<mgrwt>
<rscale>  0 0.65893650E+02</rscale>
<asrwt>0</asrwt>
<pdfrwt beam="1">  1        1 0.12958746E-01 0.94594940E+02</pdfrwt>
<pdfrwt beam="2">  1       -1 0.65424074E-02 0.94594940E+02</pdfrwt>
<totfact> 0.46013470E+04</totfact>
</mgrwt>
</event>
<event>
 6    1  0.1683416E-002  0.1154620E+03  0.7546771E-02  0.1275907E+00
         -2   -1    0    0    0  501 -0.00000000000E+00  0.00000000000E+00  0.44651829801E+02  0.44651829801E+02  0.00000000000E+00 0.  1.
          2   -1    0    0  501    0  0.00000000000E+00 -0.00000000000E+00 -0.20534252578E+03  0.20534252578E+03  0.00000000000E+00 0. -1.
         23    2    1    2    0    0  0.39759738913E+02 -0.58391969081E+02 -0.69952992717E+02  0.13499961794E+03  0.91329167099E+02 0.  0.
         13    1    3    3    0    0 -0.50397973552E+01  0.11726137708E+02  0.12495489987E+02  0.17861666578E+02  0.00000000000E+00 0.  1.
        -13    1    3    3    0    0  0.44799536268E+02 -0.70118106790E+02 -0.82448482704E+02  0.11713795136E+03  0.00000000000E+00 0. -1.
         22    1    1    2    0    0 -0.39759738913E+02  0.58391969081E+02 -0.90737703264E+02  0.11499473764E+03  0.00000000000E+00 0.  1.
<mgrwt>
<rscale>  0 0.10211673E+03</rscale>
<asrwt>0</asrwt>
<pdfrwt beam="1">  1        2 0.31591157E-01 0.11546201E+03</pdfrwt>
<pdfrwt beam="2">  1       -2 0.68695124E-02 0.11546201E+03</pdfrwt>
<totfact> 0.18246096E+04</totfact>
</mgrwt>
</event>
<event>
 6    1  0.1683416E-002  0.9052446E+02  0.7546771E-02  0.1427600E+00
          2   -1    0    0  501    0  0.00000000000E+00  0.00000000000E+00  0.41602398438E+02  0.41602398438E+02  0.00000000000E+00 0.  1.
         -2   -1    0    0    0  501 -0.00000000000E+00 -0.00000000000E+00 -0.66327637701E+02  0.66327637701E+02  0.00000000000E+00 0. -1.
         23    2    1    2    0    0 -0.21801112223E+01  0.10780066506E+02 -0.30478769751E+02  0.95517710335E+02  0.89853852802E+02 0.  0.
         13    1    3    3    0    0 -0.30578599125E+02  0.37664915800E+02 -0.48384261548E+01  0.48755584032E+02  0.00000000000E+00 0. -1.
        -13    1    3    3    0    0  0.28398487902E+02 -0.26884849294E+02 -0.25640343596E+02  0.46762126303E+02  0.00000000000E+00 0.  1.
         22    1    1    2    0    0  0.21801112223E+01 -0.10780066506E+02  0.57535304878E+01  0.12412325805E+02  0.00000000000E+00 0.  1.
<mgrwt>
<rscale>  0 0.53444854E+02</rscale>
<asrwt>0</asrwt>
<pdfrwt beam="1">  1        2 0.64003691E-02 0.90524458E+02</pdfrwt>
<pdfrwt beam="2">  1       -2 0.10204252E-01 0.90524458E+02</pdfrwt>
<totfact> 0.62203290E+04</totfact>
</mgrwt>
</event>
<event>
 6    1  0.1683416E-002  0.9408084E+02  0.7546771E-02  0.1402423E+00
         -2   -1    0    0    0  501 -0.00000000000E+00  0.00000000000E+00  0.10367275145E+03  0.10367275145E+03  0.00000000000E+00 0.  1.
          2   -1    0    0  501    0  0.00000000000E+00 -0.00000000000E+00 -0.28931041457E+02  0.28931041457E+02  0.00000000000E+00 0. -1.
         23    2    1    2    0    0  0.13679774737E+02 -0.47229891185E+01  0.70366757640E+02  0.11748482895E+03  0.92961075665E+02 0.  0.
         11    1    3    3    0    0  0.12806737011E+02 -0.27713466878E+02  0.84933683644E+02  0.90253971528E+02  0.00000000000E+00 0.  1.
        -11    1    3    3    0    0  0.87303772545E+00  0.22990477760E+02 -0.14566926004E+02  0.27230857418E+02  0.00000000000E+00 0. -1.
         22    1    1    2    0    0 -0.13679774737E+02  0.47229891185E+01  0.43749523496E+01  0.15118963957E+02  0.00000000000E+00 0. -1.
<mgrwt>
<rscale>  0 0.58919504E+02</rscale>
<asrwt>0</asrwt>
<pdfrwt beam="1">  1        2 0.44509295E-02 0.94080840E+02</pdfrwt>
<pdfrwt beam="2">  1       -2 0.15949654E-01 0.94080840E+02</pdfrwt>
<totfact> 0.48973317E+04</totfact>
</mgrwt>
</event>
<event>
 6    1  0.1683416E-002  0.1029975E+03  0.7546771E-02  0.1314613E+00
          2   -1    0    0  501    0  0.00000000000E+00  0.00000000000E+00  0.43110906467E+02  0.43110906467E+02  0.00000000000E+00 0. -1.
         -2   -1    0    0    0  501 -0.00000000000E+00 -0.00000000000E+00 -0.16380950361E+03  0.16380950361E+03  0.00000000000E+00 0.  1.
         23    2    1    2    0    0 -0.35633528835E+02  0.32878173838E+02 -0.12038776716E+03  0.15843516172E+03  0.90872236111E+02 0.  0.
         11    1    3    3    0    0 -0.14747906905E+02  0.40884007219E+02 -0.84397865019E+01  0.44274516378E+02  0.00000000000E+00 0. -1.
        -11    1    3    3    0    0 -0.20885621930E+02 -0.80058333810E+01 -0.11194798066E+03  0.11416064534E+03  0.00000000000E+00 0.  1.
         22    1    1    2    0    0  0.35633528835E+02 -0.32878173838E+02 -0.31082997631E+00  0.48485248349E+02  0.00000000000E+00 0.  1.
<mgrwt>
<rscale>  0 0.85313980E+02</rscale>
<asrwt>0</asrwt>
<pdfrwt beam="1">  1        2 0.66324472E-02 0.10299750E+03</pdfrwt>
<pdfrwt beam="2">  1       -2 0.25201462E-01 0.10299750E+03</pdfrwt>
<totfact> 0.13749902E+04</totfact>
</mgrwt>
</event>
<event>
 6    1  0.1683416E-002  0.9349149E+02  0.7546771E-02  0.1374085E+00
          2   -1    0    0  501    0  0.00000000000E+00  0.00000000000E+00  0.52149523675E+02  0.52149523675E+02  0.00000000000E+00 0. -1.
         -2   -1    0    0    0  501 -0.00000000000E+00 -0.00000000000E+00 -0.79141013742E+02  0.79141013742E+02  0.00000000000E+00 0.  1.
         23    2    1    2    0    0  0.11433907106E+02  0.20281550482E+02 -0.43131184463E+02  0.10296095470E+03  0.90546030272E+02 0.  0.
         13    1    3    3    0    0  0.19776794072E+02  0.47769293846E+02 -0.51567177783E+02  0.73021920290E+02  0.00000000000E+00 0.  1.
        -13    1    3    3    0    0 -0.83428869663E+01 -0.27487743364E+02  0.84359933201E+01  0.29939034411E+02  0.00000000000E+00 0. -1.
         22    1    1    2    0    0 -0.11433907106E+02 -0.20281550482E+02  0.16139694397E+02  0.28329582716E+02  0.00000000000E+00 0.  1.
<mgrwt>
<rscale>  0 0.66044483E+02</rscale>
<asrwt>0</asrwt>
<pdfrwt beam="1">  1        2 0.80230037E-02 0.93491492E+02</pdfrwt>
<pdfrwt beam="2">  1       -2 0.12175540E-01 0.93491492E+02</pdfrwt>
<totfact> 0.35670183E+04</totfact>
</mgrwt>
</event>
<event>
 6    1  0.1683416E-002  0.9383420E+02  0.7546771E-02  0.1378352E+00
          2   -1    0    0  501    0  0.00000000000E+00  0.00000000000E+00  0.12409221357E+03  0.12409221357E+03  0.00000000000E+00 0. -1.
         -2   -1    0    0    0  501 -0.00000000000E+00 -0.00000000000E+00 -0.56250629416E+02  0.56250629416E+02  0.00000000000E+00 0.  1.
         23    2    1    2    0    0  0.73622685301E+01  0.20170001514E+02 -0.14767303675E+02  0.94989106645E+02  0.91344540967E+02 0.  0.
         13    1    3    3    0    0  0.30443872807E+00  0.48779769878E+02 -0.34302803441E+02  0.59634226382E+02  0.00000000000E+00 0.  1.
        -13    1    3    3    0    0  0.70578298020E+01 -0.28609768364E+02  0.19535499766E+02  0.35354880263E+02  0.00000000000E+00 0. -1.
         22    1    1    2    0    0 -0.73622685301E+01 -0.20170001514E+02  0.82608887825E+02  0.85353736337E+02  0.00000000000E+00 0. -1.
<mgrwt>
<rscale>  0 0.64898887E+02</rscale>
<asrwt>0</asrwt>
<pdfrwt beam="1">  1        2 0.19091110E-01 0.93834200E+02</pdfrwt>
<pdfrwt beam="2">  1       -2 0.86539430E-02 0.93834200E+02</pdfrwt>
<totfact> 0.21786748E+04</totfact>
</mgrwt>
</event>
<event>
 6    1  0.1683416E-002  0.9176757E+02  0.7546771E-02  0.1379953E+00
          2   -1    0    0  501    0  0.00000000000E+00  0.00000000000E+00  0.30141354092E+02  0.30141354092E+02  0.00000000000E+00 0. -1.
         -2   -1    0    0    0  501 -0.00000000000E+00 -0.00000000000E+00 -0.11470837098E+03  0.11470837098E+03  0.00000000000E+00 0.  1.
         23    2    1    2    0    0  0.43287386674E+01 -0.21939948143E+02 -0.80599735974E+02  0.12213764413E+03  0.89001052639E+02 0.  0.
         11    1    3    3    0    0  0.38724976023E+02  0.61034645193E+01 -0.13058198447E+02  0.41320607375E+02  0.00000000000E+00 0.  1.
        -11    1    3    3    0    0 -0.34396237356E+02 -0.28043412662E+02 -0.67541537527E+02  0.80817036753E+02  0.00000000000E+00 0. -1.
         22    1    1    2    0    0 -0.43287386674E+01  0.21939948143E+02 -0.39672809141E+01  0.22712080944E+02  0.00000000000E+00 0.  1.
<mgrwt>
<rscale>  0 0.64476128E+02</rscale>
<asrwt>0</asrwt>
<pdfrwt beam="1">  1        2 0.46371314E-02 0.91767569E+02</pdfrwt>
<pdfrwt beam="2">  1       -2 0.17647442E-01 0.91767569E+02</pdfrwt>
<totfact> 0.39202406E+04</totfact>
</mgrwt>
</event>
<event>
 6    1  0.1683416E-002  0.9453459E+02  0.7546771E-02  0.1360226E+00
          2   -1    0    0  501    0  0.00000000000E+00  0.00000000000E+00  0.23254515296E+03  0.23254515296E+03  0.00000000000E+00 0. -1.
         -2   -1    0    0    0  501 -0.00000000000E+00 -0.00000000000E+00 -0.25463680712E+02  0.25463680712E+02  0.00000000000E+00 0.  1.
         23    2    1    2    0    0  0.10557672243E+02 -0.26317438450E+02  0.68978757290E+02  0.11702503358E+03  0.90181580808E+02 0.  0.
         11    1    3    3    0    0  0.86609448655E+01 -0.11404671535E+02 -0.21210083139E+02  0.25591915238E+02  0.00000000000E+00 0.  1.
        -11    1    3    3    0    0  0.18967273775E+01 -0.14912766915E+02  0.90188840428E+02  0.91433118341E+02  0.00000000000E+00 0. -1.
         22    1    1    2    0    0 -0.10557672243E+02  0.26317438450E+02  0.13810271496E+03  0.14098380010E+03  0.00000000000E+00 0.  1.
<mgrwt>
<rscale>  0 0.69960828E+02</rscale>
<asrwt>0</asrwt>
<pdfrwt beam="1">  1        2 0.35776176E-01 0.94534594E+02</pdfrwt>
<pdfrwt beam="2">  1       -2 0.39174895E-02 0.94534594E+02</pdfrwt>
<totfact> 0.36202984E+04</totfact>
</mgrwt>
</event>
<event>
 6    1  0.1683416E-002  0.9181394E+02  0.7546771E-02  0.1417579E+00
         -2   -1    0    0    0  501 -0.00000000000E+00  0.00000000000E+00  0.64603465841E+02  0.64603465841E+02  0.00000000000E+00 0.  1.
          2   -1    0    0  501    0  0.00000000000E+00 -0.00000000000E+00 -0.43003680609E+02  0.43003680609E+02  0.00000000000E+00 0. -1.
         23    2    1    2    0    0 -0.65576558385E+00  0.12273381794E+02  0.24400979464E+02  0.95001091624E+02  0.90987546850E+02 0.  0.
         13    1    3    3    0    0 -0.33644618450E+02 -0.24554452281E+02  0.17087414474E+02  0.45020675371E+02  0.00000000000E+00 0. -1.
        -13    1    3    3    0    0  0.32988852866E+02  0.36827834074E+02  0.73135649893E+01  0.49980416253E+02  0.00000000000E+00 0.  1.
         22    1    1    2    0    0  0.65576558385E+00 -0.12273381794E+02 -0.28011942319E+01  0.12606054826E+02  0.00000000000E+00 0. -1.
<mgrwt>
<rscale>  0 0.55536344E+02</rscale>
<asrwt>0</asrwt>
<pdfrwt beam="1">  1        2 0.66159509E-02 0.91813940E+02</pdfrwt>
<pdfrwt beam="2">  1       -2 0.99389948E-02 0.91813940E+02</pdfrwt>
<totfact> 0.62279065E+04</totfact>
</mgrwt>
</event>
<event>
 6    1  0.1683416E-002  0.9599774E+02  0.7546771E-02  0.1345812E+00
         -1   -1    0    0    0  501 -0.00000000000E+00  0.00000000000E+00  0.24112948215E+03  0.24112948215E+03  0.00000000000E+00 0.  1.
          1   -1    0    0  501    0  0.00000000000E+00 -0.00000000000E+00 -0.22783260912E+02  0.22783260912E+02  0.00000000000E+00 0. -1.
         23    2    1    2    0    0 -0.23423423283E+02  0.25453499139E+02  0.20584984371E+03  0.22713371605E+03  0.89549033692E+02 0.  0.
         11    1    3    3    0    0  0.32656876328E+02  0.21084174306E+02  0.69410444396E+02  0.79553904800E+02  0.00000000000E+00 0. -1.
        -11    1    3    3    0    0 -0.56080299611E+02  0.43693248333E+01  0.13643939931E+03  0.14757981125E+03  0.00000000000E+00 0.  1.
         22    1    1    2    0    0  0.23423423283E+02 -0.25453499139E+02  0.12496377534E+02  0.36779027016E+02  0.00000000000E+00 0.  1.
<mgrwt>
<rscale>  0 0.74376640E+02</rscale>
<asrwt>0</asrwt>
<pdfrwt beam="1">  1        1 0.35051172E-02 0.95997744E+02</pdfrwt>
<pdfrwt beam="2">  1       -1 0.37096842E-01 0.95997744E+02</pdfrwt>
<totfact> 0.17307687E+04</totfact>
</mgrwt>
</event>
<event>
 6    1  0.1683416E-002  0.9169899E+02  0.7546771E-02  0.1422628E+00
         -2   -1    0    0    0  501 -0.00000000000E+00  0.00000000000E+00  0.28238382769E+02  0.28238382769E+02  0.00000000000E+00 0.  1.
          2   -1    0    0  501    0  0.00000000000E+00 -0.00000000000E+00 -0.97607124869E+02  0.97607124869E+02  0.00000000000E+00 0. -1.
         23    2    1    2    0    0  0.10522613760E+02 -0.44258515898E+01 -0.53076324628E+02  0.10595187977E+03  0.90985663861E+02 0.  0.
         13    1    3    3    0    0  0.13617581866E+02  0.23665601370E+02  0.15769860052E+02  0.31530742302E+02  0.00000000000E+00 0.  1.
        -13    1    3    3    0    0 -0.30949681053E+01 -0.28091452960E+02 -0.68846184680E+02  0.74421137468E+02  0.00000000000E+00 0. -1.
         22    1    1    2    0    0 -0.10522613760E+02  0.44258515898E+01 -0.16292417472E+02  0.19893627867E+02  0.00000000000E+00 0. -1.
<mgrwt>
<rscale>  0 0.54468713E+02</rscale>
<asrwt>0</asrwt>
<pdfrwt beam="1">  1        2 0.15016480E-01 0.91698989E+02</pdfrwt>
<pdfrwt beam="2">  1       -2 0.43443667E-02 0.91698989E+02</pdfrwt>
<totfact> 0.80551168E+04</totfact>
</mgrwt>
</event>
<event>
 6    1  0.1683416E-002  0.9658288E+02  0.7546771E-02  0.1402480E+00
          2   -1    0    0  501    0  0.00000000000E+00  0.00000000000E+00  0.16029069000E+03  0.16029069000E+03  0.00000000000E+00 0. -1.
         -2   -1    0    0    0  501 -0.00000000000E+00 -0.00000000000E+00 -0.18859623556E+02  0.18859623556E+02  0.00000000000E+00 0.  1.
         23    2    1    2    0    0  0.38068042670E+01 -0.12810636394E+02  0.12524895566E+03  0.15816305854E+03  0.95653792554E+02 0.  0.
         13    1    3    3    0    0  0.35599248723E+02  0.27551443550E+02  0.53586043374E+02  0.69984659718E+02  0.00000000000E+00 0. -1.
        -13    1    3    3    0    0 -0.31792444457E+02 -0.40362079943E+02  0.71662912289E+02  0.88178398826E+02  0.00000000000E+00 0.  1.
         22    1    1    2    0    0 -0.38068042670E+01  0.12810636394E+02  0.16182110779E+02  0.20987255009E+02  0.00000000000E+00 0.  1.
<mgrwt>
<rscale>  0 0.58906274E+02</rscale>
<asrwt>0</asrwt>
<pdfrwt beam="1">  1        2 0.24660105E-01 0.96582877E+02</pdfrwt>
<pdfrwt beam="2">  1       -2 0.29014806E-02 0.96582877E+02</pdfrwt>
<totfact> 0.83960708E+04</totfact>
</mgrwt>
</event>
<event>
 6    1  0.1688873E-002  0.9556623E+02  0.7546771E-02  0.1421532E+00
          2   -1    0    0  501    0  0.00000000000E+00  0.00000000000E+00  0.52516344778E+02  0.52516344778E+02  0.00000000000E+00 0. -1.
         -2   -1    0    0    0  501 -0.00000000000E+00 -0.00000000000E+00 -0.56373331649E+02  0.56373331649E+02  0.00000000000E+00 0.  1.
         23    2    1    2    0    0  0.61749444317E+01  0.81886951820E+01 -0.11279491655E+02  0.96229571974E+02  0.95014309042E+02 0.  0.
         13    1    3    3    0    0 -0.78416745432E+01 -0.88820573127E+01  0.39294839929E+02  0.41042261716E+02  0.00000000000E+00 0. -1.
        -13    1    3    3    0    0  0.14016618975E+02  0.17070752495E+02 -0.50574331584E+02  0.55187310257E+02  0.00000000000E+00 0.  1.
         22    1    1    2    0    0 -0.61749444317E+01 -0.81886951820E+01  0.74225047838E+01  0.12660104454E+02  0.00000000000E+00 0.  1.
<mgrwt>
<rscale>  0 0.54698118E+02</rscale>
<asrwt>0</asrwt>
<pdfrwt beam="1">  1        2 0.80794377E-02 0.95566226E+02</pdfrwt>
<pdfrwt beam="2">  1       -2 0.86728202E-02 0.95566226E+02</pdfrwt>
<totfact> 0.60224867E+04</totfact>
</mgrwt>
</event>
<event>
 6    1  0.1683416E-002  0.9744936E+02  0.7546771E-02  0.1346697E+00
          2   -1    0    0  501    0  0.00000000000E+00  0.00000000000E+00  0.16992965922E+03  0.16992965922E+03  0.00000000000E+00 0. -1.
         -2   -1    0    0    0  501 -0.00000000000E+00 -0.00000000000E+00 -0.26038388887E+02  0.26038388887E+02  0.00000000000E+00 0.  1.
         23    2    1    2    0    0 -0.25127400757E+02  0.20722007457E+02  0.88120162204E+02  0.13138318638E+03  0.91845472483E+02 0.  0.
         13    1    3    3    0    0  0.94162890326E+01  0.40477529076E+02  0.85667739988E+01  0.42432139658E+02  0.00000000000E+00 0.  1.
        -13    1    3    3    0    0 -0.34543689789E+02 -0.19755521619E+02  0.79553388205E+02  0.88951046726E+02  0.00000000000E+00 0. -1.
         22    1    1    2    0    0  0.25127400757E+02 -0.20722007457E+02  0.55771108128E+02  0.64584861722E+02  0.00000000000E+00 0. -1.
<mgrwt>
<rscale>  0 0.74094816E+02</rscale>
<asrwt>0</asrwt>
<pdfrwt beam="1">  1        2 0.26143024E-01 0.97449365E+02</pdfrwt>
<pdfrwt beam="2">  1       -2 0.40059061E-02 0.97449365E+02</pdfrwt>
<totfact> 0.49197163E+04</totfact>
</mgrwt>
</event>
<event>
 6    1  0.1683416E-002  0.9163371E+02  0.7546771E-02  0.1402629E+00
         -2   -1    0    0    0  501 -0.00000000000E+00  0.00000000000E+00  0.14643153503E+02  0.14643153503E+02  0.00000000000E+00 0. -1.
          2   -1    0    0  501    0  0.00000000000E+00 -0.00000000000E+00 -0.22496593979E+03  0.22496593979E+03  0.00000000000E+00 0.  1.
         23    2    1    2    0    0 -0.11931658222E+02 -0.10068306170E+02 -0.13822213621E+03  0.16583756085E+03  0.90293977618E+02 0.  0.
         11    1    3    3    0    0  0.18080580254E+02 -0.19226276655E+02 -0.13100872741E+03  0.13364072641E+03  0.00000000000E+00 0.  1.
        -11    1    3    3    0    0 -0.30012238476E+02  0.91579704852E+01 -0.72134087948E+01  0.32196834444E+02  0.00000000000E+00 0. -1.
         22    1    1    2    0    0  0.11931658222E+02  0.10068306170E+02 -0.72100650080E+02  0.73771532443E+02  0.00000000000E+00 0.  1.
<mgrwt>
<rscale>  0 0.58871658E+02</rscale>
<asrwt>0</asrwt>
<pdfrwt beam="1">  1        2 0.34610142E-01 0.91633715E+02</pdfrwt>
<pdfrwt beam="2">  1       -2 0.22527930E-02 0.91633715E+02</pdfrwt>
<totfact> 0.83517885E+04</totfact>
</mgrwt>
</event>
<event>
 6    1  0.1683416E-002  0.9344170E+02  0.7546771E-02  0.1386014E+00
         -2   -1    0    0    0  501 -0.00000000000E+00  0.00000000000E+00  0.13999823147E+03  0.13999823147E+03  0.00000000000E+00 0.  1.
          2   -1    0    0  501    0  0.00000000000E+00 -0.00000000000E+00 -0.28232185197E+02  0.28232185197E+02  0.00000000000E+00 0. -1.
         23    2    1    2    0    0  0.66805143967E+01 -0.17996938693E+02  0.11561186877E+03  0.14865212701E+03  0.91448518792E+02 0.  0.
         11    1    3    3    0    0  0.17991056330E+02  0.23524102766E+01 -0.10124983456E+02  0.20778046875E+02  0.00000000000E+00 0. -1.
        -11    1    3    3    0    0 -0.11310541933E+02 -0.20349348970E+02  0.12573685223E+03  0.12787408014E+03  0.00000000000E+00 0.  1.
         22    1    1    2    0    0 -0.66805143967E+01  0.17996938693E+02 -0.38458225034E+01  0.19578289651E+02  0.00000000000E+00 0. -1.
<mgrwt>
<rscale>  0 0.62909036E+02</rscale>
<asrwt>0</asrwt>
<pdfrwt beam="1">  1        2 0.43434132E-02 0.93441697E+02</pdfrwt>
<pdfrwt beam="2">  1       -2 0.21538189E-01 0.93441697E+02</pdfrwt>
<totfact> 0.30667651E+04</totfact>
</mgrwt>
</event>
<event>
 6    1  0.1683416E-002  0.9252842E+02  0.7546771E-02  0.1407147E+00
          2   -1    0    0  501    0  0.00000000000E+00  0.00000000000E+00  0.10423897387E+03  0.10423897387E+03  0.00000000000E+00 0. -1.
         -2   -1    0    0    0  501 -0.00000000000E+00 -0.00000000000E+00 -0.27469020769E+02  0.27469020769E+02  0.00000000000E+00 0.  1.
         23    2    1    2    0    0  0.13430465741E+02  0.43706695519E+01  0.62694348223E+02  0.11176801432E+03  0.91444122631E+02 0.  0.
         11    1    3    3    0    0 -0.27448732414E+02  0.96164811903E+01  0.64247749469E+02  0.70524342843E+02  0.00000000000E+00 0. -1.
        -11    1    3    3    0    0  0.40879198155E+02 -0.52458116384E+01 -0.15534012459E+01  0.41243671478E+02  0.00000000000E+00 0.  1.
         22    1    1    2    0    0 -0.13430465741E+02 -0.43706695519E+01  0.14075604874E+02  0.19939980314E+02  0.00000000000E+00 0.  1.
<mgrwt>
<rscale>  0 0.57835409E+02</rscale>
<asrwt>0</asrwt>
<pdfrwt beam="1">  1        2 0.16036765E-01 0.92528416E+02</pdfrwt>
<pdfrwt beam="2">  1       -2 0.42260032E-02 0.92528416E+02</pdfrwt>
<totfact> 0.77884813E+04</totfact>
</mgrwt>
</event>
<event>
 6    1  0.1683416E-002  0.1190798E+03  0.7546771E-02  0.1268272E+00
         -2   -1    0    0    0  501 -0.00000000000E+00  0.00000000000E+00  0.56355210290E+03  0.56355210290E+03  0.00000000000E+00 0. -1.
          2   -1    0    0  501    0  0.00000000000E+00 -0.00000000000E+00 -0.50345058852E+02  0.50345058852E+02  0.00000000000E+00 0.  1.
         23    2    1    2    0    0  0.70007462908E+02 -0.25790936142E+02  0.52502509502E+03  0.53835986249E+03  0.92810419062E+02 0.  0.
         11    1    3    3    0    0 -0.19717308760E+00 -0.45744728635E+02  0.18257929244E+03  0.18822278582E+03  0.00000000000E+00 0. -1.
        -11    1    3    3    0    0  0.70204635995E+02  0.19953792493E+02  0.34244580258E+03  0.35013707667E+03  0.00000000000E+00 0.  1.
         22    1    1    2    0    0 -0.70007462908E+02  0.25790936142E+02 -0.11818050980E+02  0.75537299256E+02  0.00000000000E+00 0.  1.
<mgrwt>
<rscale>  0 0.10594330E+03</rscale>
<asrwt>0</asrwt>
<pdfrwt beam="1">  1        2 0.77453941E-02 0.11907977E+03</pdfrwt>
<pdfrwt beam="2">  1       -2 0.86700319E-01 0.11907977E+03</pdfrwt>
<totfact> 0.10207894E+03</totfact>
</mgrwt>
</event>
<event>
 6    1  0.1683416E-002  0.9185821E+02  0.7546771E-02  0.1421332E+00
         -2   -1    0    0    0  501 -0.00000000000E+00  0.00000000000E+00  0.35064047686E+03  0.35064047686E+03  0.00000000000E+00 0.  1.
          2   -1    0    0  501    0  0.00000000000E+00 -0.00000000000E+00 -0.79748693939E+01  0.79748693939E+01  0.00000000000E+00 0. -1.
         23    2    1    2    0    0  0.20668144881E+01  0.11398478570E+02  0.32283390508E+03  0.33564812058E+03  0.91124823953E+02 0.  0.
         13    1    3    3    0    0  0.22319306566E+02  0.15471004114E+02  0.24425260084E+02  0.36525289103E+02  0.00000000000E+00 0. -1.
        -13    1    3    3    0    0 -0.20252492077E+02 -0.40725255435E+01  0.29840864500E+03  0.29912283148E+03  0.00000000000E+00 0.  1.
         22    1    1    2    0    0 -0.20668144881E+01 -0.11398478570E+02  0.19831702384E+02  0.22967225677E+02  0.00000000000E+00 0. -1.
<mgrwt>
<rscale>  0 0.54740196E+02</rscale>
<asrwt>0</asrwt>
<pdfrwt beam="1">  1        2 0.12269033E-02 0.91858209E+02</pdfrwt>
<pdfrwt beam="2">  1       -2 0.53944677E-01 0.91858209E+02</pdfrwt>
<totfact> 0.31021599E+04</totfact>
</mgrwt>
</event>
<event>
 6    1  0.1683416E-002  0.9190347E+02  0.7546771E-02  0.1414170E+00
         -2   -1    0    0    0  501 -0.00000000000E+00  0.00000000000E+00  0.98081981258E+02  0.98081981258E+02  0.00000000000E+00 0.  1.
          2   -1    0    0  501    0  0.00000000000E+00 -0.00000000000E+00 -0.31873492506E+02  0.31873492506E+02  0.00000000000E+00 0. -1.
         23    2    1    2    0    0  0.11490529564E+02  0.59048406814E+01  0.71043686268E+02  0.11616132471E+03  0.90990925847E+02 0.  0.
         13    1    3    3    0    0 -0.16818107145E+02 -0.13947006237E+02 -0.12902088901E+02  0.25373837095E+02  0.00000000000E+00 0. -1.
        -13    1    3    3    0    0  0.28308636709E+02  0.19851846919E+02  0.83945775169E+02  0.90787487614E+02  0.00000000000E+00 0.  1.
         22    1    1    2    0    0 -0.11490529564E+02 -0.59048406814E+01 -0.48351975157E+01  0.13794149055E+02  0.00000000000E+00 0. -1.
<mgrwt>
<rscale>  0 0.56273741E+02</rscale>
<asrwt>0</asrwt>
<pdfrwt beam="1">  1        2 0.49036143E-02 0.91903471E+02</pdfrwt>
<pdfrwt beam="2">  1       -2 0.15089535E-01 0.91903471E+02</pdfrwt>
<totfact> 0.47109449E+04</totfact>
</mgrwt>
</event>
<event>
 6    1  0.1683416E-002  0.9294096E+02  0.7546771E-02  0.1369475E+00
          2   -1    0    0  501    0  0.00000000000E+00  0.00000000000E+00  0.66830841692E+02  0.66830841692E+02  0.00000000000E+00 0. -1.
         -2   -1    0    0    0  501 -0.00000000000E+00 -0.00000000000E+00 -0.62460453166E+02  0.62460453166E+02  0.00000000000E+00 0.  1.
         23    2    1    2    0    0 -0.22484522836E+02  0.12183332463E+02  0.25213244195E+02  0.96300205311E+02  0.89353424686E+02 0.  0.
         11    1    3    3    0    0 -0.28042256216E+02  0.45195397980E+02  0.32097857301E+02  0.62122979448E+02  0.00000000000E+00 0. -1.
        -11    1    3    3    0    0  0.55577333800E+01 -0.33012065517E+02 -0.68846131056E+01  0.34177225862E+02  0.00000000000E+00 0.  1.
         22    1    1    2    0    0  0.22484522836E+02 -0.12183332463E+02 -0.20842855669E+02  0.32991089547E+02  0.00000000000E+00 0. -1.
<mgrwt>
<rscale>  0 0.67313401E+02</rscale>
<asrwt>0</asrwt>
<pdfrwt beam="1">  1        2 0.10281668E-01 0.92940959E+02</pdfrwt>
<pdfrwt beam="2">  1       -2 0.96093005E-02 0.92940959E+02</pdfrwt>
<totfact> 0.38112945E+04</totfact>
</mgrwt>
</event>
<event>
 6    1  0.1683416E-002  0.9339643E+02  0.7546771E-02  0.1426962E+00
          1   -1    0    0  501    0  0.00000000000E+00  0.00000000000E+00  0.61377698719E+02  0.61377698719E+02  0.00000000000E+00 0. -1.
         -1   -1    0    0    0  501 -0.00000000000E+00 -0.00000000000E+00 -0.44235899215E+02  0.44235899215E+02  0.00000000000E+00 0.  1.
         23    2    1    2    0    0 -0.86941094587E+01  0.51641886152E+01  0.11689339038E+02  0.94125094617E+02  0.92847382334E+02 0.  0.
         11    1    3    3    0    0  0.72517653422E+01  0.47388398080E+02  0.99196074089E+01  0.48955561322E+02  0.00000000000E+00 0. -1.
        -11    1    3    3    0    0 -0.15945874801E+02 -0.42224209465E+02  0.17697316288E+01  0.45169533296E+02  0.00000000000E+00 0.  1.
         22    1    1    2    0    0  0.86941094587E+01 -0.51641886152E+01  0.54524604662E+01  0.11488503317E+02  0.00000000000E+00 0. -1.
<mgrwt>
<rscale>  0 0.53574608E+02</rscale>
<asrwt>0</asrwt>
<pdfrwt beam="1">  1        1 0.94427229E-02 0.93396428E+02</pdfrwt>
<pdfrwt beam="2">  1       -1 0.68055230E-02 0.93396428E+02</pdfrwt>
<totfact> 0.65456326E+04</totfact>
</mgrwt>
</event>
<event>
 6    1  0.1683416E-002  0.9561918E+02  0.7546771E-02  0.1360155E+00
         -2   -1    0    0    0  501 -0.00000000000E+00  0.00000000000E+00  0.69330472171E+02  0.69330472171E+02  0.00000000000E+00 0.  1.
          2   -1    0    0  501    0  0.00000000000E+00 -0.00000000000E+00 -0.67862289433E+02  0.67862289433E+02  0.00000000000E+00 0. -1.
         23    2    1    2    0    0  0.26231226057E+02 -0.80373465472E+01  0.27373265363E+02  0.99460156794E+02  0.91598859015E+02 0.  0.
         11    1    3    3    0    0  0.42613604820E+02  0.98701493981E+01 -0.18554135550E+02  0.47514156952E+02  0.00000000000E+00 0. -1.
        -11    1    3    3    0    0 -0.16382378762E+02 -0.17907495945E+02  0.45927400913E+02  0.51945999841E+02  0.00000000000E+00 0.  1.
         22    1    1    2    0    0 -0.26231226057E+02  0.80373465472E+01 -0.25905082625E+02  0.37732604811E+02  0.00000000000E+00 0.  1.
<mgrwt>
<rscale>  0 0.69981746E+02</rscale>
<asrwt>0</asrwt>
<pdfrwt beam="1">  1        2 0.10440352E-01 0.95619178E+02</pdfrwt>
<pdfrwt beam="2">  1       -2 0.10666227E-01 0.95619178E+02</pdfrwt>
<totfact> 0.31913306E+04</totfact>
</mgrwt>
</event>
<event>
 6    1  0.1683416E-002  0.1013187E+03  0.7546771E-02  0.1324317E+00
          1   -1    0    0  501    0  0.00000000000E+00  0.00000000000E+00  0.49535426974E+03  0.49535426974E+03  0.00000000000E+00 0. -1.
         -1   -1    0    0    0  501 -0.00000000000E+00 -0.00000000000E+00 -0.10571951440E+02  0.10571951440E+02  0.00000000000E+00 0.  1.
         23    2    1    2    0    0 -0.35649872017E+02  0.23720985944E+02  0.31903482608E+03  0.33473676553E+03  0.91825287345E+02 0.  0.
         11    1    3    3    0    0 -0.92654577138E+01 -0.35371685740E+02  0.11963152974E+03  0.12509479512E+03  0.00000000000E+00 0. -1.
        -11    1    3    3    0    0 -0.26384414303E+02  0.59092671684E+02  0.19940329634E+03  0.20964197041E+03  0.00000000000E+00 0.  1.
         22    1    1    2    0    0  0.35649872017E+02 -0.23720985944E+02  0.16574749222E+03  0.17118945565E+03  0.00000000000E+00 0. -1.
<mgrwt>
<rscale>  0 0.81692142E+02</rscale>
<asrwt>0</asrwt>
<pdfrwt beam="1">  1        1 0.76208331E-01 0.10131871E+03</pdfrwt>
<pdfrwt beam="2">  1       -1 0.16264545E-02 0.10131871E+03</pdfrwt>
<totfact> 0.38211897E+04</totfact>
</mgrwt>
</event>
<event>
 6    1  0.1683416E-002  0.6902908E+02  0.7546771E-02  0.1464165E+00
          2   -1    0    0  501    0  0.00000000000E+00  0.00000000000E+00  0.32501578792E+02  0.32501578792E+02  0.00000000000E+00 0. -1.
         -2   -1    0    0    0  501 -0.00000000000E+00 -0.00000000000E+00 -0.12777391766E+03  0.12777391766E+03  0.00000000000E+00 0.  1.
         23    2    1    2    0    0 -0.15352678686E+01 -0.14343582022E+02 -0.11602196968E+03  0.13500411796E+03  0.67504955549E+02 0.  0.
         13    1    3    3    0    0 -0.23158691164E+02 -0.30619538226E+02 -0.45890226356E+02  0.59831379498E+02  0.00000000000E+00 0. -1.
        -13    1    3    3    0    0  0.21623423296E+02  0.16275956204E+02 -0.70131743325E+02  0.75172738458E+02  0.00000000000E+00 0.  1.
         22    1    1    2    0    0  0.15352678686E+01  0.14343582022E+02  0.20749630809E+02  0.25271378501E+02  0.00000000000E+00 0.  1.
<mgrwt>
<rscale>  0 0.46672051E+02</rscale>
<asrwt>0</asrwt>
<pdfrwt beam="1">  1        2 0.50002428E-02 0.69029084E+02</pdfrwt>
<pdfrwt beam="2">  1       -2 0.19657526E-01 0.69029084E+02</pdfrwt>
<totfact> 0.28591893E+04</totfact>
</mgrwt>
</event>
<event>
 6    1  0.1683416E-002  0.9622225E+02  0.7546771E-02  0.1362428E+00
          2   -1    0    0  501    0  0.00000000000E+00  0.00000000000E+00  0.39801239652E+03  0.39801239652E+03  0.00000000000E+00 0. -1.
         -2   -1    0    0    0  501 -0.00000000000E+00 -0.00000000000E+00 -0.94814294417E+01  0.94814294417E+01  0.00000000000E+00 0.  1.
         23    2    1    2    0    0  0.72768384447E+01 -0.24872488252E+02  0.28666612063E+03  0.30238416897E+03  0.92666757152E+02 0.  0.
         11    1    3    3    0    0  0.14993745502E+02 -0.26474303579E+02  0.29153618056E+03  0.29311950759E+03  0.00000000000E+00 0. -1.
        -11    1    3    3    0    0 -0.77169070574E+01  0.16018153273E+01 -0.48700599306E+01  0.92646613864E+01  0.00000000000E+00 0.  1.
         22    1    1    2    0    0 -0.72768384447E+01  0.24872488252E+02  0.10186484646E+03  0.10510965699E+03  0.00000000000E+00 0.  1.
<mgrwt>
<rscale>  0 0.69317820E+02</rscale>
<asrwt>0</asrwt>
<pdfrwt beam="1">  1        2 0.61232664E-01 0.96222248E+02</pdfrwt>
<pdfrwt beam="2">  1       -2 0.14586818E-02 0.96222248E+02</pdfrwt>
<totfact> 0.86186895E+04</totfact>
</mgrwt>
</event>
<event>
 6    1  0.1683416E-002  0.9235517E+02  0.7546771E-02  0.1429270E+00
          3   -1    0    0  501    0  0.00000000000E+00  0.00000000000E+00  0.86923790851E+02  0.86923790851E+02  0.00000000000E+00 0. -1.
         -3   -1    0    0    0  501 -0.00000000000E+00 -0.00000000000E+00 -0.31669754942E+02  0.31669754942E+02  0.00000000000E+00 0.  1.
         23    2    1    2    0    0 -0.54154790168E+01  0.85226152340E+01  0.40810124862E+02  0.10097001182E+03  0.91801495697E+02 0.  0.
         11    1    3    3    0    0 -0.41215244515E+02  0.97347806317E+01  0.48444289084E+02  0.64345252189E+02  0.00000000000E+00 0. -1.
        -11    1    3    3    0    0  0.35799765498E+02 -0.12121653977E+01 -0.76341642217E+01  0.36624759631E+02  0.00000000000E+00 0.  1.
         22    1    1    2    0    0  0.54154790168E+01 -0.85226152340E+01  0.14443911047E+02  0.17623533974E+02  0.00000000000E+00 0. -1.
<mgrwt>
<rscale>  0 0.53106894E+02</rscale>
<asrwt>0</asrwt>
<pdfrwt beam="1">  1        3 0.13372891E-01 0.92355168E+02</pdfrwt>
<pdfrwt beam="2">  1       -3 0.48722700E-02 0.92355168E+02</pdfrwt>
<totfact> 0.21960977E+04</totfact>
</mgrwt>
</event>
<event>
 6    1  0.1683416E-002  0.9315247E+02  0.7546771E-02  0.1401173E+00
          2   -1    0    0  501    0  0.00000000000E+00  0.00000000000E+00  0.69189485842E+01  0.69189485842E+01  0.00000000000E+00 0. -1.
         -2   -1    0    0    0  501 -0.00000000000E+00 -0.00000000000E+00 -0.58485645621E+03  0.58485645621E+03  0.00000000000E+00 0.  1.
         23    2    1    2    0    0 -0.54552280148E+01  0.14194290205E+02 -0.56229824542E+03  0.56996201648E+03  0.91902916426E+02 0.  0.
         11    1    3    3    0    0  0.82162077940E+01  0.36555190329E+02 -0.97897293463E+02  0.10482207820E+03  0.00000000000E+00 0. -1.
        -11    1    3    3    0    0 -0.13671435809E+02 -0.22360900125E+02 -0.46440095195E+03  0.46513993829E+03  0.00000000000E+00 0.  1.
         22    1    1    2    0    0  0.54552280148E+01 -0.14194290205E+02 -0.15639262203E+02  0.21813388306E+02  0.00000000000E+00 0. -1.
<mgrwt>
<rscale>  0 0.59211090E+02</rscale>
<asrwt>0</asrwt>
<pdfrwt beam="1">  1        2 0.10644533E-02 0.93152474E+02</pdfrwt>
<pdfrwt beam="2">  1       -2 0.89977946E-01 0.93152474E+02</pdfrwt>
<totfact> 0.12835819E+04</totfact>
</mgrwt>
</event>
<event>
 6    1  0.1683416E-002  0.9719874E+02  0.7546771E-02  0.1343750E+00
          2   -1    0    0  501    0  0.00000000000E+00  0.00000000000E+00  0.44323067996E+02  0.44323067996E+02  0.00000000000E+00 0. -1.
         -2   -1    0    0    0  501 -0.00000000000E+00 -0.00000000000E+00 -0.34626931896E+03  0.34626931896E+03  0.00000000000E+00 0.  1.
         23    2    1    2    0    0  0.16331510888E+02  0.30420934531E+02 -0.33130591200E+03  0.34526975242E+03  0.90859468973E+02 0.  0.
         13    1    3    3    0    0  0.41194910804E+02  0.46513206124E+02 -0.27166953045E+03  0.27868410934E+03  0.00000000000E+00 0.  1.
        -13    1    3    3    0    0 -0.24863399916E+02 -0.16092271592E+02 -0.59636381545E+02  0.66585643079E+02  0.00000000000E+00 0. -1.
         22    1    1    2    0    0 -0.16331510888E+02 -0.30420934531E+02  0.29359661035E+02  0.45322634541E+02  0.00000000000E+00 0. -1.
<mgrwt>
<rscale>  0 0.75038976E+02</rscale>
<asrwt>0</asrwt>
<pdfrwt beam="1">  1        2 0.68189335E-02 0.97198738E+02</pdfrwt>
<pdfrwt beam="2">  1       -2 0.53272203E-01 0.97198738E+02</pdfrwt>
<totfact> 0.32955124E+03</totfact>
</mgrwt>
</event>
<event>
 6    1  0.1683416E-002  0.9575020E+02  0.7546771E-02  0.1356948E+00
         -1   -1    0    0    0  501 -0.00000000000E+00  0.00000000000E+00  0.29251912647E+02  0.29251912647E+02  0.00000000000E+00 0.  1.
          1   -1    0    0  501    0  0.00000000000E+00 -0.00000000000E+00 -0.13277646670E+03  0.13277646670E+03  0.00000000000E+00 0. -1.
         23    2    1    2    0    0  0.45613058918E+01  0.28476103274E+02 -0.77532550489E+02  0.12320469819E+03  0.91303928188E+02 0.  0.
         11    1    3    3    0    0  0.75402580643E+01  0.20542574836E+01 -0.92407558649E+02  0.92737437753E+02  0.00000000000E+00 0. -1.
        -11    1    3    3    0    0 -0.29789521726E+01  0.26421845790E+02  0.14875008160E+02  0.30467260441E+02  0.00000000000E+00 0.  1.
         22    1    1    2    0    0 -0.45613058918E+01 -0.28476103274E+02 -0.25992003564E+02  0.38823681154E+02  0.00000000000E+00 0. -1.
<mgrwt>
<rscale>  0 0.70933309E+02</rscale>
<asrwt>0</asrwt>
<pdfrwt beam="1">  1        1 0.20427148E-01 0.95750202E+02</pdfrwt>
<pdfrwt beam="2">  1       -1 0.45002943E-02 0.95750202E+02</pdfrwt>
<totfact> 0.44734634E+04</totfact>
</mgrwt>
</event>
<event>
 6    1  0.1683416E-002  0.9181537E+02  0.7546771E-02  0.1403125E+00
          4   -1    0    0  501    0  0.00000000000E+00  0.00000000000E+00  0.40746345915E+03  0.40746345915E+03  0.00000000000E+00 0. -1.
         -4   -1    0    0    0  501 -0.00000000000E+00 -0.00000000000E+00 -0.73064687569E+01  0.73064687569E+01  0.00000000000E+00 0.  1.
         23    2    1    2    0    0 -0.53348241731E+00  0.15389338102E+02  0.36532359355E+03  0.37668473569E+03  0.90514892507E+02 0.  0.
         11    1    3    3    0    0  0.21256256448E+02  0.36138806465E+02  0.85276731674E+02  0.95026116073E+02  0.00000000000E+00 0.  1.
        -11    1    3    3    0    0 -0.21789738865E+02 -0.20749468363E+02  0.28004686188E+03  0.28165861962E+03  0.00000000000E+00 0. -1.
         22    1    1    2    0    0  0.53348241731E+00 -0.15389338102E+02  0.34833396844E+02  0.38085192219E+02  0.00000000000E+00 0.  1.
<mgrwt>
<rscale>  0 0.58756609E+02</rscale>
<asrwt>0</asrwt>
<pdfrwt beam="1">  1        4 0.62686668E-01 0.91815370E+02</pdfrwt>
<pdfrwt beam="2">  1       -4 0.11240724E-02 0.91815370E+02</pdfrwt>
<totfact> 0.87147857E+03</totfact>
</mgrwt>
</event>
<event>
 6    1  0.1683416E-002  0.9394793E+02  0.7546771E-02  0.1389055E+00
         -2   -1    0    0    0  501 -0.00000000000E+00  0.00000000000E+00  0.12990248411E+02  0.12990248411E+02  0.00000000000E+00 0.  1.
          2   -1    0    0  501    0  0.00000000000E+00 -0.00000000000E+00 -0.24838424377E+03  0.24838424377E+03  0.00000000000E+00 0. -1.
         23    2    1    2    0    0  0.13487440424E+01 -0.17933439059E+02 -0.17861727198E+03  0.20181759783E+03  0.92210550361E+02 0.  0.
         13    1    3    3    0    0 -0.19767977202E+01 -0.32082920559E+02 -0.18364553519E+03  0.18643739999E+03  0.00000000000E+00 0. -1.
        -13    1    3    3    0    0  0.33255417626E+01  0.14149481500E+02  0.50282632075E+01  0.15380197841E+02  0.00000000000E+00 0.  1.
         22    1    1    2    0    0 -0.13487440424E+01  0.17933439059E+02 -0.56776723373E+02  0.59556894344E+02  0.00000000000E+00 0.  1.
<mgrwt>
<rscale>  0 0.62142324E+02</rscale>
<asrwt>0</asrwt>
<pdfrwt beam="1">  1        2 0.38212965E-01 0.93947927E+02</pdfrwt>
<pdfrwt beam="2">  1       -2 0.19984995E-02 0.93947927E+02</pdfrwt>
<totfact> 0.89708435E+04</totfact>
</mgrwt>
</event>
<event>
 6    1  0.1683416E-002  0.1002286E+03  0.7546771E-02  0.1400412E+00
         -4   -1    0    0    0  501 -0.00000000000E+00  0.00000000000E+00  0.56743379820E+02  0.56743379820E+02  0.00000000000E+00 0.  1.
          4   -1    0    0  501    0  0.00000000000E+00 -0.00000000000E+00 -0.76329757880E+02  0.76329757880E+02  0.00000000000E+00 0. -1.
         23    2    1    2    0    0  0.10764236121E+02  0.60657109709E+01  0.10277571944E+02  0.10075414733E+03  0.99464104528E+02 0.  0.
         11    1    3    3    0    0  0.43498414054E+01  0.43763070258E+02 -0.23384597304E+02  0.49809304650E+02  0.00000000000E+00 0. -1.
        -11    1    3    3    0    0  0.64143947159E+01 -0.37697359287E+02  0.33662169248E+02  0.50944842676E+02  0.00000000000E+00 0.  1.
         22    1    1    2    0    0 -0.10764236121E+02 -0.60657109709E+01 -0.29863950004E+02  0.32318990373E+02  0.00000000000E+00 0.  1.
<mgrwt>
<rscale>  0 0.59389538E+02</rscale>
<asrwt>0</asrwt>
<pdfrwt beam="1">  1        4 0.11743040E-01 0.10022859E+03</pdfrwt>
<pdfrwt beam="2">  1       -4 0.87297508E-02 0.10022859E+03</pdfrwt>
<totfact> 0.82478214E+03</totfact>
</mgrwt>
</event>
<event>
 6    1  0.1683416E-002  0.9328360E+02  0.7546771E-02  0.1386167E+00
         -2   -1    0    0    0  501 -0.00000000000E+00  0.00000000000E+00  0.47386811467E+02  0.47386811467E+02  0.00000000000E+00 0.  1.
          2   -1    0    0  501    0  0.00000000000E+00 -0.00000000000E+00 -0.72151906754E+02  0.72151906754E+02  0.00000000000E+00 0. -1.
         23    2    1    2    0    0  0.14933377851E+02  0.12142458491E+02 -0.73336663138E+01  0.93571435184E+02  0.91276424933E+02 0.  0.
         13    1    3    3    0    0  0.49976024926E+02 -0.17278238644E+01  0.11690539171E+02  0.51354232044E+02  0.00000000000E+00 0.  1.
        -13    1    3    3    0    0 -0.35042647075E+02  0.13870282356E+02 -0.19024205485E+02  0.42217203140E+02  0.00000000000E+00 0. -1.
         22    1    1    2    0    0 -0.14933377851E+02 -0.12142458491E+02 -0.17431428973E+02  0.25967283037E+02  0.00000000000E+00 0.  1.
<mgrwt>
<rscale>  0 0.62870146E+02</rscale>
<asrwt>0</asrwt>
<pdfrwt beam="1">  1        2 0.11100293E-01 0.93283604E+02</pdfrwt>
<pdfrwt beam="2">  1       -2 0.72902787E-02 0.93283604E+02</pdfrwt>
<totfact> 0.53125549E+04</totfact>
</mgrwt>
</event>
<event>
 6    1  0.1683416E-002  0.9204385E+02  0.7546771E-02  0.1416143E+00
          1   -1    0    0  501    0  0.00000000000E+00  0.00000000000E+00  0.97589426615E+01  0.97589426615E+01  0.00000000000E+00 0. -1.
         -1   -1    0    0    0  501 -0.00000000000E+00 -0.00000000000E+00 -0.28769680112E+03  0.28769680112E+03  0.00000000000E+00 0.  1.
         23    2    1    2    0    0  0.95998116702E+01  0.79632405193E+01 -0.25811394992E+03  0.27403445147E+03  0.91194845617E+02 0.  0.
         13    1    3    3    0    0  0.28976212783E+02 -0.30134692389E+02 -0.73693877223E+02  0.84726077053E+02  0.00000000000E+00 0. -1.
        -13    1    3    3    0    0 -0.19376401112E+02  0.38097932909E+02 -0.18442007270E+03  0.18930837442E+03  0.00000000000E+00 0.  1.
         22    1    1    2    0    0 -0.95998116702E+01 -0.79632405193E+01 -0.19823908541E+02  0.23421292311E+02  0.00000000000E+00 0.  1.
<mgrwt>
<rscale>  0 0.55845303E+02</rscale>
<asrwt>0</asrwt>
<pdfrwt beam="1">  1        1 0.15013758E-02 0.92043845E+02</pdfrwt>
<pdfrwt beam="2">  1       -1 0.44261047E-01 0.92043845E+02</pdfrwt>
<totfact> 0.40665857E+04</totfact>
</mgrwt>
</event>
<event>
 6    1  0.1969969E-002  0.9139385E+02  0.7546771E-02  0.1420032E+00
         -2   -1    0    0    0  501 -0.00000000000E+00  0.00000000000E+00  0.56998995075E+01  0.56998995075E+01  0.00000000000E+00 0.  1.
          2   -1    0    0  501    0  0.00000000000E+00 -0.00000000000E+00 -0.17307772294E+04  0.17307772294E+04  0.00000000000E+00 0. -1.
         23    2    1    2    0    0  0.10630169121E+02  0.55656505937E+01 -0.17215445739E+04  0.17239688386E+04  0.90602757443E+02 0.  0.
         11    1    3    3    0    0 -0.32831315649E+02 -0.21280629002E+02 -0.88672988413E+03  0.88759261368E+03  0.00000000000E+00 0. -1.
        -11    1    3    3    0    0  0.43461484770E+02  0.26846279595E+02 -0.83481468972E+03  0.83637622489E+03  0.00000000000E+00 0.  1.
         22    1    1    2    0    0 -0.10630169121E+02 -0.55656505937E+01 -0.35327560551E+01  0.12508290347E+02  0.00000000000E+00 0.  1.
<mgrwt>
<rscale>  0 0.55014145E+02</rscale>
<asrwt>0</asrwt>
<pdfrwt beam="1">  1        2 0.26627354E+00 0.91393854E+02</pdfrwt>
<pdfrwt beam="2">  1       -2 0.87690722E-03 0.91393854E+02</pdfrwt>
<totfact> 0.24934387E+04</totfact>
</mgrwt>
</event>
<event>
 6    1  0.1683416E-002  0.9504828E+02  0.7546771E-02  0.1352052E+00
          4   -1    0    0  501    0  0.00000000000E+00  0.00000000000E+00  0.23352884501E+01  0.23352884501E+01  0.00000000000E+00 0. -1.
         -4   -1    0    0    0  501 -0.00000000000E+00 -0.00000000000E+00 -0.28250892198E+04  0.28250892198E+04  0.00000000000E+00 0.  1.
         23    2    1    2    0    0 -0.24201438611E+02  0.20986161309E+02 -0.26513387047E+04  0.26530418585E+04  0.89487694456E+02 0.  0.
         11    1    3    3    0    0  0.32283455535E+02  0.20841249222E+02 -0.11440399426E+04  0.11446850962E+04  0.00000000000E+00 0. -1.
        -11    1    3    3    0    0 -0.56484894146E+02  0.14491208701E+00 -0.15072987621E+04  0.15083567623E+04  0.00000000000E+00 0.  1.
         22    1    1    2    0    0  0.24201438611E+02 -0.20986161309E+02 -0.17141522671E+03  0.17438264979E+03  0.00000000000E+00 0. -1.
<mgrwt>
<rscale>  0 0.72419985E+02</rscale>
<asrwt>0</asrwt>
<pdfrwt beam="1">  1        4 0.35927200E-03 0.95048283E+02</pdfrwt>
<pdfrwt beam="2">  1       -4 0.43463292E+00 0.95048283E+02</pdfrwt>
<totfact> 0.11705903E+02</totfact>
</mgrwt>
</event>
<event>
 6    1  0.1683416E-002  0.9328505E+02  0.7546771E-02  0.1380234E+00
          4   -1    0    0  501    0  0.00000000000E+00  0.00000000000E+00  0.76815152388E+02  0.76815152388E+02  0.00000000000E+00 0. -1.
         -4   -1    0    0    0  501 -0.00000000000E+00 -0.00000000000E+00 -0.46895477488E+02  0.46895477488E+02  0.00000000000E+00 0.  1.
         23    2    1    2    0    0  0.21498326862E+01  0.21082676169E+02  0.86493357193E+01  0.93685168283E+02  0.90846016604E+02 0.  0.
         11    1    3    3    0    0 -0.14530801965E+02  0.10510963783E+02  0.47133300049E+02  0.50429877443E+02  0.00000000000E+00 0. -1.
        -11    1    3    3    0    0  0.16680634652E+02  0.10571712386E+02 -0.38483964330E+02  0.43255290840E+02  0.00000000000E+00 0.  1.
         22    1    1    2    0    0 -0.21498326862E+01 -0.21082676169E+02  0.21270339181E+02  0.30025461593E+02  0.00000000000E+00 0. -1.
<mgrwt>
<rscale>  0 0.64402396E+02</rscale>
<asrwt>0</asrwt>
<pdfrwt beam="1">  1        4 0.11817716E-01 0.93285046E+02</pdfrwt>
<pdfrwt beam="2">  1       -4 0.72146888E-02 0.93285046E+02</pdfrwt>
<totfact> 0.10932056E+04</totfact>
</mgrwt>
</event>
<event>
 6    1  0.1683416E-002  0.8811620E+02  0.7546771E-02  0.1404924E+00
          2   -1    0    0  501    0  0.00000000000E+00  0.00000000000E+00  0.17615548965E+03  0.17615548965E+03  0.00000000000E+00 0. -1.
         -2   -1    0    0    0  501 -0.00000000000E+00 -0.00000000000E+00 -0.16161170702E+02  0.16161170702E+02  0.00000000000E+00 0.  1.
         23    2    1    2    0    0  0.16211183119E+02  0.48945937578E+01  0.14512284037E+03  0.16977957134E+03  0.86473721677E+02 0.  0.
         13    1    3    3    0    0 -0.71164678544E+01 -0.64210019091E+01 -0.92048130271E+01  0.13289167134E+02  0.00000000000E+00 0.  1.
        -13    1    3    3    0    0  0.23327650973E+02  0.11315595667E+02  0.15432765339E+03  0.15649040420E+03  0.00000000000E+00 0. -1.
         22    1    1    2    0    0 -0.16211183119E+02 -0.48945937578E+01  0.14871478582E+02  0.22537089018E+02  0.00000000000E+00 0.  1.
<mgrwt>
<rscale>  0 0.58342030E+02</rscale>
<asrwt>0</asrwt>
<pdfrwt beam="1">  1        2 0.27100843E-01 0.88116196E+02</pdfrwt>
<pdfrwt beam="2">  1       -2 0.24863341E-02 0.88116196E+02</pdfrwt>
<totfact> 0.93494051E+04</totfact>
</mgrwt>
</event>
<event>
 6    1  0.1683416E-002  0.8502446E+02  0.7546771E-02  0.1423847E+00
         -1   -1    0    0    0  501 -0.00000000000E+00  0.00000000000E+00  0.38428473813E+02  0.38428473813E+02  0.00000000000E+00 0.  1.
          1   -1    0    0  501    0  0.00000000000E+00 -0.00000000000E+00 -0.65035910508E+02  0.65035910508E+02  0.00000000000E+00 0. -1.
         23    2    1    2    0    0 -0.14553447636E+01  0.13980238787E+02 -0.17771077985E+02  0.86861783916E+02  0.83854595506E+02 0.  0.
         13    1    3    3    0    0  0.21703496505E+02  0.27345628665E+02 -0.39275141428E+02  0.52548662227E+02  0.00000000000E+00 0.  1.
        -13    1    3    3    0    0 -0.23158841268E+02 -0.13365389878E+02  0.21504063444E+02  0.34313121689E+02  0.00000000000E+00 0. -1.
         22    1    1    2    0    0  0.14553447636E+01 -0.13980238787E+02 -0.88363587106E+01  0.16602600405E+02  0.00000000000E+00 0.  1.
<mgrwt>
<rscale>  0 0.54215277E+02</rscale>
<asrwt>0</asrwt>
<pdfrwt beam="1">  1        1 0.10005524E-01 0.85024457E+02</pdfrwt>
<pdfrwt beam="2">  1       -1 0.59120730E-02 0.85024457E+02</pdfrwt>
<totfact> 0.73622037E+04</totfact>
</mgrwt>
</event>
<event>
 6    1  0.1683416E-002  0.9311968E+02  0.7546771E-02  0.1404177E+00
         -1   -1    0    0    0  501 -0.00000000000E+00  0.00000000000E+00  0.23128089552E+02  0.23128089552E+02  0.00000000000E+00 0.  1.
          1   -1    0    0  501    0  0.00000000000E+00 -0.00000000000E+00 -0.14924258229E+03  0.14924258229E+03  0.00000000000E+00 0. -1.
         23    2    1    2    0    0  0.19928208916E+01 -0.14380530120E+02 -0.76003580429E+02  0.12019908461E+03  0.91981001961E+02 0.  0.
         13    1    3    3    0    0 -0.17168505725E+02 -0.73636667850E+01 -0.92245809930E+02  0.94118386233E+02  0.00000000000E+00 0. -1.
        -13    1    3    3    0    0  0.19161326617E+02 -0.70168633345E+01  0.16242229501E+02  0.26080698379E+02  0.00000000000E+00 0.  1.
         22    1    1    2    0    0 -0.19928208916E+01  0.14380530120E+02 -0.50110912304E+02  0.52171587225E+02  0.00000000000E+00 0.  1.
<mgrwt>
<rscale>  0 0.58513688E+02</rscale>
<asrwt>0</asrwt>
<pdfrwt beam="1">  1        1 0.22960397E-01 0.93119685E+02</pdfrwt>
<pdfrwt beam="2">  1       -1 0.35581676E-02 0.93119685E+02</pdfrwt>
<totfact> 0.54179161E+04</totfact>
</mgrwt>
</event>
<event>
 6    1  0.1683416E-002  0.8908752E+02  0.7546771E-02  0.1412346E+00
         -1   -1    0    0    0  501 -0.00000000000E+00  0.00000000000E+00  0.31165206881E+03  0.31165206881E+03  0.00000000000E+00 0.  1.
          1   -1    0    0  501    0  0.00000000000E+00 -0.00000000000E+00 -0.89447904504E+01  0.89447904504E+01  0.00000000000E+00 0. -1.
         23    2    1    2    0    0 -0.36931522906E+01 -0.14115533033E+02  0.23463439230E+03  0.25097785709E+03  0.87884578016E+02 0.  0.
         13    1    3    3    0    0 -0.12070920288E+02  0.31412190308E+02  0.47562381897E+02  0.58263307392E+02  0.00000000000E+00 0. -1.
        -13    1    3    3    0    0  0.83777679975E+01 -0.45527723341E+02  0.18707201040E+03  0.19271454969E+03  0.00000000000E+00 0.  1.
         22    1    1    2    0    0  0.36931522906E+01  0.14115533033E+02  0.68072886067E+02  0.69619002177E+02  0.00000000000E+00 0. -1.
<mgrwt>
<rscale>  0 0.56673687E+02</rscale>
<asrwt>0</asrwt>
<pdfrwt beam="1">  1        1 0.13761218E-02 0.89087523E+02</pdfrwt>
<pdfrwt beam="2">  1       -1 0.47946464E-01 0.89087523E+02</pdfrwt>
<totfact> 0.39603552E+04</totfact>
</mgrwt>
</event>
<event>
 6    1  0.1683416E-002  0.9193854E+02  0.7546771E-02  0.1422963E+00
         -2   -1    0    0    0  501 -0.00000000000E+00  0.00000000000E+00  0.18048626078E+02  0.18048626078E+02  0.00000000000E+00 0.  1.
          2   -1    0    0  501    0  0.00000000000E+00 -0.00000000000E+00 -0.15966196517E+03  0.15966196517E+03  0.00000000000E+00 0. -1.
         23    2    1    2    0    0 -0.42797883948E+01  0.10424250987E+02 -0.10579560494E+03  0.14016206694E+03  0.91245347218E+02 0.  0.
         13    1    3    3    0    0  0.27235165272E+02  0.17221744769E+02 -0.29226926388E+01  0.32355600019E+02  0.00000000000E+00 0.  1.
        -13    1    3    3    0    0 -0.31514953667E+02 -0.67974937825E+01 -0.10287291230E+03  0.10780646693E+03  0.00000000000E+00 0. -1.
         22    1    1    2    0    0  0.42797883948E+01 -0.10424250987E+02 -0.35817734152E+02  0.37548524300E+02  0.00000000000E+00 0. -1.
<mgrwt>
<rscale>  0 0.54398985E+02</rscale>
<asrwt>0</asrwt>
<pdfrwt beam="1">  1        2 0.24563378E-01 0.91938539E+02</pdfrwt>
<pdfrwt beam="2">  1       -2 0.27767118E-02 0.91938539E+02</pdfrwt>
<totfact> 0.89232764E+04</totfact>
</mgrwt>
</event>
<event>
 6    1  0.1683416E-002  0.9288232E+02  0.7546771E-02  0.1406319E+00
          2   -1    0    0  501    0  0.00000000000E+00  0.00000000000E+00  0.63273915575E+01  0.63273915575E+01  0.00000000000E+00 0.  1.
         -2   -1    0    0    0  501 -0.00000000000E+00 -0.00000000000E+00 -0.45559020383E+03  0.45559020383E+03  0.00000000000E+00 0. -1.
         23    2    1    2    0    0  0.14076752231E+02 -0.13903310583E+01 -0.37605803858E+03  0.38735871352E+03  0.91798892075E+02 0.  0.
         11    1    3    3    0    0 -0.16986295148E+02  0.14365167689E+02 -0.32376214364E+03  0.32452552738E+03  0.00000000000E+00 0. -1.
        -11    1    3    3    0    0  0.31063047379E+02 -0.15755498747E+02 -0.52295894937E+02  0.62833186140E+02  0.00000000000E+00 0.  1.
         22    1    1    2    0    0 -0.14076752231E+02  0.13903310583E+01 -0.73204773693E+02  0.74558881867E+02  0.00000000000E+00 0.  1.
<mgrwt>
<rscale>  0 0.58023297E+02</rscale>
<asrwt>0</asrwt>
<pdfrwt beam="1">  1        2 0.97344452E-03 0.92882316E+02</pdfrwt>
<pdfrwt beam="2">  1       -2 0.70090825E-01 0.92882316E+02</pdfrwt>
<totfact> 0.24927949E+04</totfact>
</mgrwt>
</event>
<event>
 6    1  0.1683416E-002  0.1049752E+03  0.7546771E-02  0.1330748E+00
         -2   -1    0    0    0  501 -0.00000000000E+00  0.00000000000E+00  0.36599317246E+02  0.36599317246E+02  0.00000000000E+00 0.  1.
          2   -1    0    0  501    0  0.00000000000E+00 -0.00000000000E+00 -0.13942020979E+03  0.13942020979E+03  0.00000000000E+00 0. -1.
         23    2    1    2    0    0 -0.11856917204E+02 -0.32256545622E+02 -0.59303254632E+02  0.12056814265E+03  0.99190371463E+02 0.  0.
         11    1    3    3    0    0 -0.12784897149E+02 -0.11916461424E+02  0.26852418135E+02  0.32039163655E+02  0.00000000000E+00 0.  1.
        -11    1    3    3    0    0  0.92797994545E+00 -0.20340084198E+02 -0.86155672767E+02  0.88528978995E+02  0.00000000000E+00 0. -1.
         22    1    1    2    0    0  0.11856917204E+02  0.32256545622E+02 -0.43517637917E+02  0.55451384391E+02  0.00000000000E+00 0.  1.
<mgrwt>
<rscale>  0 0.79405332E+02</rscale>
<asrwt>0</asrwt>
<pdfrwt beam="1">  1        2 0.21449263E-01 0.10497524E+03</pdfrwt>
<pdfrwt beam="2">  1       -2 0.56306643E-02 0.10497524E+03</pdfrwt>
<totfact> 0.37217568E+04</totfact>
</mgrwt>
</event>
<event>
 6    1  0.1683416E-002  0.9077472E+02  0.7546771E-02  0.1432569E+00
         -2   -1    0    0    0  501 -0.00000000000E+00  0.00000000000E+00  0.23747990544E+02  0.23747990544E+02  0.00000000000E+00 0.  1.
          2   -1    0    0  501    0  0.00000000000E+00 -0.00000000000E+00 -0.10800444231E+03  0.10800444231E+03  0.00000000000E+00 0. -1.
         23    2    1    2    0    0 -0.90118497462E+00  0.10075883365E+02 -0.79075379342E+02  0.12038673572E+03  0.90209284217E+02 0.  0.
         11    1    3    3    0    0  0.11836492881E+02 -0.28064332279E+02 -0.73791057115E+02  0.79830003258E+02  0.00000000000E+00 0. -1.
        -11    1    3    3    0    0 -0.12737677855E+02  0.38140215644E+02 -0.52843222275E+01  0.40556732461E+02  0.00000000000E+00 0.  1.
         22    1    1    2    0    0  0.90118497462E+00 -0.10075883365E+02 -0.51810724233E+01  0.11365697136E+02  0.00000000000E+00 0. -1.
<mgrwt>
<rscale>  0 0.52447770E+02</rscale>
<asrwt>0</asrwt>
<pdfrwt beam="1">  1        2 0.16616068E-01 0.90774724E+02</pdfrwt>
<pdfrwt beam="2">  1       -2 0.36535370E-02 0.90774724E+02</pdfrwt>
<totfact> 0.92354205E+04</totfact>
</mgrwt>
</event>
<event>
 6    1  0.1683416E-002  0.9139914E+02  0.7546771E-02  0.1431675E+00
         -2   -1    0    0    0  501 -0.00000000000E+00  0.00000000000E+00  0.14565759935E+03  0.14565759935E+03  0.00000000000E+00 0.  1.
          2   -1    0    0  501    0  0.00000000000E+00 -0.00000000000E+00 -0.19042528519E+02  0.19042528519E+02  0.00000000000E+00 0. -1.
         23    2    1    2    0    0  0.92668160606E+01  0.38767078184E+01  0.12447873492E+03  0.15443043096E+03  0.90845472189E+02 0.  0.
         11    1    3    3    0    0 -0.23088926728E+02 -0.33939290605E+02  0.47680098090E+02  0.62915544487E+02  0.00000000000E+00 0. -1.
        -11    1    3    3    0    0  0.32355742788E+02  0.37815998423E+02  0.76798636825E+02  0.91514886474E+02  0.00000000000E+00 0.  1.
         22    1    1    2    0    0 -0.92668160606E+01 -0.38767078184E+01  0.21363359127E+01  0.10269696906E+02  0.00000000000E+00 0. -1.
<mgrwt>
<rscale>  0 0.52625284E+02</rscale>
<asrwt>0</asrwt>
<pdfrwt beam="1">  1        2 0.29296199E-02 0.91399139E+02</pdfrwt>
<pdfrwt beam="2">  1       -2 0.22408861E-01 0.91399139E+02</pdfrwt>
<totfact> 0.48011510E+04</totfact>
</mgrwt>
</event>
<event>
 6    1  0.2199378E-002  0.1176819E+03  0.7546771E-02  0.1271732E+00
         -2   -1    0    0    0  501 -0.00000000000E+00  0.00000000000E+00  0.18393999327E+03  0.18393999327E+03  0.00000000000E+00 0.  1.
          2   -1    0    0  501    0  0.00000000000E+00 -0.00000000000E+00 -0.15174430320E+03  0.15174430320E+03  0.00000000000E+00 0. -1.
         23    2    1    2    0    0  0.21890209817E+02  0.68901263327E+02 -0.11945317351E+03  0.16768446552E+03  0.92857169565E+02 0.  0.
         13    1    3    3    0    0 -0.31614391699E+02  0.42976952389E+01 -0.20331108824E+02  0.37832445505E+02  0.00000000000E+00 0.  1.
        -13    1    3    3    0    0  0.53504601516E+02  0.64603568088E+02 -0.99122064690E+02  0.12985202001E+03  0.00000000000E+00 0. -1.
         22    1    1    2    0    0 -0.21890209817E+02 -0.68901263327E+02  0.15164886359E+03  0.16799983096E+03  0.00000000000E+00 0.  1.
<mgrwt>
<rscale>  0 0.10418596E+03</rscale>
<asrwt>0</asrwt>
<pdfrwt beam="1">  1        2 0.23345277E-01 0.11768186E+03</pdfrwt>
<pdfrwt beam="2">  1       -2 0.28298460E-01 0.11768186E+03</pdfrwt>
<totfact> 0.25406962E+03</totfact>
</mgrwt>
</event>
<event>
 6    1  0.1683416E-002  0.9346781E+02  0.7546771E-02  0.1375345E+00
         -2   -1    0    0    0  501 -0.00000000000E+00  0.00000000000E+00  0.14773593610E+03  0.14773593610E+03  0.00000000000E+00 0. -1.
          2   -1    0    0  501    0  0.00000000000E+00 -0.00000000000E+00 -0.23446804466E+02  0.23446804466E+02  0.00000000000E+00 0.  1.
         23    2    1    2    0    0 -0.20113257207E+02 -0.10785182456E+02  0.10959416390E+03  0.14403858185E+03  0.90638672886E+02 0.  0.
         11    1    3    3    0    0 -0.49589202259E+02 -0.24457733909E+02  0.91333091969E+02  0.10676611549E+03  0.00000000000E+00 0. -1.
        -11    1    3    3    0    0  0.29475945052E+02  0.13672551453E+02  0.18261071934E+02  0.37272466354E+02  0.00000000000E+00 0.  1.
         22    1    1    2    0    0  0.20113257207E+02  0.10785182456E+02  0.14694967735E+02  0.27144158724E+02  0.00000000000E+00 0.  1.
<mgrwt>
<rscale>  0 0.65703277E+02</rscale>
<asrwt>0</asrwt>
<pdfrwt beam="1">  1        2 0.36072008E-02 0.93467814E+02</pdfrwt>
<pdfrwt beam="2">  1       -2 0.22728605E-01 0.93467814E+02</pdfrwt>
<totfact> 0.35696889E+04</totfact>
</mgrwt>
</event>
<event>
 6    1  0.1683416E-002  0.7651344E+02  0.7546771E-02  0.1385923E+00
          1   -1    0    0  501    0  0.00000000000E+00  0.00000000000E+00  0.21552767022E+04  0.21552767022E+04  0.00000000000E+00 0. -1.
         -1   -1    0    0    0  501 -0.00000000000E+00 -0.00000000000E+00 -0.34460829609E+01  0.34460829609E+01  0.00000000000E+00 0.  1.
         23    2    1    2    0    0 -0.25913303139E+02  0.23551820056E+02  0.20422592574E+04  0.20436920465E+04  0.68030279067E+02 0.  0.
         13    1    3    3    0    0 -0.47144312606E+02  0.85948747479E+01  0.15580881430E+04  0.15588249162E+04  0.00000000000E+00 0. -1.
        -13    1    3    3    0    0  0.21231009466E+02  0.14956945308E+02  0.48417111443E+03  0.48486713028E+03  0.00000000000E+00 0.  1.
         22    1    1    2    0    0  0.25913303139E+02 -0.23551820056E+02  0.10957136180E+03  0.11503073864E+03  0.00000000000E+00 0.  1.
<mgrwt>
<rscale>  0 0.62932198E+02</rscale>
<asrwt>0</asrwt>
<pdfrwt beam="1">  1        1 0.33157995E+00 0.76513439E+02</pdfrwt>
<pdfrwt beam="2">  1       -1 0.53016833E-03 0.76513439E+02</pdfrwt>
<totfact> 0.11906001E+04</totfact>
</mgrwt>
</event>
<event>
 6    1  0.1683416E-002  0.9455746E+02  0.7546771E-02  0.1367353E+00
          2   -1    0    0  501    0  0.00000000000E+00  0.00000000000E+00  0.40474135477E+02  0.40474135477E+02  0.00000000000E+00 0. -1.
         -2   -1    0    0    0  501 -0.00000000000E+00 -0.00000000000E+00 -0.10634915036E+03  0.10634915036E+03  0.00000000000E+00 0.  1.
         23    2    1    2    0    0 -0.10801037094E+02 -0.22717030997E+02 -0.74342101415E+02  0.12028242199E+03  0.91150354346E+02 0.  0.
         13    1    3    3    0    0 -0.37032331597E+02 -0.68420156509E+01  0.23056105254E+01  0.37729598482E+02  0.00000000000E+00 0. -1.
        -13    1    3    3    0    0  0.26231294503E+02 -0.15875015346E+02 -0.76647711941E+02  0.82552823509E+02  0.00000000000E+00 0.  1.
         22    1    1    2    0    0  0.10801037094E+02  0.22717030997E+02  0.84670865284E+01  0.26540863850E+02  0.00000000000E+00 0.  1.
<mgrwt>
<rscale>  0 0.67908446E+02</rscale>
<asrwt>0</asrwt>
<pdfrwt beam="1">  1        2 0.62267902E-02 0.94557459E+02</pdfrwt>
<pdfrwt beam="2">  1       -2 0.16361408E-01 0.94557459E+02</pdfrwt>
<totfact> 0.30525323E+04</totfact>
</mgrwt>
</event>
<event>
 6    1  0.1683416E-002  0.9208662E+02  0.7546771E-02  0.1423520E+00
          2   -1    0    0  501    0  0.00000000000E+00  0.00000000000E+00  0.71641251745E+02  0.71641251745E+02  0.00000000000E+00 0. -1.
         -2   -1    0    0    0  501 -0.00000000000E+00 -0.00000000000E+00 -0.37215572590E+02  0.37215572590E+02  0.00000000000E+00 0.  1.
         23    2    1    2    0    0 -0.79191261408E+01  0.78051384916E+01  0.31891967006E+02  0.97452770540E+02  0.91412866604E+02 0.  0.
         11    1    3    3    0    0 -0.37479277656E+02 -0.59968598138E+01  0.47898467626E+02  0.61114006432E+02  0.00000000000E+00 0. -1.
        -11    1    3    3    0    0  0.29560151515E+02  0.13801998305E+02 -0.16006500620E+02  0.36338764108E+02  0.00000000000E+00 0.  1.
         22    1    1    2    0    0  0.79191261408E+01 -0.78051384916E+01  0.25337121487E+01  0.11404053795E+02  0.00000000000E+00 0. -1.
<mgrwt>
<rscale>  0 0.54283029E+02</rscale>
<asrwt>0</asrwt>
<pdfrwt beam="1">  1        2 0.11021731E-01 0.92086616E+02</pdfrwt>
<pdfrwt beam="2">  1       -2 0.57254727E-02 0.92086616E+02</pdfrwt>
<totfact> 0.76989982E+04</totfact>
</mgrwt>
</event>
<event>
 6    1  0.1683416E-002  0.9225010E+02  0.7546771E-02  0.1401928E+00
         -1   -1    0    0    0  501 -0.00000000000E+00  0.00000000000E+00  0.49110244402E+02  0.49110244402E+02  0.00000000000E+00 0.  1.
          1   -1    0    0  501    0  0.00000000000E+00 -0.00000000000E+00 -0.59434467515E+02  0.59434467515E+02  0.00000000000E+00 0. -1.
         23    2    1    2    0    0  0.20726190428E+01 -0.15331806294E+02 -0.11806749620E+02  0.93002578254E+02  0.90943499995E+02 0.  0.
         13    1    3    3    0    0  0.25073969858E+02 -0.19155626855E+02  0.31014793017E+02  0.44244314782E+02  0.00000000000E+00 0.  1.
        -13    1    3    3    0    0 -0.23001350815E+02  0.38238205608E+01 -0.42821542637E+02  0.48758263472E+02  0.00000000000E+00 0. -1.
         22    1    1    2    0    0 -0.20726190428E+01  0.15331806294E+02  0.14825265072E+01  0.15542133662E+02  0.00000000000E+00 0.  1.
<mgrwt>
<rscale>  0 0.59034593E+02</rscale>
<asrwt>0</asrwt>
<pdfrwt beam="1">  1        1 0.91437643E-02 0.92250096E+02</pdfrwt>
<pdfrwt beam="2">  1       -1 0.75554222E-02 0.92250096E+02</pdfrwt>
<totfact> 0.58360389E+04</totfact>
</mgrwt>
</event>
<event>
 6    1  0.1683416E-002  0.9640384E+02  0.7546771E-02  0.1355351E+00
          2   -1    0    0  501    0  0.00000000000E+00  0.00000000000E+00  0.61928929069E+02  0.61928929069E+02  0.00000000000E+00 0. -1.
         -2   -1    0    0    0  501 -0.00000000000E+00 -0.00000000000E+00 -0.92983074266E+02  0.92983074266E+02  0.00000000000E+00 0.  1.
         23    2    1    2    0    0  0.53301047879E+01  0.28535939637E+02 -0.60296457481E+02  0.11370735923E+03  0.91929271130E+02 0.  0.
         11    1    3    3    0    0 -0.74786259135E+00 -0.17848032346E+02  0.16150958846E+02  0.24082463095E+02  0.00000000000E+00 0. -1.
        -11    1    3    3    0    0  0.60779673792E+01  0.46383971983E+02 -0.76447416327E+02  0.89624896136E+02  0.00000000000E+00 0.  1.
         22    1    1    2    0    0 -0.53301047879E+01 -0.28535939637E+02  0.29242312284E+02  0.41204644104E+02  0.00000000000E+00 0. -1.
<mgrwt>
<rscale>  0 0.71413533E+02</rscale>
<asrwt>0</asrwt>
<pdfrwt beam="1">  1        2 0.95275276E-02 0.96403842E+02</pdfrwt>
<pdfrwt beam="2">  1       -2 0.14305088E-01 0.96403842E+02</pdfrwt>
<totfact> 0.22398770E+04</totfact>
</mgrwt>
</event>
<event>
 6    1  0.1683416E-002  0.9248982E+02  0.7546771E-02  0.1365706E+00
          1   -1    0    0  501    0  0.00000000000E+00  0.00000000000E+00  0.42956110814E+03  0.42956110814E+03  0.00000000000E+00 0. -1.
         -1   -1    0    0    0  501 -0.00000000000E+00 -0.00000000000E+00 -0.86523819555E+01  0.86523819555E+01  0.00000000000E+00 0.  1.
         23    2    1    2    0    0 -0.51123738538E+01 -0.27148916561E+02  0.28886095904E+03  0.30330680811E+03  0.88267582671E+02 0.  0.
         11    1    3    3    0    0 -0.65553996986E+01  0.90285803795E+01  0.24979068245E+03  0.25003974397E+03  0.00000000000E+00 0. -1.
        -11    1    3    3    0    0  0.14430258447E+01 -0.36177496940E+02  0.39070276590E+02  0.53267064132E+02  0.00000000000E+00 0.  1.
         22    1    1    2    0    0  0.51123738538E+01  0.27148916561E+02  0.13204776715E+03  0.13490668199E+03  0.00000000000E+00 0. -1.
<mgrwt>
<rscale>  0 0.68375456E+02</rscale>
<asrwt>0</asrwt>
<pdfrwt beam="1">  1        1 0.66086308E-01 0.92489817E+02</pdfrwt>
<pdfrwt beam="2">  1       -1 0.13311360E-02 0.92489817E+02</pdfrwt>
<totfact> 0.60196758E+04</totfact>
</mgrwt>
</event>
<event>
 6    1  0.1683416E-002  0.9991127E+02  0.7546771E-02  0.1411943E+00
         -2   -1    0    0    0  501 -0.00000000000E+00  0.00000000000E+00  0.10680739321E+03  0.10680739321E+03  0.00000000000E+00 0.  1.
          2   -1    0    0  501    0  0.00000000000E+00 -0.00000000000E+00 -0.30434373577E+02  0.30434373577E+02  0.00000000000E+00 0. -1.
         23    2    1    2    0    0 -0.10163310866E+02  0.22472019200E+01  0.77939800297E+02  0.12671572261E+03  0.99367595737E+02 0.  0.
         11    1    3    3    0    0 -0.48963664114E+02 -0.19171889423E+02  0.57473144291E+02  0.77898421436E+02  0.00000000000E+00 0. -1.
        -11    1    3    3    0    0  0.38800353247E+02  0.21419091343E+02  0.20466656006E+02  0.48817301177E+02  0.00000000000E+00 0.  1.
         22    1    1    2    0    0  0.10163310866E+02 -0.22472019200E+01 -0.15667806675E+01  0.10526044171E+02  0.00000000000E+00 0. -1.
<mgrwt>
<rscale>  0 0.56762416E+02</rscale>
<asrwt>0</asrwt>
<pdfrwt beam="1">  1        2 0.46822114E-02 0.99911270E+02</pdfrwt>
<pdfrwt beam="2">  1       -2 0.16431906E-01 0.99911270E+02</pdfrwt>
<totfact> 0.44040559E+04</totfact>
</mgrwt>
</event>
<event>
 6    1  0.1683416E-002  0.1045005E+03  0.7546771E-02  0.1328256E+00
         -2   -1    0    0    0  501 -0.00000000000E+00  0.00000000000E+00  0.94341598832E+01  0.94341598832E+01  0.00000000000E+00 0.  1.
          2   -1    0    0  501    0  0.00000000000E+00 -0.00000000000E+00 -0.62733483794E+03  0.62733483794E+03  0.00000000000E+00 0. -1.
         23    2    1    2    0    0  0.34340820877E+02 -0.12066991835E+02 -0.54887182453E+03  0.55873127047E+03  0.97956360556E+02 0.  0.
         13    1    3    3    0    0  0.34469552643E+02 -0.21873252266E+02 -0.80528362442E+02  0.90285139319E+02  0.00000000000E+00 0.  1.
        -13    1    3    3    0    0 -0.12873176575E+00  0.98062604306E+01 -0.46834346209E+03  0.46844613115E+03  0.00000000000E+00 0. -1.
         22    1    1    2    0    0 -0.34340820877E+02  0.12066991835E+02 -0.69028853531E+02  0.78037727352E+02  0.00000000000E+00 0.  1.
<mgrwt>
<rscale>  0 0.80280823E+02</rscale>
<asrwt>0</asrwt>
<pdfrwt beam="1">  1        2 0.96513059E-01 0.10450049E+03</pdfrwt>
<pdfrwt beam="2">  1       -2 0.14514091E-02 0.10450049E+03</pdfrwt>
<totfact> 0.53464970E+04</totfact>
</mgrwt>
</event>
<event>
 6    1  0.1683416E-002  0.9013053E+02  0.7546771E-02  0.1415783E+00
          2   -1    0    0  501    0  0.00000000000E+00  0.00000000000E+00  0.32385599704E+02  0.32385599704E+02  0.00000000000E+00 0. -1.
         -2   -1    0    0    0  501 -0.00000000000E+00 -0.00000000000E+00 -0.82913324337E+02  0.82913324337E+02  0.00000000000E+00 0.  1.
         23    2    1    2    0    0  0.84836657335E+01 -0.10318623701E+02 -0.46026754458E+02  0.10120263687E+03  0.89135094127E+02 0.  0.
         13    1    3    3    0    0  0.12682431148E+02 -0.25964549922E+02  0.18739729984E+02  0.34440955160E+02  0.00000000000E+00 0. -1.
        -13    1    3    3    0    0 -0.41987654140E+01  0.15645926221E+02 -0.64766484442E+02  0.66761681714E+02  0.00000000000E+00 0.  1.
         22    1    1    2    0    0 -0.84836657335E+01  0.10318623701E+02 -0.45009701748E+01  0.14096287166E+02  0.00000000000E+00 0. -1.
<mgrwt>
<rscale>  0 0.55923257E+02</rscale>
<asrwt>0</asrwt>
<pdfrwt beam="1">  1        2 0.49824000E-02 0.90130525E+02</pdfrwt>
<pdfrwt beam="2">  1       -2 0.12755896E-01 0.90130525E+02</pdfrwt>
<totfact> 0.60256450E+04</totfact>
</mgrwt>
</event>
<event>
 6    1  0.3155891E-002  0.9700744E+02  0.7546771E-02  0.1410746E+00
         -2   -1    0    0    0  501 -0.00000000000E+00  0.00000000000E+00  0.53746332788E+02  0.53746332788E+02  0.00000000000E+00 0.  1.
          2   -1    0    0  501    0  0.00000000000E+00 -0.00000000000E+00 -0.30053892792E+03  0.30053892792E+03  0.00000000000E+00 0. -1.
         23    2    1    2    0    0 -0.74069567867E+01  0.89089800363E+01 -0.29196073699E+03  0.30765486319E+03  0.96313083071E+02 0.  0.
         11    1    3    3    0    0 -0.49367290918E+02  0.19056688984E+02 -0.13948476359E+03  0.14918540841E+03  0.00000000000E+00 0.  1.
        -11    1    3    3    0    0  0.41960334131E+02 -0.10147708948E+02 -0.15247597340E+03  0.15846945479E+03  0.00000000000E+00 0. -1.
         22    1    1    2    0    0  0.74069567867E+01 -0.89089800363E+01  0.45168141853E+02  0.46630397517E+02  0.00000000000E+00 0.  1.
<mgrwt>
<rscale>  0 0.57027740E+02</rscale>
<asrwt>0</asrwt>
<pdfrwt beam="1">  1        2 0.46236758E-01 0.97007437E+02</pdfrwt>
<pdfrwt beam="2">  1       -2 0.82686665E-02 0.97007437E+02</pdfrwt>
<totfact> 0.90439333E+03</totfact>
</mgrwt>
</event>
<event>
 6    1  0.1683416E-002  0.9928609E+02  0.7546771E-02  0.1353702E+00
         -2   -1    0    0    0  501 -0.00000000000E+00  0.00000000000E+00  0.13239950265E+02  0.13239950265E+02  0.00000000000E+00 0.  1.
          2   -1    0    0  501    0  0.00000000000E+00 -0.00000000000E+00 -0.35261500100E+03  0.35261500100E+03  0.00000000000E+00 0. -1.
         23    2    1    2    0    0  0.27327247933E+02 -0.32306064209E-01 -0.19396564745E+03  0.21789997809E+03  0.95451288823E+02 0.  0.
         13    1    3    3    0    0 -0.24579690003E+02  0.30117138828E+02 -0.85756085021E+02  0.94155771623E+02  0.00000000000E+00 0.  1.
        -13    1    3    3    0    0  0.51906937936E+02 -0.30149444892E+02 -0.10820956243E+03  0.12374420647E+03  0.00000000000E+00 0. -1.
         22    1    1    2    0    0 -0.27327247933E+02  0.32306064209E-01 -0.14540940328E+03  0.14795497317E+03  0.00000000000E+00 0.  1.
<mgrwt>
<rscale>  0 0.71914317E+02</rscale>
<asrwt>0</asrwt>
<pdfrwt beam="1">  1        2 0.54248460E-01 0.99286092E+02</pdfrwt>
<pdfrwt beam="2">  1       -2 0.20369155E-02 0.99286092E+02</pdfrwt>
<totfact> 0.60909226E+04</totfact>
</mgrwt>
</event>
<event>
 6    1  0.1683416E-002  0.8197478E+02  0.7546771E-02  0.1449941E+00
          1   -1    0    0  501    0  0.00000000000E+00  0.00000000000E+00  0.23676127824E+02  0.23676127824E+02  0.00000000000E+00 0. -1.
         -1   -1    0    0    0  501 -0.00000000000E+00 -0.00000000000E+00 -0.12023586543E+03  0.12023586543E+03  0.00000000000E+00 0.  1.
         23    2    1    2    0    0  0.10433540672E+02 -0.18718114049E+01 -0.10289961633E+03  0.13156061636E+03  0.81286544325E+02 0.  0.
         13    1    3    3    0    0  0.29580834184E+02 -0.24887736153E+02 -0.20218401081E+02  0.43625782562E+02  0.00000000000E+00 0. -1.
        -13    1    3    3    0    0 -0.19147293511E+02  0.23015924749E+02 -0.82681215248E+02  0.87934833801E+02  0.00000000000E+00 0.  1.
         22    1    1    2    0    0 -0.10433540672E+02  0.18718114049E+01  0.63398787221E+01  0.12351376891E+02  0.00000000000E+00 0.  1.
<mgrwt>
<rscale>  0 0.49157281E+02</rscale>
<asrwt>0</asrwt>
<pdfrwt beam="1">  1        1 0.36424812E-02 0.81974781E+02</pdfrwt>
<pdfrwt beam="2">  1       -1 0.18497825E-01 0.81974781E+02</pdfrwt>
<totfact> 0.50237265E+04</totfact>
</mgrwt>
</event>
<event>
 6    1  0.1683416E-002  0.9263108E+02  0.7546771E-02  0.1425664E+00
         -2   -1    0    0    0  501 -0.00000000000E+00  0.00000000000E+00  0.37093682342E+02  0.37093682342E+02  0.00000000000E+00 0.  1.
          2   -1    0    0  501    0  0.00000000000E+00 -0.00000000000E+00 -0.71826744939E+02  0.71826744939E+02  0.00000000000E+00 0. -1.
         23    2    1    2    0    0 -0.62946097154E+01 -0.84938610022E+01 -0.30357523065E+02  0.97478699597E+02  0.92025810957E+02 0.  0.
         13    1    3    3    0    0 -0.10742254299E+02 -0.45612362923E+02 -0.36750043074E+02  0.59552072549E+02  0.00000000000E+00 0. -1.
        -13    1    3    3    0    0  0.44476445839E+01  0.37118501921E+02  0.63925200091E+01  0.37926627048E+02  0.00000000000E+00 0.  1.
         22    1    1    2    0    0  0.62946097154E+01  0.84938610022E+01 -0.43755395313E+01  0.11441727684E+02  0.00000000000E+00 0. -1.
<mgrwt>
<rscale>  0 0.53840259E+02</rscale>
<asrwt>0</asrwt>
<pdfrwt beam="1">  1        2 0.11050268E-01 0.92631084E+02</pdfrwt>
<pdfrwt beam="2">  1       -2 0.57067204E-02 0.92631084E+02</pdfrwt>
<totfact> 0.77196607E+04</totfact>
</mgrwt>
</event>
<event>
 6    1  0.1683416E-002  0.9505188E+02  0.7546771E-02  0.1385715E+00
          2   -1    0    0  501    0  0.00000000000E+00  0.00000000000E+00  0.13417889693E+03  0.13417889693E+03  0.00000000000E+00 0. -1.
         -2   -1    0    0    0  501 -0.00000000000E+00 -0.00000000000E+00 -0.40652769585E+02  0.40652769585E+02  0.00000000000E+00 0.  1.
         23    2    1    2    0    0  0.17592045535E+02  0.51350405050E+01  0.17527131979E+02  0.96654329621E+02  0.93268485417E+02 0.  0.
         11    1    3    3    0    0  0.34335311979E+02  0.50214662867E+01  0.49565172722E+02  0.60504835504E+02  0.00000000000E+00 0. -1.
        -11    1    3    3    0    0 -0.16743266444E+02  0.11357421833E+00 -0.32038040743E+02  0.36149494118E+02  0.00000000000E+00 0.  1.
         22    1    1    2    0    0 -0.17592045535E+02 -0.51350405050E+01  0.75998995371E+02  0.78177336898E+02  0.00000000000E+00 0. -1.
<mgrwt>
<rscale>  0 0.62985195E+02</rscale>
<asrwt>0</asrwt>
<pdfrwt beam="1">  1        2 0.20642907E-01 0.95051876E+02</pdfrwt>
<pdfrwt beam="2">  1       -2 0.62542723E-02 0.95051876E+02</pdfrwt>
<totfact> 0.32767604E+04</totfact>
</mgrwt>
</event>
<event>
 6    1  0.1683416E-002  0.8268757E+02  0.7546771E-02  0.1421099E+00
         -3   -1    0    0    0  501 -0.00000000000E+00  0.00000000000E+00  0.32405129017E+03  0.32405129017E+03  0.00000000000E+00 0.  1.
          3   -1    0    0  501    0  0.00000000000E+00 -0.00000000000E+00 -0.19200700193E+02  0.19200700193E+02  0.00000000000E+00 0. -1.
         23    2    1    2    0    0 -0.13703951648E+02  0.81392182494E+01  0.31411517354E+03  0.32481621880E+03  0.81136850984E+02 0.  0.
         13    1    3    3    0    0  0.16670523657E+02 -0.11116932078E+02  0.19316693349E+02  0.27832124960E+02  0.00000000000E+00 0. -1.
        -13    1    3    3    0    0 -0.30374475305E+02  0.19256150327E+02  0.29479848019E+03  0.29698409384E+03  0.00000000000E+00 0.  1.
         22    1    1    2    0    0  0.13703951648E+02 -0.81392182494E+01 -0.92645835586E+01  0.18435771560E+02  0.00000000000E+00 0. -1.
<mgrwt>
<rscale>  0 0.54789082E+02</rscale>
<asrwt>0</asrwt>
<pdfrwt beam="1">  1        3 0.29539541E-02 0.82687567E+02</pdfrwt>
<pdfrwt beam="2">  1       -3 0.49854041E-01 0.82687567E+02</pdfrwt>
<totfact> 0.43066614E+03</totfact>
</mgrwt>
</event>
<event>
 6    1  0.1683416E-002  0.1075995E+03  0.7546771E-02  0.1392758E+00
         -2   -1    0    0    0  501 -0.00000000000E+00  0.00000000000E+00  0.28211438139E+02  0.28211438139E+02  0.00000000000E+00 0.  1.
          2   -1    0    0  501    0  0.00000000000E+00 -0.00000000000E+00 -0.15049077834E+03  0.15049077834E+03  0.00000000000E+00 0. -1.
         23    2    1    2    0    0 -0.10865425628E+02 -0.30302477305E+01 -0.77708814706E+02  0.13272644440E+03  0.10700658524E+03 0.  0.
         13    1    3    3    0    0  0.16093389699E+02 -0.36843745044E+02 -0.79879466927E+02  0.89426998034E+02  0.00000000000E+00 0. -1.
        -13    1    3    3    0    0 -0.26958815327E+02  0.33813497313E+02  0.21706522207E+01  0.43299446365E+02  0.00000000000E+00 0.  1.
         22    1    1    2    0    0  0.10865425628E+02  0.30302477305E+01 -0.44570525492E+02  0.45975772076E+02  0.00000000000E+00 0. -1.
<mgrwt>
<rscale>  0 0.61225952E+02</rscale>
<asrwt>0</asrwt>
<pdfrwt beam="1">  1        2 0.23152427E-01 0.10759948E+03</pdfrwt>
<pdfrwt beam="2">  1       -2 0.43402213E-02 0.10759948E+03</pdfrwt>
<totfact> 0.50571856E+04</totfact>
</mgrwt>
</event>
<event>
 6    1  0.1683416E-002  0.8995057E+02  0.7546771E-02  0.1432801E+00
         -4   -1    0    0    0  501 -0.00000000000E+00  0.00000000000E+00  0.43420645343E+02  0.43420645343E+02  0.00000000000E+00 0.  1.
          4   -1    0    0  501    0  0.00000000000E+00 -0.00000000000E+00 -0.59114854193E+02  0.59114854193E+02  0.00000000000E+00 0. -1.
         23    2    1    2    0    0 -0.81399955769E+01 -0.64091058087E+01 -0.94661728908E+01  0.90447298795E+02  0.89351940465E+02 0.  0.
         13    1    3    3    0    0 -0.43091841255E+02 -0.14624900694E+02  0.13932895712E+02  0.47591176556E+02  0.00000000000E+00 0.  1.
        -13    1    3    3    0    0  0.34951845678E+02  0.82157948850E+01 -0.23399068603E+02  0.42856122239E+02  0.00000000000E+00 0. -1.
         22    1    1    2    0    0  0.81399955769E+01  0.64091058087E+01 -0.62280359592E+01  0.12088200742E+02  0.00000000000E+00 0. -1.
<mgrwt>
<rscale>  0 0.52401800E+02</rscale>
<asrwt>0</asrwt>
<pdfrwt beam="1">  1        4 0.90945929E-02 0.89950572E+02</pdfrwt>
<pdfrwt beam="2">  1       -4 0.66800993E-02 0.89950572E+02</pdfrwt>
<totfact> 0.19002954E+04</totfact>
</mgrwt>
</event>
<event>
 6    1  0.1683416E-002  0.9417629E+02  0.7546771E-02  0.1409593E+00
          2   -1    0    0  501    0  0.00000000000E+00  0.00000000000E+00  0.19424514907E+03  0.19424514907E+03  0.00000000000E+00 0. -1.
         -2   -1    0    0    0  501 -0.00000000000E+00 -0.00000000000E+00 -0.15037646273E+02  0.15037646273E+02  0.00000000000E+00 0.  1.
         23    2    1    2    0    0 -0.12179094083E+02  0.42287942613E+01  0.16581708127E+03  0.19069472331E+03  0.93289656556E+02 0.  0.
         13    1    3    3    0    0 -0.25126622196E+02 -0.32521578949E+02  0.13469966801E+03  0.14082968722E+03  0.00000000000E+00 0. -1.
        -13    1    3    3    0    0  0.12947528113E+02  0.36750373211E+02  0.31117413260E+02  0.49865036081E+02  0.00000000000E+00 0.  1.
         22    1    1    2    0    0  0.12179094083E+02 -0.42287942613E+01  0.13390421527E+02  0.18588072042E+02  0.00000000000E+00 0. -1.
<mgrwt>
<rscale>  0 0.57284788E+02</rscale>
<asrwt>0</asrwt>
<pdfrwt beam="1">  1        2 0.29883867E-01 0.94176287E+02</pdfrwt>
<pdfrwt beam="2">  1       -2 0.23134842E-02 0.94176287E+02</pdfrwt>
<totfact> 0.94347015E+04</totfact>
</mgrwt>
</event>
<event>
 6    1  0.1683416E-002  0.9521595E+02  0.7546771E-02  0.1343433E+00
          2   -1    0    0  501    0  0.00000000000E+00  0.00000000000E+00  0.31904357913E+02  0.31904357913E+02  0.00000000000E+00 0. -1.
         -2   -1    0    0    0  501 -0.00000000000E+00 -0.00000000000E+00 -0.19156286861E+03  0.19156286861E+03  0.00000000000E+00 0.  1.
         23    2    1    2    0    0  0.36501627167E+02  0.56147929750E+01 -0.16039625246E+03  0.18652891377E+03  0.87762082841E+02 0.  0.
         13    1    3    3    0    0  0.38907839435E+02  0.28578337999E+02 -0.15563973182E+03  0.16295480199E+03  0.00000000000E+00 0.  1.
        -13    1    3    3    0    0 -0.24062122681E+01 -0.22963545025E+02 -0.47565206396E+01  0.23574111779E+02  0.00000000000E+00 0. -1.
         22    1    1    2    0    0 -0.36501627167E+02 -0.56147929750E+01  0.73774176127E+00  0.36938312751E+02  0.00000000000E+00 0. -1.
<mgrwt>
<rscale>  0 0.75141506E+02</rscale>
<asrwt>0</asrwt>
<pdfrwt beam="1">  1        2 0.49083627E-02 0.95215954E+02</pdfrwt>
<pdfrwt beam="2">  1       -2 0.29471211E-01 0.95215954E+02</pdfrwt>
<totfact> 0.15222370E+04</totfact>
</mgrwt>
</event>
<event>
 6    1  0.1683416E-002  0.1009240E+03  0.7546771E-02  0.1330761E+00
          2   -1    0    0  501    0  0.00000000000E+00  0.00000000000E+00  0.24651864078E+02  0.24651864078E+02  0.00000000000E+00 0. -1.
         -2   -1    0    0    0  501 -0.00000000000E+00 -0.00000000000E+00 -0.65741295942E+03  0.65741295942E+03  0.00000000000E+00 0.  1.
         23    2    1    2    0    0 -0.36588927370E+02  0.12497524016E+02 -0.63534808165E+03  0.64331394982E+03  0.93224006904E+02 0.  0.
         11    1    3    3    0    0  0.14802245525E+02  0.36168655185E+02 -0.16449990353E+03  0.16907837341E+03  0.00000000000E+00 0. -1.
        -11    1    3    3    0    0 -0.51391172895E+02 -0.23671131169E+02 -0.47084817812E+03  0.47423557642E+03  0.00000000000E+00 0.  1.
         22    1    1    2    0    0  0.36588927370E+02 -0.12497524016E+02  0.25869863099E+01  0.38750873678E+02  0.00000000000E+00 0. -1.
<mgrwt>
<rscale>  0 0.79400588E+02</rscale>
<asrwt>0</asrwt>
<pdfrwt beam="1">  1        2 0.37925955E-02 0.10092400E+03</pdfrwt>
<pdfrwt beam="2">  1       -2 0.10114043E+00 0.10092400E+03</pdfrwt>
<totfact> 0.17912363E+03</totfact>
</mgrwt>
</event>
<event>
 6    1  0.1683416E-002  0.1036023E+03  0.7546771E-02  0.1311732E+00
         -2   -1    0    0    0  501 -0.00000000000E+00  0.00000000000E+00  0.10992243408E+02  0.10992243408E+02  0.00000000000E+00 0.  1.
          2   -1    0    0  501    0  0.00000000000E+00 -0.00000000000E+00 -0.54073079674E+03  0.54073079674E+03  0.00000000000E+00 0. -1.
         23    2    1    2    0    0  0.45467939826E+02  0.21241069698E+02 -0.37514463000E+03  0.38918751257E+03  0.90636140305E+02 0.  0.
         11    1    3    3    0    0  0.39289235468E+02  0.47988404902E+02 -0.33410652971E+03  0.33981422016E+03  0.00000000000E+00 0. -1.
        -11    1    3    3    0    0  0.61787043572E+01 -0.26747335203E+02 -0.41038100292E+02  0.49373292412E+02  0.00000000000E+00 0.  1.
         22    1    1    2    0    0 -0.45467939826E+02 -0.21241069698E+02 -0.15459392333E+03  0.16253552758E+03  0.00000000000E+00 0.  1.
<mgrwt>
<rscale>  0 0.86431091E+02</rscale>
<asrwt>0</asrwt>
<pdfrwt beam="1">  1        2 0.83189361E-01 0.10360225E+03</pdfrwt>
<pdfrwt beam="2">  1       -2 0.16911142E-02 0.10360225E+03</pdfrwt>
<totfact> 0.50655538E+04</totfact>
</mgrwt>
</event>
<event>
 6    1  0.1683416E-002  0.9211023E+02  0.7546771E-02  0.1410818E+00
         -2   -1    0    0    0  501 -0.00000000000E+00  0.00000000000E+00  0.41931160339E+02  0.41931160339E+02  0.00000000000E+00 0. -1.
          2   -1    0    0  501    0  0.00000000000E+00 -0.00000000000E+00 -0.67034237149E+02  0.67034237149E+02  0.00000000000E+00 0.  1.
         23    2    1    2    0    0 -0.93079353866E+01 -0.98039527504E+01 -0.18623597711E+02  0.93974106681E+02  0.91112782769E+02 0.  0.
         13    1    3    3    0    0 -0.33504393119E+02  0.30194695570E+02 -0.12670444196E+02  0.46848736962E+02  0.00000000000E+00 0. -1.
        -13    1    3    3    0    0  0.24196457732E+02 -0.39998648321E+02 -0.59531535156E+01  0.47125369718E+02  0.00000000000E+00 0.  1.
         22    1    1    2    0    0  0.93079353866E+01  0.98039527504E+01 -0.64794790980E+01  0.14991290808E+02  0.00000000000E+00 0. -1.
<mgrwt>
<rscale>  0 0.57011780E+02</rscale>
<asrwt>0</asrwt>
<pdfrwt beam="1">  1        2 0.10312959E-01 0.92110229E+02</pdfrwt>
<pdfrwt beam="2">  1       -2 0.64509478E-02 0.92110229E+02</pdfrwt>
<totfact> 0.69724062E+04</totfact>
</mgrwt>
</event>
<event>
 6    1  0.1683416E-002  0.9727346E+02  0.7546771E-02  0.1333072E+00
         -2   -1    0    0    0  501 -0.00000000000E+00  0.00000000000E+00  0.16296032633E+03  0.16296032633E+03  0.00000000000E+00 0.  1.
          2   -1    0    0  501    0  0.00000000000E+00 -0.00000000000E+00 -0.16131111440E+03  0.16131111440E+03  0.00000000000E+00 0. -1.
         23    2    1    2    0    0  0.63028369999E+01 -0.40985734824E+02  0.14524438816E+03  0.17480863315E+03  0.87991873013E+02 0.  0.
         13    1    3    3    0    0 -0.27467470098E+02 -0.91973526687E+01  0.81635319529E+01  0.30094791304E+02  0.00000000000E+00 0. -1.
        -13    1    3    3    0    0  0.33770307098E+02 -0.31788382155E+02  0.13708085621E+03  0.14471384184E+03  0.00000000000E+00 0.  1.
         22    1    1    2    0    0 -0.63028369999E+01  0.40985734824E+02 -0.14359517623E+03  0.14946280758E+03  0.00000000000E+00 0. -1.
<mgrwt>
<rscale>  0 0.78600049E+02</rscale>
<asrwt>0</asrwt>
<pdfrwt beam="1">  1        2 0.24817094E-01 0.97273460E+02</pdfrwt>
<pdfrwt beam="2">  1       -2 0.25070820E-01 0.97273460E+02</pdfrwt>
<totfact> 0.29074287E+03</totfact>
</mgrwt>
</event>
<event>
 6    1  0.1683416E-002  0.9353569E+02  0.7546771E-02  0.1387860E+00
         -1   -1    0    0    0  501 -0.00000000000E+00  0.00000000000E+00  0.20826255056E+02  0.20826255056E+02  0.00000000000E+00 0.  1.
          1   -1    0    0  501    0  0.00000000000E+00 -0.00000000000E+00 -0.15656500955E+03  0.15656500955E+03  0.00000000000E+00 0. -1.
         23    2    1    2    0    0 -0.11654170670E+02  0.14466897501E+02 -0.98851711680E+02  0.13609035971E+03  0.91672320183E+02 0.  0.
         13    1    3    3    0    0 -0.73998651661E+01 -0.39089049080E+02 -0.40423090108E+02  0.56716293746E+02  0.00000000000E+00 0. -1.
        -13    1    3    3    0    0 -0.42543055043E+01  0.53555946581E+02 -0.58428621571E+02  0.79374065968E+02  0.00000000000E+00 0.  1.
         22    1    1    2    0    0  0.11654170670E+02 -0.14466897501E+02 -0.36887042810E+02  0.41300904888E+02  0.00000000000E+00 0. -1.
<mgrwt>
<rscale>  0 0.62442148E+02</rscale>
<asrwt>0</asrwt>
<pdfrwt beam="1">  1        1 0.24086925E-01 0.93535689E+02</pdfrwt>
<pdfrwt beam="2">  1       -1 0.32040392E-02 0.93535689E+02</pdfrwt>
<totfact> 0.59435535E+04</totfact>
</mgrwt>
</event>
<event>
 6    1  0.1683416E-002  0.9227872E+02  0.7546771E-02  0.1415482E+00
          4   -1    0    0  501    0  0.00000000000E+00  0.00000000000E+00  0.92828624639E+01  0.92828624639E+01  0.00000000000E+00 0. -1.
         -4   -1    0    0    0  501 -0.00000000000E+00 -0.00000000000E+00 -0.29576446778E+03  0.29576446778E+03  0.00000000000E+00 0.  1.
         23    2    1    2    0    0 -0.51683724803E+01  0.11386917204E+02 -0.25076200253E+03  0.26720206659E+03  0.91427504188E+02 0.  0.
         13    1    3    3    0    0 -0.43987672431E+02  0.16614221221E+02 -0.87793353276E+02  0.99592271548E+02  0.00000000000E+00 0. -1.
        -13    1    3    3    0    0  0.38819299950E+02 -0.52273040171E+01 -0.16296864925E+03  0.16760979504E+03  0.00000000000E+00 0.  1.
         22    1    1    2    0    0  0.51683724803E+01 -0.11386917204E+02 -0.35719602793E+02  0.37845263656E+02  0.00000000000E+00 0.  1.
<mgrwt>
<rscale>  0 0.55988229E+02</rscale>
<asrwt>0</asrwt>
<pdfrwt beam="1">  1        4 0.14281327E-02 0.92278722E+02</pdfrwt>
<pdfrwt beam="2">  1       -4 0.45502225E-01 0.92278722E+02</pdfrwt>
<totfact> 0.11712889E+04</totfact>
</mgrwt>
</event>
<event>
 6    1  0.1683416E-002  0.9173724E+02  0.7546771E-02  0.1416030E+00
          4   -1    0    0  501    0  0.00000000000E+00  0.00000000000E+00  0.17534347412E+02  0.17534347412E+02  0.00000000000E+00 0. -1.
         -4   -1    0    0    0  501 -0.00000000000E+00 -0.00000000000E+00 -0.40113675229E+03  0.40113675229E+03  0.00000000000E+00 0.  1.
         23    2    1    2    0    0  0.10511067412E+02 -0.69851242572E+01 -0.39259756099E+03  0.40317312137E+03  0.90864989924E+02 0.  0.
         11    1    3    3    0    0  0.10868565930E+02 -0.43805811508E+02 -0.12198761409E+03  0.13006941546E+03  0.00000000000E+00 0.  1.
        -11    1    3    3    0    0 -0.35749851821E+00  0.36820687250E+02 -0.27060994690E+03  0.27310370590E+03  0.00000000000E+00 0. -1.
         22    1    1    2    0    0 -0.10511067412E+02  0.69851242572E+01  0.89951561157E+01  0.15497978338E+02  0.00000000000E+00 0. -1.
<mgrwt>
<rscale>  0 0.55869853E+02</rscale>
<asrwt>0</asrwt>
<pdfrwt beam="1">  1        4 0.26975920E-02 0.91737238E+02</pdfrwt>
<pdfrwt beam="2">  1       -4 0.61713344E-01 0.91737238E+02</pdfrwt>
<totfact> 0.23782675E+03</totfact>
</mgrwt>
</event>
<event>
 6    1  0.1683416E-002  0.1028197E+03  0.7546771E-02  0.1406192E+00
          2   -1    0    0  501    0  0.00000000000E+00  0.00000000000E+00  0.10357393495E+03  0.10357393495E+03  0.00000000000E+00 0. -1.
         -2   -1    0    0    0  501 -0.00000000000E+00 -0.00000000000E+00 -0.40396470396E+02  0.40396470396E+02  0.00000000000E+00 0.  1.
         23    2    1    2    0    0 -0.88693484217E+01 -0.55228106902E+01  0.26987690143E+02  0.10630256029E+03  0.10228749741E+03 0.  0.
         11    1    3    3    0    0  0.12888253042E+02 -0.11292671767E+02  0.62196181899E+02  0.64513537687E+02  0.00000000000E+00 0. -1.
        -11    1    3    3    0    0 -0.21757601464E+02  0.57698610768E+01 -0.35208491756E+02  0.41789022602E+02  0.00000000000E+00 0.  1.
         22    1    1    2    0    0  0.88693484217E+01  0.55228106902E+01  0.36189774415E+02  0.37667845061E+02  0.00000000000E+00 0.  1.
<mgrwt>
<rscale>  0 0.58052201E+02</rscale>
<asrwt>0</asrwt>
<pdfrwt beam="1">  1        2 0.15934451E-01 0.10281974E+03</pdfrwt>
<pdfrwt beam="2">  1       -2 0.62148416E-02 0.10281974E+03</pdfrwt>
<totfact> 0.44799647E+04</totfact>
</mgrwt>
</event>
<event>
 6    1  0.1683416E-002  0.9344020E+02  0.7546771E-02  0.1380508E+00
          2   -1    0    0  501    0  0.00000000000E+00  0.00000000000E+00  0.51177993723E+02  0.51177993723E+02  0.00000000000E+00 0. -1.
         -2   -1    0    0    0  501 -0.00000000000E+00 -0.00000000000E+00 -0.24977734990E+03  0.24977734990E+03  0.00000000000E+00 0.  1.
         23    2    1    2    0    0  0.20981969790E+02  0.66368089481E+00 -0.23834490515E+03  0.25600657065E+03  0.91051561643E+02 0.  0.
         11    1    3    3    0    0  0.14321506628E+02 -0.15695416769E+02 -0.47847367144E+01  0.21779471184E+02  0.00000000000E+00 0. -1.
        -11    1    3    3    0    0  0.66604631627E+01  0.16359097663E+02 -0.23356016843E+03  0.23422709947E+03  0.00000000000E+00 0.  1.
         22    1    1    2    0    0 -0.20981969790E+02 -0.66368089481E+00  0.39745548972E+02  0.44948772972E+02  0.00000000000E+00 0. -1.
<mgrwt>
<rscale>  0 0.64330387E+02</rscale>
<asrwt>0</asrwt>
<pdfrwt beam="1">  1        2 0.78735375E-02 0.93440197E+02</pdfrwt>
<pdfrwt beam="2">  1       -2 0.38427285E-01 0.93440197E+02</pdfrwt>
<totfact> 0.51461702E+03</totfact>
</mgrwt>
</event>
<event>
 6    1  0.1683416E-002  0.9526160E+02  0.7546771E-02  0.1388422E+00
         -3   -1    0    0    0  501 -0.00000000000E+00  0.00000000000E+00  0.20155270658E+03  0.20155270658E+03  0.00000000000E+00 0.  1.
          3   -1    0    0  501    0  0.00000000000E+00 -0.00000000000E+00 -0.23068815624E+02  0.23068815624E+02  0.00000000000E+00 0. -1.
         23    2    1    2    0    0 -0.15345341148E+02 -0.82597954659E+01  0.18326976157E+03  0.20654921539E+03  0.93653986333E+02 0.  0.
         13    1    3    3    0    0  0.28414343793E+02 -0.48413116056E+01  0.14644520185E+03  0.14925485042E+03  0.00000000000E+00 0.  1.
        -13    1    3    3    0    0 -0.43759684941E+02 -0.34184838602E+01  0.36824559726E+02  0.57294364968E+02  0.00000000000E+00 0. -1.
         22    1    1    2    0    0  0.15345341148E+02  0.82597954659E+01 -0.47858706143E+01  0.18072306815E+02  0.00000000000E+00 0. -1.
<mgrwt>
<rscale>  0 0.62300951E+02</rscale>
<asrwt>0</asrwt>
<pdfrwt beam="1">  1        3 0.35490487E-02 0.95261602E+02</pdfrwt>
<pdfrwt beam="2">  1       -3 0.31008107E-01 0.95261602E+02</pdfrwt>
<totfact> 0.82928480E+03</totfact>
</mgrwt>
</event>
<event>
 6    1  0.1683416E-002  0.9347133E+02  0.7546771E-02  0.1386740E+00
          2   -1    0    0  501    0  0.00000000000E+00  0.00000000000E+00  0.76784641424E+02  0.76784641424E+02  0.00000000000E+00 0. -1.
         -2   -1    0    0    0  501 -0.00000000000E+00 -0.00000000000E+00 -0.60580593686E+02  0.60580593686E+02  0.00000000000E+00 0.  1.
         23    2    1    2    0    0  0.93206266682E+01 -0.16504901511E+02 -0.20828280302E+02  0.95763802737E+02  0.91529245594E+02 0.  0.
         13    1    3    3    0    0  0.17804442604E+02  0.62859195642E+01  0.32255060904E+02  0.37375124282E+02  0.00000000000E+00 0. -1.
        -13    1    3    3    0    0 -0.84838159358E+01 -0.22790821075E+02 -0.53083341206E+02  0.58388678455E+02  0.00000000000E+00 0.  1.
         22    1    1    2    0    0 -0.93206266682E+01  0.16504901511E+02  0.37032328040E+02  0.41601432373E+02  0.00000000000E+00 0. -1.
<mgrwt>
<rscale>  0 0.62724732E+02</rscale>
<asrwt>0</asrwt>
<pdfrwt beam="1">  1        2 0.11813022E-01 0.93471325E+02</pdfrwt>
<pdfrwt beam="2">  1       -2 0.93200913E-02 0.93471325E+02</pdfrwt>
<totfact> 0.33852641E+04</totfact>
</mgrwt>
</event>
<event>
 6    1  0.1683416E-002  0.9023707E+02  0.7546771E-02  0.1432073E+00
          4   -1    0    0  501    0  0.00000000000E+00  0.00000000000E+00  0.99139651219E+01  0.99139651219E+01  0.00000000000E+00 0. -1.
         -4   -1    0    0    0  501 -0.00000000000E+00 -0.00000000000E+00 -0.33182058888E+03  0.33182058888E+03  0.00000000000E+00 0.  1.
         23    2    1    2    0    0 -0.10332053406E+02 -0.94785283986E+00 -0.31815077882E+03  0.33070023826E+03  0.89638606474E+02 0.  0.
         13    1    3    3    0    0  0.41940270728E+01  0.50709798933E+01 -0.31448639437E+03  0.31455523672E+03  0.00000000000E+00 0.  1.
        -13    1    3    3    0    0 -0.14526080479E+02 -0.60188327331E+01 -0.36643844467E+01  0.16145001546E+02  0.00000000000E+00 0. -1.
         22    1    1    2    0    0  0.10332053406E+02  0.94785283986E+00 -0.37558449348E+01  0.11034315736E+02  0.00000000000E+00 0. -1.
<mgrwt>
<rscale>  0 0.52546087E+02</rscale>
<asrwt>0</asrwt>
<pdfrwt beam="1">  1        4 0.15252254E-02 0.90237074E+02</pdfrwt>
<pdfrwt beam="2">  1       -4 0.51049322E-01 0.90237074E+02</pdfrwt>
<totfact> 0.83620876E+03</totfact>
</mgrwt>
</event>
<event>
 6    1  0.1683416E-002  0.9179694E+02  0.7546771E-02  0.1393022E+00
         -4   -1    0    0    0  501 -0.00000000000E+00  0.00000000000E+00  0.47888224485E+03  0.47888224485E+03  0.00000000000E+00 0.  1.
          4   -1    0    0  501    0  0.00000000000E+00 -0.00000000000E+00 -0.63749410736E+01  0.63749410736E+01  0.00000000000E+00 0. -1.
         23    2    1    2    0    0 -0.11546331843E+02 -0.13924812138E+02  0.41206102451E+03  0.42216225071E+03  0.89996999032E+02 0.  0.
         11    1    3    3    0    0  0.52545361916E+01  0.42087899194E+01 -0.22621937618E+01  0.71022238623E+01  0.00000000000E+00 0. -1.
        -11    1    3    3    0    0 -0.16800868034E+02 -0.18133602057E+02  0.41432321827E+03  0.41506002685E+03  0.00000000000E+00 0.  1.
         22    1    1    2    0    0  0.11546331843E+02  0.13924812138E+02  0.60446279272E+02  0.63094935216E+02  0.00000000000E+00 0. -1.
<mgrwt>
<rscale>  0 0.61161176E+02</rscale>
<asrwt>0</asrwt>
<pdfrwt beam="1">  1        4 0.98076054E-03 0.91796939E+02</pdfrwt>
<pdfrwt beam="2">  1       -4 0.73674163E-01 0.91796939E+02</pdfrwt>
<totfact> 0.75787746E+03</totfact>
</mgrwt>
</event>
<event>
 6    1  0.1683416E-002  0.8666630E+02  0.7546771E-02  0.1421118E+00
          2   -1    0    0  501    0  0.00000000000E+00  0.00000000000E+00  0.14505371845E+03  0.14505371845E+03  0.00000000000E+00 0. -1.
         -2   -1    0    0    0  501 -0.00000000000E+00 -0.00000000000E+00 -0.19223655016E+02  0.19223655016E+02  0.00000000000E+00 0.  1.
         23    2    1    2    0    0  0.99094868959E+01 -0.96598685836E+01  0.85928204846E+02  0.12204386414E+03  0.85554295004E+02 0.  0.
         13    1    3    3    0    0  0.13312470306E+02  0.19344773375E+02  0.89585538443E+02  0.92612152662E+02  0.00000000000E+00 0. -1.
        -13    1    3    3    0    0 -0.34029834105E+01 -0.29004641959E+02 -0.36573335971E+01  0.29431711474E+02  0.00000000000E+00 0.  1.
         22    1    1    2    0    0 -0.99094868959E+01  0.96598685836E+01  0.39901858586E+02  0.42233509329E+02  0.00000000000E+00 0. -1.
<mgrwt>
<rscale>  0 0.54785032E+02</rscale>
<asrwt>0</asrwt>
<pdfrwt beam="1">  1        2 0.22315956E-01 0.86666305E+02</pdfrwt>
<pdfrwt beam="2">  1       -2 0.29574855E-02 0.86666305E+02</pdfrwt>
<totfact> 0.89646930E+04</totfact>
</mgrwt>
</event>
<event>
 6    1  0.1683416E-002  0.9324233E+02  0.7546771E-02  0.1412510E+00
          2   -1    0    0  501    0  0.00000000000E+00  0.00000000000E+00  0.65189667266E+03  0.65189667266E+03  0.00000000000E+00 0. -1.
         -2   -1    0    0    0  501 -0.00000000000E+00 -0.00000000000E+00 -0.43066613375E+01  0.43066613375E+01  0.00000000000E+00 0.  1.
         23    2    1    2    0    0  0.11214415632E+02  0.59463511691E+01  0.57538001893E+03  0.58288617903E+03  0.92374289270E+02 0.  0.
         13    1    3    3    0    0  0.63798820266E+01 -0.30701257710E+02  0.47298247596E+03  0.47402077242E+03  0.00000000000E+00 0. -1.
        -13    1    3    3    0    0  0.48345336056E+01  0.36647608879E+02  0.10239754297E+03  0.10886540661E+03  0.00000000000E+00 0.  1.
         22    1    1    2    0    0 -0.11214415632E+02 -0.59463511691E+01  0.72209992398E+02  0.73317154967E+02  0.00000000000E+00 0. -1.
<mgrwt>
<rscale>  0 0.56637523E+02</rscale>
<asrwt>0</asrwt>
<pdfrwt beam="1">  1        2 0.10029172E+00 0.93242327E+02</pdfrwt>
<pdfrwt beam="2">  1       -2 0.66256380E-03 0.93242327E+02</pdfrwt>
<totfact> 0.15329380E+05</totfact>
</mgrwt>
</event>
<event>
 6    1  0.1683416E-002  0.9837589E+02  0.7546771E-02  0.1342237E+00
         -2   -1    0    0    0  501 -0.00000000000E+00  0.00000000000E+00  0.29580352170E+02  0.29580352170E+02  0.00000000000E+00 0.  1.
          2   -1    0    0  501    0  0.00000000000E+00 -0.00000000000E+00 -0.17383931408E+03  0.17383931408E+03  0.00000000000E+00 0. -1.
         23    2    1    2    0    0 -0.16527813831E+02 -0.29921948158E+02 -0.13668728176E+03  0.16840792605E+03  0.92246002352E+02 0.  0.
         13    1    3    3    0    0 -0.39060306283E+02 -0.19498582825E+02 -0.13678319889E+03  0.14358114694E+03  0.00000000000E+00 0. -1.
        -13    1    3    3    0    0  0.22532492452E+02 -0.10423365333E+02  0.95917123914E-01  0.24826779112E+02  0.00000000000E+00 0.  1.
         22    1    1    2    0    0  0.16527813831E+02  0.29921948158E+02 -0.75716801497E+01  0.35011740201E+02  0.00000000000E+00 0.  1.
<mgrwt>
<rscale>  0 0.75530041E+02</rscale>
<asrwt>0</asrwt>
<pdfrwt beam="1">  1        2 0.26744510E-01 0.98375894E+02</pdfrwt>
<pdfrwt beam="2">  1       -2 0.45508234E-02 0.98375894E+02</pdfrwt>
<totfact> 0.39801285E+04</totfact>
</mgrwt>
</event>
<event>
 6    1  0.1683416E-002  0.8974206E+02  0.7546771E-02  0.1414049E+00
         -2   -1    0    0    0  501 -0.00000000000E+00  0.00000000000E+00  0.13944013432E+02  0.13944013432E+02  0.00000000000E+00 0.  1.
          2   -1    0    0  501    0  0.00000000000E+00 -0.00000000000E+00 -0.20494409287E+03  0.20494409287E+03  0.00000000000E+00 0. -1.
         23    2    1    2    0    0 -0.35085509364E+00 -0.13896678538E+02 -0.14222971912E+03  0.16817529905E+03  0.88658882447E+02 0.  0.
         11    1    3    3    0    0 -0.14539649864E+02  0.29717750297E+02 -0.10178006975E+03  0.10702209445E+03  0.00000000000E+00 0. -1.
        -11    1    3    3    0    0  0.14188794770E+02 -0.43614428835E+02 -0.40449649369E+02  0.61153204607E+02  0.00000000000E+00 0.  1.
         22    1    1    2    0    0  0.35085509364E+00  0.13896678538E+02 -0.48770360316E+02  0.50712807248E+02  0.00000000000E+00 0. -1.
<mgrwt>
<rscale>  0 0.56300129E+02</rscale>
<asrwt>0</asrwt>
<pdfrwt beam="1">  1        2 0.31529858E-01 0.89742065E+02</pdfrwt>
<pdfrwt beam="2">  1       -2 0.21452330E-02 0.89742065E+02</pdfrwt>
<totfact> 0.98620556E+04</totfact>
</mgrwt>
</event>
<event>
 6    1  0.1683416E-002  0.9382325E+02  0.7546771E-02  0.1381131E+00
          2   -1    0    0  501    0  0.00000000000E+00  0.00000000000E+00  0.88393679461E+02  0.88393679461E+02  0.00000000000E+00 0.  1.
         -2   -1    0    0    0  501 -0.00000000000E+00 -0.00000000000E+00 -0.76682109643E+02  0.76682109643E+02  0.00000000000E+00 0. -1.
         23    2    1    2    0    0  0.95895173906E+01 -0.18149477024E+02  0.60845955775E+02  0.11182590419E+03  0.91550205644E+02 0.  0.
         11    1    3    3    0    0  0.46331082965E+02  0.68780248037E+01  0.18285635028E+02  0.50281616147E+02  0.00000000000E+00 0.  1.
        -11    1    3    3    0    0 -0.36741565575E+02 -0.25027501827E+02  0.42560320747E+02  0.61544288043E+02  0.00000000000E+00 0. -1.
         22    1    1    2    0    0 -0.95895173906E+01  0.18149477024E+02 -0.49134385957E+02  0.53249884915E+02  0.00000000000E+00 0. -1.
<mgrwt>
<rscale>  0 0.64167457E+02</rscale>
<asrwt>0</asrwt>
<pdfrwt beam="1">  1        2 0.13599028E-01 0.93823251E+02</pdfrwt>
<pdfrwt beam="2">  1       -2 0.11797248E-01 0.93823251E+02</pdfrwt>
<totfact> 0.19842079E+04</totfact>
</mgrwt>
</event>
<event>
 6    1  0.1683416E-002  0.1597171E+03  0.7546771E-02  0.1198040E+00
         -2   -1    0    0    0  501 -0.00000000000E+00  0.00000000000E+00  0.20384012166E+02  0.20384012166E+02  0.00000000000E+00 0.  1.
          2   -1    0    0  501    0  0.00000000000E+00 -0.00000000000E+00 -0.10372652300E+04  0.10372652300E+04  0.00000000000E+00 0. -1.
         23    2    1    2    0    0  0.12695289104E+03 -0.32333916060E+02 -0.54523876223E+03  0.56815039170E+03  0.91362142541E+02 0.  0.
         13    1    3    3    0    0  0.68219314967E+01  0.15551878348E+02 -0.17796258166E+03  0.17877102713E+03  0.00000000000E+00 0. -1.
        -13    1    3    3    0    0  0.12013095954E+03 -0.47885794408E+02 -0.36727618056E+03  0.38937936457E+03  0.00000000000E+00 0.  1.
         22    1    1    2    0    0 -0.12695289104E+03  0.32333916060E+02 -0.47164245559E+03  0.48949885044E+03  0.00000000000E+00 0. -1.
<mgrwt>
<rscale>  0 0.15199743E+03</rscale>
<asrwt>0</asrwt>
<pdfrwt beam="1">  1        2 0.15957929E+00 0.15971712E+03</pdfrwt>
<pdfrwt beam="2">  1       -2 0.31360015E-02 0.15971712E+03</pdfrwt>
<totfact> 0.96192128E+03</totfact>
</mgrwt>
</event>
<event>
 6    1  0.1683416E-002  0.9281919E+02  0.7546771E-02  0.1397965E+00
          2   -1    0    0  501    0  0.00000000000E+00  0.00000000000E+00  0.15669495332E+03  0.15669495332E+03  0.00000000000E+00 0. -1.
         -2   -1    0    0    0  501 -0.00000000000E+00 -0.00000000000E+00 -0.35741024260E+02  0.35741024260E+02  0.00000000000E+00 0.  1.
         23    2    1    2    0    0  0.15813002553E+02 -0.33900093556E+01  0.26388210997E+02  0.96497360507E+02  0.91399451268E+02 0.  0.
         13    1    3    3    0    0 -0.10670160269E+02  0.38984549139E+02  0.95966925023E+00  0.40429795409E+02  0.00000000000E+00 0.  1.
        -13    1    3    3    0    0  0.26483162822E+02 -0.42374558495E+02  0.25428541746E+02  0.56067565098E+02  0.00000000000E+00 0. -1.
         22    1    1    2    0    0 -0.15813002553E+02  0.33900093556E+01  0.94565718059E+02  0.95938617069E+02  0.00000000000E+00 0. -1.
<mgrwt>
<rscale>  0 0.59968237E+02</rscale>
<asrwt>0</asrwt>
<pdfrwt beam="1">  1        2 0.24106916E-01 0.92819195E+02</pdfrwt>
<pdfrwt beam="2">  1       -2 0.54986192E-02 0.92819195E+02</pdfrwt>
<totfact> 0.33395001E+04</totfact>
</mgrwt>
</event>
<event>
 6    1  0.1683416E-002  0.8608322E+02  0.7546771E-02  0.1437085E+00
          2   -1    0    0  501    0  0.00000000000E+00  0.00000000000E+00  0.23686048258E+03  0.23686048258E+03  0.00000000000E+00 0. -1.
         -2   -1    0    0    0  501 -0.00000000000E+00 -0.00000000000E+00 -0.99862150356E+01  0.99862150356E+01  0.00000000000E+00 0.  1.
         23    2    1    2    0    0 -0.75470799760E+01  0.81151090036E+01  0.20444713663E+03  0.22183091038E+03  0.85366900554E+02 0.  0.
         11    1    3    3    0    0  0.23873490308E+02  0.35961016837E+02  0.11991358443E+03  0.12744569825E+03  0.00000000000E+00 0. -1.
        -11    1    3    3    0    0 -0.31420570284E+02 -0.27845907833E+02  0.84533552207E+02  0.94385212130E+02  0.00000000000E+00 0.  1.
         22    1    1    2    0    0  0.75470799760E+01 -0.81151090036E+01  0.22427130906E+02  0.25015787235E+02  0.00000000000E+00 0. -1.
<mgrwt>
<rscale>  0 0.51563764E+02</rscale>
<asrwt>0</asrwt>
<pdfrwt beam="1">  1        2 0.36440070E-01 0.86083222E+02</pdfrwt>
<pdfrwt beam="2">  1       -2 0.15363410E-02 0.86083222E+02</pdfrwt>
<totfact> 0.13555851E+05</totfact>
</mgrwt>
</event>
<event>
 6    1  0.1683416E-002  0.9291267E+02  0.7546771E-02  0.1414635E+00
          2   -1    0    0  501    0  0.00000000000E+00  0.00000000000E+00  0.13183777641E+03  0.13183777641E+03  0.00000000000E+00 0. -1.
         -2   -1    0    0    0  501 -0.00000000000E+00 -0.00000000000E+00 -0.21038036680E+02  0.21038036680E+02  0.00000000000E+00 0.  1.
         23    2    1    2    0    0  0.12282140455E+02  0.17957162470E+01  0.97271470682E+02  0.13451581215E+03  0.92079797674E+02 0.  0.
         13    1    3    3    0    0 -0.13020128274E+02  0.34688276910E+02  0.82549577106E+02  0.90483329822E+02  0.00000000000E+00 0. -1.
        -13    1    3    3    0    0  0.25302268729E+02 -0.32892560663E+02  0.14721893575E+02  0.44032482331E+02  0.00000000000E+00 0.  1.
         22    1    1    2    0    0 -0.12282140455E+02 -0.17957162470E+01  0.13528269053E+02  0.18360000942E+02  0.00000000000E+00 0. -1.
<mgrwt>
<rscale>  0 0.56172395E+02</rscale>
<asrwt>0</asrwt>
<pdfrwt beam="1">  1        2 0.20282734E-01 0.92912672E+02</pdfrwt>
<pdfrwt beam="2">  1       -2 0.32366211E-02 0.92912672E+02</pdfrwt>
<totfact> 0.88336362E+04</totfact>
</mgrwt>
</event>
<event>
 6    1  0.1683416E-002  0.9503444E+02  0.7546771E-02  0.1369636E+00
          2   -1    0    0  501    0  0.00000000000E+00  0.00000000000E+00  0.17772694101E+03  0.17772694101E+03  0.00000000000E+00 0. -1.
         -2   -1    0    0    0  501 -0.00000000000E+00 -0.00000000000E+00 -0.19932210355E+02  0.19932210355E+02  0.00000000000E+00 0.  1.
         23    2    1    2    0    0 -0.23097104185E+02 -0.59702167774E+01  0.12208026552E+03  0.15470984718E+03  0.91991444576E+02 0.  0.
         11    1    3    3    0    0 -0.91878214619E+01 -0.48702252403E+02  0.55810870075E+02  0.74640328716E+02  0.00000000000E+00 0. -1.
        -11    1    3    3    0    0 -0.13909282723E+02  0.42732035625E+02  0.66269395443E+02  0.80069518463E+02  0.00000000000E+00 0.  1.
         22    1    1    2    0    0  0.23097104185E+02  0.59702167774E+01  0.35714465141E+02  0.42949304190E+02  0.00000000000E+00 0. -1.
<mgrwt>
<rscale>  0 0.67268421E+02</rscale>
<asrwt>0</asrwt>
<pdfrwt beam="1">  1        2 0.27342605E-01 0.95034444E+02</pdfrwt>
<pdfrwt beam="2">  1       -2 0.30664940E-02 0.95034444E+02</pdfrwt>
<totfact> 0.69080047E+04</totfact>
</mgrwt>
</event>
<event>
 6    1  0.1683416E-002  0.8910987E+02  0.7546771E-02  0.1406957E+00
         -2   -1    0    0    0  501 -0.00000000000E+00  0.00000000000E+00  0.70686351597E+02  0.70686351597E+02  0.00000000000E+00 0.  1.
          2   -1    0    0  501    0  0.00000000000E+00 -0.00000000000E+00 -0.48891542599E+02  0.48891542599E+02  0.00000000000E+00 0. -1.
         23    2    1    2    0    0  0.88126228747E+01 -0.13185599420E+02  0.38026605907E+02  0.96884424102E+02  0.87687208432E+02 0.  0.
         11    1    3    3    0    0 -0.37605098312E+02  0.36423760239E+00  0.41319600678E+01  0.37833175681E+02  0.00000000000E+00 0.  1.
        -11    1    3    3    0    0  0.46417721187E+02 -0.13549837023E+02  0.33894645840E+02  0.59051248421E+02  0.00000000000E+00 0. -1.
         22    1    1    2    0    0 -0.88126228747E+01  0.13185599420E+02 -0.16231796910E+02  0.22693470094E+02  0.00000000000E+00 0.  1.
<mgrwt>
<rscale>  0 0.57878388E+02</rscale>
<asrwt>0</asrwt>
<pdfrwt beam="1">  1        2 0.75217758E-02 0.89109870E+02</pdfrwt>
<pdfrwt beam="2">  1       -2 0.10874823E-01 0.89109870E+02</pdfrwt>
<totfact> 0.45876371E+04</totfact>
</mgrwt>
</event>
<event>
 6    1  0.1683416E-002  0.9042644E+02  0.7546771E-02  0.1428597E+00
         -1   -1    0    0    0  501 -0.00000000000E+00  0.00000000000E+00  0.38349455125E+03  0.38349455125E+03  0.00000000000E+00 0.  1.
          1   -1    0    0  501    0  0.00000000000E+00 -0.00000000000E+00 -0.76956077166E+01  0.76956077166E+01  0.00000000000E+00 0. -1.
         23    2    1    2    0    0 -0.33320749642E+01 -0.10344619259E+02  0.36435300189E+03  0.37540651391E+03  0.89770968739E+02 0.  0.
         13    1    3    3    0    0  0.31963996538E+02 -0.25039403010E+02  0.27824743350E+03  0.28119442212E+03  0.00000000000E+00 0. -1.
        -13    1    3    3    0    0 -0.35296071502E+02  0.14694783751E+02  0.86105568384E+02  0.94212091791E+02  0.00000000000E+00 0.  1.
         22    1    1    2    0    0  0.33320749642E+01  0.10344619259E+02  0.11445941644E+02  0.15783645058E+02  0.00000000000E+00 0. -1.
<mgrwt>
<rscale>  0 0.53242591E+02</rscale>
<asrwt>0</asrwt>
<pdfrwt beam="1">  1        1 0.11839399E-02 0.90426438E+02</pdfrwt>
<pdfrwt beam="2">  1       -1 0.58999147E-01 0.90426438E+02</pdfrwt>
<totfact> 0.33435601E+04</totfact>
</mgrwt>
</event>
<event>
 6    1  0.1683416E-002  0.1392441E+03  0.7546771E-02  0.1227381E+00
          2   -1    0    0  501    0  0.00000000000E+00  0.00000000000E+00  0.11178932691E+04  0.11178932691E+04  0.00000000000E+00 0. -1.
         -2   -1    0    0    0  501 -0.00000000000E+00 -0.00000000000E+00 -0.15984530006E+02  0.15984530006E+02  0.00000000000E+00 0.  1.
         23    2    1    2    0    0 -0.63525436097E+02 -0.84797544147E+02  0.83807836555E+03  0.84956710545E+03  0.90348300088E+02 0.  0.
         11    1    3    3    0    0 -0.38474445012E+02  0.62235756740E+01  0.37114517505E+03  0.37318595469E+03  0.00000000000E+00 0. -1.
        -11    1    3    3    0    0 -0.25050991085E+02 -0.91021119821E+02  0.46693319050E+03  0.47638115076E+03  0.00000000000E+00 0.  1.
         22    1    1    2    0    0  0.63525436097E+02  0.84797544147E+02  0.26383037354E+03  0.28431069365E+03  0.00000000000E+00 0. -1.
<mgrwt>
<rscale>  0 0.13005026E+03</rscale>
<asrwt>0</asrwt>
<pdfrwt beam="1">  1        2 0.17198352E+00 0.13924410E+03</pdfrwt>
<pdfrwt beam="2">  1       -2 0.24591593E-02 0.13924410E+03</pdfrwt>
<totfact> 0.12256493E+04</totfact>
</mgrwt>
</event>
<event>
 6    1  0.1683416E-002  0.9791813E+02  0.7546771E-02  0.1345714E+00
          2   -1    0    0  501    0  0.00000000000E+00  0.00000000000E+00  0.74599815910E+01  0.74599815910E+01  0.00000000000E+00 0. -1.
         -2   -1    0    0    0  501 -0.00000000000E+00 -0.00000000000E+00 -0.63028811810E+03  0.63028811810E+03  0.00000000000E+00 0.  1.
         23    2    1    2    0    0 -0.14307514279E+02  0.29349034070E+02 -0.53829622199E+03  0.54712958426E+03  0.92314075873E+02 0.  0.
         13    1    3    3    0    0  0.98330459997E+01 -0.30992346625E+02 -0.15660188393E+03  0.15994175312E+03  0.00000000000E+00 0. -1.
        -13    1    3    3    0    0 -0.24140560279E+02  0.60341380694E+02 -0.38169433806E+03  0.38718783114E+03  0.00000000000E+00 0.  1.
         22    1    1    2    0    0  0.14307514279E+02 -0.29349034070E+02 -0.84531914520E+02  0.90618515426E+02  0.00000000000E+00 0. -1.
<mgrwt>
<rscale>  0 0.74408161E+02</rscale>
<asrwt>0</asrwt>
<pdfrwt beam="1">  1        2 0.11476892E-02 0.97918126E+02</pdfrwt>
<pdfrwt beam="2">  1       -2 0.96967424E-01 0.97918126E+02</pdfrwt>
<totfact> 0.98480009E+03</totfact>
</mgrwt>
</event>
<event>
 6    1  0.1683416E-002  0.9440354E+02  0.7546771E-02  0.1374612E+00
         -4   -1    0    0    0  501 -0.00000000000E+00  0.00000000000E+00  0.18915857250E+03  0.18915857250E+03  0.00000000000E+00 0.  1.
          4   -1    0    0  501    0  0.00000000000E+00 -0.00000000000E+00 -0.18059427402E+02  0.18059427402E+02  0.00000000000E+00 0. -1.
         23    2    1    2    0    0  0.21906415281E+02 -0.47674611252E+01  0.14106427626E+03  0.16973849801E+03  0.91702824130E+02 0.  0.
         13    1    3    3    0    0  0.25539426072E+02 -0.33418208618E+02  0.22484873980E+02  0.47692855956E+02  0.00000000000E+00 0. -1.
        -13    1    3    3    0    0 -0.36330107908E+01  0.28650747492E+02  0.11857940228E+03  0.12204564205E+03  0.00000000000E+00 0.  1.
         22    1    1    2    0    0 -0.21906415281E+02  0.47674611252E+01  0.30034868840E+02  0.37479501895E+02  0.00000000000E+00 0. -1.
<mgrwt>
<rscale>  0 0.65901627E+02</rscale>
<asrwt>0</asrwt>
<pdfrwt beam="1">  1        4 0.27783736E-02 0.94403536E+02</pdfrwt>
<pdfrwt beam="2">  1       -4 0.29101317E-01 0.94403536E+02</pdfrwt>
<totfact> 0.10086367E+04</totfact>
</mgrwt>
</event>
<event>
 6    1  0.1683416E-002  0.9132602E+02  0.7546771E-02  0.1423028E+00
          2   -1    0    0  501    0  0.00000000000E+00  0.00000000000E+00  0.42832462471E+02  0.42832462471E+02  0.00000000000E+00 0. -1.
         -2   -1    0    0    0  501 -0.00000000000E+00 -0.00000000000E+00 -0.62315953463E+02  0.62315953463E+02  0.00000000000E+00 0.  1.
         23    2    1    2    0    0 -0.91757184830E+01  0.69080845311E+01 -0.20562901554E+02  0.93612360770E+02  0.90600914604E+02 0.  0.
         13    1    3    3    0    0 -0.33296479927E+02  0.14268640428E+02  0.23261028471E+02  0.43050262726E+02  0.00000000000E+00 0. -1.
        -13    1    3    3    0    0  0.24120761444E+02 -0.73605558971E+01 -0.43823930026E+02  0.50562098044E+02  0.00000000000E+00 0.  1.
         22    1    1    2    0    0  0.91757184830E+01 -0.69080845311E+01  0.10794105618E+01  0.11536055163E+02  0.00000000000E+00 0.  1.
<mgrwt>
<rscale>  0 0.54385464E+02</rscale>
<asrwt>0</asrwt>
<pdfrwt beam="1">  1        2 0.65896096E-02 0.91326016E+02</pdfrwt>
<pdfrwt beam="2">  1       -2 0.95870698E-02 0.91326016E+02</pdfrwt>
<totfact> 0.66144947E+04</totfact>
</mgrwt>
</event>
<event>
 6    1  0.1683416E-002  0.9023291E+02  0.7546771E-02  0.1431267E+00
         -2   -1    0    0    0  501 -0.00000000000E+00  0.00000000000E+00  0.21783315003E+02  0.21783315003E+02  0.00000000000E+00 0.  1.
          2   -1    0    0  501    0  0.00000000000E+00 -0.00000000000E+00 -0.11656357278E+03  0.11656357278E+03  0.00000000000E+00 0. -1.
         23    2    1    2    0    0  0.67058937102E+01  0.80850409597E+01 -0.83633477850E+02  0.12303063496E+03  0.89619426598E+02 0.  0.
         13    1    3    3    0    0  0.94537552895E+01  0.41950749475E+02 -0.77317378519E+02  0.88471554138E+02  0.00000000000E+00 0. -1.
        -13    1    3    3    0    0 -0.27478615793E+01 -0.33865708516E+02 -0.63160993315E+01  0.34559080822E+02  0.00000000000E+00 0.  1.
         22    1    1    2    0    0 -0.67058937102E+01 -0.80850409597E+01 -0.11146779926E+02  0.15316252821E+02  0.00000000000E+00 0. -1.
<mgrwt>
<rscale>  0 0.52706458E+02</rscale>
<asrwt>0</asrwt>
<pdfrwt beam="1">  1        2 0.17932857E-01 0.90232913E+02</pdfrwt>
<pdfrwt beam="2">  1       -2 0.33512793E-02 0.90232913E+02</pdfrwt>
<totfact> 0.95989655E+04</totfact>
</mgrwt>
</event>
<event>
 6    1  0.1683416E-002  0.9228154E+02  0.7546771E-02  0.1403925E+00
          3   -1    0    0  501    0  0.00000000000E+00  0.00000000000E+00  0.36375225869E+02  0.36375225869E+02  0.00000000000E+00 0. -1.
         -3   -1    0    0    0  501 -0.00000000000E+00 -0.00000000000E+00 -0.16431904317E+03  0.16431904317E+03  0.00000000000E+00 0.  1.
         23    2    1    2    0    0  0.81530050035E+00  0.14954254869E+02 -0.14875522500E+03  0.17505427792E+03  0.91058161633E+02 0.  0.
         11    1    3    3    0    0  0.30367816871E+02  0.26806710481E+02 -0.13394827121E+03  0.13993907027E+03  0.00000000000E+00 0.  1.
        -11    1    3    3    0    0 -0.29552516371E+02 -0.11852455612E+02 -0.14806953796E+02  0.35115207654E+02  0.00000000000E+00 0. -1.
         22    1    1    2    0    0 -0.81530050035E+00 -0.14954254869E+02  0.20811407705E+02  0.25639991113E+02  0.00000000000E+00 0. -1.
<mgrwt>
<rscale>  0 0.58571784E+02</rscale>
<asrwt>0</asrwt>
<pdfrwt beam="1">  1        3 0.55961886E-02 0.92281543E+02</pdfrwt>
<pdfrwt beam="2">  1       -3 0.25279853E-01 0.92281543E+02</pdfrwt>
<totfact> 0.58649044E+03</totfact>
</mgrwt>
</event>
<event>
 6    1  0.1683416E-002  0.8781982E+02  0.7546771E-02  0.1365033E+00
          2   -1    0    0  501    0  0.00000000000E+00  0.00000000000E+00  0.17040966374E+03  0.17040966374E+03  0.00000000000E+00 0.  1.
         -2   -1    0    0    0  501 -0.00000000000E+00 -0.00000000000E+00 -0.23564945526E+02  0.23564945526E+02  0.00000000000E+00 0. -1.
         23    2    1    2    0    0 -0.14936094678E+02  0.29017800760E+02  0.76656896882E+02  0.11657015236E+03  0.81530367944E+02 0.  0.
         11    1    3    3    0    0 -0.91441784113E+01  0.11696459931E+02 -0.16176703945E+02  0.21956978942E+02  0.00000000000E+00 0. -1.
        -11    1    3    3    0    0 -0.57919162669E+01  0.17321340828E+02  0.92833600827E+02  0.94613173420E+02  0.00000000000E+00 0.  1.
         22    1    1    2    0    0  0.14936094678E+02 -0.29017800760E+02  0.70187821336E+02  0.77404456907E+02  0.00000000000E+00 0.  1.
<mgrwt>
<rscale>  0 0.68567640E+02</rscale>
<asrwt>0</asrwt>
<pdfrwt beam="1">  1        2 0.26216870E-01 0.87819819E+02</pdfrwt>
<pdfrwt beam="2">  1       -2 0.36253764E-02 0.87819819E+02</pdfrwt>
<totfact> 0.55995357E+04</totfact>
</mgrwt>
</event>
<event>
 6    1  0.1683416E-002  0.9723822E+02  0.7546771E-02  0.1402164E+00
          2   -1    0    0  501    0  0.00000000000E+00  0.00000000000E+00  0.12116774593E+03  0.12116774593E+03  0.00000000000E+00 0. -1.
         -2   -1    0    0    0  501 -0.00000000000E+00 -0.00000000000E+00 -0.31734660211E+02  0.31734660211E+02  0.00000000000E+00 0.  1.
         23    2    1    2    0    0 -0.20763785542E+01  0.12996498053E+02  0.46096115040E+02  0.10761097939E+03  0.96343400158E+02 0.  0.
         13    1    3    3    0    0 -0.33518404132E+02 -0.70153604998E+01  0.58959750415E+02  0.68183215438E+02  0.00000000000E+00 0. -1.
        -13    1    3    3    0    0  0.31442025578E+02  0.20011858552E+02 -0.12863635375E+02  0.39427763952E+02  0.00000000000E+00 0.  1.
         22    1    1    2    0    0  0.20763785542E+01 -0.12996498053E+02  0.43336970682E+02  0.45291426754E+02  0.00000000000E+00 0. -1.
<mgrwt>
<rscale>  0 0.58979705E+02</rscale>
<asrwt>0</asrwt>
<pdfrwt beam="1">  1        2 0.18641192E-01 0.97238218E+02</pdfrwt>
<pdfrwt beam="2">  1       -2 0.48822555E-02 0.97238218E+02</pdfrwt>
<totfact> 0.53365122E+04</totfact>
</mgrwt>
</event>
<event>
 6    1  0.1683416E-002  0.9283503E+02  0.7546771E-02  0.1384823E+00
         -2   -1    0    0    0  501 -0.00000000000E+00  0.00000000000E+00  0.39484785185E+02  0.39484785185E+02  0.00000000000E+00 0.  1.
          2   -1    0    0  501    0  0.00000000000E+00 -0.00000000000E+00 -0.94862715036E+02  0.94862715036E+02  0.00000000000E+00 0. -1.
         23    2    1    2    0    0 -0.17333659294E+02 -0.98896644871E+01 -0.21916626387E+02  0.95387006928E+02  0.90664664397E+02 0.  0.
         13    1    3    3    0    0 -0.68422926312E+01  0.29166938607E+02 -0.40910971491E+02  0.50707345272E+02  0.00000000000E+00 0. -1.
        -13    1    3    3    0    0 -0.10491366663E+02 -0.39056603095E+02  0.18994345104E+02  0.44679661656E+02  0.00000000000E+00 0.  1.
         22    1    1    2    0    0  0.17333659294E+02  0.98896644871E+01 -0.33461303463E+02  0.38960493293E+02  0.00000000000E+00 0. -1.
<mgrwt>
<rscale>  0 0.63212783E+02</rscale>
<asrwt>0</asrwt>
<pdfrwt beam="1">  1        2 0.14594264E-01 0.92835029E+02</pdfrwt>
<pdfrwt beam="2">  1       -2 0.60745824E-02 0.92835029E+02</pdfrwt>
<totfact> 0.50636369E+04</totfact>
</mgrwt>
</event>
<event>
 6    1  0.1683416E-002  0.1016844E+03  0.7546771E-02  0.1332013E+00
          2   -1    0    0  501    0  0.00000000000E+00  0.00000000000E+00  0.10310929933E+02  0.10310929933E+02  0.00000000000E+00 0. -1.
         -2   -1    0    0    0  501 -0.00000000000E+00 -0.00000000000E+00 -0.48045959104E+03  0.48045959104E+03  0.00000000000E+00 0.  1.
         23    2    1    2    0    0  0.12722585534E+02  0.34724739315E+02 -0.37903465989E+03  0.39243724623E+03  0.94720890677E+02 0.  0.
         13    1    3    3    0    0  0.17670795100E+02 -0.63258046876E+01 -0.10334805971E+02  0.21426176021E+02  0.00000000000E+00 0. -1.
        -13    1    3    3    0    0 -0.49482095658E+01  0.41050544003E+02 -0.36869985392E+03  0.37101107021E+03  0.00000000000E+00 0.  1.
         22    1    1    2    0    0 -0.12722585534E+02 -0.34724739315E+02 -0.91114001215E+02  0.98333274737E+02  0.00000000000E+00 0. -1.
<mgrwt>
<rscale>  0 0.78965703E+02</rscale>
<asrwt>0</asrwt>
<pdfrwt beam="1">  1        2 0.15862969E-02 0.10168441E+03</pdfrwt>
<pdfrwt beam="2">  1       -2 0.73916862E-01 0.10168441E+03</pdfrwt>
<totfact> 0.11562823E+04</totfact>
</mgrwt>
</event>
<event>
 6    1  0.1683416E-002  0.1023819E+03  0.7546771E-02  0.1407744E+00
          4   -1    0    0  501    0  0.00000000000E+00  0.00000000000E+00  0.11254216250E+03  0.11254216250E+03  0.00000000000E+00 0. -1.
         -4   -1    0    0    0  501 -0.00000000000E+00 -0.00000000000E+00 -0.44828997607E+02  0.44828997607E+02  0.00000000000E+00 0.  1.
         23    2    1    2    0    0 -0.10138363732E+02  0.19734741569E+01  0.14784164035E+02  0.10344380016E+03  0.10185954676E+03 0.  0.
         11    1    3    3    0    0 -0.19540829461E+02 -0.43022535208E+02 -0.13907574397E+02  0.49256503909E+02  0.00000000000E+00 0.  1.
        -11    1    3    3    0    0  0.94024657287E+01  0.44996009364E+02  0.28691738432E+02  0.54187296249E+02  0.00000000000E+00 0. -1.
         22    1    1    2    0    0  0.10138363732E+02 -0.19734741569E+01  0.52929000859E+02  0.53927359951E+02  0.00000000000E+00 0. -1.
<mgrwt>
<rscale>  0 0.57700318E+02</rscale>
<asrwt>0</asrwt>
<pdfrwt beam="1">  1        4 0.17314179E-01 0.10238187E+03</pdfrwt>
<pdfrwt beam="2">  1       -4 0.68967689E-02 0.10238187E+03</pdfrwt>
<totfact> 0.62496727E+03</totfact>
</mgrwt>
</event>
<event>
 6    1  0.1683416E-002  0.9182119E+02  0.7546771E-02  0.1391337E+00
          1   -1    0    0  501    0  0.00000000000E+00  0.00000000000E+00  0.35651811564E+02  0.35651811564E+02  0.00000000000E+00 0. -1.
         -1   -1    0    0    0  501 -0.00000000000E+00 -0.00000000000E+00 -0.92325558897E+02  0.92325558897E+02  0.00000000000E+00 0.  1.
         23    2    1    2    0    0 -0.17361479193E+02 -0.65883612963E+01 -0.59179045721E+02  0.10923960153E+03  0.89923876844E+02 0.  0.
         11    1    3    3    0    0  0.22486087722E+02 -0.21574160853E+02  0.56616274002E+01  0.31672110482E+02  0.00000000000E+00 0.  1.
        -11    1    3    3    0    0 -0.39847566915E+02  0.14985799557E+02 -0.64840673121E+02  0.77567491053E+02  0.00000000000E+00 0. -1.
         22    1    1    2    0    0  0.17361479193E+02  0.65883612963E+01  0.25052983875E+01  0.18737768927E+02  0.00000000000E+00 0. -1.
<mgrwt>
<rscale>  0 0.61575426E+02</rscale>
<asrwt>0</asrwt>
<pdfrwt beam="1">  1        1 0.54848941E-02 0.91821191E+02</pdfrwt>
<pdfrwt beam="2">  1       -1 0.14203932E-01 0.91821191E+02</pdfrwt>
<totfact> 0.44298616E+04</totfact>
</mgrwt>
</event>
<event>
 6    1  0.1683416E-002  0.9678018E+02  0.7546771E-02  0.1352187E+00
          4   -1    0    0  501    0  0.00000000000E+00  0.00000000000E+00  0.86621396184E+02  0.86621396184E+02  0.00000000000E+00 0. -1.
         -4   -1    0    0    0  501 -0.00000000000E+00 -0.00000000000E+00 -0.47942298230E+02  0.47942298230E+02  0.00000000000E+00 0.  1.
         23    2    1    2    0    0 -0.92352425253E+01 -0.28831570777E+02  0.19499387946E+02  0.98725021810E+02  0.91923090805E+02 0.  0.
         11    1    3    3    0    0 -0.28389302836E+02 -0.12522456348E+01  0.47267865927E+02  0.55152260008E+02  0.00000000000E+00 0. -1.
        -11    1    3    3    0    0  0.19154060311E+02 -0.27579325142E+02 -0.27768477981E+02  0.43572761802E+02  0.00000000000E+00 0.  1.
         22    1    1    2    0    0  0.92352425253E+01  0.28831570777E+02  0.19179710009E+02  0.35838672603E+02  0.00000000000E+00 0. -1.
<mgrwt>
<rscale>  0 0.72378454E+02</rscale>
<asrwt>0</asrwt>
<pdfrwt beam="1">  1        4 0.13326369E-01 0.96780183E+02</pdfrwt>
<pdfrwt beam="2">  1       -4 0.73757382E-02 0.96780183E+02</pdfrwt>
<totfact> 0.86853379E+03</totfact>
</mgrwt>
</event>
<event>
 6    1  0.1683416E-002  0.9242501E+02  0.7546771E-02  0.1397437E+00
          1   -1    0    0  501    0  0.00000000000E+00  0.00000000000E+00  0.33839257019E+03  0.33839257019E+03  0.00000000000E+00 0. -1.
         -1   -1    0    0    0  501 -0.00000000000E+00 -0.00000000000E+00 -0.87699521772E+01  0.87699521772E+01  0.00000000000E+00 0.  1.
         23    2    1    2    0    0 -0.48140315924E+01 -0.15801113449E+02  0.28129158878E+03  0.29608671133E+03  0.90936970598E+02 0.  0.
         13    1    3    3    0    0 -0.70282844335E+01 -0.16204403769E+02  0.28824113124E+03  0.28878180209E+03  0.00000000000E+00 0. -1.
        -13    1    3    3    0    0  0.22142528411E+01  0.40329032073E+00 -0.69495424523E+01  0.73049092413E+01  0.00000000000E+00 0.  1.
         22    1    1    2    0    0  0.48140315924E+01  0.15801113449E+02  0.48331029230E+02  0.51075811035E+02  0.00000000000E+00 0.  1.
<mgrwt>
<rscale>  0 0.60094212E+02</rscale>
<asrwt>0</asrwt>
<pdfrwt beam="1">  1        1 0.52060386E-01 0.92425011E+02</pdfrwt>
<pdfrwt beam="2">  1       -1 0.13492237E-02 0.92425011E+02</pdfrwt>
<totfact> 0.79360854E+04</totfact>
</mgrwt>
</event>
<event>
 6    1  0.1683416E-002  0.9177942E+02  0.7546771E-02  0.1423346E+00
          2   -1    0    0  501    0  0.00000000000E+00  0.00000000000E+00  0.60346274071E+02  0.60346274071E+02  0.00000000000E+00 0. -1.
         -2   -1    0    0    0  501 -0.00000000000E+00 -0.00000000000E+00 -0.52175538923E+02  0.52175538923E+02  0.00000000000E+00 0.  1.
         23    2    1    2    0    0  0.40669848766E+01  0.10501051847E+02 -0.87508496245E+01  0.92195660208E+02  0.91085948072E+02 0.  0.
         11    1    3    3    0    0 -0.41145272839E+02  0.14297238187E+02  0.71037068645E+01  0.44133968187E+02  0.00000000000E+00 0. -1.
        -11    1    3    3    0    0  0.45212257715E+02 -0.37961863396E+01 -0.15854556489E+02  0.48061692021E+02  0.00000000000E+00 0.  1.
         22    1    1    2    0    0 -0.40669848766E+01 -0.10501051847E+02  0.16921584773E+02  0.20326152786E+02  0.00000000000E+00 0. -1.
<mgrwt>
<rscale>  0 0.54319308E+02</rscale>
<asrwt>0</asrwt>
<pdfrwt beam="1">  1        2 0.92840422E-02 0.91779422E+02</pdfrwt>
<pdfrwt beam="2">  1       -2 0.80270059E-02 0.91779422E+02</pdfrwt>
<totfact> 0.56823335E+04</totfact>
</mgrwt>
</event>
<event>
 6    1  0.1683416E-002  0.9723919E+02  0.7546771E-02  0.1345148E+00
          1   -1    0    0  501    0  0.00000000000E+00  0.00000000000E+00  0.23037871515E+03  0.23037871515E+03  0.00000000000E+00 0. -1.
         -1   -1    0    0    0  501 -0.00000000000E+00 -0.00000000000E+00 -0.46207679877E+02  0.46207679877E+02  0.00000000000E+00 0.  1.
         23    2    1    2    0    0 -0.31245754358E+02  0.12531342065E+02  0.83786038011E+01  0.97599494216E+02  0.91225701259E+02 0.  0.
         13    1    3    3    0    0 -0.47041981420E+02 -0.15016097809E+02 -0.21628668004E+02  0.53909465671E+02  0.00000000000E+00 0.  1.
        -13    1    3    3    0    0  0.15796227062E+02  0.27547439874E+02  0.30007271805E+02  0.43690028544E+02  0.00000000000E+00 0. -1.
         22    1    1    2    0    0  0.31245754358E+02 -0.12531342065E+02  0.17579243147E+03  0.17898690081E+03  0.00000000000E+00 0. -1.
<mgrwt>
<rscale>  0 0.74589146E+02</rscale>
<asrwt>0</asrwt>
<pdfrwt beam="1">  1        1 0.35442879E-01 0.97239191E+02</pdfrwt>
<pdfrwt beam="2">  1       -1 0.71088740E-02 0.97239191E+02</pdfrwt>
<totfact> 0.11551837E+04</totfact>
</mgrwt>
</event>
<event>
 6    1  0.1683416E-002  0.9490444E+02  0.7546771E-02  0.1354978E+00
          1   -1    0    0  501    0  0.00000000000E+00  0.00000000000E+00  0.22095027667E+02  0.22095027667E+02  0.00000000000E+00 0. -1.
         -1   -1    0    0    0  501 -0.00000000000E+00 -0.00000000000E+00 -0.31199153519E+03  0.31199153519E+03  0.00000000000E+00 0.  1.
         23    2    1    2    0    0  0.30319327580E+02  0.42809249233E+01 -0.28819507446E+03  0.30341927055E+03  0.89829086899E+02 0.  0.
         13    1    3    3    0    0  0.21405787484E+02  0.19313297770E+02 -0.21036206399E+02  0.35689398821E+02  0.00000000000E+00 0. -1.
        -13    1    3    3    0    0  0.89135400959E+01 -0.15032372847E+02 -0.26715886806E+03  0.26772987173E+03  0.00000000000E+00 0.  1.
         22    1    1    2    0    0 -0.30319327580E+02 -0.42809249233E+01 -0.17014330628E+01  0.30667292309E+02  0.00000000000E+00 0. -1.
<mgrwt>
<rscale>  0 0.71526406E+02</rscale>
<asrwt>0</asrwt>
<pdfrwt beam="1">  1        1 0.33992350E-02 0.94904440E+02</pdfrwt>
<pdfrwt beam="2">  1       -1 0.47998698E-01 0.94904440E+02</pdfrwt>
<totfact> 0.11474192E+04</totfact>
</mgrwt>
</event>
<event>
 6    1  0.1683416E-002  0.9042915E+02  0.7546771E-02  0.1428580E+00
         -2   -1    0    0    0  501 -0.00000000000E+00  0.00000000000E+00  0.35611212026E+03  0.35611212026E+03  0.00000000000E+00 0.  1.
          2   -1    0    0  501    0  0.00000000000E+00 -0.00000000000E+00 -0.72076007390E+01  0.72076007390E+01  0.00000000000E+00 0. -1.
         23    2    1    2    0    0  0.10267951258E+02  0.35669615791E+01  0.31396526695E+03  0.32672866460E+03  0.89773478180E+02 0.  0.
         11    1    3    3    0    0 -0.12742806456E+02 -0.37599726643E+02  0.18981965280E+03  0.19392683968E+03  0.00000000000E+00 0.  1.
        -11    1    3    3    0    0  0.23010757714E+02  0.41166688222E+02  0.12414561415E+03  0.13280182492E+03  0.00000000000E+00 0. -1.
         22    1    1    2    0    0 -0.10267951258E+02 -0.35669615791E+01  0.34939252576E+02  0.36591056400E+02  0.00000000000E+00 0.  1.
<mgrwt>
<rscale>  0 0.53246052E+02</rscale>
<asrwt>0</asrwt>
<pdfrwt beam="1">  1        2 0.11088619E-02 0.90429151E+02</pdfrwt>
<pdfrwt beam="2">  1       -2 0.54786466E-01 0.90429151E+02</pdfrwt>
<totfact> 0.34452400E+04</totfact>
</mgrwt>
</event>
<event>
 6    1  0.1683416E-002  0.1261562E+03  0.7546771E-02  0.1252784E+00
         -2   -1    0    0    0  501 -0.00000000000E+00  0.00000000000E+00  0.28285063227E+02  0.28285063227E+02  0.00000000000E+00 0. -1.
          2   -1    0    0  501    0  0.00000000000E+00 -0.00000000000E+00 -0.40061182119E+03  0.40061182119E+03  0.00000000000E+00 0.  1.
         23    2    1    2    0    0 -0.83634326506E+02 -0.15448428753E+02 -0.19534682962E+03  0.23254197728E+03  0.93177426630E+02 0.  0.
         13    1    3    3    0    0  0.16186988778E+02 -0.15337136779E+02 -0.16557700332E+02  0.27774157243E+02  0.00000000000E+00 0. -1.
        -13    1    3    3    0    0 -0.99821315284E+02 -0.11129197427E+00 -0.17878912929E+03  0.20476782004E+03  0.00000000000E+00 0.  1.
         22    1    1    2    0    0  0.83634326506E+02  0.15448428753E+02 -0.17697992834E+03  0.19635490714E+03  0.00000000000E+00 0. -1.
<mgrwt>
<rscale>  0 0.11431387E+03</rscale>
<asrwt>0</asrwt>
<pdfrwt beam="1">  1        2 0.61632584E-01 0.12615620E+03</pdfrwt>
<pdfrwt beam="2">  1       -2 0.43515484E-02 0.12615620E+03</pdfrwt>
<totfact> 0.17997158E+04</totfact>
</mgrwt>
</event>
<event>
 6    1  0.1683416E-002  0.1006293E+03  0.7546771E-02  0.1405528E+00
         -2   -1    0    0    0  501 -0.00000000000E+00  0.00000000000E+00  0.66279324340E+03  0.66279324340E+03  0.00000000000E+00 0.  1.
          2   -1    0    0  501    0  0.00000000000E+00 -0.00000000000E+00 -0.50565231759E+01  0.50565231759E+01  0.00000000000E+00 0. -1.
         23    2    1    2    0    0  0.20338094583E+01 -0.11077294994E+02  0.62875356299E+03  0.63675529362E+03  0.99997090617E+02 0.  0.
         11    1    3    3    0    0  0.17266178075E+02  0.41964583691E+02  0.29520893334E+03  0.29867618170E+03  0.00000000000E+00 0. -1.
        -11    1    3    3    0    0 -0.15232368617E+02 -0.53041878685E+02  0.33354462966E+03  0.33807911193E+03  0.00000000000E+00 0.  1.
         22    1    1    2    0    0 -0.20338094583E+01  0.11077294994E+02  0.28983157231E+02  0.31094472955E+02  0.00000000000E+00 0. -1.
<mgrwt>
<rscale>  0 0.58203844E+02</rscale>
<asrwt>0</asrwt>
<pdfrwt beam="1">  1        2 0.77792717E-03 0.10062932E+03</pdfrwt>
<pdfrwt beam="2">  1       -2 0.10196812E+00 0.10062932E+03</pdfrwt>
<totfact> 0.15028593E+04</totfact>
</mgrwt>
</event>
<event>
 6    1  0.1683416E-002  0.9168477E+02  0.7546771E-02  0.1385985E+00
          2   -1    0    0  501    0  0.00000000000E+00  0.00000000000E+00  0.37758802992E+02  0.37758802992E+02  0.00000000000E+00 0. -1.
         -2   -1    0    0    0  501 -0.00000000000E+00 -0.00000000000E+00 -0.76897148543E+03  0.76897148543E+03  0.00000000000E+00 0.  1.
         23    2    1    2    0    0 -0.18594705085E+02  0.82220569775E+01 -0.76327674018E+03  0.76876360465E+03  0.89402083028E+02 0.  0.
         11    1    3    3    0    0 -0.76249846932E+01  0.36097587649E+02 -0.66500060529E+03  0.66602325880E+03  0.00000000000E+00 0.  1.
        -11    1    3    3    0    0 -0.10969720392E+02 -0.27875530671E+02 -0.98276134891E+02  0.10274034585E+03  0.00000000000E+00 0. -1.
         22    1    1    2    0    0  0.18594705085E+02 -0.82220569775E+01  0.32064057742E+02  0.37966683777E+02  0.00000000000E+00 0. -1.
<mgrwt>
<rscale>  0 0.62916516E+02</rscale>
<asrwt>0</asrwt>
<pdfrwt beam="1">  1        2 0.58090468E-02 0.91684774E+02</pdfrwt>
<pdfrwt beam="2">  1       -2 0.11830330E+00 0.91684774E+02</pdfrwt>
<totfact> 0.71051625E+02</totfact>
</mgrwt>
</event>
<event>
 6    1  0.1683416E-002  0.9255606E+02  0.7546771E-02  0.1418713E+00
         -4   -1    0    0    0  501 -0.00000000000E+00  0.00000000000E+00  0.13283157637E+02  0.13283157637E+02  0.00000000000E+00 0.  1.
          4   -1    0    0  501    0  0.00000000000E+00 -0.00000000000E+00 -0.23078590058E+03  0.23078590058E+03  0.00000000000E+00 0. -1.
         23    2    1    2    0    0  0.27610558884E+00 -0.11786354936E+02 -0.15554535952E+03  0.18099995518E+03  0.91802126941E+02 0.  0.
         11    1    3    3    0    0  0.74534845502E+01  0.25132644746E+02 -0.13621193899E+03  0.13871155895E+03  0.00000000000E+00 0. -1.
        -11    1    3    3    0    0 -0.71773789614E+01 -0.36918999682E+02 -0.19333420530E+02  0.42288396229E+02  0.00000000000E+00 0.  1.
         22    1    1    2    0    0 -0.27610558884E+00  0.11786354936E+02 -0.61957383426E+02  0.63069103038E+02  0.00000000000E+00 0. -1.
<mgrwt>
<rscale>  0 0.55294040E+02</rscale>
<asrwt>0</asrwt>
<pdfrwt beam="1">  1        4 0.35505524E-01 0.92556064E+02</pdfrwt>
<pdfrwt beam="2">  1       -4 0.20435627E-02 0.92556064E+02</pdfrwt>
<totfact> 0.11041797E+04</totfact>
</mgrwt>
</event>
<event>
 6    1  0.1683416E-002  0.9091202E+02  0.7546771E-02  0.1378887E+00
         -2   -1    0    0    0  501 -0.00000000000E+00  0.00000000000E+00  0.60643222989E+02  0.60643222989E+02  0.00000000000E+00 0.  1.
          2   -1    0    0  501    0  0.00000000000E+00 -0.00000000000E+00 -0.61215176082E+02  0.61215176082E+02  0.00000000000E+00 0. -1.
         23    2    1    2    0    0  0.46126014608E+01 -0.22945006456E+02  0.17132477777E+02  0.92512253056E+02  0.87847855735E+02 0.  0.
         13    1    3    3    0    0  0.27408896029E+02 -0.38800345959E+02  0.35426187658E+02  0.59259844752E+02  0.00000000000E+00 0.  1.
        -13    1    3    3    0    0 -0.22796294568E+02  0.15855339503E+02 -0.18293709881E+02  0.33252408304E+02  0.00000000000E+00 0. -1.
         22    1    1    2    0    0 -0.46126014608E+01  0.22945006456E+02 -0.17704430871E+02  0.29346146015E+02  0.00000000000E+00 0.  1.
<mgrwt>
<rscale>  0 0.64757298E+02</rscale>
<asrwt>0</asrwt>
<pdfrwt beam="1">  1        2 0.94177194E-02 0.90912019E+02</pdfrwt>
<pdfrwt beam="2">  1       -2 0.93297266E-02 0.90912019E+02</pdfrwt>
<totfact> 0.44254520E+04</totfact>
</mgrwt>
</event>
<event>
 6    1  0.1683416E-002  0.8087606E+02  0.7546771E-02  0.1408454E+00
          2   -1    0    0  501    0  0.00000000000E+00  0.00000000000E+00  0.60612783406E+02  0.60612783406E+02  0.00000000000E+00 0. -1.
         -2   -1    0    0    0  501 -0.00000000000E+00 -0.00000000000E+00 -0.43917840906E+02  0.43917840906E+02  0.00000000000E+00 0.  1.
         23    2    1    2    0    0  0.19842279105E+02  0.59727655079E+01  0.57102146483E+01  0.81077389697E+02  0.78176381349E+02 0.  0.
         11    1    3    3    0    0  0.18359463038E+02  0.19474970339E+02  0.37751048468E+02  0.46276192726E+02  0.00000000000E+00 0. -1.
        -11    1    3    3    0    0  0.14828160670E+01 -0.13502204831E+02 -0.32040833820E+02  0.34801196972E+02  0.00000000000E+00 0.  1.
         22    1    1    2    0    0 -0.19842279105E+02 -0.59727655079E+01  0.10984727852E+02  0.23453234615E+02  0.00000000000E+00 0. -1.
<mgrwt>
<rscale>  0 0.57540213E+02</rscale>
<asrwt>0</asrwt>
<pdfrwt beam="1">  1        2 0.93250436E-02 0.80876057E+02</pdfrwt>
<pdfrwt beam="2">  1       -2 0.67565909E-02 0.80876057E+02</pdfrwt>
<totfact> 0.72027600E+04</totfact>
</mgrwt>
</event>
<event>
 6    1  0.1683416E-002  0.1035103E+03  0.7546771E-02  0.1313856E+00
         -1   -1    0    0    0  501 -0.00000000000E+00  0.00000000000E+00  0.42830307491E+03  0.42830307491E+03  0.00000000000E+00 0.  1.
          1   -1    0    0  501    0  0.00000000000E+00 -0.00000000000E+00 -0.14252369547E+02  0.14252369547E+02  0.00000000000E+00 0. -1.
         23    2    1    2    0    0 -0.13814239207E+02 -0.46411930426E+02  0.22959997166E+03  0.25185417636E+03  0.91484854881E+02 0.  0.
         13    1    3    3    0    0  0.50730485467E+01  0.24690276300E+02  0.96910536722E+02  0.10013489748E+03  0.00000000000E+00 0. -1.
        -13    1    3    3    0    0 -0.18887287754E+02 -0.71102206725E+02  0.13268943494E+03  0.15171927888E+03  0.00000000000E+00 0.  1.
         22    1    1    2    0    0  0.13814239207E+02  0.46411930426E+02  0.18445073370E+03  0.19070126810E+03  0.00000000000E+00 0. -1.
<mgrwt>
<rscale>  0 0.85605798E+02</rscale>
<asrwt>0</asrwt>
<pdfrwt beam="1">  1        1 0.21926726E-02 0.10351029E+03</pdfrwt>
<pdfrwt beam="2">  1       -1 0.65892771E-01 0.10351029E+03</pdfrwt>
<totfact> 0.11742307E+04</totfact>
</mgrwt>
</event>
<event>
 6    1  0.1683416E-002  0.9381211E+02  0.7546771E-02  0.1355434E+00
         -2   -1    0    0    0  501 -0.00000000000E+00  0.00000000000E+00  0.51711228856E+03  0.51711228856E+03  0.00000000000E+00 0.  1.
          2   -1    0    0  501    0  0.00000000000E+00 -0.00000000000E+00 -0.76661847734E+01  0.76661847734E+01  0.00000000000E+00 0. -1.
         23    2    1    2    0    0  0.26501738883E+02  0.16949776222E+02  0.40340816959E+03  0.41417250348E+03  0.88380282143E+02 0.  0.
         13    1    3    3    0    0  0.27622922680E+01  0.34529435211E+02  0.58388485185E+02  0.67890554253E+02  0.00000000000E+00 0. -1.
        -13    1    3    3    0    0  0.23739446615E+02 -0.17579658989E+02  0.34501968440E+03  0.34628194923E+03  0.00000000000E+00 0.  1.
         22    1    1    2    0    0 -0.26501738883E+02 -0.16949776222E+02  0.10603793419E+03  0.11060596985E+03  0.00000000000E+00 0. -1.
<mgrwt>
<rscale>  0 0.71388566E+02</rscale>
<asrwt>0</asrwt>
<pdfrwt beam="1">  1        2 0.11794134E-02 0.93812107E+02</pdfrwt>
<pdfrwt beam="2">  1       -2 0.79555710E-01 0.93812107E+02</pdfrwt>
<totfact> 0.14637797E+04</totfact>
</mgrwt>
</event>
<event>
 6    1  0.1683416E-002  0.9372498E+02  0.7546771E-02  0.1389864E+00
          2   -1    0    0  501    0  0.00000000000E+00  0.00000000000E+00  0.72267462057E+02  0.72267462057E+02  0.00000000000E+00 0. -1.
         -2   -1    0    0    0  501 -0.00000000000E+00 -0.00000000000E+00 -0.43671630284E+02  0.43671630284E+02  0.00000000000E+00 0.  1.
         23    2    1    2    0    0 -0.12430056764E+02 -0.12850646418E+02  0.18939647233E+02  0.95619463300E+02  0.92003946111E+02 0.  0.
         11    1    3    3    0    0  0.33578596970E+01 -0.76883963188E+01  0.55148203755E+02  0.55782712709E+02  0.00000000000E+00 0. -1.
        -11    1    3    3    0    0 -0.15787916461E+02 -0.51622500990E+01 -0.36208556522E+02  0.39836750591E+02  0.00000000000E+00 0.  1.
         22    1    1    2    0    0  0.12430056764E+02  0.12850646418E+02  0.96561845392E+01  0.20319629041E+02  0.00000000000E+00 0. -1.
<mgrwt>
<rscale>  0 0.61940552E+02</rscale>
<asrwt>0</asrwt>
<pdfrwt beam="1">  1        2 0.11118071E-01 0.93724978E+02</pdfrwt>
<pdfrwt beam="2">  1       -2 0.67187123E-02 0.93724978E+02</pdfrwt>
<totfact> 0.60048422E+04</totfact>
</mgrwt>
</event>
<event>
 6    1  0.1683416E-002  0.8749095E+02  0.7546771E-02  0.1433156E+00
          1   -1    0    0  501    0  0.00000000000E+00  0.00000000000E+00  0.57598452899E+02  0.57598452899E+02  0.00000000000E+00 0. -1.
         -1   -1    0    0    0  501 -0.00000000000E+00 -0.00000000000E+00 -0.47360715042E+02  0.47360715042E+02  0.00000000000E+00 0.  1.
         23    2    1    2    0    0 -0.43264000991E+01  0.10329267078E+02 -0.30970161450E+01  0.87545748964E+02  0.86771280713E+02 0.  0.
         13    1    3    3    0    0 -0.89709188150E+01  0.93863380880E+01 -0.44252677679E+02  0.46118111505E+02  0.00000000000E+00 0.  1.
        -13    1    3    3    0    0  0.46445187160E+01  0.94292899025E+00  0.41155661534E+02  0.41427637459E+02  0.00000000000E+00 0. -1.
         22    1    1    2    0    0  0.43264000991E+01 -0.10329267078E+02  0.13334754002E+02  0.17413418977E+02  0.00000000000E+00 0. -1.
<mgrwt>
<rscale>  0 0.52331662E+02</rscale>
<asrwt>0</asrwt>
<pdfrwt beam="1">  1        1 0.88613005E-02 0.87490952E+02</pdfrwt>
<pdfrwt beam="2">  1       -1 0.72862638E-02 0.87490952E+02</pdfrwt>
<totfact> 0.63687791E+04</totfact>
</mgrwt>
</event>
<event>
 6    1  0.1683416E-002  0.9300757E+02  0.7546771E-02  0.1375768E+00
          2   -1    0    0  501    0  0.00000000000E+00  0.00000000000E+00  0.73288465002E+01  0.73288465002E+01  0.00000000000E+00 0. -1.
         -2   -1    0    0    0  501 -0.00000000000E+00 -0.00000000000E+00 -0.57277803345E+03  0.57277803345E+03  0.00000000000E+00 0.  1.
         23    2    1    2    0    0  0.16099358109E+02 -0.16429692843E+02 -0.52821138995E+03  0.53633728246E+03  0.90118166615E+02 0.  0.
         13    1    3    3    0    0 -0.20858474248E+02  0.21475737573E+02 -0.32381966117E+03  0.32520063993E+03  0.00000000000E+00 0.  1.
        -13    1    3    3    0    0  0.36957832357E+02 -0.37905430416E+02 -0.20439172878E+03  0.21113664253E+03  0.00000000000E+00 0. -1.
         22    1    1    2    0    0 -0.16099358109E+02  0.16429692843E+02 -0.37237797006E+02  0.43769597489E+02  0.00000000000E+00 0. -1.
<mgrwt>
<rscale>  0 0.65589364E+02</rscale>
<asrwt>0</asrwt>
<pdfrwt beam="1">  1        2 0.11275143E-02 0.93007570E+02</pdfrwt>
<pdfrwt beam="2">  1       -2 0.88119738E-01 0.93007570E+02</pdfrwt>
<totfact> 0.12424805E+04</totfact>
</mgrwt>
</event>
<event>
 6    1  0.1683416E-002  0.8936866E+02  0.7546771E-02  0.1423144E+00
          2   -1    0    0  501    0  0.00000000000E+00  0.00000000000E+00  0.93664463063E+01  0.93664463063E+01  0.00000000000E+00 0. -1.
         -2   -1    0    0    0  501 -0.00000000000E+00 -0.00000000000E+00 -0.94786544527E+03  0.94786544527E+03  0.00000000000E+00 0.  1.
         23    2    1    2    0    0  0.10941163701E+02  0.54757848884E+01 -0.94058441868E+03  0.94482051540E+03  0.88527195654E+02 0.  0.
         13    1    3    3    0    0 -0.15994144360E+02  0.21756378159E+02 -0.98103133795E+02  0.10175154792E+03  0.00000000000E+00 0. -1.
        -13    1    3    3    0    0  0.26935308061E+02 -0.16280593271E+02 -0.84248128488E+03  0.84306896747E+03  0.00000000000E+00 0.  1.
         22    1    1    2    0    0 -0.10941163701E+02 -0.54757848884E+01  0.20854197149E+01  0.12411376179E+02  0.00000000000E+00 0. -1.
<mgrwt>
<rscale>  0 0.54361224E+02</rscale>
<asrwt>0</asrwt>
<pdfrwt beam="1">  1        2 0.14409908E-02 0.89368661E+02</pdfrwt>
<pdfrwt beam="2">  1       -2 0.14582555E+00 0.89368661E+02</pdfrwt>
<totfact> 0.27019526E+03</totfact>
</mgrwt>
</event>
<event>
 6    1  0.1683416E-002  0.9181337E+02  0.7546771E-02  0.1405457E+00
          4   -1    0    0  501    0  0.00000000000E+00  0.00000000000E+00  0.47277511223E+01  0.47277511223E+01  0.00000000000E+00 0.  1.
         -4   -1    0    0    0  501 -0.00000000000E+00 -0.00000000000E+00 -0.66563191178E+03  0.66563191178E+03  0.00000000000E+00 0. -1.
         23    2    1    2    0    0 -0.14757496090E+02 -0.16066509806E+01 -0.62162854496E+03  0.62837229568E+03  0.90605347774E+02 0.  0.
         11    1    3    3    0    0 -0.17300513074E+02 -0.24407798059E+02 -0.58055671353E+03  0.58132705596E+03  0.00000000000E+00 0. -1.
        -11    1    3    3    0    0  0.25430169840E+01  0.22801147079E+02 -0.41071831430E+02  0.47045239722E+02  0.00000000000E+00 0.  1.
         22    1    1    2    0    0  0.14757496090E+02  0.16066509806E+01 -0.39275615699E+02  0.41987367228E+02  0.00000000000E+00 0.  1.
<mgrwt>
<rscale>  0 0.58220008E+02</rscale>
<asrwt>0</asrwt>
<pdfrwt beam="1">  1        4 0.72734645E-03 0.91813365E+02</pdfrwt>
<pdfrwt beam="2">  1       -4 0.10240489E+00 0.91813365E+02</pdfrwt>
<totfact> 0.56795587E+03</totfact>
</mgrwt>
</event>
<event>
 6    1  0.1683416E-002  0.9855183E+02  0.7546771E-02  0.1344527E+00
          2   -1    0    0  501    0  0.00000000000E+00  0.00000000000E+00  0.13462403520E+03  0.13462403520E+03  0.00000000000E+00 0. -1.
         -2   -1    0    0    0  501 -0.00000000000E+00 -0.00000000000E+00 -0.34419920207E+02  0.34419920207E+02  0.00000000000E+00 0.  1.
         23    2    1    2    0    0  0.27347896264E+02  0.17899311260E+02  0.53788045987E+02  0.11227473632E+03  0.92974027294E+02 0.  0.
         13    1    3    3    0    0  0.60840150427E+02  0.86916703370E+00  0.36060134249E+02  0.70729149842E+02  0.00000000000E+00 0. -1.
        -13    1    3    3    0    0 -0.33492254164E+02  0.17030144226E+02  0.17727911738E+02  0.41545586479E+02  0.00000000000E+00 0.  1.
         22    1    1    2    0    0 -0.27347896264E+02 -0.17899311260E+02  0.46416069009E+02  0.56769219088E+02  0.00000000000E+00 0.  1.
<mgrwt>
<rscale>  0 0.74788495E+02</rscale>
<asrwt>0</asrwt>
<pdfrwt beam="1">  1        2 0.20711390E-01 0.98551827E+02</pdfrwt>
<pdfrwt beam="2">  1       -2 0.52953724E-02 0.98551827E+02</pdfrwt>
<totfact> 0.42088512E+04</totfact>
</mgrwt>
</event>
<event>
 6    1  0.1683416E-002  0.1011018E+03  0.7546771E-02  0.1329421E+00
         -1   -1    0    0    0  501 -0.00000000000E+00  0.00000000000E+00  0.15930953500E+02  0.15930953500E+02  0.00000000000E+00 0.  1.
          1   -1    0    0  501    0  0.00000000000E+00 -0.00000000000E+00 -0.39552357277E+03  0.39552357277E+03  0.00000000000E+00 0. -1.
         23    2    1    2    0    0  0.28052018035E+01 -0.39277833851E+02 -0.16679345259E+03  0.19504264413E+03  0.93117988676E+02 0.  0.
         13    1    3    3    0    0 -0.11526611659E+02  0.10756092622E+02 -0.13083820822E+03  0.13178464644E+03  0.00000000000E+00 0. -1.
        -13    1    3    3    0    0  0.14331813463E+02 -0.50033926474E+02 -0.35955244364E+02  0.63257997698E+02  0.00000000000E+00 0.  1.
         22    1    1    2    0    0 -0.28052018035E+01  0.39277833851E+02 -0.21279916669E+03  0.21641188214E+03  0.00000000000E+00 0. -1.
<mgrwt>
<rscale>  0 0.79869745E+02</rscale>
<asrwt>0</asrwt>
<pdfrwt beam="1">  1        1 0.60849779E-01 0.10110182E+03</pdfrwt>
<pdfrwt beam="2">  1       -1 0.24509160E-02 0.10110182E+03</pdfrwt>
<totfact> 0.28237474E+04</totfact>
</mgrwt>
</event>
<event>
 6    1  0.1683416E-002  0.9397515E+02  0.7546771E-02  0.1417336E+00
          2   -1    0    0  501    0  0.00000000000E+00  0.00000000000E+00  0.11950175143E+02  0.11950175143E+02  0.00000000000E+00 0. -1.
         -2   -1    0    0    0  501 -0.00000000000E+00 -0.00000000000E+00 -0.24041623942E+03  0.24041623942E+03  0.00000000000E+00 0.  1.
         23    2    1    2    0    0 -0.11332903090E+02 -0.19843928252E+01 -0.21508770271E+03  0.23472121506E+03  0.93268196264E+02 0.  0.
         13    1    3    3    0    0  0.74886456726E+01  0.30284587630E+02 -0.22299848002E+02  0.38347350402E+02  0.00000000000E+00 0. -1.
        -13    1    3    3    0    0 -0.18821548763E+02 -0.32268980455E+02 -0.19278785471E+03  0.19637386466E+03  0.00000000000E+00 0.  1.
         22    1    1    2    0    0  0.11332903090E+02  0.19843928252E+01 -0.13378361567E+02  0.17645199505E+02  0.00000000000E+00 0.  1.
<mgrwt>
<rscale>  0 0.55588441E+02</rscale>
<asrwt>0</asrwt>
<pdfrwt beam="1">  1        2 0.18384886E-02 0.93975151E+02</pdfrwt>
<pdfrwt beam="2">  1       -2 0.36987111E-01 0.93975151E+02</pdfrwt>
<totfact> 0.37060681E+04</totfact>
</mgrwt>
</event>
<event>
 6    1  0.1683416E-002  0.9586342E+02  0.7546771E-02  0.1351555E+00
          2   -1    0    0  501    0  0.00000000000E+00  0.00000000000E+00  0.51064292511E+02  0.51064292511E+02  0.00000000000E+00 0. -1.
         -2   -1    0    0    0  501 -0.00000000000E+00 -0.00000000000E+00 -0.79619853479E+02  0.79619853479E+02  0.00000000000E+00 0.  1.
         23    2    1    2    0    0  0.26672249081E+02  0.16735928688E+02 -0.24426460954E+02  0.98926475310E+02  0.90544438496E+02 0.  0.
         11    1    3    3    0    0  0.29477963896E+02  0.52235910260E+02 -0.18918342349E+02  0.62892323485E+02  0.00000000000E+00 0.  1.
        -11    1    3    3    0    0 -0.28057148152E+01 -0.35499981571E+02 -0.55081186050E+01  0.36034151825E+02  0.00000000000E+00 0. -1.
         22    1    1    2    0    0 -0.26672249081E+02 -0.16735928688E+02 -0.41291000138E+01  0.31757670680E+02  0.00000000000E+00 0. -1.
<mgrwt>
<rscale>  0 0.72573203E+02</rscale>
<asrwt>0</asrwt>
<pdfrwt beam="1">  1        2 0.78560450E-02 0.95863421E+02</pdfrwt>
<pdfrwt beam="2">  1       -2 0.12249208E-01 0.95863421E+02</pdfrwt>
<totfact> 0.36383628E+04</totfact>
</mgrwt>
</event>
<event>
 6    1  0.1683416E-002  0.9696397E+02  0.7546771E-02  0.1346083E+00
          2   -1    0    0  501    0  0.00000000000E+00  0.00000000000E+00  0.46241321571E+02  0.46241321571E+02  0.00000000000E+00 0. -1.
         -2   -1    0    0    0  501 -0.00000000000E+00 -0.00000000000E+00 -0.25768754544E+03  0.25768754544E+03  0.00000000000E+00 0.  1.
         23    2    1    2    0    0  0.41922075818E+01  0.33147677852E+02 -0.24071487903E+03  0.25951043248E+03  0.91025647104E+02 0.  0.
         11    1    3    3    0    0 -0.32402455868E+02  0.26858465692E+02 -0.50655817052E+02  0.65858242664E+02  0.00000000000E+00 0. -1.
        -11    1    3    3    0    0  0.36594663449E+02  0.62892121599E+01 -0.19005906198E+03  0.19365218982E+03  0.00000000000E+00 0.  1.
         22    1    1    2    0    0 -0.41922075818E+01 -0.33147677852E+02  0.29268655158E+02  0.44418434530E+02  0.00000000000E+00 0. -1.
<mgrwt>
<rscale>  0 0.74290368E+02</rscale>
<asrwt>0</asrwt>
<pdfrwt beam="1">  1        2 0.71140494E-02 0.96963971E+02</pdfrwt>
<pdfrwt beam="2">  1       -2 0.39644238E-01 0.96963971E+02</pdfrwt>
<totfact> 0.55280137E+03</totfact>
</mgrwt>
</event>
<event>
 6    1  0.1683416E-002  0.8916275E+02  0.7546771E-02  0.1405555E+00
         -2   -1    0    0    0  501 -0.00000000000E+00  0.00000000000E+00  0.37704648963E+02  0.37704648963E+02  0.00000000000E+00 0.  1.
          2   -1    0    0  501    0  0.00000000000E+00 -0.00000000000E+00 -0.80337210784E+02  0.80337210784E+02  0.00000000000E+00 0. -1.
         23    2    1    2    0    0  0.16060660767E+02 -0.19893109068E+01 -0.22031349852E+02  0.91844300380E+02  0.87681770932E+02 0.  0.
         13    1    3    3    0    0 -0.79908844931E+01 -0.41130310562E+02 -0.26497017571E+01  0.41983063268E+02  0.00000000000E+00 0. -1.
        -13    1    3    3    0    0  0.24051545261E+02  0.39140999656E+02 -0.19381648095E+02  0.49861237112E+02  0.00000000000E+00 0.  1.
         22    1    1    2    0    0 -0.16060660767E+02  0.19893109068E+01 -0.20601211969E+02  0.26197559366E+02  0.00000000000E+00 0. -1.
<mgrwt>
<rscale>  0 0.58197585E+02</rscale>
<asrwt>0</asrwt>
<pdfrwt beam="1">  1        2 0.12359571E-01 0.89162745E+02</pdfrwt>
<pdfrwt beam="2">  1       -2 0.58007153E-02 0.89162745E+02</pdfrwt>
<totfact> 0.65552814E+04</totfact>
</mgrwt>
</event>
<event>
 6    1  0.1683416E-002  0.1001377E+03  0.7546771E-02  0.1333968E+00
          2   -1    0    0  501    0  0.00000000000E+00  0.00000000000E+00  0.24965820921E+03  0.24965820921E+03  0.00000000000E+00 0. -1.
         -2   -1    0    0    0  501 -0.00000000000E+00 -0.00000000000E+00 -0.19336666388E+02  0.19336666388E+02  0.00000000000E+00 0.  1.
         23    2    1    2    0    0 -0.22326879708E+02  0.30027652924E+02  0.14958869173E+03  0.18001205286E+03  0.92883868258E+02 0.  0.
         11    1    3    3    0    0 -0.22899126487E+01  0.25046796088E+02 -0.36270431192E+01  0.25411437110E+02  0.00000000000E+00 0.  1.
        -11    1    3    3    0    0 -0.20036967059E+02  0.49808568360E+01  0.15321573485E+03  0.15460061575E+03  0.00000000000E+00 0. -1.
         22    1    1    2    0    0  0.22326879708E+02 -0.30027652924E+02  0.80732851094E+02  0.88982822743E+02  0.00000000000E+00 0.  1.
<mgrwt>
<rscale>  0 0.78292483E+02</rscale>
<asrwt>0</asrwt>
<pdfrwt beam="1">  1        2 0.38408953E-01 0.10013772E+03</pdfrwt>
<pdfrwt beam="2">  1       -2 0.29748719E-02 0.10013772E+03</pdfrwt>
<totfact> 0.50614148E+04</totfact>
</mgrwt>
</event>
<event>
 6    1  0.1683416E-002  0.9401588E+02  0.7546771E-02  0.1370650E+00
          2   -1    0    0  501    0  0.00000000000E+00  0.00000000000E+00  0.18175173326E+03  0.18175173326E+03  0.00000000000E+00 0. -1.
         -2   -1    0    0    0  501 -0.00000000000E+00 -0.00000000000E+00 -0.19402292513E+02  0.19402292513E+02  0.00000000000E+00 0.  1.
         23    2    1    2    0    0 -0.90671285487E+01  0.22469493830E+02  0.12104690341E+03  0.15326884473E+03  0.90839941471E+02 0.  0.
         11    1    3    3    0    0 -0.25213678824E+02  0.26315159353E+02  0.58848287218E+01  0.36916776954E+02  0.00000000000E+00 0.  1.
        -11    1    3    3    0    0  0.16146550276E+02 -0.38456655231E+01  0.11516207468E+03  0.11635206777E+03  0.00000000000E+00 0. -1.
         22    1    1    2    0    0  0.90671285487E+01 -0.22469493830E+02  0.41302537342E+02  0.47885181048E+02  0.00000000000E+00 0.  1.
<mgrwt>
<rscale>  0 0.66986778E+02</rscale>
<asrwt>0</asrwt>
<pdfrwt beam="1">  1        2 0.27961804E-01 0.94015881E+02</pdfrwt>
<pdfrwt beam="2">  1       -2 0.29849682E-02 0.94015881E+02</pdfrwt>
<totfact> 0.70024156E+04</totfact>
</mgrwt>
</event>
<event>
 6    1  0.1683416E-002  0.9443921E+02  0.7546771E-02  0.1383004E+00
         -3   -1    0    0    0  501 -0.00000000000E+00  0.00000000000E+00  0.93067965278E+02  0.93067965278E+02  0.00000000000E+00 0.  1.
          3   -1    0    0  501    0  0.00000000000E+00 -0.00000000000E+00 -0.36203848524E+02  0.36203848524E+02  0.00000000000E+00 0. -1.
         23    2    1    2    0    0 -0.89024829539E+01  0.17376548524E+02  0.55857489862E+02  0.10972157240E+03  0.92398948229E+02 0.  0.
         11    1    3    3    0    0 -0.17943114993E+01 -0.32868386649E+02 -0.17341970275E+01  0.32962976716E+02  0.00000000000E+00 0. -1.
        -11    1    3    3    0    0 -0.71081714545E+01  0.50244935173E+02  0.57591686889E+02  0.76758595680E+02  0.00000000000E+00 0.  1.
         22    1    1    2    0    0  0.89024829539E+01 -0.17376548524E+02  0.10066268928E+01  0.19550241407E+02  0.00000000000E+00 0. -1.
<mgrwt>
<rscale>  0 0.63680751E+02</rscale>
<asrwt>0</asrwt>
<pdfrwt beam="1">  1        3 0.55698229E-02 0.94439209E+02</pdfrwt>
<pdfrwt beam="2">  1       -3 0.14318148E-01 0.94439209E+02</pdfrwt>
<totfact> 0.15953249E+04</totfact>
</mgrwt>
</event>
<event>
 6    1  0.1683416E-002  0.9184205E+02  0.7546771E-02  0.1428563E+00
          4   -1    0    0  501    0  0.00000000000E+00  0.00000000000E+00  0.29811589985E+02  0.29811589985E+02  0.00000000000E+00 0. -1.
         -4   -1    0    0    0  501 -0.00000000000E+00 -0.00000000000E+00 -0.98297116231E+02  0.98297116231E+02  0.00000000000E+00 0.  1.
         23    2    1    2    0    0 -0.96330259723E+01 -0.38626681255E+01 -0.72470685240E+02  0.11699129255E+03  0.91253750164E+02 0.  0.
         13    1    3    3    0    0 -0.14109605387E+02 -0.40527786179E+02 -0.67123343683E+02  0.79668850148E+02  0.00000000000E+00 0.  1.
        -13    1    3    3    0    0  0.44765794145E+01  0.36665118053E+02 -0.53473415563E+01  0.37322442402E+02  0.00000000000E+00 0. -1.
         22    1    1    2    0    0  0.96330259723E+01  0.38626681255E+01  0.39851589936E+01  0.11117413667E+02  0.00000000000E+00 0. -1.
<mgrwt>
<rscale>  0 0.53249545E+02</rscale>
<asrwt>0</asrwt>
<pdfrwt beam="1">  1        4 0.45863985E-02 0.91842051E+02</pdfrwt>
<pdfrwt beam="2">  1       -4 0.15122633E-01 0.91842051E+02</pdfrwt>
<totfact> 0.14777201E+04</totfact>
</mgrwt>
</event>
<event>
 6    1  0.1683416E-002  0.8958553E+02  0.7546771E-02  0.1427481E+00
          4   -1    0    0  501    0  0.00000000000E+00  0.00000000000E+00  0.23150212485E+02  0.23150212485E+02  0.00000000000E+00 0. -1.
         -4   -1    0    0    0  501 -0.00000000000E+00 -0.00000000000E+00 -0.14455886669E+03  0.14455886669E+03  0.00000000000E+00 0.  1.
         23    2    1    2    0    0 -0.17322712182E+01 -0.11235563398E+02 -0.12669783288E+03  0.15517057609E+03  0.88861286168E+02 0.  0.
         13    1    3    3    0    0  0.28801398029E+02 -0.21973296462E+02 -0.11529767644E+03  0.12085487362E+03  0.00000000000E+00 0.  1.
        -13    1    3    3    0    0 -0.30533669247E+02  0.10737733064E+02 -0.11400156441E+02  0.34315702469E+02  0.00000000000E+00 0. -1.
         22    1    1    2    0    0  0.17322712182E+01  0.11235563398E+02  0.52891786775E+01  0.12538503082E+02  0.00000000000E+00 0. -1.
<mgrwt>
<rscale>  0 0.53469047E+02</rscale>
<asrwt>0</asrwt>
<pdfrwt beam="1">  1        4 0.35615711E-02 0.89585528E+02</pdfrwt>
<pdfrwt beam="2">  1       -4 0.22239826E-01 0.89585528E+02</pdfrwt>
<totfact> 0.11049243E+04</totfact>
</mgrwt>
</event>
<event>
 6    1  0.1683416E-002  0.9461465E+02  0.7546771E-02  0.1389499E+00
         -1   -1    0    0    0  501 -0.00000000000E+00  0.00000000000E+00  0.54718354770E+02  0.54718354770E+02  0.00000000000E+00 0.  1.
          1   -1    0    0  501    0  0.00000000000E+00 -0.00000000000E+00 -0.57412248554E+02  0.57412248554E+02  0.00000000000E+00 0. -1.
         23    2    1    2    0    0 -0.12659731426E+02 -0.12055123440E+02 -0.20119745121E+01  0.94636038029E+02  0.92985680895E+02 0.  0.
         11    1    3    3    0    0 -0.18825058625E+02  0.88948640391E+01  0.41231987210E+02  0.46190672303E+02  0.00000000000E+00 0.  1.
        -11    1    3    3    0    0  0.61653271991E+01 -0.20949987479E+02 -0.43243961723E+02  0.48445365726E+02  0.00000000000E+00 0. -1.
         22    1    1    2    0    0  0.12659731426E+02  0.12055123440E+02 -0.68191927179E+00  0.17494565294E+02  0.00000000000E+00 0.  1.
<mgrwt>
<rscale>  0 0.62031464E+02</rscale>
<asrwt>0</asrwt>
<pdfrwt beam="1">  1        1 0.88326536E-02 0.94614648E+02</pdfrwt>
<pdfrwt beam="2">  1       -1 0.84182084E-02 0.94614648E+02</pdfrwt>
<totfact> 0.52163329E+04</totfact>
</mgrwt>
</event>
<event>
 6    1  0.1683416E-002  0.1006063E+03  0.7546771E-02  0.1325126E+00
         -3   -1    0    0    0  501 -0.00000000000E+00  0.00000000000E+00  0.74232491391E+02  0.74232491391E+02  0.00000000000E+00 0.  1.
          3   -1    0    0  501    0  0.00000000000E+00 -0.00000000000E+00 -0.69571821652E+02  0.69571821652E+02  0.00000000000E+00 0. -1.
         23    2    1    2    0    0  0.10093370069E+02  0.41915441118E+02  0.25296178866E+01  0.10063810281E+03  0.90900211485E+02 0.  0.
         11    1    3    3    0    0 -0.13926194484E+02 -0.44134688459E+01  0.35856910440E+02  0.38718672838E+02  0.00000000000E+00 0.  1.
        -11    1    3    3    0    0  0.24019564553E+02  0.46328909964E+02 -0.33327292553E+02  0.61919429977E+02  0.00000000000E+00 0. -1.
         22    1    1    2    0    0 -0.10093370069E+02 -0.41915441118E+02  0.21310518520E+01  0.43166210228E+02  0.00000000000E+00 0.  1.
<mgrwt>
<rscale>  0 0.81399626E+02</rscale>
<asrwt>0</asrwt>
<pdfrwt beam="1">  1        3 0.10703357E-01 0.10060631E+03</pdfrwt>
<pdfrwt beam="2">  1       -3 0.11420383E-01 0.10060631E+03</pdfrwt>
<totfact> 0.82517133E+03</totfact>
</mgrwt>
</event>
<event>
 6    1  0.1683416E-002  0.9358355E+02  0.7546771E-02  0.1378829E+00
         -3   -1    0    0    0  501 -0.00000000000E+00  0.00000000000E+00  0.63693843379E+02  0.63693843379E+02  0.00000000000E+00 0.  1.
          3   -1    0    0  501    0  0.00000000000E+00 -0.00000000000E+00 -0.90934220822E+02  0.90934220822E+02  0.00000000000E+00 0. -1.
         23    2    1    2    0    0 -0.18991388256E+02  0.10028747556E+02  0.26076080580E+02  0.97148560883E+02  0.91085851249E+02 0.  0.
         13    1    3    3    0    0 -0.47223090910E+02  0.29006604720E+02  0.19690879859E+01  0.55455213821E+02  0.00000000000E+00 0. -1.
        -13    1    3    3    0    0  0.28231702654E+02 -0.18977857164E+02  0.24106992595E+02  0.41693347062E+02  0.00000000000E+00 0.  1.
         22    1    1    2    0    0  0.18991388256E+02 -0.10028747556E+02 -0.53316458024E+02  0.57479503318E+02  0.00000000000E+00 0. -1.
<mgrwt>
<rscale>  0 0.64772629E+02</rscale>
<asrwt>0</asrwt>
<pdfrwt beam="1">  1        3 0.13989880E-01 0.93583550E+02</pdfrwt>
<pdfrwt beam="2">  1       -3 0.97990528E-02 0.93583550E+02</pdfrwt>
<totfact> 0.66851449E+03</totfact>
</mgrwt>
</event>
<event>
 6    1  0.1683416E-002  0.1116576E+03  0.7546771E-02  0.1361243E+00
          1   -1    0    0  501    0  0.00000000000E+00  0.00000000000E+00  0.38447615357E+02  0.38447615357E+02  0.00000000000E+00 0. -1.
         -1   -1    0    0    0  501 -0.00000000000E+00 -0.00000000000E+00 -0.20940630654E+03  0.20940630654E+03  0.00000000000E+00 0.  1.
         23    2    1    2    0    0  0.14024757820E+02  0.94611251205E+01 -0.19123561501E+03  0.22144634041E+03  0.11036853949E+03 0.  0.
         13    1    3    3    0    0  0.17008545407E+02 -0.38756569646E+02 -0.15603219359E+03  0.16167067682E+03  0.00000000000E+00 0.  1.
        -13    1    3    3    0    0 -0.29837875862E+01  0.48217694767E+02 -0.35203421421E+02  0.59775663583E+02  0.00000000000E+00 0. -1.
         22    1    1    2    0    0 -0.14024757820E+02 -0.94611251205E+01  0.20276923827E+02  0.26407581494E+02  0.00000000000E+00 0. -1.
<mgrwt>
<rscale>  0 0.69662846E+02</rscale>
<asrwt>0</asrwt>
<pdfrwt beam="1">  1        1 0.59150177E-02 0.11165761E+03</pdfrwt>
<pdfrwt beam="2">  1       -1 0.32216355E-01 0.11165761E+03</pdfrwt>
<totfact> 0.10973123E+04</totfact>
</mgrwt>
</event>
<event>
 6    1  0.1683416E-002  0.9359938E+02  0.7546771E-02  0.1423669E+00
         -1   -1    0    0    0  501 -0.00000000000E+00  0.00000000000E+00  0.13904205449E+02  0.13904205449E+02  0.00000000000E+00 0.  1.
          1   -1    0    0  501    0  0.00000000000E+00 -0.00000000000E+00 -0.20001835771E+03  0.20001835771E+03  0.00000000000E+00 0. -1.
         23    2    1    2    0    0  0.23720227446E+00 -0.10561905866E+02 -0.15505346221E+03  0.18111438450E+03  0.93001258104E+02 0.  0.
         11    1    3    3    0    0 -0.22996766325E+02 -0.43676575623E+02 -0.59227381932E+02  0.77099787873E+02  0.00000000000E+00 0.  1.
        -11    1    3    3    0    0  0.23233968600E+02  0.33114669757E+02 -0.95826080273E+02  0.10401459662E+03  0.00000000000E+00 0. -1.
         22    1    1    2    0    0 -0.23720227446E+00  0.10561905866E+02 -0.31060690058E+02  0.32808178665E+02  0.00000000000E+00 0. -1.
<mgrwt>
<rscale>  0 0.54252241E+02</rscale>
<asrwt>0</asrwt>
<pdfrwt beam="1">  1        1 0.30772055E-01 0.93599381E+02</pdfrwt>
<pdfrwt beam="2">  1       -1 0.21391085E-02 0.93599381E+02</pdfrwt>
<totfact> 0.78486501E+04</totfact>
</mgrwt>
</event>
<event>
 6    1  0.1683416E-002  0.9727398E+02  0.7546771E-02  0.1328579E+00
          2   -1    0    0  501    0  0.00000000000E+00  0.00000000000E+00  0.20117178891E+03  0.20117178891E+03  0.00000000000E+00 0. -1.
         -2   -1    0    0    0  501 -0.00000000000E+00 -0.00000000000E+00 -0.25308780703E+02  0.25308780703E+02  0.00000000000E+00 0.  1.
         23    2    1    2    0    0  0.26317574270E+02  0.36345470626E+02  0.12942265538E+03  0.16190259875E+03  0.86305386882E+02 0.  0.
         13    1    3    3    0    0  0.79406044280E+00 -0.19447913830E+02  0.89847316594E+00  0.19484843811E+02  0.00000000000E+00 0.  1.
        -13    1    3    3    0    0  0.25523513828E+02  0.55793384455E+02  0.12852418222E+03  0.14241775494E+03  0.00000000000E+00 0. -1.
         22    1    1    2    0    0 -0.26317574270E+02 -0.36345470626E+02  0.46440352827E+02  0.64577970866E+02  0.00000000000E+00 0. -1.
<mgrwt>
<rscale>  0 0.80166771E+02</rscale>
<asrwt>0</asrwt>
<pdfrwt beam="1">  1        2 0.30949505E-01 0.97273983E+02</pdfrwt>
<pdfrwt beam="2">  1       -2 0.38936587E-02 0.97273983E+02</pdfrwt>
<totfact> 0.42762001E+04</totfact>
</mgrwt>
</event>
<event>
 6    1  0.1683416E-002  0.9506619E+02  0.7546771E-02  0.1421885E+00
          2   -1    0    0  501    0  0.00000000000E+00  0.00000000000E+00  0.27926089518E+02  0.27926089518E+02  0.00000000000E+00 0. -1.
         -2   -1    0    0    0  501 -0.00000000000E+00 -0.00000000000E+00 -0.11083717930E+03  0.11083717930E+03  0.00000000000E+00 0.  1.
         23    2    1    2    0    0 -0.72505338376E+01  0.74032674906E+01 -0.85742623250E+02  0.12802100684E+03  0.94499746778E+02 0.  0.
         13    1    3    3    0    0  0.50605011107E+01  0.36607086636E+02 -0.37158194313E+00  0.36957076949E+02  0.00000000000E+00 0. -1.
        -13    1    3    3    0    0 -0.12311034948E+02 -0.29203819145E+02 -0.85371041307E+02  0.91063929895E+02  0.00000000000E+00 0.  1.
         22    1    1    2    0    0  0.72505338376E+01 -0.74032674906E+01  0.28315334702E+01  0.10742261971E+02  0.00000000000E+00 0.  1.
<mgrwt>
<rscale>  0 0.54624100E+02</rscale>
<asrwt>0</asrwt>
<pdfrwt beam="1">  1        2 0.42963215E-02 0.95066191E+02</pdfrwt>
<pdfrwt beam="2">  1       -2 0.17051874E-01 0.95066191E+02</pdfrwt>
<totfact> 0.46035550E+04</totfact>
</mgrwt>
</event>
<event>
 6    1  0.1683416E-002  0.9193068E+02  0.7546771E-02  0.1415204E+00
          1   -1    0    0  501    0  0.00000000000E+00  0.00000000000E+00  0.37575117929E+02  0.37575117929E+02  0.00000000000E+00 0. -1.
         -1   -1    0    0    0  501 -0.00000000000E+00 -0.00000000000E+00 -0.84743081725E+02  0.84743081725E+02  0.00000000000E+00 0.  1.
         23    2    1    2    0    0  0.10856173862E+02 -0.65947177144E+01 -0.55256591644E+02  0.10725922515E+03  0.91048907995E+02 0.  0.
         11    1    3    3    0    0  0.10195947981E+02 -0.48362272605E+02 -0.23176508284E+02  0.54589534738E+02  0.00000000000E+00 0. -1.
        -11    1    3    3    0    0  0.66022588093E+00  0.41767554890E+02 -0.32080083359E+02  0.52669690412E+02  0.00000000000E+00 0.  1.
         22    1    1    2    0    0 -0.10856173862E+02  0.65947177144E+01  0.80886278479E+01  0.15058974504E+02  0.00000000000E+00 0.  1.
<mgrwt>
<rscale>  0 0.56048683E+02</rscale>
<asrwt>0</asrwt>
<pdfrwt beam="1">  1        1 0.57807874E-02 0.91930683E+02</pdfrwt>
<pdfrwt beam="2">  1       -1 0.13037397E-01 0.91930683E+02</pdfrwt>
<totfact> 0.47106024E+04</totfact>
</mgrwt>
</event>
<event>
 6    1  0.1683416E-002  0.9305860E+02  0.7546771E-02  0.1364157E+00
         -2   -1    0    0    0  501 -0.00000000000E+00  0.00000000000E+00  0.70228834968E+02  0.70228834968E+02  0.00000000000E+00 0.  1.
          2   -1    0    0  501    0  0.00000000000E+00 -0.00000000000E+00 -0.53362896250E+02  0.53362896250E+02  0.00000000000E+00 0. -1.
         23    2    1    2    0    0  0.18440104740E+02  0.20847834607E+02  0.21148080685E+02  0.95431361716E+02  0.88798839022E+02 0.  0.
         13    1    3    3    0    0  0.27058754269E+02  0.30698691760E+02 -0.24668364213E+02  0.47781942733E+02  0.00000000000E+00 0. -1.
        -13    1    3    3    0    0 -0.86186495294E+01 -0.98508571521E+01  0.45816444898E+02  0.47649418984E+02  0.00000000000E+00 0.  1.
         22    1    1    2    0    0 -0.18440104740E+02 -0.20847834607E+02 -0.42821419666E+01  0.28160369502E+02  0.00000000000E+00 0. -1.
<mgrwt>
<rscale>  0 0.68818779E+02</rscale>
<asrwt>0</asrwt>
<pdfrwt beam="1">  1        2 0.82096763E-02 0.93058602E+02</pdfrwt>
<pdfrwt beam="2">  1       -2 0.10804436E-01 0.93058602E+02</pdfrwt>
<totfact> 0.41820200E+04</totfact>
</mgrwt>
</event>
<event>
 6    1  0.1683416E-002  0.1298030E+03  0.7546771E-02  0.1245244E+00
         -1   -1    0    0    0  501 -0.00000000000E+00  0.00000000000E+00  0.16365946721E+03  0.16365946721E+03  0.00000000000E+00 0.  1.
          1   -1    0    0  501    0  0.00000000000E+00 -0.00000000000E+00 -0.11948516455E+03  0.11948516455E+03  0.00000000000E+00 0. -1.
         23    2    1    2    0    0 -0.11352285344E+02  0.90083821455E+02  0.11069050728E+03  0.17059075689E+03  0.92762323517E+02 0.  0.
         11    1    3    3    0    0  0.14998170976E+02  0.50834267245E+02  0.31220996752E+01  0.53092517037E+02  0.00000000000E+00 0. -1.
        -11    1    3    3    0    0 -0.26350456320E+02  0.39249554210E+02  0.10756840761E+03  0.11749823985E+03  0.00000000000E+00 0.  1.
         22    1    1    2    0    0  0.11352285344E+02 -0.90083821455E+02 -0.66516204624E+02  0.11255387487E+03  0.00000000000E+00 0. -1.
<mgrwt>
<rscale>  0 0.11870816E+03</rscale>
<asrwt>0</asrwt>
<pdfrwt beam="1">  1        1 0.18382333E-01 0.12980300E+03</pdfrwt>
<pdfrwt beam="2">  1       -1 0.25178380E-01 0.12980300E+03</pdfrwt>
<totfact> 0.37588313E+03</totfact>
</mgrwt>
</event>
<event>
 6    1  0.1683416E-002  0.9214776E+02  0.7546771E-02  0.1423280E+00
          2   -1    0    0  501    0  0.00000000000E+00  0.00000000000E+00  0.19820854322E+02  0.19820854322E+02  0.00000000000E+00 0. -1.
         -2   -1    0    0    0  501 -0.00000000000E+00 -0.00000000000E+00 -0.27911104947E+03  0.27911104947E+03  0.00000000000E+00 0.  1.
         23    2    1    2    0    0 -0.94969320543E+01 -0.58187428620E+01 -0.26888174189E+03  0.28423335776E+03  0.91472187329E+02 0.  0.
         11    1    3    3    0    0 -0.39384307683E+02 -0.61216919725E+01 -0.53115293242E+02  0.66406574829E+02  0.00000000000E+00 0. -1.
        -11    1    3    3    0    0  0.29887375629E+02  0.30294911047E+00 -0.21576644864E+03  0.21782678293E+03  0.00000000000E+00 0.  1.
         22    1    1    2    0    0  0.94969320543E+01  0.58187428620E+01  0.95915467339E+01  0.14698546040E+02  0.00000000000E+00 0.  1.
<mgrwt>
<rscale>  0 0.54332911E+02</rscale>
<asrwt>0</asrwt>
<pdfrwt beam="1">  1        2 0.30493626E-02 0.92147765E+02</pdfrwt>
<pdfrwt beam="2">  1       -2 0.42940156E-01 0.92147765E+02</pdfrwt>
<totfact> 0.14172505E+04</totfact>
</mgrwt>
</event>
<event>
 6    1  0.1683416E-002  0.9812554E+02  0.7546771E-02  0.1388928E+00
          2   -1    0    0  501    0  0.00000000000E+00  0.00000000000E+00  0.19094285071E+03  0.19094285071E+03  0.00000000000E+00 0. -1.
         -2   -1    0    0    0  501 -0.00000000000E+00 -0.00000000000E+00 -0.17634197420E+02  0.17634197420E+02  0.00000000000E+00 0.  1.
         23    2    1    2    0    0  0.56761992635E+01  0.14762105025E+02  0.13303015757E+03  0.16530469899E+03  0.96842561416E+02 0.  0.
         11    1    3    3    0    0  0.27356523238E+02 -0.24627314598E+02  0.10744038257E+03  0.11357076998E+03  0.00000000000E+00 0. -1.
        -11    1    3    3    0    0 -0.21680323975E+02  0.39389419622E+02  0.25589775006E+02  0.51733929009E+02  0.00000000000E+00 0.  1.
         22    1    1    2    0    0 -0.56761992635E+01 -0.14762105025E+02  0.40278495719E+02  0.43272349142E+02  0.00000000000E+00 0. -1.
<mgrwt>
<rscale>  0 0.62174056E+02</rscale>
<asrwt>0</asrwt>
<pdfrwt beam="1">  1        2 0.29375822E-01 0.98125535E+02</pdfrwt>
<pdfrwt beam="2">  1       -2 0.27129536E-02 0.98125535E+02</pdfrwt>
<totfact> 0.76763010E+04</totfact>
</mgrwt>
</event>
<event>
 6    1  0.1683416E-002  0.9006099E+02  0.7546771E-02  0.1431745E+00
          4   -1    0    0  501    0  0.00000000000E+00  0.00000000000E+00  0.20673390339E+01  0.20673390339E+01  0.00000000000E+00 0. -1.
         -4   -1    0    0    0  501 -0.00000000000E+00 -0.00000000000E+00 -0.13046996796E+04  0.13046996796E+04  0.00000000000E+00 0.  1.
         23    2    1    2    0    0  0.10982483430E+01  0.10430705323E+02 -0.12396653916E+04  0.12429325262E+04  0.89448173690E+02 0.  0.
         11    1    3    3    0    0 -0.38436867226E+01 -0.13388978553E+02 -0.11482837797E+04  0.11483682673E+04  0.00000000000E+00 0.  1.
        -11    1    3    3    0    0  0.49419350655E+01  0.23819683877E+02 -0.91381611903E+02  0.94564258873E+02  0.00000000000E+00 0. -1.
         22    1    1    2    0    0 -0.10982483430E+01 -0.10430705323E+02 -0.62966948957E+02  0.63834492431E+02  0.00000000000E+00 0. -1.
<mgrwt>
<rscale>  0 0.52611352E+02</rscale>
<asrwt>0</asrwt>
<pdfrwt beam="1">  1        4 0.31805236E-03 0.90060988E+02</pdfrwt>
<pdfrwt beam="2">  1       -4 0.20072290E+00 0.90060988E+02</pdfrwt>
<totfact> 0.35126840E+03</totfact>
</mgrwt>
</event>
<event>
 6    1  0.1683416E-002  0.1078457E+03  0.7546771E-02  0.1334622E+00
          4   -1    0    0  501    0  0.00000000000E+00  0.00000000000E+00  0.54372344086E+02  0.54372344086E+02  0.00000000000E+00 0. -1.
         -4   -1    0    0    0  501 -0.00000000000E+00 -0.00000000000E+00 -0.10959629108E+03  0.10959629108E+03  0.00000000000E+00 0.  1.
         23    2    1    2    0    0  0.11009390738E+02  0.27492299475E+02 -0.72248093508E+02  0.12980937904E+03  0.10369982959E+03 0.  0.
         13    1    3    3    0    0 -0.17600436853E+02 -0.28318278281E+02  0.10289000922E+01  0.33358040974E+02  0.00000000000E+00 0. -1.
        -13    1    3    3    0    0  0.28609827592E+02  0.55810577756E+02 -0.73276993600E+02  0.96451338069E+02  0.00000000000E+00 0.  1.
         22    1    1    2    0    0 -0.11009390738E+02 -0.27492299475E+02  0.17024146509E+02  0.34159256127E+02  0.00000000000E+00 0. -1.
<mgrwt>
<rscale>  0 0.78069074E+02</rscale>
<asrwt>0</asrwt>
<pdfrwt beam="1">  1        4 0.83649759E-02 0.10784567E+03</pdfrwt>
<pdfrwt beam="2">  1       -4 0.16860968E-01 0.10784567E+03</pdfrwt>
<totfact> 0.48383130E+03</totfact>
</mgrwt>
</event>
<event>
 6    1  0.1683416E-002  0.1027828E+03  0.7546771E-02  0.1316498E+00
         -2   -1    0    0    0  501 -0.00000000000E+00  0.00000000000E+00  0.12721296431E+03  0.12721296431E+03  0.00000000000E+00 0.  1.
          2   -1    0    0  501    0  0.00000000000E+00 -0.00000000000E+00 -0.44217238161E+02  0.44217238161E+02  0.00000000000E+00 0. -1.
         23    2    1    2    0    0  0.47146167848E+02 -0.12349058274E+01  0.54724640674E+02  0.11644347308E+03  0.91323655153E+02 0.  0.
         11    1    3    3    0    0  0.14780212635E+02 -0.32465194508E+02 -0.10527561275E+02  0.37192379413E+02  0.00000000000E+00 0. -1.
        -11    1    3    3    0    0  0.32365955213E+02  0.31230288681E+02  0.65252201950E+02  0.79251093666E+02  0.00000000000E+00 0.  1.
         22    1    1    2    0    0 -0.47146167848E+02  0.12349058274E+01  0.28271085471E+02  0.54986729389E+02  0.00000000000E+00 0. -1.
<mgrwt>
<rscale>  0 0.84593899E+02</rscale>
<asrwt>0</asrwt>
<pdfrwt beam="1">  1        2 0.68026521E-02 0.10278276E+03</pdfrwt>
<pdfrwt beam="2">  1       -2 0.19571225E-01 0.10278276E+03</pdfrwt>
<totfact> 0.20493201E+04</totfact>
</mgrwt>
</event>
<event>
 6    1  0.1683416E-002  0.9698624E+02  0.7546771E-02  0.1379891E+00
         -1   -1    0    0    0  501 -0.00000000000E+00  0.00000000000E+00  0.24190406820E+03  0.24190406820E+03  0.00000000000E+00 0. -1.
          1   -1    0    0  501    0  0.00000000000E+00 -0.00000000000E+00 -0.15474911553E+02  0.15474911553E+02  0.00000000000E+00 0.  1.
         23    2    1    2    0    0 -0.40785332766E+01 -0.18518946115E+02  0.21330101862E+03  0.23431528953E+03  0.95114376215E+02 0.  0.
         13    1    3    3    0    0  0.24586012147E+02  0.82003229003E+01  0.18287818228E+03  0.18470556798E+03  0.00000000000E+00 0. -1.
        -13    1    3    3    0    0 -0.28664545423E+02 -0.26719269015E+02  0.30422836343E+02  0.49609721549E+02  0.00000000000E+00 0.  1.
         22    1    1    2    0    0  0.40785332766E+01  0.18518946115E+02  0.13128138030E+02  0.23063690230E+02  0.00000000000E+00 0.  1.
<mgrwt>
<rscale>  0 0.64492305E+02</rscale>
<asrwt>0</asrwt>
<pdfrwt beam="1">  1        1 0.23807558E-02 0.96986238E+02</pdfrwt>
<pdfrwt beam="2">  1       -1 0.37216008E-01 0.96986238E+02</pdfrwt>
<totfact> 0.29305320E+04</totfact>
</mgrwt>
</event>
<event>
 6    1  0.1683416E-002  0.8797416E+02  0.7546771E-02  0.1428442E+00
         -2   -1    0    0    0  501 -0.00000000000E+00  0.00000000000E+00  0.11186108633E+02  0.11186108633E+02  0.00000000000E+00 0.  1.
          2   -1    0    0  501    0  0.00000000000E+00 -0.00000000000E+00 -0.24949865471E+03  0.24949865471E+03  0.00000000000E+00 0. -1.
         23    2    1    2    0    0 -0.10665382132E+02  0.51193542289E+01 -0.17060942382E+03  0.19195579619E+03  0.87175076874E+02 0.  0.
         11    1    3    3    0    0  0.34596910336E+02  0.12096295028E+02 -0.11029365914E+03  0.11622374028E+03  0.00000000000E+00 0. -1.
        -11    1    3    3    0    0 -0.45262292468E+02 -0.69769407994E+01 -0.60315764688E+02  0.75732055909E+02  0.00000000000E+00 0.  1.
         22    1    1    2    0    0  0.10665382132E+02 -0.51193542289E+01 -0.67703122251E+02  0.68728967156E+02  0.00000000000E+00 0.  1.
<mgrwt>
<rscale>  0 0.53274099E+02</rscale>
<asrwt>0</asrwt>
<pdfrwt beam="1">  1        2 0.38384406E-01 0.87974156E+02</pdfrwt>
<pdfrwt beam="2">  1       -2 0.17209399E-02 0.87974156E+02</pdfrwt>
<totfact> 0.10953742E+05</totfact>
</mgrwt>
</event>
<event>
 6    1  0.1683416E-002  0.9409413E+02  0.7546771E-02  0.1379066E+00
          4   -1    0    0  501    0  0.00000000000E+00  0.00000000000E+00  0.33415304849E+02  0.33415304849E+02  0.00000000000E+00 0. -1.
         -4   -1    0    0    0  501 -0.00000000000E+00 -0.00000000000E+00 -0.30085772244E+03  0.30085772244E+03  0.00000000000E+00 0.  1.
         23    2    1    2    0    0 -0.62468843610E+01  0.20098829110E+02 -0.28912751948E+03  0.30405332940E+03  0.91709967296E+02 0.  0.
         13    1    3    3    0    0 -0.43976102310E+02  0.15981883563E+02 -0.22257042153E+03  0.22743550892E+03  0.00000000000E+00 0.  1.
        -13    1    3    3    0    0  0.37729217949E+02  0.41169455471E+01 -0.66557097957E+02  0.76617820487E+02  0.00000000000E+00 0. -1.
         22    1    1    2    0    0  0.62468843610E+01 -0.20098829110E+02  0.21685101898E+02  0.30219697883E+02  0.00000000000E+00 0. -1.
<mgrwt>
<rscale>  0 0.64709895E+02</rscale>
<asrwt>0</asrwt>
<pdfrwt beam="1">  1        4 0.51408162E-02 0.94094126E+02</pdfrwt>
<pdfrwt beam="2">  1       -4 0.46285803E-01 0.94094126E+02</pdfrwt>
<totfact> 0.15649662E+03</totfact>
</mgrwt>
</event>
<event>
 6    1  0.1683416E-002  0.9032639E+02  0.7546771E-02  0.1420488E+00
          2   -1    0    0  501    0  0.00000000000E+00  0.00000000000E+00  0.18543310055E+02  0.18543310055E+02  0.00000000000E+00 0. -1.
         -2   -1    0    0    0  501 -0.00000000000E+00 -0.00000000000E+00 -0.14211583004E+03  0.14211583004E+03  0.00000000000E+00 0.  1.
         23    2    1    2    0    0  0.11747795980E+02 -0.37855838414E+01 -0.10897346182E+03  0.14154176960E+03  0.89479136141E+02 0.  0.
         11    1    3    3    0    0  0.43664291496E-01  0.18528130542E+02 -0.11429659952E+03  0.11578862721E+03  0.00000000000E+00 0.  1.
        -11    1    3    3    0    0  0.11704131689E+02 -0.22313714384E+02  0.53231376998E+01  0.25753142394E+02  0.00000000000E+00 0. -1.
         22    1    1    2    0    0 -0.11747795980E+02  0.37855838414E+01 -0.14599058163E+02  0.19117370495E+02  0.00000000000E+00 0. -1.
<mgrwt>
<rscale>  0 0.54917812E+02</rscale>
<asrwt>0</asrwt>
<pdfrwt beam="1">  1        2 0.28528171E-02 0.90326392E+02</pdfrwt>
<pdfrwt beam="2">  1       -2 0.21863973E-01 0.90326392E+02</pdfrwt>
<totfact> 0.51771588E+04</totfact>
</mgrwt>
</event>
<event>
 6    1  0.1683416E-002  0.8072772E+02  0.7546771E-02  0.1453759E+00
         -2   -1    0    0    0  501 -0.00000000000E+00  0.00000000000E+00  0.90792785176E+02  0.90792785176E+02  0.00000000000E+00 0.  1.
          2   -1    0    0  501    0  0.00000000000E+00 -0.00000000000E+00 -0.71148885256E+02  0.71148885256E+02  0.00000000000E+00 0. -1.
         23    2    1    2    0    0 -0.66292512186E+01  0.81341506450E+01  0.72226723020E+02  0.10832204097E+03  0.80042823933E+02 0.  0.
         13    1    3    3    0    0  0.12819380445E+02 -0.17480675942E+02  0.73000576499E+02  0.76151130757E+02  0.00000000000E+00 0.  1.
        -13    1    3    3    0    0 -0.19448631663E+02  0.25614826587E+02 -0.77385347909E+00  0.32170910212E+02  0.00000000000E+00 0. -1.
         22    1    1    2    0    0  0.66292512186E+01 -0.81341506450E+01 -0.52582823100E+02  0.53619629462E+02  0.00000000000E+00 0. -1.
<mgrwt>
<rscale>  0 0.48472570E+02</rscale>
<asrwt>0</asrwt>
<pdfrwt beam="1">  1        2 0.10945982E-01 0.80727722E+02</pdfrwt>
<pdfrwt beam="2">  1       -2 0.13968121E-01 0.80727722E+02</pdfrwt>
<totfact> 0.19274891E+04</totfact>
</mgrwt>
</event>
<event>
 6    1  0.1683416E-002  0.8901066E+02  0.7546771E-02  0.1370583E+00
         -2   -1    0    0    0  501 -0.00000000000E+00  0.00000000000E+00  0.22880275375E+03  0.22880275375E+03  0.00000000000E+00 0.  1.
          2   -1    0    0  501    0  0.00000000000E+00 -0.00000000000E+00 -0.16285928914E+02  0.16285928914E+02  0.00000000000E+00 0. -1.
         23    2    1    2    0    0 -0.23282850628E+02  0.16580680523E+02  0.12829749854E+03  0.15615103584E+03  0.84296427941E+02 0.  0.
         13    1    3    3    0    0 -0.32027832400E+02  0.38645633930E+02  0.38465858684E+02  0.63236772169E+02  0.00000000000E+00 0. -1.
        -13    1    3    3    0    0  0.87449817720E+01 -0.22064953407E+02  0.89831639853E+02  0.92914263673E+02  0.00000000000E+00 0.  1.
         22    1    1    2    0    0  0.23282850628E+02 -0.16580680523E+02  0.84219326297E+02  0.88937646820E+02  0.00000000000E+00 0.  1.
<mgrwt>
<rscale>  0 0.67005422E+02</rscale>
<asrwt>0</asrwt>
<pdfrwt beam="1">  1        2 0.25055277E-02 0.89010662E+02</pdfrwt>
<pdfrwt beam="2">  1       -2 0.35200421E-01 0.89010662E+02</pdfrwt>
<totfact> 0.26563872E+04</totfact>
</mgrwt>
</event>
<event>
 6    1  0.1683416E-002  0.9225278E+02  0.7546771E-02  0.1424562E+00
          2   -1    0    0  501    0  0.00000000000E+00  0.00000000000E+00  0.96908345481E+02  0.96908345481E+02  0.00000000000E+00 0. -1.
         -2   -1    0    0    0  501 -0.00000000000E+00 -0.00000000000E+00 -0.38878597322E+02  0.38878597322E+02  0.00000000000E+00 0.  1.
         23    2    1    2    0    0 -0.60447397935E+00 -0.10867457285E+02  0.17598608667E+02  0.93916379667E+02  0.91608451172E+02 0.  0.
         13    1    3    3    0    0  0.43871331999E+02 -0.93570554142E+01 -0.28356751710E+01  0.44947628537E+02  0.00000000000E+00 0.  1.
        -13    1    3    3    0    0 -0.44475805979E+02 -0.15104018705E+01  0.20434283838E+02  0.48968751130E+02  0.00000000000E+00 0. -1.
         22    1    1    2    0    0  0.60447397935E+00  0.10867457285E+02  0.40431139492E+02  0.41870563135E+02  0.00000000000E+00 0.  1.
<mgrwt>
<rscale>  0 0.54067249E+02</rscale>
<asrwt>0</asrwt>
<pdfrwt beam="1">  1        2 0.14908976E-01 0.92252780E+02</pdfrwt>
<pdfrwt beam="2">  1       -2 0.59813227E-02 0.92252780E+02</pdfrwt>
<totfact> 0.50517229E+04</totfact>
</mgrwt>
</event>
<event>
 6    1  0.1683416E-002  0.9402796E+02  0.7546771E-02  0.1362608E+00
          2   -1    0    0  501    0  0.00000000000E+00  0.00000000000E+00  0.19084683939E+03  0.19084683939E+03  0.00000000000E+00 0. -1.
         -2   -1    0    0    0  501 -0.00000000000E+00 -0.00000000000E+00 -0.20205135764E+02  0.20205135764E+02  0.00000000000E+00 0.  1.
         23    2    1    2    0    0 -0.30899251298E+01  0.27515575987E+02  0.14771888822E+03  0.17510604319E+03  0.89858788455E+02 0.  0.
         11    1    3    3    0    0  0.37692298862E+02 -0.79869782674E+01  0.46844277453E+02  0.60653833724E+02  0.00000000000E+00 0.  1.
        -11    1    3    3    0    0 -0.40782223992E+02  0.35502554255E+02  0.10087461077E+03  0.11445220946E+03  0.00000000000E+00 0. -1.
         22    1    1    2    0    0  0.30899251298E+01 -0.27515575987E+02  0.22922815407E+02  0.35945931973E+02  0.00000000000E+00 0. -1.
<mgrwt>
<rscale>  0 0.69265618E+02</rscale>
<asrwt>0</asrwt>
<pdfrwt beam="1">  1        2 0.29361051E-01 0.94027956E+02</pdfrwt>
<pdfrwt beam="2">  1       -2 0.31084826E-02 0.94027956E+02</pdfrwt>
<totfact> 0.62635642E+04</totfact>
</mgrwt>
</event>
<event>
 6    1  0.1683416E-002  0.9266330E+02  0.7546771E-02  0.1400318E+00
          2   -1    0    0  501    0  0.00000000000E+00  0.00000000000E+00  0.17867267372E+01  0.17867267372E+01  0.00000000000E+00 0. -1.
         -2   -1    0    0    0  501 -0.00000000000E+00 -0.00000000000E+00 -0.21728512138E+04  0.21728512138E+04  0.00000000000E+00 0.  1.
         23    2    1    2    0    0 -0.15323421943E+02  0.32234270111E+01 -0.20912477134E+04  0.20932996648E+04  0.91330663638E+02 0.  0.
         13    1    3    3    0    0  0.34792532290E+02  0.19591176569E+02 -0.88386331417E+03  0.88476476684E+03  0.00000000000E+00 0.  1.
        -13    1    3    3    0    0 -0.50115954233E+02 -0.16367749558E+02 -0.12073843992E+04  0.12085348979E+04  0.00000000000E+00 0. -1.
         22    1    1    2    0    0  0.15323421943E+02 -0.32234270111E+01 -0.79816773734E+02  0.81338275806E+02  0.00000000000E+00 0. -1.
<mgrwt>
<rscale>  0 0.59411483E+02</rscale>
<asrwt>0</asrwt>
<pdfrwt beam="1">  1        2 0.27488338E-03 0.92663304E+02</pdfrwt>
<pdfrwt beam="2">  1       -2 0.33428196E+00 0.92663304E+02</pdfrwt>
<totfact> 0.19311443E+03</totfact>
</mgrwt>
</event>
<event>
 6    1  0.1683416E-002  0.9938922E+02  0.7546771E-02  0.1330535E+00
          4   -1    0    0  501    0  0.00000000000E+00  0.00000000000E+00  0.52282805401E+01  0.52282805401E+01  0.00000000000E+00 0. -1.
         -4   -1    0    0    0  501 -0.00000000000E+00 -0.00000000000E+00 -0.97806576019E+03  0.97806576019E+03  0.00000000000E+00 0.  1.
         23    2    1    2    0    0 -0.30047138056E+02 -0.27370517792E+02 -0.77315149562E+03  0.77951360014E+03  0.90698632142E+02 0.  0.
         13    1    3    3    0    0  0.21283734772E+02  0.12149756495E+02 -0.40234819701E+03  0.40309389177E+03  0.00000000000E+00 0. -1.
        -13    1    3    3    0    0 -0.51330872828E+02 -0.39520274288E+02 -0.37080329861E+03  0.37641970837E+03  0.00000000000E+00 0.  1.
         22    1    1    2    0    0  0.30047138056E+02  0.27370517792E+02 -0.19968598403E+03  0.20378044059E+03  0.00000000000E+00 0. -1.
<mgrwt>
<rscale>  0 0.79479464E+02</rscale>
<asrwt>0</asrwt>
<pdfrwt beam="1">  1        4 0.80435036E-03 0.99389223E+02</pdfrwt>
<pdfrwt beam="2">  1       -4 0.15047175E+00 0.99389223E+02</pdfrwt>
<totfact> 0.19810716E+03</totfact>
</mgrwt>
</event>
<event>
 6    1  0.1683416E-002  0.9034073E+02  0.7546771E-02  0.1408689E+00
          2   -1    0    0  501    0  0.00000000000E+00  0.00000000000E+00  0.22219089945E+03  0.22219089945E+03  0.00000000000E+00 0. -1.
         -2   -1    0    0    0  501 -0.00000000000E+00 -0.00000000000E+00 -0.13431621220E+02  0.13431621220E+02  0.00000000000E+00 0.  1.
         23    2    1    2    0    0 -0.14636193057E+02 -0.22817364605E+01  0.15070671311E+03  0.17570987772E+03  0.89118030067E+02 0.  0.
         11    1    3    3    0    0  0.64925313140E+01  0.21716621060E+02  0.14024929797E+03  0.14206910352E+03  0.00000000000E+00 0. -1.
        -11    1    3    3    0    0 -0.21128724371E+02 -0.23998357521E+02  0.10457415135E+02  0.33640774196E+02  0.00000000000E+00 0.  1.
         22    1    1    2    0    0  0.14636193057E+02  0.22817364605E+01  0.58052565119E+02  0.59912642951E+02  0.00000000000E+00 0. -1.
<mgrwt>
<rscale>  0 0.57487488E+02</rscale>
<asrwt>0</asrwt>
<pdfrwt beam="1">  1        2 0.34183212E-01 0.90340731E+02</pdfrwt>
<pdfrwt beam="2">  1       -2 0.20664034E-02 0.90340731E+02</pdfrwt>
<totfact> 0.95619996E+04</totfact>
</mgrwt>
</event>
<event>
 6    1  0.1683416E-002  0.9983206E+02  0.7546771E-02  0.1342685E+00
          2   -1    0    0  501    0  0.00000000000E+00  0.00000000000E+00  0.23506985388E+03  0.23506985388E+03  0.00000000000E+00 0. -1.
         -2   -1    0    0    0  501 -0.00000000000E+00 -0.00000000000E+00 -0.35558839399E+02  0.35558839399E+02  0.00000000000E+00 0.  1.
         23    2    1    2    0    0  0.31892477858E+02 -0.60301759252E+01  0.39505719269E+02  0.10736452801E+03  0.94408404573E+02 0.  0.
         13    1    3    3    0    0  0.14492845775E+02  0.14962810064E+02 -0.27804055062E+02  0.34741815461E+02  0.00000000000E+00 0.  1.
        -13    1    3    3    0    0  0.17399632084E+02 -0.20992985989E+02  0.67309774331E+02  0.72622712548E+02  0.00000000000E+00 0. -1.
         22    1    1    2    0    0 -0.31892477858E+02  0.60301759252E+01  0.16000529521E+03  0.16326416527E+03  0.00000000000E+00 0. -1.
<mgrwt>
<rscale>  0 0.75384401E+02</rscale>
<asrwt>0</asrwt>
<pdfrwt beam="1">  1        2 0.36164592E-01 0.99832059E+02</pdfrwt>
<pdfrwt beam="2">  1       -2 0.54705908E-02 0.99832059E+02</pdfrwt>
<totfact> 0.21948144E+04</totfact>
</mgrwt>
</event>
<event>
 6    1  0.1683416E-002  0.1395653E+03  0.7546771E-02  0.1227406E+00
         -4   -1    0    0    0  501 -0.00000000000E+00  0.00000000000E+00  0.96481921656E+02  0.96481921656E+02  0.00000000000E+00 0.  1.
          4   -1    0    0  501    0  0.00000000000E+00 -0.00000000000E+00 -0.27019447231E+03  0.27019447231E+03  0.00000000000E+00 0. -1.
         23    2    1    2    0    0  0.10139314170E+03  0.27932152546E+02  0.25058569031E+02  0.14179702108E+03  0.91747964428E+02 0.  0.
         13    1    3    3    0    0  0.14986950491E+02  0.11882187946E+02 -0.31810828466E+02  0.37117703095E+02  0.00000000000E+00 0. -1.
        -13    1    3    3    0    0  0.86406191204E+02  0.16049964600E+02  0.56869397497E+02  0.10467931798E+03  0.00000000000E+00 0.  1.
         22    1    1    2    0    0 -0.10139314170E+03 -0.27932152546E+02 -0.19877111968E+03  0.22487937288E+03  0.00000000000E+00 0.  1.
<mgrwt>
<rscale>  0 0.13003378E+03</rscale>
<asrwt>0</asrwt>
<pdfrwt beam="1">  1        4 0.41568380E-01 0.13956527E+03</pdfrwt>
<pdfrwt beam="2">  1       -4 0.14843373E-01 0.13956527E+03</pdfrwt>
<totfact> 0.36158676E+02</totfact>
</mgrwt>
</event>
<event>
 6    1  0.1683416E-002  0.9292380E+02  0.7546771E-02  0.1325933E+00
          1   -1    0    0  501    0  0.00000000000E+00  0.00000000000E+00  0.53453656079E+03  0.53453656079E+03  0.00000000000E+00 0. -1.
         -1   -1    0    0    0  501 -0.00000000000E+00 -0.00000000000E+00 -0.10935701865E+02  0.10935701865E+02  0.00000000000E+00 0.  1.
         23    2    1    2    0    0  0.42746356296E+02 -0.32894813625E+02  0.39935637736E+03  0.41002481550E+03  0.75667122664E+02 0.  0.
         13    1    3    3    0    0  0.32688809786E+02 -0.54699662709E+02  0.34131177475E+03  0.34720935899E+03  0.00000000000E+00 0. -1.
        -13    1    3    3    0    0  0.10057546510E+02  0.21804849084E+02  0.58044602605E+02  0.62815456513E+02  0.00000000000E+00 0.  1.
         22    1    1    2    0    0 -0.42746356296E+02  0.32894813625E+02  0.12424448157E+03  0.13544744715E+03  0.00000000000E+00 0.  1.
<mgrwt>
<rscale>  0 0.81109022E+02</rscale>
<asrwt>0</asrwt>
<pdfrwt beam="1">  1        1 0.82236374E-01 0.92923803E+02</pdfrwt>
<pdfrwt beam="2">  1       -1 0.16824161E-02 0.92923803E+02</pdfrwt>
<totfact> 0.32671377E+04</totfact>
</mgrwt>
</event>
<event>
 6    1  0.1683416E-002  0.8993554E+02  0.7546771E-02  0.1432144E+00
         -2   -1    0    0    0  501 -0.00000000000E+00  0.00000000000E+00  0.26769784164E+02  0.26769784164E+02  0.00000000000E+00 0.  1.
          2   -1    0    0  501    0  0.00000000000E+00 -0.00000000000E+00 -0.96525864811E+02  0.96525864811E+02  0.00000000000E+00 0. -1.
         23    2    1    2    0    0 -0.35116588214E+01  0.98624131758E+01 -0.55764443180E+02  0.10582095698E+03  0.89324144953E+02 0.  0.
         13    1    3    3    0    0 -0.41443578942E+02  0.21763330951E+02 -0.15683309173E+02  0.49367793107E+02  0.00000000000E+00 0.  1.
        -13    1    3    3    0    0  0.37931920121E+02 -0.11900917775E+02 -0.40081134007E+02  0.56453163873E+02  0.00000000000E+00 0. -1.
         22    1    1    2    0    0  0.35116588214E+01 -0.98624131758E+01 -0.13991637466E+02  0.17474691995E+02  0.00000000000E+00 0. -1.
<mgrwt>
<rscale>  0 0.52532046E+02</rscale>
<asrwt>0</asrwt>
<pdfrwt beam="1">  1        2 0.14850133E-01 0.89935543E+02</pdfrwt>
<pdfrwt beam="2">  1       -2 0.41184284E-02 0.89935543E+02</pdfrwt>
<totfact> 0.88017375E+04</totfact>
</mgrwt>
</event>
<event>
 6    1  0.1683416E-002  0.1057047E+03  0.7546771E-02  0.1305332E+00
          2   -1    0    0  501    0  0.00000000000E+00  0.00000000000E+00  0.27797769839E+03  0.27797769839E+03  0.00000000000E+00 0. -1.
         -2   -1    0    0    0  501 -0.00000000000E+00 -0.00000000000E+00 -0.24465416909E+02  0.24465416909E+02  0.00000000000E+00 0.  1.
         23    2    1    2    0    0 -0.46535214890E+02  0.25539439118E+02  0.12692845196E+03  0.16517966397E+03  0.91409519723E+02 0.  0.
         11    1    3    3    0    0 -0.51538133715E+02  0.74792859761E+01  0.13505896114E+03  0.14475165605E+03  0.00000000000E+00 0. -1.
        -11    1    3    3    0    0  0.50029188250E+01  0.18060153141E+02 -0.81305091723E+01  0.20428007922E+02  0.00000000000E+00 0.  1.
         22    1    1    2    0    0  0.46535214890E+02 -0.25539439118E+02  0.12658382951E+03  0.13726345132E+03  0.00000000000E+00 0.  1.
<mgrwt>
<rscale>  0 0.88983477E+02</rscale>
<asrwt>0</asrwt>
<pdfrwt beam="1">  1        2 0.42765797E-01 0.10570473E+03</pdfrwt>
<pdfrwt beam="2">  1       -2 0.37639105E-02 0.10570473E+03</pdfrwt>
<totfact> 0.32235989E+04</totfact>
</mgrwt>
</event>
<event>
 6    1  0.1683416E-002  0.1256816E+03  0.7546771E-02  0.1252552E+00
         -2   -1    0    0    0  501 -0.00000000000E+00  0.00000000000E+00  0.17861889583E+02  0.17861889583E+02  0.00000000000E+00 0.  1.
          2   -1    0    0  501    0  0.00000000000E+00 -0.00000000000E+00 -0.64878898620E+03  0.64878898620E+03  0.00000000000E+00 0. -1.
         23    2    1    2    0    0 -0.12004110182E+02  0.85574944375E+02 -0.31579389211E+03  0.33988474175E+03  0.91261632770E+02 0.  0.
         11    1    3    3    0    0 -0.12165751708E+02  0.10520058740E+03 -0.26004758027E+03  0.28078446024E+03  0.00000000000E+00 0.  1.
        -11    1    3    3    0    0  0.16164152647E+00 -0.19625643022E+02 -0.55746311833E+02  0.59100281514E+02  0.00000000000E+00 0. -1.
         22    1    1    2    0    0  0.12004110182E+02 -0.85574944375E+02 -0.31513320451E+03  0.32676613403E+03  0.00000000000E+00 0. -1.
<mgrwt>
<rscale>  0 0.11444536E+03</rscale>
<asrwt>0</asrwt>
<pdfrwt beam="1">  1        2 0.99813692E-01 0.12568156E+03</pdfrwt>
<pdfrwt beam="2">  1       -2 0.27479830E-02 0.12568156E+03</pdfrwt>
<totfact> 0.20826586E+04</totfact>
</mgrwt>
</event>
<event>
 6    1  0.1683416E-002  0.9815270E+02  0.7546771E-02  0.1380495E+00
         -2   -1    0    0    0  501 -0.00000000000E+00  0.00000000000E+00  0.17916903920E+02  0.17916903920E+02  0.00000000000E+00 0.  1.
          2   -1    0    0  501    0  0.00000000000E+00 -0.00000000000E+00 -0.18897026948E+03  0.18897026948E+03  0.00000000000E+00 0. -1.
         23    2    1    2    0    0  0.57261354351E+01 -0.17186854720E+02 -0.14108593664E+03  0.17186970064E+03  0.96466449500E+02 0.  0.
         13    1    3    3    0    0 -0.91975709188E+01  0.28948094026E+02 -0.98005297649E+01  0.31916106314E+02  0.00000000000E+00 0.  1.
        -13    1    3    3    0    0  0.14923706354E+02 -0.46134948747E+02 -0.13128540688E+03  0.13995359433E+03  0.00000000000E+00 0. -1.
         22    1    1    2    0    0 -0.57261354351E+01  0.17186854720E+02 -0.29967428920E+02  0.35017472757E+02  0.00000000000E+00 0.  1.
<mgrwt>
<rscale>  0 0.64333938E+02</rscale>
<asrwt>0</asrwt>
<pdfrwt beam="1">  1        2 0.29072351E-01 0.98152700E+02</pdfrwt>
<pdfrwt beam="2">  1       -2 0.27564465E-02 0.98152700E+02</pdfrwt>
<totfact> 0.75854477E+04</totfact>
</mgrwt>
</event>
<event>
 6    1  0.1683416E-002  0.9182477E+02  0.7546771E-02  0.1415933E+00
         -1   -1    0    0    0  501 -0.00000000000E+00  0.00000000000E+00  0.99325800262E+01  0.99325800262E+01  0.00000000000E+00 0.  1.
          1   -1    0    0  501    0  0.00000000000E+00 -0.00000000000E+00 -0.28482473683E+03  0.28482473683E+03  0.00000000000E+00 0. -1.
         23    2    1    2    0    0 -0.68300549748E+00 -0.12584545487E+02 -0.21918451915E+03  0.23764183581E+03  0.90955766242E+02 0.  0.
         13    1    3    3    0    0 -0.55497402574E+01  0.27182099983E+02 -0.19334094098E+02  0.33815283098E+02  0.00000000000E+00 0.  1.
        -13    1    3    3    0    0  0.48667347599E+01 -0.39766645469E+02 -0.19985042505E+03  0.20382655271E+03  0.00000000000E+00 0. -1.
         22    1    1    2    0    0  0.68300549748E+00  0.12584545487E+02 -0.55707637654E+02  0.57115481041E+02  0.00000000000E+00 0. -1.
<mgrwt>
<rscale>  0 0.55890623E+02</rscale>
<asrwt>0</asrwt>
<pdfrwt beam="1">  1        1 0.43819183E-01 0.91824772E+02</pdfrwt>
<pdfrwt beam="2">  1       -1 0.15280895E-02 0.91824772E+02</pdfrwt>
<totfact> 0.82046914E+04</totfact>
</mgrwt>
</event>
<event>
 6    1  0.1683416E-002  0.1003572E+03  0.7546771E-02  0.1350936E+00
          2   -1    0    0  501    0  0.00000000000E+00  0.00000000000E+00  0.16965487746E+03  0.16965487746E+03  0.00000000000E+00 0. -1.
         -2   -1    0    0    0  501 -0.00000000000E+00 -0.00000000000E+00 -0.24235796512E+02  0.24235796512E+02  0.00000000000E+00 0.  1.
         23    2    1    2    0    0  0.55840215489E+01 -0.27167497785E+02  0.10993540326E+03  0.14885351582E+03  0.96448546118E+02 0.  0.
         11    1    3    3    0    0 -0.29765440243E+02  0.77490008350E+00  0.97737114915E+02  0.10217203891E+03  0.00000000000E+00 0. -1.
        -11    1    3    3    0    0  0.35349461792E+02 -0.27942397868E+02  0.12198288344E+02  0.46681476906E+02  0.00000000000E+00 0.  1.
         22    1    1    2    0    0 -0.55840215489E+01  0.27167497785E+02  0.35483677694E+02  0.45037158161E+02  0.00000000000E+00 0.  1.
<mgrwt>
<rscale>  0 0.72764622E+02</rscale>
<asrwt>0</asrwt>
<pdfrwt beam="1">  1        2 0.26100750E-01 0.10035724E+03</pdfrwt>
<pdfrwt beam="2">  1       -2 0.37285842E-02 0.10035724E+03</pdfrwt>
<totfact> 0.54983808E+04</totfact>
</mgrwt>
</event>
<event>
 6    1  0.1683416E-002  0.9914175E+02  0.7546771E-02  0.1352452E+00
         -2   -1    0    0    0  501 -0.00000000000E+00  0.00000000000E+00  0.71873654180E+01  0.71873654180E+01  0.00000000000E+00 0.  1.
          2   -1    0    0  501    0  0.00000000000E+00 -0.00000000000E+00 -0.76149334067E+03  0.76149334067E+03  0.00000000000E+00 0. -1.
         23    2    1    2    0    0 -0.21129744383E+02 -0.18426223186E+02 -0.70520280926E+03  0.71213768964E+03  0.95095189248E+02 0.  0.
         13    1    3    3    0    0 -0.46247044184E+02 -0.38255816267E+02 -0.57220031006E+03  0.57533945754E+03  0.00000000000E+00 0. -1.
        -13    1    3    3    0    0  0.25117299801E+02  0.19829593081E+02 -0.13300249921E+03  0.13679823210E+03  0.00000000000E+00 0.  1.
         22    1    1    2    0    0  0.21129744383E+02  0.18426223186E+02 -0.49103165986E+02  0.56543016443E+02  0.00000000000E+00 0. -1.
<mgrwt>
<rscale>  0 0.72296903E+02</rscale>
<asrwt>0</asrwt>
<pdfrwt beam="1">  1        2 0.11715289E+00 0.99141751E+02</pdfrwt>
<pdfrwt beam="2">  1       -2 0.11057479E-02 0.99141751E+02</pdfrwt>
<totfact> 0.62432937E+04</totfact>
</mgrwt>
</event>
<event>
 6    1  0.1683416E-002  0.9304264E+02  0.7546771E-02  0.1391114E+00
          2   -1    0    0  501    0  0.00000000000E+00  0.00000000000E+00  0.44914981356E+03  0.44914981356E+03  0.00000000000E+00 0.  1.
         -2   -1    0    0    0  501 -0.00000000000E+00 -0.00000000000E+00 -0.72358229969E+01  0.72358229969E+01  0.00000000000E+00 0. -1.
         23    2    1    2    0    0 -0.16914136867E+02  0.58936605500E+01  0.40216159319E+03  0.41278430220E+03  0.91302299243E+02 0.  0.
         13    1    3    3    0    0 -0.37770098761E-01 -0.22346026878E+02  0.22538759207E+02  0.31738651679E+02  0.00000000000E+00 0. -1.
        -13    1    3    3    0    0 -0.16876366768E+02  0.28239687428E+02  0.37962283398E+03  0.38104565052E+03  0.00000000000E+00 0.  1.
         22    1    1    2    0    0  0.16914136867E+02 -0.58936605500E+01  0.39752397381E+02  0.43601334362E+02  0.00000000000E+00 0.  1.
<mgrwt>
<rscale>  0 0.61630367E+02</rscale>
<asrwt>0</asrwt>
<pdfrwt beam="1">  1        2 0.69099950E-01 0.93042641E+02</pdfrwt>
<pdfrwt beam="2">  1       -2 0.11132039E-02 0.93042641E+02</pdfrwt>
<totfact> 0.11086619E+05</totfact>
</mgrwt>
</event>
<event>
 6    1  0.1683416E-002  0.9349802E+02  0.7546771E-02  0.1367807E+00
         -2   -1    0    0    0  501 -0.00000000000E+00  0.00000000000E+00  0.16724569992E+03  0.16724569992E+03  0.00000000000E+00 0.  1.
          2   -1    0    0  501    0  0.00000000000E+00 -0.00000000000E+00 -0.48469668032E+02  0.48469668032E+02  0.00000000000E+00 0. -1.
         23    2    1    2    0    0  0.25659952749E+02  0.29020021250E+01  0.14903480752E+03  0.17593536928E+03  0.89861145761E+02 0.  0.
         13    1    3    3    0    0  0.42497437415E+01  0.43214411337E+02  0.46081207755E+02  0.63316849079E+02  0.00000000000E+00 0. -1.
        -13    1    3    3    0    0  0.21410209008E+02 -0.40312409212E+02  0.10295359977E+03  0.11261852020E+03  0.00000000000E+00 0.  1.
         22    1    1    2    0    0 -0.25659952749E+02 -0.29020021250E+01 -0.30258775637E+02  0.39779998674E+02  0.00000000000E+00 0. -1.
<mgrwt>
<rscale>  0 0.67780650E+02</rscale>
<asrwt>0</asrwt>
<pdfrwt beam="1">  1        2 0.74568721E-02 0.93498023E+02</pdfrwt>
<pdfrwt beam="2">  1       -2 0.25730107E-01 0.93498023E+02</pdfrwt>
<totfact> 0.11331128E+04</totfact>
</mgrwt>
</event>
<event>
 6    1  0.1683416E-002  0.8986860E+02  0.7546771E-02  0.1420954E+00
          2   -1    0    0  501    0  0.00000000000E+00  0.00000000000E+00  0.78790896567E+02  0.78790896567E+02  0.00000000000E+00 0.  1.
         -2   -1    0    0    0  501 -0.00000000000E+00 -0.00000000000E+00 -0.34105515194E+02  0.34105515194E+02  0.00000000000E+00 0. -1.
         23    2    1    2    0    0 -0.35340051250E+01  0.11930333579E+02  0.32736552170E+02  0.95645424228E+02  0.89003052061E+02 0.  0.
         11    1    3    3    0    0 -0.17670106832E+02  0.15837983344E+02  0.60091431694E+02  0.64606923428E+02  0.00000000000E+00 0.  1.
        -11    1    3    3    0    0  0.14136101707E+02 -0.39076497650E+01 -0.27354879524E+02  0.31038500800E+02  0.00000000000E+00 0. -1.
         22    1    1    2    0    0  0.35340051250E+01 -0.11930333579E+02  0.11948829203E+02  0.17250987533E+02  0.00000000000E+00 0. -1.
<mgrwt>
<rscale>  0 0.54819502E+02</rscale>
<asrwt>0</asrwt>
<pdfrwt beam="1">  1        2 0.12121676E-01 0.89868600E+02</pdfrwt>
<pdfrwt beam="2">  1       -2 0.52470023E-02 0.89868600E+02</pdfrwt>
<totfact> 0.78007916E+04</totfact>
</mgrwt>
</event>
<event>
 6    1  0.1683416E-002  0.1064987E+03  0.7546771E-02  0.1345230E+00
         -2   -1    0    0    0  501 -0.00000000000E+00  0.00000000000E+00  0.10007377074E+03  0.10007377074E+03  0.00000000000E+00 0.  1.
          2   -1    0    0  501    0  0.00000000000E+00 -0.00000000000E+00 -0.47211362723E+02  0.47211362723E+02  0.00000000000E+00 0. -1.
         23    2    1    2    0    0  0.79610981197E+01  0.24319265201E+02  0.57876768423E+02  0.12120929112E+03  0.10337875114E+03 0.  0.
         11    1    3    3    0    0  0.47433396861E+02 -0.14096173217E+02  0.38929852838E+02  0.62961596860E+02  0.00000000000E+00 0.  1.
        -11    1    3    3    0    0 -0.39472298741E+02  0.38415438418E+02  0.18946915584E+02  0.58247694263E+02  0.00000000000E+00 0. -1.
         22    1    1    2    0    0 -0.79610981197E+01 -0.24319265201E+02 -0.50143604098E+01  0.26075842336E+02  0.00000000000E+00 0. -1.
<mgrwt>
<rscale>  0 0.74562811E+02</rscale>
<asrwt>0</asrwt>
<pdfrwt beam="1">  1        2 0.72632866E-02 0.10649869E+03</pdfrwt>
<pdfrwt beam="2">  1       -2 0.15395965E-01 0.10649869E+03</pdfrwt>
<totfact> 0.28163916E+04</totfact>
</mgrwt>
</event>
<event>
 6    1  0.1683416E-002  0.9502017E+02  0.7546771E-02  0.1414618E+00
          1   -1    0    0  501    0  0.00000000000E+00  0.00000000000E+00  0.66171750628E+02  0.66171750628E+02  0.00000000000E+00 0. -1.
         -1   -1    0    0    0  501 -0.00000000000E+00 -0.00000000000E+00 -0.45430968610E+02  0.45430968610E+02  0.00000000000E+00 0.  1.
         23    2    1    2    0    0  0.10274171369E+02  0.54023547174E+01  0.26497703320E+02  0.98645629414E+02  0.94308471982E+02 0.  0.
         11    1    3    3    0    0 -0.38383732255E+02  0.20205454495E+02  0.59138975051E+01  0.43778367682E+02  0.00000000000E+00 0. -1.
        -11    1    3    3    0    0  0.48657903625E+02 -0.14803099778E+02  0.20583805815E+02  0.54867261732E+02  0.00000000000E+00 0.  1.
         22    1    1    2    0    0 -0.10274171369E+02 -0.54023547174E+01 -0.57569213015E+01  0.12957089823E+02  0.00000000000E+00 0.  1.
<mgrwt>
<rscale>  0 0.56175964E+02</rscale>
<asrwt>0</asrwt>
<pdfrwt beam="1">  1        1 0.10180269E-01 0.95020166E+02</pdfrwt>
<pdfrwt beam="2">  1       -1 0.69893798E-02 0.95020166E+02</pdfrwt>
<totfact> 0.57144703E+04</totfact>
</mgrwt>
</event>
<event>
 6    1  0.1683416E-002  0.9429000E+02  0.7546771E-02  0.1377844E+00
         -2   -1    0    0    0  501 -0.00000000000E+00  0.00000000000E+00  0.38519274929E+02  0.38519274929E+02  0.00000000000E+00 0.  1.
          2   -1    0    0  501    0  0.00000000000E+00 -0.00000000000E+00 -0.86774335731E+02  0.86774335731E+02  0.00000000000E+00 0. -1.
         23    2    1    2    0    0 -0.39567989027E+01 -0.20968339415E+02 -0.39308638991E+02  0.10215563368E+03  0.91843763415E+02 0.  0.
         11    1    3    3    0    0 -0.20975742543E+02 -0.27729343831E+02  0.19981474904E+02  0.40101840655E+02  0.00000000000E+00 0.  1.
        -11    1    3    3    0    0  0.17018943641E+02  0.67610044156E+01 -0.59290113895E+02  0.62053793027E+02  0.00000000000E+00 0. -1.
         22    1    1    2    0    0  0.39567989027E+01  0.20968339415E+02 -0.89464218109E+01  0.23137976977E+02  0.00000000000E+00 0.  1.
<mgrwt>
<rscale>  0 0.65033888E+02</rscale>
<asrwt>0</asrwt>
<pdfrwt beam="1">  1        2 0.13349898E-01 0.94290002E+02</pdfrwt>
<pdfrwt beam="2">  1       -2 0.59260424E-02 0.94290002E+02</pdfrwt>
<totfact> 0.58440352E+04</totfact>
</mgrwt>
</event>
<event>
 6    1  0.1683416E-002  0.9570633E+02  0.7546771E-02  0.1380958E+00
          2   -1    0    0  501    0  0.00000000000E+00  0.00000000000E+00  0.10063416590E+03  0.10063416590E+03  0.00000000000E+00 0. -1.
         -2   -1    0    0    0  501 -0.00000000000E+00 -0.00000000000E+00 -0.50925352254E+02  0.50925352254E+02  0.00000000000E+00 0.  1.
         23    2    1    2    0    0  0.18410758729E+02 -0.60952579458E+01 -0.26307793176E+01  0.95742484929E+02  0.93720831271E+02 0.  0.
         11    1    3    3    0    0 -0.39746459877E+01  0.26292250136E+02  0.33180718281E+02  0.42521057061E+02  0.00000000000E+00 0. -1.
        -11    1    3    3    0    0  0.22385404717E+02 -0.32387508081E+02 -0.35811497598E+02  0.53221427868E+02  0.00000000000E+00 0.  1.
         22    1    1    2    0    0 -0.18410758729E+02  0.60952579458E+01  0.52339592960E+02  0.55817033222E+02  0.00000000000E+00 0. -1.
<mgrwt>
<rscale>  0 0.64212505E+02</rscale>
<asrwt>0</asrwt>
<pdfrwt beam="1">  1        2 0.15482179E-01 0.95706334E+02</pdfrwt>
<pdfrwt beam="2">  1       -2 0.78346696E-02 0.95706334E+02</pdfrwt>
<totfact> 0.32290444E+04</totfact>
</mgrwt>
</event>
<event>
 6    1  0.1683416E-002  0.9539122E+02  0.7546771E-02  0.1365969E+00
         -2   -1    0    0    0  501 -0.00000000000E+00  0.00000000000E+00  0.22622196181E+03  0.22622196181E+03  0.00000000000E+00 0.  1.
          2   -1    0    0  501    0  0.00000000000E+00 -0.00000000000E+00 -0.89529188684E+02  0.89529188684E+02  0.00000000000E+00 0. -1.
         23    2    1    2    0    0 -0.25044078086E+02 -0.11656125127E+01  0.21409777464E+03  0.23438716117E+03  0.92037599464E+02 0.  0.
         11    1    3    3    0    0 -0.86099055481E+01 -0.33479706838E+02  0.18414326822E+03  0.18735998633E+03  0.00000000000E+00 0.  1.
        -11    1    3    3    0    0 -0.16434172538E+02  0.32314094325E+02  0.29954506413E+02  0.47027174841E+02  0.00000000000E+00 0. -1.
         22    1    1    2    0    0  0.25044078086E+02  0.11656125127E+01 -0.77405001513E+02  0.81363989326E+02  0.00000000000E+00 0. -1.
<mgrwt>
<rscale>  0 0.68300679E+02</rscale>
<asrwt>0</asrwt>
<pdfrwt beam="1">  1        2 0.13773721E-01 0.95391217E+02</pdfrwt>
<pdfrwt beam="2">  1       -2 0.34803378E-01 0.95391217E+02</pdfrwt>
<totfact> 0.31499550E+03</totfact>
</mgrwt>
</event>
<event>
 6    1  0.1683416E-002  0.1002327E+03  0.7546771E-02  0.1334955E+00
          1   -1    0    0  501    0  0.00000000000E+00  0.00000000000E+00  0.39516371506E+03  0.39516371506E+03  0.00000000000E+00 0. -1.
         -1   -1    0    0    0  501 -0.00000000000E+00 -0.00000000000E+00 -0.12681138041E+02  0.12681138041E+02  0.00000000000E+00 0.  1.
         23    2    1    2    0    0 -0.33906579695E+02 -0.13976302722E+02  0.22783848178E+03  0.24891156717E+03  0.93282374044E+02 0.  0.
         11    1    3    3    0    0 -0.37796598900E+02 -0.48444131734E+02  0.10912681318E+03  0.12523608962E+03  0.00000000000E+00 0.  1.
        -11    1    3    3    0    0  0.38900192051E+01  0.34467829012E+02  0.11871166860E+03  0.12367547756E+03  0.00000000000E+00 0. -1.
         22    1    1    2    0    0  0.33906579695E+02  0.13976302722E+02  0.15464409523E+03  0.15893328593E+03  0.00000000000E+00 0. -1.
<mgrwt>
<rscale>  0 0.77955559E+02</rscale>
<asrwt>0</asrwt>
<pdfrwt beam="1">  1        1 0.60794408E-01 0.10023270E+03</pdfrwt>
<pdfrwt beam="2">  1       -1 0.19509446E-02 0.10023270E+03</pdfrwt>
<totfact> 0.39169154E+04</totfact>
</mgrwt>
</event>
<event>
 6    1  0.1683416E-002  0.9949689E+02  0.7546771E-02  0.1330511E+00
          2   -1    0    0  501    0  0.00000000000E+00  0.00000000000E+00  0.24928637388E+03  0.24928637388E+03  0.00000000000E+00 0.  1.
         -2   -1    0    0    0  501 -0.00000000000E+00 -0.00000000000E+00 -0.22014930497E+02  0.22014930497E+02  0.00000000000E+00 0. -1.
         23    2    1    2    0    0  0.25186320283E+02 -0.31753728054E+02  0.11570790291E+03  0.15260390113E+03  0.90867936420E+02 0.  0.
         13    1    3    3    0    0  0.15755539647E+02 -0.24598217315E+02 -0.64158427402E+01  0.29907730818E+02  0.00000000000E+00 0. -1.
        -13    1    3    3    0    0  0.94307806360E+01 -0.71555107392E+01  0.12212374565E+03  0.12269617031E+03  0.00000000000E+00 0.  1.
         22    1    1    2    0    0 -0.25186320283E+02  0.31753728054E+02  0.11156354048E+03  0.11869740325E+03  0.00000000000E+00 0.  1.
<mgrwt>
<rscale>  0 0.79487762E+02</rscale>
<asrwt>0</asrwt>
<pdfrwt beam="1">  1        2 0.38351748E-01 0.99496894E+02</pdfrwt>
<pdfrwt beam="2">  1       -2 0.33869126E-02 0.99496894E+02</pdfrwt>
<totfact> 0.41909037E+04</totfact>
</mgrwt>
</event>
<event>
 6    1  0.1683416E-002  0.9635802E+02  0.7546771E-02  0.1410560E+00
         -2   -1    0    0    0  501 -0.00000000000E+00  0.00000000000E+00  0.11385329574E+03  0.11385329574E+03  0.00000000000E+00 0.  1.
          2   -1    0    0  501    0  0.00000000000E+00 -0.00000000000E+00 -0.29012870347E+02  0.29012870347E+02  0.00000000000E+00 0. -1.
         23    2    1    2    0    0 -0.10931122835E+02  0.45909206834E+01  0.88108551254E+02  0.13056792858E+03  0.95625839451E+02 0.  0.
         11    1    3    3    0    0  0.17895366541E+02 -0.38307211301E+02  0.25471764581E+02  0.49360889094E+02  0.00000000000E+00 0. -1.
        -11    1    3    3    0    0 -0.28826489377E+02  0.42898131984E+02  0.62636786673E+02  0.81207039487E+02  0.00000000000E+00 0.  1.
         22    1    1    2    0    0  0.10931122835E+02 -0.45909206834E+01 -0.32681258593E+01  0.12298237508E+02  0.00000000000E+00 0. -1.
<mgrwt>
<rscale>  0 0.57069087E+02</rscale>
<asrwt>0</asrwt>
<pdfrwt beam="1">  1        2 0.44635186E-02 0.96358016E+02</pdfrwt>
<pdfrwt beam="2">  1       -2 0.17515891E-01 0.96358016E+02</pdfrwt>
<totfact> 0.41985470E+04</totfact>
</mgrwt>
</event>
<event>
 6    1  0.1683416E-002  0.9500645E+02  0.7546771E-02  0.1390487E+00
          2   -1    0    0  501    0  0.00000000000E+00  0.00000000000E+00  0.50330723282E+02  0.50330723282E+02  0.00000000000E+00 0. -1.
         -2   -1    0    0    0  501 -0.00000000000E+00 -0.00000000000E+00 -0.78571495625E+02  0.78571495625E+02  0.00000000000E+00 0.  1.
         23    2    1    2    0    0 -0.10051703700E+02 -0.13702564797E+02 -0.44919997127E+02  0.10509059215E+03  0.93474217770E+02 0.  0.
         13    1    3    3    0    0  0.26841261724E+02  0.19277599961E+02  0.65513366815E+01  0.33689749235E+02  0.00000000000E+00 0. -1.
        -13    1    3    3    0    0 -0.36892965423E+02 -0.32980164759E+02 -0.51471333809E+02  0.71400842917E+02  0.00000000000E+00 0.  1.
         22    1    1    2    0    0  0.10051703700E+02  0.13702564797E+02  0.16679224785E+02  0.23811626755E+02  0.00000000000E+00 0. -1.
<mgrwt>
<rscale>  0 0.61785836E+02</rscale>
<asrwt>0</asrwt>
<pdfrwt beam="1">  1        2 0.77431882E-02 0.95006455E+02</pdfrwt>
<pdfrwt beam="2">  1       -2 0.12087922E-01 0.95006455E+02</pdfrwt>
<totfact> 0.37787195E+04</totfact>
</mgrwt>
</event>
<event>
 6    1  0.1683416E-002  0.1009284E+03  0.7546771E-02  0.1324334E+00
          3   -1    0    0  501    0  0.00000000000E+00  0.00000000000E+00  0.98732314455E+02  0.98732314455E+02  0.00000000000E+00 0. -1.
         -3   -1    0    0    0  501 -0.00000000000E+00 -0.00000000000E+00 -0.57603548097E+02  0.57603548097E+02  0.00000000000E+00 0.  1.
         23    2    1    2    0    0  0.41962106157E+02 -0.10703809856E+02  0.69502364083E+01  0.10116737691E+03  0.91165467509E+02 0.  0.
         13    1    3    3    0    0  0.48084267164E+02  0.21987937181E+02 -0.21812277452E+02  0.57195642997E+02  0.00000000000E+00 0.  1.
        -13    1    3    3    0    0 -0.61221610068E+01 -0.32691747038E+02  0.28762513860E+02  0.43971733913E+02  0.00000000000E+00 0. -1.
         22    1    1    2    0    0 -0.41962106157E+02  0.10703809856E+02  0.34178529950E+02  0.55168485642E+02  0.00000000000E+00 0. -1.
<mgrwt>
<rscale>  0 0.81685756E+02</rscale>
<asrwt>0</asrwt>
<pdfrwt beam="1">  1        3 0.15189587E-01 0.10092835E+03</pdfrwt>
<pdfrwt beam="2">  1       -3 0.88620843E-02 0.10092835E+03</pdfrwt>
<totfact> 0.69698615E+03</totfact>
</mgrwt>
</event>
<event>
 6    1  0.1683416E-002  0.9000371E+02  0.7546771E-02  0.1387345E+00
          1   -1    0    0  501    0  0.00000000000E+00  0.00000000000E+00  0.27612075571E+02  0.27612075571E+02  0.00000000000E+00 0. -1.
         -1   -1    0    0    0  501 -0.00000000000E+00 -0.00000000000E+00 -0.12999475827E+03  0.12999475827E+03  0.00000000000E+00 0.  1.
         23    2    1    2    0    0  0.13405375836E+02  0.16197110977E+02 -0.10272854481E+03  0.13657899215E+03  0.87513522800E+02 0.  0.
         11    1    3    3    0    0  0.21816395633E+02 -0.26136830369E+02 -0.11984412904E+02  0.36093145787E+02  0.00000000000E+00 0. -1.
        -11    1    3    3    0    0 -0.84110197972E+01  0.42333941346E+02 -0.90744131909E+02  0.10048584637E+03  0.00000000000E+00 0.  1.
         22    1    1    2    0    0 -0.13405375836E+02 -0.16197110977E+02  0.34586211676E+00  0.21027841684E+02  0.00000000000E+00 0.  1.
<mgrwt>
<rscale>  0 0.62571891E+02</rscale>
<asrwt>0</asrwt>
<pdfrwt beam="1">  1        1 0.42480116E-02 0.90003706E+02</pdfrwt>
<pdfrwt beam="2">  1       -1 0.19999194E-01 0.90003706E+02</pdfrwt>
<totfact> 0.36530092E+04</totfact>
</mgrwt>
</event>
<event>
 6    1  0.1683416E-002  0.9266095E+02  0.7546771E-02  0.1427391E+00
          2   -1    0    0  501    0  0.00000000000E+00  0.00000000000E+00  0.58372733368E+02  0.58372733368E+02  0.00000000000E+00 0. -1.
         -2   -1    0    0    0  501 -0.00000000000E+00 -0.00000000000E+00 -0.46530746306E+02  0.46530746306E+02  0.00000000000E+00 0.  1.
         23    2    1    2    0    0 -0.12272034570E+01  0.10214060207E+02  0.55125454274E+01  0.92824784147E+02  0.92088106401E+02 0.  0.
         11    1    3    3    0    0  0.11519192872E+02  0.49194195417E+02  0.10207616780E+02  0.51545670114E+02  0.00000000000E+00 0. -1.
        -11    1    3    3    0    0 -0.12746396329E+02 -0.38980135210E+02 -0.46950713526E+01  0.41279114033E+02  0.00000000000E+00 0.  1.
         22    1    1    2    0    0  0.12272034570E+01 -0.10214060207E+02  0.63294416348E+01  0.12078695527E+02  0.00000000000E+00 0. -1.
<mgrwt>
<rscale>  0 0.53487247E+02</rscale>
<asrwt>0</asrwt>
<pdfrwt beam="1">  1        2 0.89804205E-02 0.92660954E+02</pdfrwt>
<pdfrwt beam="2">  1       -2 0.71585763E-02 0.92660954E+02</pdfrwt>
<totfact> 0.70557657E+04</totfact>
</mgrwt>
</event>
<event>
 6    1  0.1683416E-002  0.9368692E+02  0.7546771E-02  0.1394459E+00
          2   -1    0    0  501    0  0.00000000000E+00  0.00000000000E+00  0.15469296071E+03  0.15469296071E+03  0.00000000000E+00 0. -1.
         -2   -1    0    0    0  501 -0.00000000000E+00 -0.00000000000E+00 -0.22392158319E+02  0.22392158319E+02  0.00000000000E+00 0.  1.
         23    2    1    2    0    0 -0.84874690330E+01 -0.14301314934E+02  0.83387953662E+02  0.12542244866E+03  0.92199105589E+02 0.  0.
         13    1    3    3    0    0  0.19786083179E+02 -0.45678978339E+02  0.56740655322E+02  0.75482184096E+02  0.00000000000E+00 0. -1.
        -13    1    3    3    0    0 -0.28273552212E+02  0.31377663405E+02  0.26647298340E+02  0.49940264559E+02  0.00000000000E+00 0.  1.
         22    1    1    2    0    0  0.84874690330E+01  0.14301314934E+02  0.48912848727E+02  0.51662670372E+02  0.00000000000E+00 0.  1.
<mgrwt>
<rscale>  0 0.60811237E+02</rscale>
<asrwt>0</asrwt>
<pdfrwt beam="1">  1        2 0.23798916E-01 0.93686924E+02</pdfrwt>
<pdfrwt beam="2">  1       -2 0.34449475E-02 0.93686924E+02</pdfrwt>
<totfact> 0.67657971E+04</totfact>
</mgrwt>
</event>
<event>
 6    1  0.1683416E-002  0.9222425E+02  0.7546771E-02  0.1413567E+00
         -1   -1    0    0    0  501 -0.00000000000E+00  0.00000000000E+00  0.11660726483E+03  0.11660726483E+03  0.00000000000E+00 0.  1.
          1   -1    0    0  501    0  0.00000000000E+00 -0.00000000000E+00 -0.33776475517E+02  0.33776475517E+02  0.00000000000E+00 0. -1.
         23    2    1    2    0    0 -0.96779357397E+01 -0.85363468778E+01  0.95173546793E+02  0.13252665995E+03  0.91316920289E+02 0.  0.
         11    1    3    3    0    0  0.21690552171E+02  0.32893045845E+02  0.32229518967E+02  0.50903579553E+02  0.00000000000E+00 0.  1.
        -11    1    3    3    0    0 -0.31368487910E+02 -0.41429392723E+02  0.62944027826E+02  0.81623080401E+02  0.00000000000E+00 0. -1.
         22    1    1    2    0    0  0.96779357397E+01  0.85363468778E+01 -0.12342757476E+02  0.17857080397E+02  0.00000000000E+00 0. -1.
<mgrwt>
<rscale>  0 0.56405433E+02</rscale>
<asrwt>0</asrwt>
<pdfrwt beam="1">  1        1 0.51963809E-02 0.92224246E+02</pdfrwt>
<pdfrwt beam="2">  1       -1 0.17939579E-01 0.92224246E+02</pdfrwt>
<totfact> 0.33131498E+04</totfact>
</mgrwt>
</event>
<event>
 6    1  0.1683416E-002  0.9078871E+02  0.7546771E-02  0.1415946E+00
          4   -1    0    0  501    0  0.00000000000E+00  0.00000000000E+00  0.76575658829E+01  0.76575658829E+01  0.00000000000E+00 0. -1.
         -4   -1    0    0    0  501 -0.00000000000E+00 -0.00000000000E+00 -0.45448181610E+03  0.45448181610E+03  0.00000000000E+00 0.  1.
         23    2    1    2    0    0 -0.79322999062E+01  0.10346074079E+02 -0.43552520279E+03  0.44488739360E+03  0.89847805106E+02 0.  0.
         11    1    3    3    0    0 -0.29136714855E+02 -0.19726790009E+02 -0.79165624277E+02  0.86633079501E+02  0.00000000000E+00 0. -1.
        -11    1    3    3    0    0  0.21204414949E+02  0.30072864089E+02 -0.35635957852E+03  0.35825431409E+03  0.00000000000E+00 0.  1.
         22    1    1    2    0    0  0.79322999062E+01 -0.10346074079E+02 -0.11299047428E+02  0.17251988391E+02  0.00000000000E+00 0. -1.
<mgrwt>
<rscale>  0 0.55887937E+02</rscale>
<asrwt>0</asrwt>
<pdfrwt beam="1">  1        4 0.11780869E-02 0.90788715E+02</pdfrwt>
<pdfrwt beam="2">  1       -4 0.69920286E-01 0.90788715E+02</pdfrwt>
<totfact> 0.64248984E+03</totfact>
</mgrwt>
</event>
<event>
 6    1  0.1683416E-002  0.9687845E+02  0.7546771E-02  0.1388018E+00
         -4   -1    0    0    0  501 -0.00000000000E+00  0.00000000000E+00  0.21966025905E+03  0.21966025905E+03  0.00000000000E+00 0.  1.
          4   -1    0    0  501    0  0.00000000000E+00 -0.00000000000E+00 -0.15080894359E+02  0.15080894359E+02  0.00000000000E+00 0. -1.
         23    2    1    2    0    0 -0.77371651227E+00  0.16659175604E+02  0.18639104842E+03  0.21006441096E+03  0.95432211818E+02 0.  0.
         11    1    3    3    0    0 -0.45483206306E+02  0.54480596108E+01  0.12616517404E+03  0.13422389709E+03  0.00000000000E+00 0.  1.
        -11    1    3    3    0    0  0.44709489794E+02  0.11211115994E+02  0.60225874375E+02  0.75840513867E+02  0.00000000000E+00 0. -1.
         22    1    1    2    0    0  0.77371651227E+00 -0.16659175604E+02  0.18188316274E+02  0.24676742450E+02  0.00000000000E+00 0. -1.
<mgrwt>
<rscale>  0 0.62402319E+02</rscale>
<asrwt>0</asrwt>
<pdfrwt beam="1">  1        4 0.23201377E-02 0.96878449E+02</pdfrwt>
<pdfrwt beam="2">  1       -4 0.33793884E-01 0.96878449E+02</pdfrwt>
<totfact> 0.10123504E+04</totfact>
</mgrwt>
</event>
<event>
 6    1  0.1683416E-002  0.9217801E+02  0.7546771E-02  0.1406069E+00
         -2   -1    0    0    0  501 -0.00000000000E+00  0.00000000000E+00  0.22895859169E+02  0.22895859169E+02  0.00000000000E+00 0.  1.
          2   -1    0    0  501    0  0.00000000000E+00 -0.00000000000E+00 -0.13008412813E+03  0.13008412813E+03  0.00000000000E+00 0. -1.
         23    2    1    2    0    0 -0.14133609831E+02 -0.33662121882E+01 -0.79560095475E+02  0.12176450586E+03  0.91025797353E+02 0.  0.
         13    1    3    3    0    0  0.22282156545E+02 -0.12703395125E+02  0.76758480386E+01  0.26772922723E+02  0.00000000000E+00 0.  1.
        -13    1    3    3    0    0 -0.36415766377E+02  0.93371829371E+01 -0.87235943514E+02  0.94991583136E+02  0.00000000000E+00 0. -1.
         22    1    1    2    0    0  0.14133609831E+02  0.33662121882E+01 -0.27628173486E+02  0.31215481440E+02  0.00000000000E+00 0.  1.
<mgrwt>
<rscale>  0 0.58080326E+02</rscale>
<asrwt>0</asrwt>
<pdfrwt beam="1">  1        2 0.20012943E-01 0.92178013E+02</pdfrwt>
<pdfrwt beam="2">  1       -2 0.35224398E-02 0.92178013E+02</pdfrwt>
<totfact> 0.79145726E+04</totfact>
</mgrwt>
</event>
<event>
 6    1  0.1683416E-002  0.9183712E+02  0.7546771E-02  0.1422898E+00
          2   -1    0    0  501    0  0.00000000000E+00  0.00000000000E+00  0.20009425184E+03  0.20009425184E+03  0.00000000000E+00 0. -1.
         -2   -1    0    0    0  501 -0.00000000000E+00 -0.00000000000E+00 -0.13997531811E+02  0.13997531811E+02  0.00000000000E+00 0.  1.
         23    2    1    2    0    0 -0.99435767606E+01  0.54039703947E+01  0.14646457471E+03  0.17287546944E+03  0.91137142119E+02 0.  0.
         13    1    3    3    0    0 -0.47377618109E+02  0.22128600134E+01  0.11304909340E+03  0.12259540352E+03  0.00000000000E+00 0. -1.
        -13    1    3    3    0    0  0.37434041348E+02  0.31911103813E+01  0.33415481317E+02  0.50280065918E+02  0.00000000000E+00 0.  1.
         22    1    1    2    0    0  0.99435767606E+01 -0.54039703947E+01  0.39632145319E+02  0.41216314214E+02  0.00000000000E+00 0.  1.
<mgrwt>
<rscale>  0 0.54412395E+02</rscale>
<asrwt>0</asrwt>
<pdfrwt beam="1">  1        2 0.30783729E-01 0.91837118E+02</pdfrwt>
<pdfrwt beam="2">  1       -2 0.21534666E-02 0.91837118E+02</pdfrwt>
<totfact> 0.10097073E+05</totfact>
</mgrwt>
</event>
<event>
 6    1  0.1683416E-002  0.9451195E+02  0.7546771E-02  0.1398277E+00
          1   -1    0    0  501    0  0.00000000000E+00  0.00000000000E+00  0.34938229887E+02  0.34938229887E+02  0.00000000000E+00 0.  1.
         -1   -1    0    0    0  501 -0.00000000000E+00 -0.00000000000E+00 -0.91288033501E+02  0.91288033501E+02  0.00000000000E+00 0. -1.
         23    2    1    2    0    0  0.14017683278E+02  0.59883478316E+01 -0.58006905110E+02  0.11089323565E+03  0.93274610255E+02 0.  0.
         11    1    3    3    0    0  0.34771856793E+02  0.18115526432E+02  0.85494834302E+01  0.40129141403E+02  0.00000000000E+00 0.  1.
        -11    1    3    3    0    0 -0.20754173516E+02 -0.12127178601E+02 -0.66556388540E+02  0.70764094247E+02  0.00000000000E+00 0. -1.
         22    1    1    2    0    0 -0.14017683278E+02 -0.59883478316E+01  0.16571014966E+01  0.15333027737E+02  0.00000000000E+00 0. -1.
<mgrwt>
<rscale>  0 0.59894125E+02</rscale>
<asrwt>0</asrwt>
<pdfrwt beam="1">  1        1 0.53751124E-02 0.94511950E+02</pdfrwt>
<pdfrwt beam="2">  1       -1 0.14044313E-01 0.94511950E+02</pdfrwt>
<totfact> 0.46508911E+04</totfact>
</mgrwt>
</event>
<event>
 6    1  0.1683416E-002  0.9197604E+02  0.7546771E-02  0.1377125E+00
         -4   -1    0    0    0  501 -0.00000000000E+00  0.00000000000E+00  0.17593404770E+02  0.17593404770E+02  0.00000000000E+00 0.  1.
          4   -1    0    0  501    0  0.00000000000E+00 -0.00000000000E+00 -0.19131494682E+03  0.19131494682E+03  0.00000000000E+00 0. -1.
         23    2    1    2    0    0 -0.17935265011E+02 -0.14813925360E+02 -0.12811586991E+03  0.15771261498E+03  0.88985766759E+02 0.  0.
         11    1    3    3    0    0 -0.31959555487E+02  0.82301714625E+01 -0.12644934755E+03  0.13068506573E+03  0.00000000000E+00 0. -1.
        -11    1    3    3    0    0  0.14024290476E+02 -0.23044096822E+02 -0.16665223604E+01  0.27027549250E+02  0.00000000000E+00 0.  1.
         22    1    1    2    0    0  0.17935265011E+02  0.14813925360E+02 -0.45605672140E+02  0.51195736609E+02  0.00000000000E+00 0. -1.
<mgrwt>
<rscale>  0 0.65225641E+02</rscale>
<asrwt>0</asrwt>
<pdfrwt beam="1">  1        4 0.29433068E-01 0.91976045E+02</pdfrwt>
<pdfrwt beam="2">  1       -4 0.27066777E-02 0.91976045E+02</pdfrwt>
<totfact> 0.10204530E+04</totfact>
</mgrwt>
</event>
<event>
 6    1  0.1683416E-002  0.9115153E+02  0.7546771E-02  0.1431940E+00
          2   -1    0    0  501    0  0.00000000000E+00  0.00000000000E+00  0.13677772027E+02  0.13677772027E+02  0.00000000000E+00 0. -1.
         -2   -1    0    0    0  501 -0.00000000000E+00 -0.00000000000E+00 -0.21331817945E+03  0.21331817945E+03  0.00000000000E+00 0.  1.
         23    2    1    2    0    0  0.71062836034E+01  0.71582216997E+01 -0.19619768956E+03  0.21633801027E+03  0.90591731930E+02 0.  0.
         13    1    3    3    0    0 -0.11338049041E+02  0.35810145561E+02 -0.34212635890E+02  0.50807699571E+02  0.00000000000E+00 0. -1.
        -13    1    3    3    0    0  0.18444332645E+02 -0.28651923861E+02 -0.16198505367E+03  0.16553031070E+03  0.00000000000E+00 0.  1.
         22    1    1    2    0    0 -0.71062836034E+01 -0.71582216997E+01 -0.34427178680E+01  0.10657941212E+02  0.00000000000E+00 0.  1.
<mgrwt>
<rscale>  0 0.52572559E+02</rscale>
<asrwt>0</asrwt>
<pdfrwt beam="1">  1        2 0.21042727E-02 0.91151529E+02</pdfrwt>
<pdfrwt beam="2">  1       -2 0.32818181E-01 0.91151529E+02</pdfrwt>
<totfact> 0.38272426E+04</totfact>
</mgrwt>
</event>
<event>
 6    1  0.1683416E-002  0.9187952E+02  0.7546771E-02  0.1408051E+00
          4   -1    0    0  501    0  0.00000000000E+00  0.00000000000E+00  0.17069543793E+03  0.17069543793E+03  0.00000000000E+00 0. -1.
         -4   -1    0    0    0  501 -0.00000000000E+00 -0.00000000000E+00 -0.22321281806E+02  0.22321281806E+02  0.00000000000E+00 0.  1.
         23    2    1    2    0    0 -0.13788094753E+02 -0.34877524302E+01  0.75942557271E+02  0.11920200246E+03  0.90772073965E+02 0.  0.
         11    1    3    3    0    0 -0.52187131495E+02 -0.10578144773E+01  0.34051385024E+02  0.62322648268E+02  0.00000000000E+00 0. -1.
        -11    1    3    3    0    0  0.38399036742E+02 -0.24299379529E+01  0.41891172247E+02  0.56879354193E+02  0.00000000000E+00 0.  1.
         22    1    1    2    0    0  0.13788094753E+02  0.34877524302E+01  0.72431598852E+02  0.73814717273E+02  0.00000000000E+00 0.  1.
<mgrwt>
<rscale>  0 0.57631120E+02</rscale>
<asrwt>0</asrwt>
<pdfrwt beam="1">  1        4 0.26260836E-01 0.91879516E+02</pdfrwt>
<pdfrwt beam="2">  1       -4 0.34340435E-02 0.91879516E+02</pdfrwt>
<totfact> 0.87068205E+03</totfact>
</mgrwt>
</event>
<event>
 6    1  0.1683416E-002  0.9345761E+02  0.7546771E-02  0.1405002E+00
          3   -1    0    0  501    0  0.00000000000E+00  0.00000000000E+00  0.28604547226E+02  0.28604547226E+02  0.00000000000E+00 0. -1.
         -3   -1    0    0    0  501 -0.00000000000E+00 -0.00000000000E+00 -0.11776698321E+03  0.11776698321E+03  0.00000000000E+00 0.  1.
         23    2    1    2    0    0 -0.25180051565E+01  0.13950561432E+02 -0.92832953290E+02  0.13172806050E+03  0.92376220929E+02 0.  0.
         11    1    3    3    0    0 -0.39979048335E+02 -0.18500431562E+00 -0.12363173158E+02  0.41847420265E+02  0.00000000000E+00 0. -1.
        -11    1    3    3    0    0  0.37461043178E+02  0.14135565748E+02 -0.80469780132E+02  0.89880640238E+02  0.00000000000E+00 0.  1.
         22    1    1    2    0    0  0.25180051565E+01 -0.13950561432E+02  0.36705173102E+01  0.14643469929E+02  0.00000000000E+00 0.  1.
<mgrwt>
<rscale>  0 0.58324269E+02</rscale>
<asrwt>0</asrwt>
<pdfrwt beam="1">  1        3 0.44006996E-02 0.93457609E+02</pdfrwt>
<pdfrwt beam="2">  1       -3 0.18117997E-01 0.93457609E+02</pdfrwt>
<totfact> 0.15404021E+04</totfact>
</mgrwt>
</event>
<event>
 6    1  0.1683416E-002  0.9286077E+02  0.7546771E-02  0.1383944E+00
         -2   -1    0    0    0  501 -0.00000000000E+00  0.00000000000E+00  0.87910136328E+03  0.87910136328E+03  0.00000000000E+00 0.  1.
          2   -1    0    0  501    0  0.00000000000E+00 -0.00000000000E+00 -0.45353952404E+01  0.45353952404E+01  0.00000000000E+00 0. -1.
         23    2    1    2    0    0  0.12494761218E+02  0.15905171924E+02  0.82337458786E+03  0.82859449333E+03  0.90631279940E+02 0.  0.
         11    1    3    3    0    0  0.87293585264E+01  0.38606591195E+02  0.76232684303E+03  0.76335370975E+03  0.00000000000E+00 0.  1.
        -11    1    3    3    0    0  0.37654026914E+01 -0.22701419271E+02  0.61047744828E+02  0.65240783586E+02  0.00000000000E+00 0. -1.
         22    1    1    2    0    0 -0.12494761218E+02 -0.15905171924E+02  0.51191380185E+02  0.55042265188E+02  0.00000000000E+00 0. -1.
<mgrwt>
<rscale>  0 0.63438373E+02</rscale>
<asrwt>0</asrwt>
<pdfrwt beam="1">  1        2 0.69775381E-03 0.92860769E+02</pdfrwt>
<pdfrwt beam="2">  1       -2 0.13524623E+00 0.92860769E+02</pdfrwt>
<totfact> 0.88284656E+03</totfact>
</mgrwt>
</event>
<event>
 6    1  0.1683416E-002  0.9268753E+02  0.7546771E-02  0.1417446E+00
          2   -1    0    0  501    0  0.00000000000E+00  0.00000000000E+00  0.14137558078E+03  0.14137558078E+03  0.00000000000E+00 0. -1.
         -2   -1    0    0    0  501 -0.00000000000E+00 -0.00000000000E+00 -0.20541369550E+02  0.20541369550E+02  0.00000000000E+00 0.  1.
         23    2    1    2    0    0 -0.11051779857E+02  0.46011907289E+01  0.91540090061E+02  0.13027112392E+03  0.91911179106E+02 0.  0.
         13    1    3    3    0    0  0.24941657848E+02  0.10243432169E+02 -0.46963638728E+01  0.27369143802E+02  0.00000000000E+00 0.  1.
        -13    1    3    3    0    0 -0.35993437705E+02 -0.56422414401E+01  0.96236453934E+02  0.10290198012E+03  0.00000000000E+00 0. -1.
         22    1    1    2    0    0  0.11051779857E+02 -0.46011907289E+01  0.29294121171E+02  0.31645826412E+02  0.00000000000E+00 0.  1.
<mgrwt>
<rscale>  0 0.55565035E+02</rscale>
<asrwt>0</asrwt>
<pdfrwt beam="1">  1        2 0.21750089E-01 0.92687527E+02</pdfrwt>
<pdfrwt beam="2">  1       -2 0.31602108E-02 0.92687527E+02</pdfrwt>
<totfact> 0.84607829E+04</totfact>
</mgrwt>
</event>
<event>
 6    1  0.1683416E-002  0.9390572E+02  0.7546771E-02  0.1351542E+00
         -2   -1    0    0    0  501 -0.00000000000E+00  0.00000000000E+00  0.67281770678E+01  0.67281770678E+01  0.00000000000E+00 0. -1.
          2   -1    0    0  501    0  0.00000000000E+00 -0.00000000000E+00 -0.62900703752E+03  0.62900703752E+03  0.00000000000E+00 0.  1.
         23    2    1    2    0    0 -0.31790605062E+02  0.10584298627E+02 -0.50960828346E+03  0.51818807993E+03  0.87724646809E+02 0.  0.
         13    1    3    3    0    0 -0.12684667912E+02 -0.25386367883E+02 -0.56245577335E+02  0.62999471776E+02  0.00000000000E+00 0. -1.
        -13    1    3    3    0    0 -0.19105937150E+02  0.35970666509E+02 -0.45336270613E+03  0.45518860815E+03  0.00000000000E+00 0.  1.
         22    1    1    2    0    0  0.31790605062E+02 -0.10584298627E+02 -0.11267057699E+03  0.11754713466E+03  0.00000000000E+00 0.  1.
<mgrwt>
<rscale>  0 0.72577255E+02</rscale>
<asrwt>0</asrwt>
<pdfrwt beam="1">  1        2 0.96770328E-01 0.93905717E+02</pdfrwt>
<pdfrwt beam="2">  1       -2 0.10351040E-02 0.93905717E+02</pdfrwt>
<totfact> 0.85110627E+04</totfact>
</mgrwt>
</event>
<event>
 6    1  0.1683416E-002  0.9530421E+02  0.7546771E-02  0.1356890E+00
         -3   -1    0    0    0  501 -0.00000000000E+00  0.00000000000E+00  0.63957755386E+02  0.63957755386E+02  0.00000000000E+00 0.  1.
          3   -1    0    0  501    0  0.00000000000E+00 -0.00000000000E+00 -0.61382742915E+02  0.61382742915E+02  0.00000000000E+00 0. -1.
         23    2    1    2    0    0  0.29227781238E+02  0.16528393065E+01  0.77237998374E+01  0.95616684863E+02  0.90696737904E+02 0.  0.
         11    1    3    3    0    0  0.14955071181E+02 -0.44525586737E+02  0.39436930394E+01  0.47135281298E+02  0.00000000000E+00 0. -1.
        -11    1    3    3    0    0  0.14272710058E+02  0.46178426043E+02  0.37801067980E+01  0.48481403565E+02  0.00000000000E+00 0.  1.
         22    1    1    2    0    0 -0.29227781238E+02 -0.16528393065E+01 -0.51487873667E+01  0.29723813437E+02  0.00000000000E+00 0.  1.
<mgrwt>
<rscale>  0 0.70950649E+02</rscale>
<asrwt>0</asrwt>
<pdfrwt beam="1">  1        3 0.94434988E-02 0.95304215E+02</pdfrwt>
<pdfrwt beam="2">  1       -3 0.98396547E-02 0.95304215E+02</pdfrwt>
<totfact> 0.12789740E+04</totfact>
</mgrwt>
</event>
<event>
 6    1  0.1683416E-002  0.9181289E+02  0.7546771E-02  0.1400940E+00
          1   -1    0    0  501    0  0.00000000000E+00  0.00000000000E+00  0.98737288455E+01  0.98737288455E+01  0.00000000000E+00 0. -1.
         -1   -1    0    0    0  501 -0.00000000000E+00 -0.00000000000E+00 -0.39889161933E+03  0.39889161933E+03  0.00000000000E+00 0.  1.
         23    2    1    2    0    0  0.57264165015E+01  0.14876350573E+02 -0.37894538411E+03  0.38990923413E+03  0.90418521695E+02 0.  0.
         11    1    3    3    0    0 -0.27737648596E+01  0.27039733872E+02 -0.37289440352E+03  0.37388377493E+03  0.00000000000E+00 0.  1.
        -11    1    3    3    0    0  0.85001813611E+01 -0.12163383299E+02 -0.60509805967E+01  0.16025459202E+02  0.00000000000E+00 0. -1.
         22    1    1    2    0    0 -0.57264165015E+01 -0.14876350573E+02 -0.10072506368E+02  0.18856114044E+02  0.00000000000E+00 0. -1.
<mgrwt>
<rscale>  0 0.59265619E+02</rscale>
<asrwt>0</asrwt>
<pdfrwt beam="1">  1        1 0.15190352E-02 0.91812890E+02</pdfrwt>
<pdfrwt beam="2">  1       -1 0.61367940E-01 0.91812890E+02</pdfrwt>
<totfact> 0.22038187E+04</totfact>
</mgrwt>
</event>
<event>
 6    1  0.1683416E-002  0.9745144E+02  0.7546771E-02  0.1378096E+00
         -2   -1    0    0    0  501 -0.00000000000E+00  0.00000000000E+00  0.53661171500E+02  0.53661171500E+02  0.00000000000E+00 0.  1.
          2   -1    0    0  501    0  0.00000000000E+00 -0.00000000000E+00 -0.94923772146E+02  0.94923772146E+02  0.00000000000E+00 0. -1.
         23    2    1    2    0    0  0.79081818272E+01  0.17549287972E+02  0.59158322578E+01  0.97630833121E+02  0.95531490391E+02 0.  0.
         11    1    3    3    0    0 -0.16276752292E+02 -0.78416600648E+01 -0.37617481745E+02  0.41731274011E+02  0.00000000000E+00 0. -1.
        -11    1    3    3    0    0  0.24184934119E+02  0.25390948036E+02  0.43533314003E+02  0.55899559109E+02  0.00000000000E+00 0.  1.
         22    1    1    2    0    0 -0.79081818272E+01 -0.17549287972E+02 -0.47178432904E+02  0.50954110525E+02  0.00000000000E+00 0. -1.
<mgrwt>
<rscale>  0 0.64966905E+02</rscale>
<asrwt>0</asrwt>
<pdfrwt beam="1">  1        2 0.14603657E-01 0.97451437E+02</pdfrwt>
<pdfrwt beam="2">  1       -2 0.82555650E-02 0.97451437E+02</pdfrwt>
<totfact> 0.31960635E+04</totfact>
</mgrwt>
</event>
<event>
 6    1  0.1683416E-002  0.9661290E+02  0.7546771E-02  0.1365354E+00
          4   -1    0    0  501    0  0.00000000000E+00  0.00000000000E+00  0.22050040735E+03  0.22050040735E+03  0.00000000000E+00 0. -1.
         -4   -1    0    0    0  501 -0.00000000000E+00 -0.00000000000E+00 -0.16679312227E+02  0.16679312227E+02  0.00000000000E+00 0.  1.
         23    2    1    2    0    0  0.13578901247E+02 -0.20248943088E+02  0.16910882234E+03  0.19476099568E+03  0.93486070567E+02 0.  0.
         13    1    3    3    0    0  0.25530367267E+02  0.24010687044E+02  0.23730782037E+02  0.42325674965E+02  0.00000000000E+00 0.  1.
        -13    1    3    3    0    0 -0.11951466020E+02 -0.44259630132E+02  0.14537804030E+03  0.15243532071E+03  0.00000000000E+00 0. -1.
         22    1    1    2    0    0 -0.13578901247E+02  0.20248943088E+02  0.34712272788E+02  0.42418723901E+02  0.00000000000E+00 0.  1.
<mgrwt>
<rscale>  0 0.68475742E+02</rscale>
<asrwt>0</asrwt>
<pdfrwt beam="1">  1        4 0.33923137E-01 0.96612896E+02</pdfrwt>
<pdfrwt beam="2">  1       -4 0.25660482E-02 0.96612896E+02</pdfrwt>
<totfact> 0.85978368E+03</totfact>
</mgrwt>
</event>
<event>
 6    1  0.1683416E-002  0.9733251E+02  0.7546771E-02  0.1390972E+00
         -3   -1    0    0    0  501 -0.00000000000E+00  0.00000000000E+00  0.92991442710E+02  0.92991442710E+02  0.00000000000E+00 0.  1.
          3   -1    0    0  501    0  0.00000000000E+00 -0.00000000000E+00 -0.34681775510E+02  0.34681775510E+02  0.00000000000E+00 0. -1.
         23    2    1    2    0    0 -0.99163096974E+01 -0.12148675122E+02  0.54432374112E+02  0.11151905755E+03  0.96060883508E+02 0.  0.
         11    1    3    3    0    0 -0.14544668529E+02  0.19286815573E+02  0.71486248577E+02  0.75457354666E+02  0.00000000000E+00 0.  1.
        -11    1    3    3    0    0  0.46283588315E+01 -0.31435490695E+02 -0.17053874465E+02  0.36061702885E+02  0.00000000000E+00 0. -1.
         22    1    1    2    0    0  0.99163096974E+01  0.12148675122E+02  0.38772930882E+01  0.16154160669E+02  0.00000000000E+00 0. -1.
<mgrwt>
<rscale>  0 0.61665667E+02</rscale>
<asrwt>0</asrwt>
<pdfrwt beam="1">  1        3 0.53356578E-02 0.97332507E+02</pdfrwt>
<pdfrwt beam="2">  1       -3 0.14306376E-01 0.97332507E+02</pdfrwt>
<totfact> 0.17222415E+04</totfact>
</mgrwt>
</event>
<event>
 6    1  0.1683416E-002  0.9494547E+02  0.7546771E-02  0.1374130E+00
         -2   -1    0    0    0  501 -0.00000000000E+00  0.00000000000E+00  0.18323622463E+03  0.18323622463E+03  0.00000000000E+00 0.  1.
          2   -1    0    0  501    0  0.00000000000E+00 -0.00000000000E+00 -0.22935496241E+02  0.22935496241E+02  0.00000000000E+00 0. -1.
         23    2    1    2    0    0 -0.15609108210E+02  0.15804122934E+02  0.15733277906E+03  0.18376138209E+03  0.92310495724E+02 0.  0.
         13    1    3    3    0    0 -0.15630233260E+02  0.39062664605E+01  0.16740144572E+03  0.16817493018E+03  0.00000000000E+00 0.  1.
        -13    1    3    3    0    0  0.21125049685E-01  0.11897856473E+02 -0.10068666664E+02  0.15586451915E+02  0.00000000000E+00 0. -1.
         22    1    1    2    0    0  0.15609108210E+02 -0.15804122934E+02  0.29679493259E+01  0.22410338775E+02  0.00000000000E+00 0. -1.
<mgrwt>
<rscale>  0 0.66032415E+02</rscale>
<asrwt>0</asrwt>
<pdfrwt beam="1">  1        2 0.35285380E-02 0.94945470E+02</pdfrwt>
<pdfrwt beam="2">  1       -2 0.28190187E-01 0.94945470E+02</pdfrwt>
<totfact> 0.25342152E+04</totfact>
</mgrwt>
</event>
<event>
 6    1  0.1683416E-002  0.9156883E+02  0.7546771E-02  0.1420122E+00
          2   -1    0    0  501    0  0.00000000000E+00  0.00000000000E+00  0.98335371667E+01  0.98335371667E+01  0.00000000000E+00 0. -1.
         -2   -1    0    0    0  501 -0.00000000000E+00 -0.00000000000E+00 -0.29334344665E+03  0.29334344665E+03  0.00000000000E+00 0.  1.
         23    2    1    2    0    0  0.37533154142E+01  0.11307216035E+02 -0.27029538983E+03  0.28538473717E+03  0.90790472710E+02 0.  0.
         13    1    3    3    0    0 -0.30157248411E+02  0.11137798135E+02 -0.34474429635E+02  0.47138057636E+02  0.00000000000E+00 0. -1.
        -13    1    3    3    0    0  0.33910563825E+02  0.16941790038E+00 -0.23582096020E+03  0.23824667954E+03  0.00000000000E+00 0.  1.
         22    1    1    2    0    0 -0.37533154142E+01 -0.11307216035E+02 -0.13214519650E+02  0.17792246645E+02  0.00000000000E+00 0. -1.
<mgrwt>
<rscale>  0 0.54995106E+02</rscale>
<asrwt>0</asrwt>
<pdfrwt beam="1">  1        2 0.15128518E-02 0.91568829E+02</pdfrwt>
<pdfrwt beam="2">  1       -2 0.45129765E-01 0.91568829E+02</pdfrwt>
<totfact> 0.33051310E+04</totfact>
</mgrwt>
</event>
<event>
 6    1  0.1683416E-002  0.9188363E+02  0.7546771E-02  0.1429082E+00
         -2   -1    0    0    0  501 -0.00000000000E+00  0.00000000000E+00  0.26809956211E+02  0.26809956211E+02  0.00000000000E+00 0.  1.
          2   -1    0    0  501    0  0.00000000000E+00 -0.00000000000E+00 -0.97425815671E+02  0.97425815671E+02  0.00000000000E+00 0. -1.
         23    2    1    2    0    0  0.78733855999E+01  0.66145383359E+01 -0.64632404752E+02  0.11233854328E+03  0.91306397606E+02 0.  0.
         11    1    3    3    0    0 -0.79944466273E+01 -0.39889286941E+02 -0.41199768387E+02  0.57900667567E+02  0.00000000000E+00 0.  1.
        -11    1    3    3    0    0  0.15867832227E+02  0.46503825277E+02 -0.23432636364E+02  0.54437875712E+02  0.00000000000E+00 0. -1.
         22    1    1    2    0    0 -0.78733855999E+01 -0.66145383359E+01 -0.59834547082E+01  0.11897228604E+02  0.00000000000E+00 0.  1.
<mgrwt>
<rscale>  0 0.53144668E+02</rscale>
<asrwt>0</asrwt>
<pdfrwt beam="1">  1        2 0.14988587E-01 0.91883625E+02</pdfrwt>
<pdfrwt beam="2">  1       -2 0.41246086E-02 0.91883625E+02</pdfrwt>
<totfact> 0.87171105E+04</totfact>
</mgrwt>
</event>
<event>
 6    1  0.1683416E-002  0.9009268E+02  0.7546771E-02  0.1433931E+00
          2   -1    0    0  501    0  0.00000000000E+00  0.00000000000E+00  0.68756620111E+02  0.68756620111E+02  0.00000000000E+00 0. -1.
         -2   -1    0    0    0  501 -0.00000000000E+00 -0.00000000000E+00 -0.37865671297E+02  0.37865671297E+02  0.00000000000E+00 0.  1.
         23    2    1    2    0    0 -0.50778463534E+01  0.87735566141E+01  0.21103430950E+02  0.92531325324E+02  0.89520564951E+02 0.  0.
         11    1    3    3    0    0 -0.68417015732E+01 -0.56901817668E+01 -0.34200951677E+02  0.35339668145E+02  0.00000000000E+00 0.  1.
        -11    1    3    3    0    0  0.17638552199E+01  0.14463738381E+02  0.55304382627E+02  0.57191657179E+02  0.00000000000E+00 0. -1.
         22    1    1    2    0    0  0.50778463534E+01 -0.87735566141E+01  0.97875178637E+01  0.14090966084E+02  0.00000000000E+00 0.  1.
<mgrwt>
<rscale>  0 0.52178916E+02</rscale>
<asrwt>0</asrwt>
<pdfrwt beam="1">  1        2 0.10577941E-01 0.90092682E+02</pdfrwt>
<pdfrwt beam="2">  1       -2 0.58254879E-02 0.90092682E+02</pdfrwt>
<totfact> 0.78557961E+04</totfact>
</mgrwt>
</event>
<event>
 6    1  0.1683416E-002  0.9531732E+02  0.7546771E-02  0.1355624E+00
         -1   -1    0    0    0  501 -0.00000000000E+00  0.00000000000E+00  0.11323056794E+03  0.11323056794E+03  0.00000000000E+00 0.  1.
          1   -1    0    0  501    0  0.00000000000E+00 -0.00000000000E+00 -0.34710874816E+02  0.34710874816E+02  0.00000000000E+00 0. -1.
         23    2    1    2    0    0  0.11054531022E+02 -0.27776102871E+02  0.63023857511E+02  0.11426896931E+03  0.90507879127E+02 0.  0.
         13    1    3    3    0    0  0.29221770272E+02 -0.34185783643E+02  0.77885856922E+02  0.89937680478E+02  0.00000000000E+00 0.  1.
        -13    1    3    3    0    0 -0.18167239250E+02  0.64096807725E+01 -0.14861999411E+02  0.24331288829E+02  0.00000000000E+00 0. -1.
         22    1    1    2    0    0 -0.11054531022E+02  0.27776102871E+02  0.15495835612E+02  0.33672473448E+02  0.00000000000E+00 0. -1.
<mgrwt>
<rscale>  0 0.71331065E+02</rscale>
<asrwt>0</asrwt>
<pdfrwt beam="1">  1        1 0.53401347E-02 0.95317316E+02</pdfrwt>
<pdfrwt beam="2">  1       -1 0.17420087E-01 0.95317316E+02</pdfrwt>
<totfact> 0.33586878E+04</totfact>
</mgrwt>
</event>
<event>
 6    1  0.1683416E-002  0.9249205E+02  0.7546771E-02  0.1415342E+00
         -1   -1    0    0    0  501 -0.00000000000E+00  0.00000000000E+00  0.63508015073E+02  0.63508015073E+02  0.00000000000E+00 0.  1.
          1   -1    0    0  501    0  0.00000000000E+00 -0.00000000000E+00 -0.44592177238E+02  0.44592177238E+02  0.00000000000E+00 0. -1.
         23    2    1    2    0    0 -0.24745885032E+01 -0.12197227918E+02  0.22420028587E+02  0.95170563161E+02  0.91650872627E+02 0.  0.
         13    1    3    3    0    0 -0.19446533713E+02 -0.33094755650E+02 -0.21245885589E+02  0.43872749850E+02  0.00000000000E+00 0. -1.
        -13    1    3    3    0    0  0.16971945210E+02  0.20897527732E+02  0.43665914177E+02  0.51297813310E+02  0.00000000000E+00 0.  1.
         22    1    1    2    0    0  0.24745885032E+01  0.12197227918E+02 -0.35041907523E+01  0.12929629150E+02  0.00000000000E+00 0.  1.
<mgrwt>
<rscale>  0 0.56018735E+02</rscale>
<asrwt>0</asrwt>
<pdfrwt beam="1">  1        1 0.68603349E-02 0.92492045E+02</pdfrwt>
<pdfrwt beam="2">  1       -1 0.97704639E-02 0.92492045E+02</pdfrwt>
<totfact> 0.58134869E+04</totfact>
</mgrwt>
</event>
<event>
 6    1  0.1683416E-002  0.9306670E+02  0.7546771E-02  0.1402316E+00
         -2   -1    0    0    0  501 -0.00000000000E+00  0.00000000000E+00  0.23800723328E+02  0.23800723328E+02  0.00000000000E+00 0.  1.
          2   -1    0    0  501    0  0.00000000000E+00 -0.00000000000E+00 -0.18211981609E+03  0.18211981609E+03  0.00000000000E+00 0. -1.
         23    2    1    2    0    0  0.81820650148E+00 -0.14953373920E+02 -0.70293508549E+02  0.11663013495E+03  0.91853895843E+02 0.  0.
         11    1    3    3    0    0 -0.28430807321E+02  0.19746373519E+02 -0.20522987570E+01  0.34676245504E+02  0.00000000000E+00 0.  1.
        -11    1    3    3    0    0  0.29249013823E+02 -0.34699747439E+02 -0.68241209792E+02  0.81953889449E+02  0.00000000000E+00 0. -1.
         22    1    1    2    0    0 -0.81820650148E+00  0.14953373920E+02 -0.88025584211E+02  0.89290404462E+02  0.00000000000E+00 0. -1.
<mgrwt>
<rscale>  0 0.58944438E+02</rscale>
<asrwt>0</asrwt>
<pdfrwt beam="1">  1        2 0.28018433E-01 0.93066702E+02</pdfrwt>
<pdfrwt beam="2">  1       -2 0.36616498E-02 0.93066702E+02</pdfrwt>
<totfact> 0.51773696E+04</totfact>
</mgrwt>
</event>
<event>
 6    1  0.1683416E-002  0.9184993E+02  0.7546771E-02  0.1424256E+00
          4   -1    0    0  501    0  0.00000000000E+00  0.00000000000E+00  0.73499203368E+02  0.73499203368E+02  0.00000000000E+00 0. -1.
         -4   -1    0    0    0  501 -0.00000000000E+00 -0.00000000000E+00 -0.37230621795E+02  0.37230621795E+02  0.00000000000E+00 0.  1.
         23    2    1    2    0    0  0.82253043509E+01 -0.74232737666E+01  0.38211004139E+02  0.99481108324E+02  0.91179216113E+02 0.  0.
         13    1    3    3    0    0  0.45865461576E+02  0.48496569736E+01  0.25399152817E+01  0.46191026271E+02  0.00000000000E+00 0. -1.
        -13    1    3    3    0    0 -0.37640157225E+02 -0.12272930740E+02  0.35671088858E+02  0.53290082053E+02  0.00000000000E+00 0.  1.
         22    1    1    2    0    0 -0.82253043509E+01  0.74232737666E+01 -0.19424225663E+01  0.11248716838E+02  0.00000000000E+00 0. -1.
<mgrwt>
<rscale>  0 0.54130435E+02</rscale>
<asrwt>0</asrwt>
<pdfrwt beam="1">  1        4 0.11307570E-01 0.91849932E+02</pdfrwt>
<pdfrwt beam="2">  1       -4 0.57277880E-02 0.91849932E+02</pdfrwt>
<totfact> 0.17034694E+04</totfact>
</mgrwt>
</event>
<event>
 6    1  0.1683416E-002  0.9033343E+02  0.7546771E-02  0.1385494E+00
         -2   -1    0    0    0  501 -0.00000000000E+00  0.00000000000E+00  0.11950314379E+03  0.11950314379E+03  0.00000000000E+00 0. -1.
          2   -1    0    0  501    0  0.00000000000E+00 -0.00000000000E+00 -0.27234111242E+02  0.27234111242E+02  0.00000000000E+00 0.  1.
         23    2    1    2    0    0  0.47728650362E+00  0.21421397974E+02  0.85201640310E+02  0.12417507148E+03  0.87755482865E+02 0.  0.
         13    1    3    3    0    0 -0.34650146754E+02  0.80546323919E+01  0.54210899679E+01  0.35984691043E+02  0.00000000000E+00 0.  1.
        -13    1    3    3    0    0  0.35127433257E+02  0.13366765583E+02  0.79780550342E+02  0.88190380440E+02  0.00000000000E+00 0. -1.
         22    1    1    2    0    0 -0.47728650362E+00 -0.21421397974E+02  0.70673922422E+01  0.22562183553E+02  0.00000000000E+00 0. -1.
<mgrwt>
<rscale>  0 0.63041317E+02</rscale>
<asrwt>0</asrwt>
<pdfrwt beam="1">  1        2 0.41898633E-02 0.90333432E+02</pdfrwt>
<pdfrwt beam="2">  1       -2 0.18385099E-01 0.90333432E+02</pdfrwt>
<totfact> 0.41710793E+04</totfact>
</mgrwt>
</event>
<event>
 6    1  0.1683416E-002  0.9509997E+02  0.7546771E-02  0.1379110E+00
         -2   -1    0    0    0  501 -0.00000000000E+00  0.00000000000E+00  0.55265496808E+02  0.55265496808E+02  0.00000000000E+00 0.  1.
          2   -1    0    0  501    0  0.00000000000E+00 -0.00000000000E+00 -0.90536006228E+02  0.90536006228E+02  0.00000000000E+00 0. -1.
         23    2    1    2    0    0  0.14078958422E+02  0.14723979585E+02  0.10523652072E+02  0.95680470806E+02  0.92892371031E+02 0.  0.
         13    1    3    3    0    0 -0.82774643657E+00 -0.28798885967E+02 -0.24533030961E+02  0.37840858939E+02  0.00000000000E+00 0. -1.
        -13    1    3    3    0    0  0.14906704859E+02  0.43522865553E+02  0.35056683033E+02  0.57839611867E+02  0.00000000000E+00 0.  1.
         22    1    1    2    0    0 -0.14078958422E+02 -0.14723979585E+02 -0.45794161491E+02  0.50121032230E+02  0.00000000000E+00 0. -1.
<mgrwt>
<rscale>  0 0.64698315E+02</rscale>
<asrwt>0</asrwt>
<pdfrwt beam="1">  1        2 0.13928616E-01 0.95099975E+02</pdfrwt>
<pdfrwt beam="2">  1       -2 0.85023841E-02 0.95099975E+02</pdfrwt>
<totfact> 0.32182905E+04</totfact>
</mgrwt>
</event>
<event>
 6    1  0.1683416E-002  0.9401051E+02  0.7546771E-02  0.1363356E+00
         -2   -1    0    0    0  501 -0.00000000000E+00  0.00000000000E+00  0.10178900926E+02  0.10178900926E+02  0.00000000000E+00 0. -1.
          2   -1    0    0  501    0  0.00000000000E+00 -0.00000000000E+00 -0.37125106897E+03  0.37125106897E+03  0.00000000000E+00 0.  1.
         23    2    1    2    0    0  0.88216359860E+01 -0.25898089870E+02 -0.30273197360E+03  0.31699309685E+03  0.89941332488E+02 0.  0.
         13    1    3    3    0    0  0.14151742084E+02 -0.18517523035E+02 -0.30632163736E+03  0.30720695952E+03  0.00000000000E+00 0.  1.
        -13    1    3    3    0    0 -0.53301060983E+01 -0.73805668350E+01  0.35896637623E+01  0.97861373254E+01  0.00000000000E+00 0. -1.
         22    1    1    2    0    0 -0.88216359860E+01  0.25898089870E+02 -0.58340194442E+02  0.64436873046E+02  0.00000000000E+00 0. -1.
<mgrwt>
<rscale>  0 0.69049195E+02</rscale>
<asrwt>0</asrwt>
<pdfrwt beam="1">  1        2 0.57115537E-01 0.94010508E+02</pdfrwt>
<pdfrwt beam="2">  1       -2 0.15659851E-02 0.94010508E+02</pdfrwt>
<totfact> 0.83518677E+04</totfact>
</mgrwt>
</event>
<event>
 6    1  0.1683416E-002  0.9153880E+02  0.7546771E-02  0.1390511E+00
         -2   -1    0    0    0  501 -0.00000000000E+00  0.00000000000E+00  0.71919675874E+02  0.71919675874E+02  0.00000000000E+00 0.  1.
          2   -1    0    0  501    0  0.00000000000E+00 -0.00000000000E+00 -0.47131948072E+02  0.47131948072E+02  0.00000000000E+00 0. -1.
         23    2    1    2    0    0  0.18427252011E+02  0.45975108673E+01  0.34370652749E+02  0.97778796833E+02  0.89546918522E+02 0.  0.
         13    1    3    3    0    0 -0.28281648486E+02 -0.11312573803E+02 -0.93384957287E+01  0.31859589916E+02  0.00000000000E+00 0. -1.
        -13    1    3    3    0    0  0.46708900497E+02  0.15910084670E+02  0.43709148478E+02  0.65919206917E+02  0.00000000000E+00 0.  1.
         22    1    1    2    0    0 -0.18427252011E+02 -0.45975108673E+01 -0.95829249472E+01  0.21272827113E+02  0.00000000000E+00 0. -1.
<mgrwt>
<rscale>  0 0.61779911E+02</rscale>
<asrwt>0</asrwt>
<pdfrwt beam="1">  1        2 0.72510689E-02 0.91538797E+02</pdfrwt>
<pdfrwt beam="2">  1       -2 0.11064566E-01 0.91538797E+02</pdfrwt>
<totfact> 0.46919017E+04</totfact>
</mgrwt>
</event>
<event>
 6    1  0.1683416E-002  0.9288699E+02  0.7546771E-02  0.1400926E+00
         -1   -1    0    0    0  501 -0.00000000000E+00  0.00000000000E+00  0.53238757149E+02  0.53238757149E+02  0.00000000000E+00 0.  1.
          1   -1    0    0  501    0  0.00000000000E+00 -0.00000000000E+00 -0.72658585433E+02  0.72658585433E+02  0.00000000000E+00 0. -1.
         23    2    1    2    0    0  0.15323757637E+02  0.15021694826E+01  0.92582938326E+01  0.93347246585E+02  0.91601956196E+02 0.  0.
         11    1    3    3    0    0 -0.24765512202E+02  0.14312675216E+02 -0.25839255771E+02  0.38546730150E+02  0.00000000000E+00 0. -1.
        -11    1    3    3    0    0  0.40089269839E+02 -0.12810505733E+02  0.35097549604E+02  0.54800516435E+02  0.00000000000E+00 0.  1.
         22    1    1    2    0    0 -0.15323757637E+02 -0.15021694826E+01 -0.28678122117E+02  0.32550095998E+02  0.00000000000E+00 0.  1.
<mgrwt>
<rscale>  0 0.59268872E+02</rscale>
<asrwt>0</asrwt>
<pdfrwt beam="1">  1        1 0.11178244E-01 0.92886987E+02</pdfrwt>
<pdfrwt beam="2">  1       -1 0.81905780E-02 0.92886987E+02</pdfrwt>
<totfact> 0.39807191E+04</totfact>
</mgrwt>
</event>
<event>
 6    1  0.1683416E-002  0.9116585E+02  0.7546771E-02  0.1409798E+00
          2   -1    0    0  501    0  0.00000000000E+00  0.00000000000E+00  0.36646654440E+02  0.36646654440E+02  0.00000000000E+00 0.  1.
         -2   -1    0    0    0  501 -0.00000000000E+00 -0.00000000000E+00 -0.76400469970E+02  0.76400469970E+02  0.00000000000E+00 0. -1.
         23    2    1    2    0    0 -0.12012265251E+02  0.75101688956E+01 -0.38014235007E+02  0.98773957497E+02  0.90058400292E+02 0.  0.
         11    1    3    3    0    0  0.12919753023E+02 -0.17295343207E+01  0.26204985171E+02  0.29267944153E+02  0.00000000000E+00 0.  1.
        -11    1    3    3    0    0 -0.24932018275E+02  0.92397032163E+01 -0.64219220178E+02  0.69506013344E+02  0.00000000000E+00 0. -1.
         22    1    1    2    0    0  0.12012265251E+02 -0.75101688956E+01 -0.17395805228E+01  0.14273166912E+02  0.00000000000E+00 0.  1.
<mgrwt>
<rscale>  0 0.57238968E+02</rscale>
<asrwt>0</asrwt>
<pdfrwt beam="1">  1        2 0.56379468E-02 0.91165852E+02</pdfrwt>
<pdfrwt beam="2">  1       -2 0.11753918E-01 0.91165852E+02</pdfrwt>
<totfact> 0.58624858E+04</totfact>
</mgrwt>
</event>
<event>
 6    1  0.1683416E-002  0.9307606E+02  0.7546771E-02  0.1417209E+00
         -2   -1    0    0    0  501 -0.00000000000E+00  0.00000000000E+00  0.75667433386E+01  0.75667433386E+01  0.00000000000E+00 0. -1.
          2   -1    0    0  501    0  0.00000000000E+00 -0.00000000000E+00 -0.36414201463E+03  0.36414201463E+03  0.00000000000E+00 0.  1.
         23    2    1    2    0    0 -0.76249174206E+00 -0.11840703037E+02 -0.31282005899E+03  0.32637331659E+03  0.92316676874E+02 0.  0.
         11    1    3    3    0    0 -0.25293319410E+02  0.12202787342E+02 -0.28590968437E+02  0.40076221152E+02  0.00000000000E+00 0. -1.
        -11    1    3    3    0    0  0.24530827668E+02 -0.24043490379E+02 -0.28422909056E+03  0.28629709543E+03  0.00000000000E+00 0.  1.
         22    1    1    2    0    0  0.76249174206E+00  0.11840703037E+02 -0.43755212304E+02  0.45335441387E+02  0.00000000000E+00 0. -1.
<mgrwt>
<rscale>  0 0.55615713E+02</rscale>
<asrwt>0</asrwt>
<pdfrwt beam="1">  1        2 0.56021849E-01 0.93076057E+02</pdfrwt>
<pdfrwt beam="2">  1       -2 0.11641144E-02 0.93076057E+02</pdfrwt>
<totfact> 0.12985056E+05</totfact>
</mgrwt>
</event>
<event>
 6    1  0.1683416E-002  0.9277217E+02  0.7546771E-02  0.1397354E+00
         -1   -1    0    0    0  501 -0.00000000000E+00  0.00000000000E+00  0.37170495534E+02  0.37170495534E+02  0.00000000000E+00 0.  1.
          1   -1    0    0  501    0  0.00000000000E+00 -0.00000000000E+00 -0.83318931029E+02  0.83318931029E+02  0.00000000000E+00 0. -1.
         23    2    1    2    0    0 -0.27593638364E+01 -0.16120567735E+02 -0.29991481565E+02  0.97499560247E+02  0.91319157295E+02 0.  0.
         13    1    3    3    0    0  0.42832932867E+02 -0.82602606616E+01 -0.26639992480E+02  0.51113415494E+02  0.00000000000E+00 0.  1.
        -13    1    3    3    0    0 -0.45592296703E+02 -0.78603070734E+01 -0.33514890846E+01  0.46386144753E+02  0.00000000000E+00 0. -1.
         22    1    1    2    0    0  0.27593638364E+01  0.16120567735E+02 -0.16156953930E+02  0.22989866315E+02  0.00000000000E+00 0. -1.
<mgrwt>
<rscale>  0 0.60114062E+02</rscale>
<asrwt>0</asrwt>
<pdfrwt beam="1">  1        1 0.12818297E-01 0.92772169E+02</pdfrwt>
<pdfrwt beam="2">  1       -1 0.57185378E-02 0.92772169E+02</pdfrwt>
<totfact> 0.56768825E+04</totfact>
</mgrwt>
</event>
<event>
 6    1  0.1683416E-002  0.9788506E+02  0.7546771E-02  0.1342652E+00
         -2   -1    0    0    0  501 -0.00000000000E+00  0.00000000000E+00  0.26392411840E+03  0.26392411840E+03  0.00000000000E+00 0. -1.
          2   -1    0    0  501    0  0.00000000000E+00 -0.00000000000E+00 -0.16931826010E+02  0.16931826010E+02  0.00000000000E+00 0.  1.
         23    2    1    2    0    0 -0.31959988076E+02 -0.12865957411E+02  0.19907624393E+03  0.22183966362E+03  0.91621568209E+02 0.  0.
         11    1    3    3    0    0  0.18349545029E+02  0.24290797875E+02  0.35793735340E+02  0.46988723688E+02  0.00000000000E+00 0.  1.
        -11    1    3    3    0    0 -0.50309533106E+02 -0.37156755287E+02  0.16328250859E+03  0.17485093994E+03  0.00000000000E+00 0. -1.
         22    1    1    2    0    0  0.31959988076E+02  0.12865957411E+02  0.47916048458E+02  0.59016280786E+02  0.00000000000E+00 0.  1.
<mgrwt>
<rscale>  0 0.75394984E+02</rscale>
<asrwt>0</asrwt>
<pdfrwt beam="1">  1        2 0.26048965E-02 0.97885062E+02</pdfrwt>
<pdfrwt beam="2">  1       -2 0.40603708E-01 0.97885062E+02</pdfrwt>
<totfact> 0.19582412E+04</totfact>
</mgrwt>
</event>
<event>
 6    1  0.1683416E-002  0.1060344E+03  0.7546771E-02  0.1302595E+00
          2   -1    0    0  501    0  0.00000000000E+00  0.00000000000E+00  0.47213812888E+03  0.47213812888E+03  0.00000000000E+00 0. -1.
         -2   -1    0    0    0  501 -0.00000000000E+00 -0.00000000000E+00 -0.13781579210E+02  0.13781579210E+02  0.00000000000E+00 0.  1.
         23    2    1    2    0    0  0.48160923856E+02 -0.27165413919E+02  0.30040725908E+03  0.31857153004E+03  0.90475765490E+02 0.  0.
         11    1    3    3    0    0 -0.55179490244E+01  0.55565487311E+01  0.19969652393E+03  0.19985000542E+03  0.00000000000E+00 0. -1.
        -11    1    3    3    0    0  0.53678872881E+02 -0.32721962650E+02  0.10071073515E+03  0.11872152462E+03  0.00000000000E+00 0.  1.
         22    1    1    2    0    0 -0.48160923856E+02  0.27165413919E+02  0.15794929059E+03  0.16734817805E+03  0.00000000000E+00 0.  1.
<mgrwt>
<rscale>  0 0.90106225E+02</rscale>
<asrwt>0</asrwt>
<pdfrwt beam="1">  1        2 0.72636623E-01 0.10603442E+03</pdfrwt>
<pdfrwt beam="2">  1       -2 0.21202433E-02 0.10603442E+03</pdfrwt>
<totfact> 0.42516487E+04</totfact>
</mgrwt>
</event>
<event>
 6    1  0.1683416E-002  0.9320391E+02  0.7546771E-02  0.1354227E+00
          2   -1    0    0  501    0  0.00000000000E+00  0.00000000000E+00  0.10270647853E+02  0.10270647853E+02  0.00000000000E+00 0. -1.
         -2   -1    0    0    0  501 -0.00000000000E+00 -0.00000000000E+00 -0.41280124789E+03  0.41280124789E+03  0.00000000000E+00 0.  1.
         23    2    1    2    0    0 -0.28101826318E+02 -0.16800589892E+02 -0.33928514408E+03  0.35185420017E+03  0.87263948580E+02 0.  0.
         11    1    3    3    0    0 -0.37372313656E+02  0.28422097185E+02 -0.17874764937E+03  0.18481132972E+03  0.00000000000E+00 0. -1.
        -11    1    3    3    0    0  0.92704873375E+01 -0.45222687078E+02 -0.16053749471E+03  0.16704287045E+03  0.00000000000E+00 0.  1.
         22    1    1    2    0    0  0.28101826318E+02  0.16800589892E+02 -0.63245455951E+02  0.71217695566E+02  0.00000000000E+00 0. -1.
<mgrwt>
<rscale>  0 0.71754404E+02</rscale>
<asrwt>0</asrwt>
<pdfrwt beam="1">  1        2 0.15800995E-02 0.93203912E+02</pdfrwt>
<pdfrwt beam="2">  1       -2 0.63507892E-01 0.93203912E+02</pdfrwt>
<totfact> 0.15817625E+04</totfact>
</mgrwt>
</event>
<event>
 6    1  0.1683416E-002  0.9423979E+02  0.7546771E-02  0.1413603E+00
          2   -1    0    0  501    0  0.00000000000E+00  0.00000000000E+00  0.26514474353E+03  0.26514474353E+03  0.00000000000E+00 0. -1.
         -2   -1    0    0    0  501 -0.00000000000E+00 -0.00000000000E+00 -0.10823315788E+02  0.10823315788E+02  0.00000000000E+00 0.  1.
         23    2    1    2    0    0 -0.11869608914E+02  0.22850049409E+01  0.21303603819E+03  0.23294954872E+03  0.93461381432E+02 0.  0.
         11    1    3    3    0    0  0.15560640945E+02 -0.20050561815E+02  0.18777416075E+03  0.18948164560E+03  0.00000000000E+00 0. -1.
        -11    1    3    3    0    0 -0.27430249859E+02  0.22335566756E+02  0.25261877438E+02  0.43467903117E+02  0.00000000000E+00 0.  1.
         22    1    1    2    0    0  0.11869608914E+02 -0.22850049409E+01  0.41285389553E+02  0.43018510596E+02  0.00000000000E+00 0. -1.
<mgrwt>
<rscale>  0 0.56397560E+02</rscale>
<asrwt>0</asrwt>
<pdfrwt beam="1">  1        2 0.40791494E-01 0.94239794E+02</pdfrwt>
<pdfrwt beam="2">  1       -2 0.16651257E-02 0.94239794E+02</pdfrwt>
<totfact> 0.10887204E+05</totfact>
</mgrwt>
</event>
<event>
 6    1  0.1683416E-002  0.8744437E+02  0.7546771E-02  0.1436796E+00
          1   -1    0    0  501    0  0.00000000000E+00  0.00000000000E+00  0.20596109956E+03  0.20596109956E+03  0.00000000000E+00 0. -1.
         -1   -1    0    0    0  501 -0.00000000000E+00 -0.00000000000E+00 -0.12235419234E+02  0.12235419234E+02  0.00000000000E+00 0.  1.
         23    2    1    2    0    0 -0.95571836998E+01 -0.46276495332E+01  0.15419237602E+03  0.17726197287E+03  0.86797254007E+02 0.  0.
         13    1    3    3    0    0 -0.42127808096E+02 -0.23244638953E+02  0.68423359758E+02  0.83647006017E+02  0.00000000000E+00 0.  1.
        -13    1    3    3    0    0  0.32570624396E+02  0.18616989420E+02  0.85769016258E+02  0.93614966851E+02  0.00000000000E+00 0. -1.
         22    1    1    2    0    0  0.95571836998E+01  0.46276495332E+01  0.39533304312E+02  0.40934545927E+02  0.00000000000E+00 0. -1.
<mgrwt>
<rscale>  0 0.51619742E+02</rscale>
<asrwt>0</asrwt>
<pdfrwt beam="1">  1        1 0.31686320E-01 0.87444372E+02</pdfrwt>
<pdfrwt beam="2">  1       -1 0.18823723E-02 0.87444372E+02</pdfrwt>
<totfact> 0.89944210E+04</totfact>
</mgrwt>
</event>
<event>
 6    1  0.1683416E-002  0.9420207E+02  0.7546771E-02  0.1329119E+00
          4   -1    0    0  501    0  0.00000000000E+00  0.00000000000E+00  0.30180138291E+02  0.30180138291E+02  0.00000000000E+00 0. -1.
         -4   -1    0    0    0  501 -0.00000000000E+00 -0.00000000000E+00 -0.17322384273E+03  0.17322384273E+03  0.00000000000E+00 0.  1.
         23    2    1    2    0    0  0.35167022474E+02  0.34035276704E+02 -0.10740308331E+03  0.14286165364E+03  0.80491678123E+02 0.  0.
         13    1    3    3    0    0  0.44869027939E+01 -0.17358813715E+02  0.21158349234E+01  0.18053738330E+02  0.00000000000E+00 0. -1.
        -13    1    3    3    0    0  0.30680119680E+02  0.51394090419E+02 -0.10951891823E+03  0.12480791531E+03  0.00000000000E+00 0.  1.
         22    1    1    2    0    0 -0.35167022474E+02 -0.34035276704E+02 -0.35640621129E+02  0.60542327379E+02  0.00000000000E+00 0. -1.
<mgrwt>
<rscale>  0 0.79976286E+02</rscale>
<asrwt>0</asrwt>
<pdfrwt beam="1">  1        4 0.46430983E-02 0.94202069E+02</pdfrwt>
<pdfrwt beam="2">  1       -4 0.26649822E-01 0.94202069E+02</pdfrwt>
<totfact> 0.53063672E+03</totfact>
</mgrwt>
</event>
<event>
 6    1  0.1683416E-002  0.9184576E+02  0.7546771E-02  0.1411967E+00
          2   -1    0    0  501    0  0.00000000000E+00  0.00000000000E+00  0.48809701963E+02  0.48809701963E+02  0.00000000000E+00 0. -1.
         -2   -1    0    0    0  501 -0.00000000000E+00 -0.00000000000E+00 -0.56801031929E+02  0.56801031929E+02  0.00000000000E+00 0.  1.
         23    2    1    2    0    0 -0.82149556475E+00  0.13368773726E+02 -0.82379908106E+01  0.92214472942E+02  0.90863884803E+02 0.  0.
         13    1    3    3    0    0  0.33803646489E+02  0.30554055859E+01  0.25756005730E+02  0.42607438910E+02  0.00000000000E+00 0. -1.
        -13    1    3    3    0    0 -0.34625142054E+02  0.10313368140E+02 -0.33993996541E+02  0.49607034032E+02  0.00000000000E+00 0.  1.
         22    1    1    2    0    0  0.82149556475E+00 -0.13368773726E+02  0.24666084490E+00  0.13396260951E+02  0.00000000000E+00 0. -1.
<mgrwt>
<rscale>  0 0.56757315E+02</rscale>
<asrwt>0</asrwt>
<pdfrwt beam="1">  1        2 0.75091849E-02 0.91845765E+02</pdfrwt>
<pdfrwt beam="2">  1       -2 0.87386203E-02 0.91845765E+02</pdfrwt>
<totfact> 0.64833342E+04</totfact>
</mgrwt>
</event>
<event>
 6    1  0.1683416E-002  0.9862657E+02  0.7546771E-02  0.1341591E+00
          2   -1    0    0  501    0  0.00000000000E+00  0.00000000000E+00  0.14748320147E+03  0.14748320147E+03  0.00000000000E+00 0.  1.
         -2   -1    0    0    0  501 -0.00000000000E+00 -0.00000000000E+00 -0.34845588167E+02  0.34845588167E+02  0.00000000000E+00 0. -1.
         23    2    1    2    0    0  0.21657915340E+01 -0.34235742369E+02  0.49216516033E+02  0.11022461301E+03  0.92468498169E+02 0.  0.
         11    1    3    3    0    0 -0.24793709414E+02 -0.34675933653E+02  0.65923425006E+02  0.78505072230E+02  0.00000000000E+00 0.  1.
        -11    1    3    3    0    0  0.26959500948E+02  0.44019128452E+00 -0.16706908973E+02  0.31719540778E+02  0.00000000000E+00 0. -1.
         22    1    1    2    0    0 -0.21657915340E+01  0.34235742369E+02  0.63421097267E+02  0.72104176627E+02  0.00000000000E+00 0.  1.
<mgrwt>
<rscale>  0 0.75741203E+02</rscale>
<asrwt>0</asrwt>
<pdfrwt beam="1">  1        2 0.22689723E-01 0.98626568E+02</pdfrwt>
<pdfrwt beam="2">  1       -2 0.53608598E-02 0.98626568E+02</pdfrwt>
<totfact> 0.37349369E+04</totfact>
</mgrwt>
</event>
<event>
 6    1  0.1683416E-002  0.1061562E+03  0.7546771E-02  0.1304413E+00
         -2   -1    0    0    0  501 -0.00000000000E+00  0.00000000000E+00  0.29035722378E+03  0.29035722378E+03  0.00000000000E+00 0.  1.
          2   -1    0    0  501    0  0.00000000000E+00 -0.00000000000E+00 -0.53944726622E+02  0.53944726622E+02  0.00000000000E+00 0. -1.
         23    2    1    2    0    0 -0.19415184499E+01  0.53262177166E+02  0.44010165749E+01  0.10624742696E+03  0.91806959309E+02 0.  0.
         13    1    3    3    0    0 -0.35791697541E+02 -0.57262186347E+01  0.11097821576E+02  0.37907741115E+02  0.00000000000E+00 0.  1.
        -13    1    3    3    0    0  0.33850179091E+02  0.58988395801E+02 -0.66968050009E+01  0.68339685841E+02  0.00000000000E+00 0. -1.
         22    1    1    2    0    0  0.19415184499E+01 -0.53262177166E+02  0.23201148059E+03  0.23805452345E+03  0.00000000000E+00 0.  1.
<mgrwt>
<rscale>  0 0.89358517E+02</rscale>
<asrwt>0</asrwt>
<pdfrwt beam="1">  1        2 0.82991888E-02 0.10615624E+03</pdfrwt>
<pdfrwt beam="2">  1       -2 0.44670341E-01 0.10615624E+03</pdfrwt>
<totfact> 0.36613310E+03</totfact>
</mgrwt>
</event>
<event>
 6    1  0.1683416E-002  0.9129659E+02  0.7546771E-02  0.1408319E+00
          2   -1    0    0  501    0  0.00000000000E+00  0.00000000000E+00  0.72203614968E+02  0.72203614968E+02  0.00000000000E+00 0.  1.
         -2   -1    0    0    0  501 -0.00000000000E+00 -0.00000000000E+00 -0.41046281234E+02  0.41046281234E+02  0.00000000000E+00 0. -1.
         23    2    1    2    0    0  0.14400380397E+02  0.10096423192E+01  0.16684849341E+02  0.92808684455E+02  0.90148085834E+02 0.  0.
         13    1    3    3    0    0  0.22345632703E+01 -0.32905787840E+02 -0.22230491955E+02  0.39774098594E+02  0.00000000000E+00 0. -1.
        -13    1    3    3    0    0  0.12165817127E+02  0.33915430160E+02  0.38915341296E+02  0.53034585861E+02  0.00000000000E+00 0.  1.
         22    1    1    2    0    0 -0.14400380397E+02 -0.10096423192E+01  0.14472484393E+02  0.20441211747E+02  0.00000000000E+00 0. -1.
<mgrwt>
<rscale>  0 0.57570582E+02</rscale>
<asrwt>0</asrwt>
<pdfrwt beam="1">  1        2 0.11108248E-01 0.91296592E+02</pdfrwt>
<pdfrwt beam="2">  1       -2 0.63148125E-02 0.91296592E+02</pdfrwt>
<totfact> 0.65759503E+04</totfact>
</mgrwt>
</event>
<event>
 6    1  0.1683416E-002  0.9046489E+02  0.7546771E-02  0.1411807E+00
         -2   -1    0    0    0  501 -0.00000000000E+00  0.00000000000E+00  0.80412422675E+02  0.80412422675E+02  0.00000000000E+00 0.  1.
          2   -1    0    0  501    0  0.00000000000E+00 -0.00000000000E+00 -0.36027057558E+02  0.36027057558E+02  0.00000000000E+00 0. -1.
         23    2    1    2    0    0 -0.85501366016E+01  0.11150936190E+02  0.47306816465E+02  0.10208736918E+03  0.89366928153E+02 0.  0.
         13    1    3    3    0    0  0.24979527496E+02  0.13848780195E+02  0.59746853271E+02  0.66222745206E+02  0.00000000000E+00 0.  1.
        -13    1    3    3    0    0 -0.33529664098E+02 -0.26978440052E+01 -0.12440036806E+02  0.35864623970E+02  0.00000000000E+00 0. -1.
         22    1    1    2    0    0  0.85501366016E+01 -0.11150936190E+02 -0.29214513476E+01  0.14352111057E+02  0.00000000000E+00 0.  1.
<mgrwt>
<rscale>  0 0.56792592E+02</rscale>
<asrwt>0</asrwt>
<pdfrwt beam="1">  1        2 0.55426243E-02 0.90464889E+02</pdfrwt>
<pdfrwt beam="2">  1       -2 0.12371142E-01 0.90464889E+02</pdfrwt>
<totfact> 0.55196054E+04</totfact>
</mgrwt>
</event>
<event>
 6    1  0.1683416E-002  0.9184921E+02  0.7546771E-02  0.1408154E+00
         -2   -1    0    0    0  501 -0.00000000000E+00  0.00000000000E+00  0.90718268284E+02  0.90718268284E+02  0.00000000000E+00 0. -1.
          2   -1    0    0  501    0  0.00000000000E+00 -0.00000000000E+00 -0.32072290288E+02  0.32072290288E+02  0.00000000000E+00 0.  1.
         23    2    1    2    0    0  0.90211216137E+01 -0.10983518129E+02  0.57862364355E+02  0.10855565935E+03  0.90742821542E+02 0.  0.
         11    1    3    3    0    0 -0.69659196175E+01 -0.32757143987E+02  0.71011809426E+02  0.78512620618E+02  0.00000000000E+00 0. -1.
        -11    1    3    3    0    0  0.15987041231E+02  0.21773625858E+02 -0.13149445071E+02  0.30043038728E+02  0.00000000000E+00 0.  1.
         22    1    1    2    0    0 -0.90211216137E+01  0.10983518129E+02  0.78361364134E+00  0.14234899227E+02  0.00000000000E+00 0.  1.
<mgrwt>
<rscale>  0 0.57607685E+02</rscale>
<asrwt>0</asrwt>
<pdfrwt beam="1">  1        2 0.49341985E-02 0.91849213E+02</pdfrwt>
<pdfrwt beam="2">  1       -2 0.13956657E-01 0.91849213E+02</pdfrwt>
<totfact> 0.52995291E+04</totfact>
</mgrwt>
</event>
<event>
 6    1  0.1683416E-002  0.8438009E+02  0.7546771E-02  0.1447541E+00
          4   -1    0    0  501    0  0.00000000000E+00  0.00000000000E+00  0.80620695669E+02  0.80620695669E+02  0.00000000000E+00 0. -1.
         -4   -1    0    0    0  501 -0.00000000000E+00 -0.00000000000E+00 -0.33585753730E+02  0.33585753730E+02  0.00000000000E+00 0.  1.
         23    2    1    2    0    0  0.93551621672E+01 -0.37254354981E+01  0.21968407213E+02  0.87192951070E+02  0.83777096345E+02 0.  0.
         13    1    3    3    0    0 -0.66943170645E+01 -0.39003267502E+02  0.27291873278E+02  0.48071978364E+02  0.00000000000E+00 0. -1.
        -13    1    3    3    0    0  0.16049479232E+02  0.35277832004E+02 -0.53234660645E+01  0.39120972706E+02  0.00000000000E+00 0.  1.
         22    1    1    2    0    0 -0.93551621672E+01  0.37254354981E+01  0.25066534725E+02  0.27013498329E+02  0.00000000000E+00 0. -1.
<mgrwt>
<rscale>  0 0.49594513E+02</rscale>
<asrwt>0</asrwt>
<pdfrwt beam="1">  1        4 0.12403184E-01 0.84380091E+02</pdfrwt>
<pdfrwt beam="2">  1       -4 0.51670390E-02 0.84380091E+02</pdfrwt>
<totfact> 0.16720133E+04</totfact>
</mgrwt>
</event>
<event>
 6    1  0.1683416E-002  0.9211852E+02  0.7546771E-02  0.1395773E+00
          2   -1    0    0  501    0  0.00000000000E+00  0.00000000000E+00  0.36081590785E+02  0.36081590785E+02  0.00000000000E+00 0.  1.
         -2   -1    0    0    0  501 -0.00000000000E+00 -0.00000000000E+00 -0.84555438839E+02  0.84555438839E+02  0.00000000000E+00 0. -1.
         23    2    1    2    0    0  0.11732135771E+02  0.12483543696E+02 -0.47071849046E+02  0.10344844405E+03  0.90511544732E+02 0.  0.
         11    1    3    3    0    0 -0.33800474838E+02 -0.16128668642E+02 -0.12342448892E+02  0.39432754102E+02  0.00000000000E+00 0. -1.
        -11    1    3    3    0    0  0.45532610609E+02  0.28612212339E+02 -0.34729400154E+02  0.64015689943E+02  0.00000000000E+00 0.  1.
         22    1    1    2    0    0 -0.11732135771E+02 -0.12483543696E+02 -0.14019990078E+01  0.17188585578E+02  0.00000000000E+00 0.  1.
<mgrwt>
<rscale>  0 0.60493383E+02</rscale>
<asrwt>0</asrwt>
<pdfrwt beam="1">  1        2 0.55510140E-02 0.92118519E+02</pdfrwt>
<pdfrwt beam="2">  1       -2 0.13008529E-01 0.92118519E+02</pdfrwt>
<totfact> 0.50994609E+04</totfact>
</mgrwt>
</event>
<event>
 6    1  0.1683416E-002  0.9152046E+02  0.7546771E-02  0.1427165E+00
          2   -1    0    0  501    0  0.00000000000E+00  0.00000000000E+00  0.10937636881E+03  0.10937636881E+03  0.00000000000E+00 0. -1.
         -2   -1    0    0    0  501 -0.00000000000E+00 -0.00000000000E+00 -0.27894021683E+02  0.27894021683E+02  0.00000000000E+00 0.  1.
         23    2    1    2    0    0 -0.32624183921E+01  0.10204962906E+02  0.50588321317E+02  0.10457137717E+03  0.90891198846E+02 0.  0.
         13    1    3    3    0    0  0.23747452140E+01 -0.32269590260E+02  0.52512873237E+02  0.61681178053E+02  0.00000000000E+00 0. -1.
        -13    1    3    3    0    0 -0.56371636061E+01  0.42474553166E+02 -0.19245519199E+01  0.42890199116E+02  0.00000000000E+00 0.  1.
         22    1    1    2    0    0  0.32624183921E+01 -0.10204962906E+02  0.30894025807E+02  0.32699013322E+02  0.00000000000E+00 0.  1.
<mgrwt>
<rscale>  0 0.53533313E+02</rscale>
<asrwt>0</asrwt>
<pdfrwt beam="1">  1        2 0.16827133E-01 0.91520460E+02</pdfrwt>
<pdfrwt beam="2">  1       -2 0.42913880E-02 0.91520460E+02</pdfrwt>
<totfact> 0.71947919E+04</totfact>
</mgrwt>
</event>
<event>
 6    1  0.1683416E-002  0.9383685E+02  0.7546771E-02  0.1393035E+00
          2   -1    0    0  501    0  0.00000000000E+00  0.00000000000E+00  0.12987741290E+02  0.12987741290E+02  0.00000000000E+00 0. -1.
         -2   -1    0    0    0  501 -0.00000000000E+00 -0.00000000000E+00 -0.28723453408E+03  0.28723453408E+03  0.00000000000E+00 0.  1.
         23    2    1    2    0    0 -0.14456969742E+02  0.88132327496E+01 -0.26457553435E+03  0.28072329372E+03  0.92296680418E+02 0.  0.
         11    1    3    3    0    0 -0.85611377780E+01 -0.81951646287E+01  0.32536550374E+01  0.12289836225E+02  0.00000000000E+00 0. -1.
        -11    1    3    3    0    0 -0.58958319642E+01  0.17008397378E+02 -0.26782918938E+03  0.26843345749E+03  0.00000000000E+00 0.  1.
         22    1    1    2    0    0  0.14456969742E+02 -0.88132327496E+01 -0.96712584478E+01  0.19498981655E+02  0.00000000000E+00 0.  1.
<mgrwt>
<rscale>  0 0.61158127E+02</rscale>
<asrwt>0</asrwt>
<pdfrwt beam="1">  1        2 0.19981142E-02 0.93836849E+02</pdfrwt>
<pdfrwt beam="2">  1       -2 0.44189924E-01 0.93836849E+02</pdfrwt>
<totfact> 0.23688345E+04</totfact>
</mgrwt>
</event>
<event>
 6    1  0.1683416E-002  0.9148540E+02  0.7546771E-02  0.1413514E+00
          2   -1    0    0  501    0  0.00000000000E+00  0.00000000000E+00  0.45365471555E+02  0.45365471555E+02  0.00000000000E+00 0. -1.
         -2   -1    0    0    0  501 -0.00000000000E+00 -0.00000000000E+00 -0.82509180617E+02  0.82509180617E+02  0.00000000000E+00 0.  1.
         23    2    1    2    0    0  0.11943947400E+02 -0.56915544850E+01 -0.54163779383E+02  0.10631695133E+03  0.90523629350E+02 0.  0.
         11    1    3    3    0    0  0.32405340150E+02 -0.39284639811E+02 -0.39071113174E+02  0.64186765614E+02  0.00000000000E+00 0. -1.
        -11    1    3    3    0    0 -0.20461392750E+02  0.33593085326E+02 -0.15092666209E+02  0.42130185714E+02  0.00000000000E+00 0.  1.
         22    1    1    2    0    0 -0.11943947400E+02  0.56915544850E+01  0.17020070321E+02  0.21557700844E+02  0.00000000000E+00 0.  1.
<mgrwt>
<rscale>  0 0.56416955E+02</rscale>
<asrwt>0</asrwt>
<pdfrwt beam="1">  1        2 0.69793034E-02 0.91485404E+02</pdfrwt>
<pdfrwt beam="2">  1       -2 0.12693720E-01 0.91485404E+02</pdfrwt>
<totfact> 0.39620247E+04</totfact>
</mgrwt>
</event>
<event>
 6    1  0.1683416E-002  0.9325996E+02  0.7546771E-02  0.1398308E+00
          2   -1    0    0  501    0  0.00000000000E+00  0.00000000000E+00  0.44574046492E+03  0.44574046492E+03  0.00000000000E+00 0. -1.
         -2   -1    0    0    0  501 -0.00000000000E+00 -0.00000000000E+00 -0.68063407844E+01  0.68063407844E+01  0.00000000000E+00 0.  1.
         23    2    1    2    0    0 -0.63802750040E+01 -0.14517422416E+02  0.35010257989E+03  0.36231096628E+03  0.91901884538E+02 0.  0.
         13    1    3    3    0    0 -0.42482167225E+02 -0.13050854712E+02  0.27938586074E+03  0.28289842439E+03  0.00000000000E+00 0. -1.
        -13    1    3    3    0    0  0.36101892221E+02 -0.14665677043E+01  0.70716719148E+02  0.79412541893E+02  0.00000000000E+00 0.  1.
         22    1    1    2    0    0  0.63802750040E+01  0.14517422416E+02  0.88831544244E+02  0.90235839419E+02  0.00000000000E+00 0.  1.
<mgrwt>
<rscale>  0 0.59886754E+02</rscale>
<asrwt>0</asrwt>
<pdfrwt beam="1">  1        2 0.68575433E-01 0.93259958E+02</pdfrwt>
<pdfrwt beam="2">  1       -2 0.10471297E-02 0.93259958E+02</pdfrwt>
<totfact> 0.12194553E+05</totfact>
</mgrwt>
</event>
<event>
 6    1  0.1683416E-002  0.9270975E+02  0.7546771E-02  0.1403058E+00
          1   -1    0    0  501    0  0.00000000000E+00  0.00000000000E+00  0.50230396909E+02  0.50230396909E+02  0.00000000000E+00 0. -1.
         -1   -1    0    0    0  501 -0.00000000000E+00 -0.00000000000E+00 -0.66760053771E+02  0.66760053771E+02  0.00000000000E+00 0.  1.
         23    2    1    2    0    0  0.10350353553E+01  0.14937254076E+02 -0.29385719112E+02  0.97255426128E+02  0.91492647606E+02 0.  0.
         13    1    3    3    0    0  0.26844609208E+02  0.69077975809E+01  0.24484483827E+02  0.36984329914E+02  0.00000000000E+00 0. -1.
        -13    1    3    3    0    0 -0.25809573852E+02  0.80294564948E+01 -0.53870202939E+02  0.60271096213E+02  0.00000000000E+00 0.  1.
         22    1    1    2    0    0 -0.10350353553E+01 -0.14937254076E+02  0.12856062250E+02  0.19735024553E+02  0.00000000000E+00 0.  1.
<mgrwt>
<rscale>  0 0.58772176E+02</rscale>
<asrwt>0</asrwt>
<pdfrwt beam="1">  1        1 0.77277535E-02 0.92709748E+02</pdfrwt>
<pdfrwt beam="2">  1       -1 0.10270777E-01 0.92709748E+02</pdfrwt>
<totfact> 0.46022162E+04</totfact>
</mgrwt>
</event>
<event>
 6    1  0.1683416E-002  0.9170867E+02  0.7546771E-02  0.1405976E+00
          2   -1    0    0  501    0  0.00000000000E+00  0.00000000000E+00  0.39281579113E+02  0.39281579113E+02  0.00000000000E+00 0. -1.
         -2   -1    0    0    0  501 -0.00000000000E+00 -0.00000000000E+00 -0.73740222816E+02  0.73740222816E+02  0.00000000000E+00 0.  1.
         23    2    1    2    0    0 -0.98772741306E+01 -0.10987795809E+02 -0.23630938197E+02  0.94704285516E+02  0.90510707953E+02 0.  0.
         11    1    3    3    0    0  0.78244586614E+01 -0.38154947972E+02 -0.42127932973E+02  0.57374079031E+02  0.00000000000E+00 0.  1.
        -11    1    3    3    0    0 -0.17701732792E+02  0.27167152163E+02  0.18496994776E+02  0.37330206485E+02  0.00000000000E+00 0. -1.
         22    1    1    2    0    0  0.98772741306E+01  0.10987795809E+02 -0.10827705507E+02  0.18317516413E+02  0.00000000000E+00 0.  1.
<mgrwt>
<rscale>  0 0.58101531E+02</rscale>
<asrwt>0</asrwt>
<pdfrwt beam="1">  1        2 0.60433199E-02 0.91708672E+02</pdfrwt>
<pdfrwt beam="2">  1       -2 0.11344650E-01 0.91708672E+02</pdfrwt>
<totfact> 0.56787282E+04</totfact>
</mgrwt>
</event>
<event>
 6    1  0.1683416E-002  0.8778579E+02  0.7546771E-02  0.1434809E+00
         -2   -1    0    0    0  501 -0.00000000000E+00  0.00000000000E+00  0.97530792561E+01  0.97530792561E+01  0.00000000000E+00 0.  1.
          2   -1    0    0  501    0  0.00000000000E+00 -0.00000000000E+00 -0.25062358542E+03  0.25062358542E+03  0.00000000000E+00 0. -1.
         23    2    1    2    0    0  0.10292612202E+02 -0.33153868490E+01 -0.20775654474E+03  0.22554185310E+03  0.87117254115E+02 0.  0.
         13    1    3    3    0    0  0.36588380871E+02  0.25155081019E+02 -0.74147771240E+02  0.86425573158E+02  0.00000000000E+00 0.  1.
        -13    1    3    3    0    0 -0.26295768669E+02 -0.28470467868E+02 -0.13360877350E+03  0.13911627995E+03  0.00000000000E+00 0. -1.
         22    1    1    2    0    0 -0.10292612202E+02  0.33153868490E+01 -0.33113961426E+02  0.34834811571E+02  0.00000000000E+00 0.  1.
<mgrwt>
<rscale>  0 0.52006636E+02</rscale>
<asrwt>0</asrwt>
<pdfrwt beam="1">  1        2 0.38557481E-01 0.87785794E+02</pdfrwt>
<pdfrwt beam="2">  1       -2 0.15004735E-02 0.87785794E+02</pdfrwt>
<totfact> 0.13253913E+05</totfact>
</mgrwt>
</event>
<event>
 6    1  0.1683416E-002  0.1056632E+03  0.7546771E-02  0.1303537E+00
          2   -1    0    0  501    0  0.00000000000E+00  0.00000000000E+00  0.12381905553E+02  0.12381905553E+02  0.00000000000E+00 0. -1.
         -2   -1    0    0    0  501 -0.00000000000E+00 -0.00000000000E+00 -0.88940077936E+03  0.88940077936E+03  0.00000000000E+00 0.  1.
         23    2    1    2    0    0 -0.10995247198E+02  0.53809454259E+02 -0.80133436264E+03  0.80827066398E+03  0.90268226271E+02 0.  0.
         11    1    3    3    0    0 -0.19404440861E+02  0.22193978652E+01 -0.34405429215E+02  0.39562502594E+02  0.00000000000E+00 0. -1.
        -11    1    3    3    0    0  0.84091936637E+01  0.51590056394E+02 -0.76692893342E+03  0.76870816138E+03  0.00000000000E+00 0.  1.
         22    1    1    2    0    0  0.10995247198E+02 -0.53809454259E+02 -0.75684511168E+02  0.93512020935E+02  0.00000000000E+00 0. -1.
<mgrwt>
<rscale>  0 0.89717672E+02</rscale>
<asrwt>0</asrwt>
<pdfrwt beam="1">  1        2 0.19049084E-02 0.10566317E+03</pdfrwt>
<pdfrwt beam="2">  1       -2 0.13683090E+00 0.10566317E+03</pdfrwt>
<totfact> 0.22011209E+03</totfact>
</mgrwt>
</event>
<event>
 6    1  0.1683416E-002  0.9404832E+02  0.7546771E-02  0.1388396E+00
          1   -1    0    0  501    0  0.00000000000E+00  0.00000000000E+00  0.30947766560E+03  0.30947766560E+03  0.00000000000E+00 0. -1.
         -1   -1    0    0    0  501 -0.00000000000E+00 -0.00000000000E+00 -0.10296832243E+02  0.10296832243E+02  0.00000000000E+00 0.  1.
         23    2    1    2    0    0 -0.34915192759E+01 -0.17778311028E+02  0.26301624027E+03  0.27932530943E+03  0.92286655560E+02 0.  0.
         13    1    3    3    0    0  0.49765920097E+01 -0.35851465924E+02  0.25541704465E+03  0.25796891435E+03  0.00000000000E+00 0. -1.
        -13    1    3    3    0    0 -0.84681112856E+01  0.18073154896E+02  0.75991956213E+01  0.21356395078E+02  0.00000000000E+00 0.  1.
         22    1    1    2    0    0  0.34915192759E+01  0.17778311028E+02  0.36164593093E+02  0.40449188415E+02  0.00000000000E+00 0. -1.
<mgrwt>
<rscale>  0 0.62307505E+02</rscale>
<asrwt>0</asrwt>
<pdfrwt beam="1">  1        1 0.47611941E-01 0.94048317E+02</pdfrwt>
<pdfrwt beam="2">  1       -1 0.15841283E-02 0.94048317E+02</pdfrwt>
<totfact> 0.70675004E+04</totfact>
</mgrwt>
</event>
<event>
 6    1  0.1683416E-002  0.1190916E+03  0.7546771E-02  0.1268649E+00
         -2   -1    0    0    0  501 -0.00000000000E+00  0.00000000000E+00  0.18278928299E+02  0.18278928299E+02  0.00000000000E+00 0.  1.
          2   -1    0    0  501    0  0.00000000000E+00 -0.00000000000E+00 -0.51714190932E+03  0.51714190932E+03  0.00000000000E+00 0. -1.
         23    2    1    2    0    0 -0.46622721786E+02  0.57519437797E+02 -0.27655958161E+03  0.30111128745E+03  0.93277228397E+02 0.  0.
         13    1    3    3    0    0  0.10481092755E+02 -0.16889347118E+02 -0.91562240141E+02  0.93694968760E+02  0.00000000000E+00 0. -1.
        -13    1    3    3    0    0 -0.57103814540E+02  0.74408784915E+02 -0.18499734147E+03  0.20741631869E+03  0.00000000000E+00 0.  1.
         22    1    1    2    0    0  0.46622721786E+02 -0.57519437797E+02 -0.22230339941E+03  0.23430955017E+03  0.00000000000E+00 0. -1.
<mgrwt>
<rscale>  0 0.10574986E+03</rscale>
<asrwt>0</asrwt>
<pdfrwt beam="1">  1        2 0.79560281E-01 0.11909158E+03</pdfrwt>
<pdfrwt beam="2">  1       -2 0.28121433E-02 0.11909158E+03</pdfrwt>
<totfact> 0.25861776E+04</totfact>
</mgrwt>
</event>
<event>
 6    1  0.1683416E-002  0.9631735E+02  0.7546771E-02  0.1341126E+00
         -4   -1    0    0    0  501 -0.00000000000E+00  0.00000000000E+00  0.14867491132E+02  0.14867491132E+02  0.00000000000E+00 0. -1.
          4   -1    0    0  501    0  0.00000000000E+00 -0.00000000000E+00 -0.30807849839E+03  0.30807849839E+03  0.00000000000E+00 0.  1.
         23    2    1    2    0    0 -0.33685615636E+02  0.15614708957E+02 -0.23412112579E+03  0.25315950137E+03  0.88873459234E+02 0.  0.
         11    1    3    3    0    0 -0.24710603664E+02  0.30366492954E+02 -0.23254800426E+03  0.23582050825E+03  0.00000000000E+00 0.  1.
        -11    1    3    3    0    0 -0.89750119727E+01 -0.14751783997E+02 -0.15731215323E+01  0.17338993119E+02  0.00000000000E+00 0. -1.
         22    1    1    2    0    0  0.33685615636E+02 -0.15614708957E+02 -0.59089881464E+02  0.69786488148E+02  0.00000000000E+00 0.  1.
<mgrwt>
<rscale>  0 0.75893713E+02</rscale>
<asrwt>0</asrwt>
<pdfrwt beam="1">  1        4 0.47396693E-01 0.96317348E+02</pdfrwt>
<pdfrwt beam="2">  1       -4 0.22873063E-02 0.96317348E+02</pdfrwt>
<totfact> 0.53341059E+03</totfact>
</mgrwt>
</event>
<event>
 6    1  0.1683416E-002  0.9593036E+02  0.7546771E-02  0.1356677E+00
         -2   -1    0    0    0  501 -0.00000000000E+00  0.00000000000E+00  0.97082219959E+02  0.97082219959E+02  0.00000000000E+00 0.  1.
          2   -1    0    0  501    0  0.00000000000E+00 -0.00000000000E+00 -0.58974786714E+02  0.58974786714E+02  0.00000000000E+00 0. -1.
         23    2    1    2    0    0  0.84179374655E+01  0.27550898479E+02  0.65616078906E+02  0.11622436598E+03  0.91502566955E+02 0.  0.
         11    1    3    3    0    0  0.34102061320E+02  0.17850888901E+01 -0.71329320784E+01  0.34885754236E+02  0.00000000000E+00 0. -1.
        -11    1    3    3    0    0 -0.25684123854E+02  0.25765809589E+02  0.72749010984E+02  0.81338611748E+02  0.00000000000E+00 0.  1.
         22    1    1    2    0    0 -0.84179374655E+01 -0.27550898479E+02 -0.27508645661E+02  0.39832640689E+02  0.00000000000E+00 0. -1.
<mgrwt>
<rscale>  0 0.71014357E+02</rscale>
<asrwt>0</asrwt>
<pdfrwt beam="1">  1        2 0.90730441E-02 0.95930357E+02</pdfrwt>
<pdfrwt beam="2">  1       -2 0.14935726E-01 0.95930357E+02</pdfrwt>
<totfact> 0.22165537E+04</totfact>
</mgrwt>
</event>
<event>
 6    1  0.1683416E-002  0.1150637E+03  0.7546771E-02  0.1275916E+00
         -2   -1    0    0    0  501 -0.00000000000E+00  0.00000000000E+00  0.24705722792E+02  0.24705722792E+02  0.00000000000E+00 0.  1.
          2   -1    0    0  501    0  0.00000000000E+00 -0.00000000000E+00 -0.41585962031E+03  0.41585962031E+03  0.00000000000E+00 0. -1.
         23    2    1    2    0    0 -0.25385062554E+02  0.66699732477E+02 -0.14985794427E+03  0.18893666277E+03  0.90257428302E+02 0.  0.
         11    1    3    3    0    0 -0.40969090383E+01  0.76266011269E+02 -0.14669229900E+03  0.16538415802E+03  0.00000000000E+00 0. -1.
        -11    1    3    3    0    0 -0.21288153516E+02 -0.95662787925E+01 -0.31656452756E+01  0.23552504751E+02  0.00000000000E+00 0.  1.
         22    1    1    2    0    0  0.25385062554E+02 -0.66699732477E+02 -0.24129595324E+03  0.25162868033E+03  0.00000000000E+00 0. -1.
<mgrwt>
<rscale>  0 0.10211234E+03</rscale>
<asrwt>0</asrwt>
<pdfrwt beam="1">  1        2 0.63978399E-01 0.11506372E+03</pdfrwt>
<pdfrwt beam="2">  1       -2 0.38008807E-02 0.11506372E+03</pdfrwt>
<totfact> 0.20958189E+04</totfact>
</mgrwt>
</event>
<event>
 6    1  0.1683416E-002  0.1053659E+03  0.7546771E-02  0.1343611E+00
          2   -1    0    0  501    0  0.00000000000E+00  0.00000000000E+00  0.43291259960E+03  0.43291259960E+03  0.00000000000E+00 0. -1.
         -2   -1    0    0    0  501 -0.00000000000E+00 -0.00000000000E+00 -0.10151997409E+02  0.10151997409E+02  0.00000000000E+00 0.  1.
         23    2    1    2    0    0  0.75502792249E+01 -0.26099957931E+02  0.34102792481E+03  0.35693420126E+03  0.10180257367E+03 0.  0.
         13    1    3    3    0    0  0.36483730165E+02  0.19906434310E+02  0.22502727409E+03  0.22883313305E+03  0.00000000000E+00 0. -1.
        -13    1    3    3    0    0 -0.28933450940E+02 -0.46006392240E+02  0.11600065072E+03  0.12810106821E+03  0.00000000000E+00 0.  1.
         22    1    1    2    0    0 -0.75502792249E+01  0.26099957931E+02  0.81732677375E+02  0.86130395745E+02  0.00000000000E+00 0. -1.
<mgrwt>
<rscale>  0 0.75084098E+02</rscale>
<asrwt>0</asrwt>
<pdfrwt beam="1">  1        2 0.66601924E-01 0.10536593E+03</pdfrwt>
<pdfrwt beam="2">  1       -2 0.15618461E-02 0.10536593E+03</pdfrwt>
<totfact> 0.72380597E+04</totfact>
</mgrwt>
</event>
<event>
 6    1  0.1683416E-002  0.9616637E+02  0.7546771E-02  0.1418964E+00
         -1   -1    0    0    0  501 -0.00000000000E+00  0.00000000000E+00  0.37876425580E+02  0.37876425580E+02  0.00000000000E+00 0.  1.
          1   -1    0    0  501    0  0.00000000000E+00 -0.00000000000E+00 -0.78598111958E+02  0.78598111958E+02  0.00000000000E+00 0. -1.
         23    2    1    2    0    0  0.72144341742E+01  0.75883826991E+01 -0.28331936484E+02  0.10025302359E+03  0.95594657282E+02 0.  0.
         11    1    3    3    0    0  0.31508710728E+02 -0.24464041522E+02 -0.41856531345E+02  0.57820907945E+02  0.00000000000E+00 0. -1.
        -11    1    3    3    0    0 -0.24294276554E+02  0.32052424221E+02  0.13524594861E+02  0.42432115642E+02  0.00000000000E+00 0.  1.
         22    1    1    2    0    0 -0.72144341742E+01 -0.75883826991E+01 -0.12389749894E+02  0.16221513952E+02  0.00000000000E+00 0. -1.
<mgrwt>
<rscale>  0 0.55240727E+02</rscale>
<asrwt>0</asrwt>
<pdfrwt beam="1">  1        1 0.12092017E-01 0.96166367E+02</pdfrwt>
<pdfrwt beam="2">  1       -1 0.58271424E-02 0.96166367E+02</pdfrwt>
<totfact> 0.59852631E+04</totfact>
</mgrwt>
</event>
<event>
 6    1  0.1683416E-002  0.9401824E+02  0.7546771E-02  0.1361890E+00
         -3   -1    0    0    0  501 -0.00000000000E+00  0.00000000000E+00  0.89755862236E+01  0.89755862236E+01  0.00000000000E+00 0.  1.
          3   -1    0    0  501    0  0.00000000000E+00 -0.00000000000E+00 -0.43656556980E+03  0.43656556980E+03  0.00000000000E+00 0. -1.
         23    2    1    2    0    0  0.69165101809E+01  0.27165774027E+02 -0.28148786301E+03  0.29677406616E+03  0.89741918486E+02 0.  0.
         11    1    3    3    0    0  0.52015965954E+01  0.19555159915E+02 -0.28668614952E+03  0.28739938972E+03  0.00000000000E+00 0. -1.
        -11    1    3    3    0    0  0.17149135854E+01  0.76106141115E+01  0.51982865086E+01  0.93746764416E+01  0.00000000000E+00 0.  1.
         22    1    1    2    0    0 -0.69165101809E+01 -0.27165774027E+02 -0.14610212056E+03  0.14876708986E+03  0.00000000000E+00 0. -1.
<mgrwt>
<rscale>  0 0.69474318E+02</rscale>
<asrwt>0</asrwt>
<pdfrwt beam="1">  1        3 0.67163930E-01 0.94018239E+02</pdfrwt>
<pdfrwt beam="2">  1       -3 0.13808595E-02 0.94018239E+02</pdfrwt>
<totfact> 0.76487625E+03</totfact>
</mgrwt>
</event>
<event>
 6    1  0.1683416E-002  0.9481257E+02  0.7546771E-02  0.1379508E+00
         -2   -1    0    0    0  501 -0.00000000000E+00  0.00000000000E+00  0.92434233885E+03  0.92434233885E+03  0.00000000000E+00 0.  1.
          2   -1    0    0  501    0  0.00000000000E+00 -0.00000000000E+00 -0.37000585927E+01  0.37000585927E+01  0.00000000000E+00 0. -1.
         23    2    1    2    0    0 -0.17810038127E+02  0.99978557825E+01  0.81006196218E+03  0.81559169125E+03  0.92586552361E+02 0.  0.
         11    1    3    3    0    0 -0.44443372039E+02  0.16091700851E+02  0.71817745474E+03  0.71973120861E+03  0.00000000000E+00 0.  1.
        -11    1    3    3    0    0  0.26633333911E+02 -0.60938450683E+01  0.91884507445E+02  0.95860482637E+02  0.00000000000E+00 0. -1.
         22    1    1    2    0    0  0.17810038127E+02 -0.99978557825E+01  0.11058031807E+03  0.11245070619E+03  0.00000000000E+00 0. -1.
<mgrwt>
<rscale>  0 0.64593167E+02</rscale>
<asrwt>0</asrwt>
<pdfrwt beam="1">  1        2 0.56924052E-03 0.94812574E+02</pdfrwt>
<pdfrwt beam="2">  1       -2 0.14220633E+00 0.94812574E+02</pdfrwt>
<totfact> 0.10346457E+04</totfact>
</mgrwt>
</event>
<event>
 6    1  0.1683416E-002  0.8758049E+02  0.7546771E-02  0.1393391E+00
         -2   -1    0    0    0  501 -0.00000000000E+00  0.00000000000E+00  0.12642477442E+02  0.12642477442E+02  0.00000000000E+00 0.  1.
          2   -1    0    0  501    0  0.00000000000E+00 -0.00000000000E+00 -0.27513373763E+03  0.27513373763E+03  0.00000000000E+00 0. -1.
         23    2    1    2    0    0  0.18875600820E+02  0.85148706809E+01 -0.15255937745E+03  0.17591107228E+03  0.85097299456E+02 0.  0.
         11    1    3    3    0    0 -0.11799131657E+02 -0.27942476646E+02 -0.23598863736E+02  0.38430559176E+02  0.00000000000E+00 0.  1.
        -11    1    3    3    0    0  0.30674732477E+02  0.36457347327E+02 -0.12896051371E+03  0.13748051310E+03  0.00000000000E+00 0. -1.
         22    1    1    2    0    0 -0.18875600820E+02 -0.85148706809E+01 -0.10993188274E+03  0.11186514279E+03  0.00000000000E+00 0.  1.
<mgrwt>
<rscale>  0 0.61071174E+02</rscale>
<asrwt>0</asrwt>
<pdfrwt beam="1">  1        2 0.42328269E-01 0.87580487E+02</pdfrwt>
<pdfrwt beam="2">  1       -2 0.19449965E-02 0.87580487E+02</pdfrwt>
<totfact> 0.82927335E+04</totfact>
</mgrwt>
</event>
<event>
 6    1  0.1683416E-002  0.9618880E+02  0.7546771E-02  0.1380992E+00
          2   -1    0    0  501    0  0.00000000000E+00  0.00000000000E+00  0.73334582591E+02  0.73334582591E+02  0.00000000000E+00 0. -1.
         -2   -1    0    0    0  501 -0.00000000000E+00 -0.00000000000E+00 -0.49795738741E+02  0.49795738741E+02  0.00000000000E+00 0.  1.
         23    2    1    2    0    0 -0.10204379713E+00 -0.19092352240E+02  0.33168247099E+02  0.10174682924E+03  0.94274897604E+02 0.  0.
         13    1    3    3    0    0  0.29522166338E+02 -0.46905438869E+02  0.21758768498E+02  0.59540931361E+02  0.00000000000E+00 0. -1.
        -13    1    3    3    0    0 -0.29624210136E+02  0.27813086629E+02  0.11409478601E+02  0.42205897881E+02  0.00000000000E+00 0.  1.
         22    1    1    2    0    0  0.10204379713E+00  0.19092352240E+02 -0.96294032489E+01  0.21383492089E+02  0.00000000000E+00 0.  1.
<mgrwt>
<rscale>  0 0.64203659E+02</rscale>
<asrwt>0</asrwt>
<pdfrwt beam="1">  1        2 0.11282244E-01 0.96188797E+02</pdfrwt>
<pdfrwt beam="2">  1       -2 0.76608828E-02 0.96188797E+02</pdfrwt>
<totfact> 0.48513131E+04</totfact>
</mgrwt>
</event>
<event>
 6    1  0.1683416E-002  0.9184467E+02  0.7546771E-02  0.1430453E+00
          3   -1    0    0  501    0  0.00000000000E+00  0.00000000000E+00  0.20003560962E+02  0.20003560962E+02  0.00000000000E+00 0. -1.
         -3   -1    0    0    0  501 -0.00000000000E+00 -0.00000000000E+00 -0.13932707668E+03  0.13932707668E+03  0.00000000000E+00 0.  1.
         23    2    1    2    0    0  0.43455082778E+01  0.91000643021E+01 -0.11741121433E+03  0.14906654932E+03  0.91289365557E+02 0.  0.
         11    1    3    3    0    0  0.11211335692E+02  0.12716257275E+02  0.11137383214E+02  0.20283948135E+02  0.00000000000E+00 0. -1.
        -11    1    3    3    0    0 -0.68658274145E+01 -0.36161929732E+01 -0.12854859755E+03  0.12878260119E+03  0.00000000000E+00 0.  1.
         22    1    1    2    0    0 -0.43455082778E+01 -0.91000643021E+01 -0.19123013913E+01  0.10264088323E+02  0.00000000000E+00 0. -1.
<mgrwt>
<rscale>  0 0.52869195E+02</rscale>
<asrwt>0</asrwt>
<pdfrwt beam="1">  1        3 0.30774710E-02 0.91844667E+02</pdfrwt>
<pdfrwt beam="2">  1       -3 0.21434934E-01 0.91844667E+02</pdfrwt>
<totfact> 0.19887482E+04</totfact>
</mgrwt>
</event>
<event>
 6    1  0.1683416E-002  0.9248391E+02  0.7546771E-02  0.1392084E+00
          4   -1    0    0  501    0  0.00000000000E+00  0.00000000000E+00  0.39389103564E+02  0.39389103564E+02  0.00000000000E+00 0. -1.
         -4   -1    0    0    0  501 -0.00000000000E+00 -0.00000000000E+00 -0.12662636436E+03  0.12662636436E+03  0.00000000000E+00 0.  1.
         23    2    1    2    0    0  0.15397156013E+02  0.92399428566E+01 -0.10557193813E+03  0.14035208253E+03  0.90723888773E+02 0.  0.
         13    1    3    3    0    0 -0.35535463187E+02 -0.10719856568E+02 -0.51053313418E+02  0.63119927754E+02  0.00000000000E+00 0.  1.
        -13    1    3    3    0    0  0.50932619199E+02  0.19959799425E+02 -0.54518624708E+02  0.77232154778E+02  0.00000000000E+00 0. -1.
         22    1    1    2    0    0 -0.15397156013E+02 -0.92399428566E+01  0.18334677327E+02  0.25663385396E+02  0.00000000000E+00 0. -1.
<mgrwt>
<rscale>  0 0.61391359E+02</rscale>
<asrwt>0</asrwt>
<pdfrwt beam="1">  1        4 0.60598620E-02 0.92483906E+02</pdfrwt>
<pdfrwt beam="2">  1       -4 0.19480979E-01 0.92483906E+02</pdfrwt>
<totfact> 0.60813955E+03</totfact>
</mgrwt>
</event>
<event>
 6    1  0.1683416E-002  0.1018239E+03  0.7546771E-02  0.1326882E+00
          2   -1    0    0  501    0  0.00000000000E+00  0.00000000000E+00  0.21943588619E+03  0.21943588619E+03  0.00000000000E+00 0. -1.
         -2   -1    0    0    0  501 -0.00000000000E+00 -0.00000000000E+00 -0.26036630267E+02  0.26036630267E+02  0.00000000000E+00 0.  1.
         23    2    1    2    0    0 -0.38117227536E+02  0.13121940811E+02  0.95510558956E+02  0.13960795506E+03  0.93504042045E+02 0.  0.
         11    1    3    3    0    0 -0.60340315878E+02 -0.14660212435E+02  0.78733164948E+02  0.10027355988E+03  0.00000000000E+00 0. -1.
        -11    1    3    3    0    0  0.22223088341E+02  0.27782153246E+02  0.16777394008E+02  0.39334395179E+02  0.00000000000E+00 0.  1.
         22    1    1    2    0    0  0.38117227536E+02 -0.13121940811E+02  0.97888696969E+02  0.10586456140E+03  0.00000000000E+00 0. -1.
<mgrwt>
<rscale>  0 0.80769558E+02</rscale>
<asrwt>0</asrwt>
<pdfrwt beam="1">  1        2 0.33759366E-01 0.10182394E+03</pdfrwt>
<pdfrwt beam="2">  1       -2 0.40056356E-02 0.10182394E+03</pdfrwt>
<totfact> 0.37595176E+04</totfact>
</mgrwt>
</event>
<event>
 6    1  0.1683416E-002  0.9422184E+02  0.7546771E-02  0.1420575E+00
          1   -1    0    0  501    0  0.00000000000E+00  0.00000000000E+00  0.20715477643E+03  0.20715477643E+03  0.00000000000E+00 0. -1.
         -1   -1    0    0    0  501 -0.00000000000E+00 -0.00000000000E+00 -0.13367572517E+02  0.13367572517E+02  0.00000000000E+00 0.  1.
         23    2    1    2    0    0  0.24017920054E+01 -0.10590682825E+02  0.16976377783E+03  0.19415843103E+03  0.93593936270E+02 0.  0.
         13    1    3    3    0    0  0.31252454779E+02 -0.19836399967E+02  0.15696385417E+03  0.16126949560E+03  0.00000000000E+00 0. -1.
        -13    1    3    3    0    0 -0.28850662773E+02  0.92457171420E+01  0.12799923661E+02  0.32888935429E+02  0.00000000000E+00 0.  1.
         22    1    1    2    0    0 -0.24017920054E+01  0.10590682825E+02  0.24023426084E+02  0.26363917925E+02  0.00000000000E+00 0.  1.
<mgrwt>
<rscale>  0 0.54899360E+02</rscale>
<asrwt>0</asrwt>
<pdfrwt beam="1">  1        1 0.31869963E-01 0.94221845E+02</pdfrwt>
<pdfrwt beam="2">  1       -1 0.20565498E-02 0.94221845E+02</pdfrwt>
<totfact> 0.79609310E+04</totfact>
</mgrwt>
</event>
<event>
 6    1  0.1683416E-002  0.9146615E+02  0.7546771E-02  0.1408085E+00
          3   -1    0    0  501    0  0.00000000000E+00  0.00000000000E+00  0.11862346640E+03  0.11862346640E+03  0.00000000000E+00 0. -1.
         -3   -1    0    0    0  501 -0.00000000000E+00 -0.00000000000E+00 -0.25499157246E+02  0.25499157246E+02  0.00000000000E+00 0.  1.
         23    2    1    2    0    0 -0.14406028457E+02 -0.26181094113E+00  0.64013819820E+02  0.11164150928E+03  0.90324167676E+02 0.  0.
         11    1    3    3    0    0 -0.50837968980E+02  0.13057715443E+02  0.40323569809E+02  0.66189072397E+02  0.00000000000E+00 0. -1.
        -11    1    3    3    0    0  0.36431940523E+02 -0.13319526384E+02  0.23690250010E+02  0.45452436887E+02  0.00000000000E+00 0.  1.
         22    1    1    2    0    0  0.14406028457E+02  0.26181094113E+00  0.29110489331E+02  0.32481114358E+02  0.00000000000E+00 0. -1.
<mgrwt>
<rscale>  0 0.57623457E+02</rscale>
<asrwt>0</asrwt>
<pdfrwt beam="1">  1        3 0.18249764E-01 0.91466155E+02</pdfrwt>
<pdfrwt beam="2">  1       -3 0.39229473E-02 0.91466155E+02</pdfrwt>
<totfact> 0.18088740E+04</totfact>
</mgrwt>
</event>
<event>
 6    1  0.1683416E-002  0.9664629E+02  0.7546771E-02  0.1343990E+00
         -2   -1    0    0    0  501 -0.00000000000E+00  0.00000000000E+00  0.97564996776E+02  0.97564996776E+02  0.00000000000E+00 0.  1.
          2   -1    0    0  501    0  0.00000000000E+00 -0.00000000000E+00 -0.45275861189E+02  0.45275861189E+02  0.00000000000E+00 0. -1.
         23    2    1    2    0    0  0.11024687237E+02 -0.33195218445E+02  0.46987901133E+02  0.10746333201E+03  0.90094609253E+02 0.  0.
         11    1    3    3    0    0 -0.45582699673E+01  0.33926859332E+01 -0.24774913965E+02  0.25418192400E+02  0.00000000000E+00 0. -1.
        -11    1    3    3    0    0  0.15582957204E+02 -0.36587904379E+02  0.71762815098E+02  0.82045139605E+02  0.00000000000E+00 0.  1.
         22    1    1    2    0    0 -0.11024687237E+02  0.33195218445E+02  0.53012344544E+01  0.35377525960E+02  0.00000000000E+00 0.  1.
<mgrwt>
<rscale>  0 0.74961433E+02</rscale>
<asrwt>0</asrwt>
<pdfrwt beam="1">  1        2 0.69655172E-02 0.96646287E+02</pdfrwt>
<pdfrwt beam="2">  1       -2 0.15009999E-01 0.96646287E+02</pdfrwt>
<totfact> 0.30567110E+04</totfact>
</mgrwt>
</event>
<event>
 6    1  0.1683416E-002  0.9686803E+02  0.7546771E-02  0.1377680E+00
         -2   -1    0    0    0  501 -0.00000000000E+00  0.00000000000E+00  0.66722812534E+03  0.66722812534E+03  0.00000000000E+00 0.  1.
          2   -1    0    0  501    0  0.00000000000E+00 -0.00000000000E+00 -0.21203715214E+02  0.21203715214E+02  0.00000000000E+00 0. -1.
         23    2    1    2    0    0 -0.11832891152E+02  0.15791116100E+02  0.65817045374E+03  0.66526067234E+03  0.94836909096E+02 0.  0.
         13    1    3    3    0    0 -0.43051147030E+02  0.19131352163E+02  0.56462603472E+03  0.56658800638E+03  0.00000000000E+00 0.  1.
        -13    1    3    3    0    0  0.31218255879E+02 -0.33402360630E+01  0.93544419024E+02  0.98672665960E+02  0.00000000000E+00 0. -1.
         22    1    1    2    0    0  0.11832891152E+02 -0.15791116100E+02 -0.12146043617E+02  0.23171168211E+02  0.00000000000E+00 0. -1.
<mgrwt>
<rscale>  0 0.65077611E+02</rscale>
<asrwt>0</asrwt>
<pdfrwt beam="1">  1        2 0.32621105E-02 0.96868034E+02</pdfrwt>
<pdfrwt beam="2">  1       -2 0.10265046E+00 0.96868034E+02</pdfrwt>
<totfact> 0.21058480E+03</totfact>
</mgrwt>
</event>
<event>
 6    1  0.1683416E-002  0.9060288E+02  0.7546771E-02  0.1404733E+00
          2   -1    0    0  501    0  0.00000000000E+00  0.00000000000E+00  0.74578079920E+03  0.74578079920E+03  0.00000000000E+00 0. -1.
         -2   -1    0    0    0  501 -0.00000000000E+00 -0.00000000000E+00 -0.38168722427E+01  0.38168722427E+01  0.00000000000E+00 0.  1.
         23    2    1    2    0    0  0.14428326523E+02 -0.59954216022E+01  0.65572378751E+03  0.66195359955E+03  0.89245508354E+02 0.  0.
         13    1    3    3    0    0  0.23180746034E+02  0.61489498133E+01  0.63922912351E+03  0.63967884826E+03  0.00000000000E+00 0. -1.
        -13    1    3    3    0    0 -0.87524195105E+01 -0.12144371415E+02  0.16494664000E+02  0.22274751286E+02  0.00000000000E+00 0.  1.
         22    1    1    2    0    0 -0.14428326523E+02  0.59954216022E+01  0.86240139452E+02  0.87644071899E+02  0.00000000000E+00 0.  1.
<mgrwt>
<rscale>  0 0.58385810E+02</rscale>
<asrwt>0</asrwt>
<pdfrwt beam="1">  1        2 0.11473539E+00 0.90602883E+02</pdfrwt>
<pdfrwt beam="2">  1       -2 0.58721171E-03 0.90602883E+02</pdfrwt>
<totfact> 0.15460264E+05</totfact>
</mgrwt>
</event>
<event>
 6    1  0.1683416E-002  0.1015886E+03  0.7546771E-02  0.1350206E+00
         -1   -1    0    0    0  501 -0.00000000000E+00  0.00000000000E+00  0.16138266857E+02  0.16138266857E+02  0.00000000000E+00 0.  1.
          1   -1    0    0  501    0  0.00000000000E+00 -0.00000000000E+00 -0.25667699589E+03  0.25667699589E+03  0.00000000000E+00 0. -1.
         23    2    1    2    0    0  0.19768769078E+02 -0.18498680091E+02 -0.19322872162E+03  0.21830616078E+03  0.97914429883E+02 0.  0.
         11    1    3    3    0    0 -0.13011616050E+02 -0.37774088473E+02 -0.16796572829E+03  0.17265187457E+03  0.00000000000E+00 0. -1.
        -11    1    3    3    0    0  0.32780385127E+02  0.19275408382E+02 -0.25262993330E+02  0.45654286211E+02  0.00000000000E+00 0.  1.
         22    1    1    2    0    0 -0.19768769078E+02  0.18498680091E+02 -0.47310007411E+02  0.54509101966E+02  0.00000000000E+00 0. -1.
<mgrwt>
<rscale>  0 0.72991466E+02</rscale>
<asrwt>0</asrwt>
<pdfrwt beam="1">  1        1 0.39488764E-01 0.10158859E+03</pdfrwt>
<pdfrwt beam="2">  1       -1 0.24828105E-02 0.10158859E+03</pdfrwt>
<totfact> 0.47216331E+04</totfact>
</mgrwt>
</event>
<event>
 6    1  0.1683416E-002  0.1144047E+03  0.7546771E-02  0.1278377E+00
         -2   -1    0    0    0  501 -0.00000000000E+00  0.00000000000E+00  0.10791518086E+02  0.10791518086E+02  0.00000000000E+00 0.  1.
          2   -1    0    0  501    0  0.00000000000E+00 -0.00000000000E+00 -0.98680573686E+03  0.98680573686E+03  0.00000000000E+00 0. -1.
         23    2    1    2    0    0 -0.61908360086E+02  0.31075076526E+02 -0.80496527727E+03  0.81305445281E+03  0.91050207020E+02 0.  0.
         13    1    3    3    0    0 -0.39142355417E+02 -0.11161142677E+02 -0.63893513313E+03  0.64023027063E+03  0.00000000000E+00 0. -1.
        -13    1    3    3    0    0 -0.22766004670E+02  0.42236219203E+02 -0.16603014414E+03  0.17282418218E+03  0.00000000000E+00 0.  1.
         22    1    1    2    0    0  0.61908360086E+02 -0.31075076526E+02 -0.17104894151E+03  0.18454280214E+03  0.00000000000E+00 0.  1.
<mgrwt>
<rscale>  0 0.10091809E+03</rscale>
<asrwt>0</asrwt>
<pdfrwt beam="1">  1        2 0.15181629E+00 0.11440474E+03</pdfrwt>
<pdfrwt beam="2">  1       -2 0.16602333E-02 0.11440474E+03</pdfrwt>
<totfact> 0.25467262E+04</totfact>
</mgrwt>
</event>
<event>
 6    1  0.1683416E-002  0.9783389E+02  0.7546771E-02  0.1341664E+00
          2   -1    0    0  501    0  0.00000000000E+00  0.00000000000E+00  0.39948224312E+03  0.39948224312E+03  0.00000000000E+00 0. -1.
         -2   -1    0    0    0  501 -0.00000000000E+00 -0.00000000000E+00 -0.18612324679E+02  0.18612324679E+02  0.00000000000E+00 0.  1.
         23    2    1    2    0    0  0.29895869310E+02  0.18392136089E+02  0.36788153025E+03  0.38066821479E+03  0.91320511288E+02 0.  0.
         11    1    3    3    0    0  0.57491141962E+02  0.56957525509E+01  0.30961702750E+03  0.31496091300E+03  0.00000000000E+00 0. -1.
        -11    1    3    3    0    0 -0.27595272652E+02  0.12696383538E+02  0.58264502743E+02  0.65707301783E+02  0.00000000000E+00 0.  1.
         22    1    1    2    0    0 -0.29895869310E+02 -0.18392136089E+02  0.12988388192E+02  0.37426353009E+02  0.00000000000E+00 0.  1.
<mgrwt>
<rscale>  0 0.75717245E+02</rscale>
<asrwt>0</asrwt>
<pdfrwt beam="1">  1        2 0.61458800E-01 0.97833887E+02</pdfrwt>
<pdfrwt beam="2">  1       -2 0.28634349E-02 0.97833887E+02</pdfrwt>
<totfact> 0.32566364E+04</totfact>
</mgrwt>
</event>
<event>
 6    1  0.1683416E-002  0.9471096E+02  0.7546771E-02  0.1360905E+00
         -2   -1    0    0    0  501 -0.00000000000E+00  0.00000000000E+00  0.21532926833E+02  0.21532926833E+02  0.00000000000E+00 0.  1.
          2   -1    0    0  501    0  0.00000000000E+00 -0.00000000000E+00 -0.17450323118E+03  0.17450323118E+03  0.00000000000E+00 0. -1.
         23    2    1    2    0    0  0.25083286809E+02  0.12167526651E+02 -0.11913519547E+03  0.15219514326E+03  0.90514898500E+02 0.  0.
         13    1    3    3    0    0 -0.42507003950E+01 -0.36428940338E+02 -0.59247254937E+02  0.69680509223E+02  0.00000000000E+00 0.  1.
        -13    1    3    3    0    0  0.29333987204E+02  0.48596466989E+02 -0.59887940537E+02  0.82514634041E+02  0.00000000000E+00 0. -1.
         22    1    1    2    0    0 -0.25083286809E+02 -0.12167526651E+02 -0.33835108877E+02  0.43841014754E+02  0.00000000000E+00 0.  1.
<mgrwt>
<rscale>  0 0.69761882E+02</rscale>
<asrwt>0</asrwt>
<pdfrwt beam="1">  1        2 0.26846652E-01 0.94710965E+02</pdfrwt>
<pdfrwt beam="2">  1       -2 0.33127578E-02 0.94710965E+02</pdfrwt>
<totfact> 0.62921792E+04</totfact>
</mgrwt>
</event>
<event>
 6    1  0.1683416E-002  0.9088595E+02  0.7546771E-02  0.1431866E+00
          2   -1    0    0  501    0  0.00000000000E+00  0.00000000000E+00  0.81808421729E+02  0.81808421729E+02  0.00000000000E+00 0. -1.
         -2   -1    0    0    0  501 -0.00000000000E+00 -0.00000000000E+00 -0.51870008450E+02  0.51870008450E+02  0.00000000000E+00 0.  1.
         23    2    1    2    0    0  0.18042478181E+01 -0.10025615716E+02 -0.10947244493E+02  0.91542871655E+02  0.90313270942E+02 0.  0.
         11    1    3    3    0    0 -0.28981283571E+02  0.25543223200E+02  0.10217469569E+02  0.39959576239E+02  0.00000000000E+00 0. -1.
        -11    1    3    3    0    0  0.30785531389E+02 -0.35568838915E+02 -0.21164714061E+02  0.51583295416E+02  0.00000000000E+00 0.  1.
         22    1    1    2    0    0 -0.18042478181E+01  0.10025615716E+02  0.40885657772E+02  0.42135558523E+02  0.00000000000E+00 0. -1.
<mgrwt>
<rscale>  0 0.52587270E+02</rscale>
<asrwt>0</asrwt>
<pdfrwt beam="1">  1        2 0.12585911E-01 0.90885946E+02</pdfrwt>
<pdfrwt beam="2">  1       -2 0.79800013E-02 0.90885946E+02</pdfrwt>
<totfact> 0.39723689E+04</totfact>
</mgrwt>
</event>
<event>
 6    1  0.1683416E-002  0.7186215E+02  0.7546771E-02  0.1473076E+00
          1   -1    0    0  501    0  0.00000000000E+00  0.00000000000E+00  0.13963003182E+03  0.13963003182E+03  0.00000000000E+00 0. -1.
         -1   -1    0    0    0  501 -0.00000000000E+00 -0.00000000000E+00 -0.12795281595E+02  0.12795281595E+02  0.00000000000E+00 0.  1.
         23    2    1    2    0    0 -0.10578160771E+02 -0.38315703014E+01  0.98411950463E+02  0.12185680081E+03  0.70975978292E+02 0.  0.
         13    1    3    3    0    0  0.18246622505E+02 -0.18120787251E+00  0.89680613312E+02  0.91518219350E+02  0.00000000000E+00 0. -1.
        -13    1    3    3    0    0 -0.28824783277E+02 -0.36503624289E+01  0.87313371517E+01  0.30338581464E+02  0.00000000000E+00 0.  1.
         22    1    1    2    0    0  0.10578160771E+02  0.38315703014E+01  0.28422799759E+02  0.30568512597E+02  0.00000000000E+00 0. -1.
<mgrwt>
<rscale>  0 0.45203295E+02</rscale>
<asrwt>0</asrwt>
<pdfrwt beam="1">  1        1 0.21481542E-01 0.71862145E+02</pdfrwt>
<pdfrwt beam="2">  1       -1 0.19685050E-02 0.71862145E+02</pdfrwt>
<totfact> 0.13185930E+05</totfact>
</mgrwt>
</event>
<event>
 6    1  0.1683416E-002  0.9151329E+02  0.7546771E-02  0.1429509E+00
         -2   -1    0    0    0  501 -0.00000000000E+00  0.00000000000E+00  0.11075141598E+02  0.11075141598E+02  0.00000000000E+00 0.  1.
          2   -1    0    0  501    0  0.00000000000E+00 -0.00000000000E+00 -0.23636553782E+03  0.23636553782E+03  0.00000000000E+00 0. -1.
         23    2    1    2    0    0  0.72680505280E+01 -0.73564627030E+01 -0.19434487015E+03  0.21481296596E+03  0.90927111947E+02 0.  0.
         13    1    3    3    0    0 -0.24726578374E+02 -0.38235581657E+02 -0.78835738228E+02  0.91040853493E+02  0.00000000000E+00 0. -1.
        -13    1    3    3    0    0  0.31994628902E+02  0.30879118955E+02 -0.11550913193E+03  0.12377211247E+03  0.00000000000E+00 0.  1.
         22    1    1    2    0    0 -0.72680505280E+01  0.73564627030E+01 -0.30945526072E+02  0.32627713464E+02  0.00000000000E+00 0. -1.
<mgrwt>
<rscale>  0 0.53058712E+02</rscale>
<asrwt>0</asrwt>
<pdfrwt beam="1">  1        2 0.36363926E-01 0.91513287E+02</pdfrwt>
<pdfrwt beam="2">  1       -2 0.17038681E-02 0.91513287E+02</pdfrwt>
<totfact> 0.11835053E+05</totfact>
</mgrwt>
</event>
<event>
 6    1  0.1683416E-002  0.5890868E+02  0.7546771E-02  0.1518975E+00
          1   -1    0    0  501    0  0.00000000000E+00  0.00000000000E+00  0.15563026126E+02  0.15563026126E+02  0.00000000000E+00 0. -1.
         -1   -1    0    0    0  501 -0.00000000000E+00 -0.00000000000E+00 -0.13299712251E+03  0.13299712251E+03  0.00000000000E+00 0.  1.
         23    2    1    2    0    0  0.53264540044E+01  0.94300299390E+01 -0.12300315431E+03  0.13638184896E+03  0.57904543663E+02 0.  0.
         13    1    3    3    0    0 -0.17670664363E+02  0.16812325784E+00 -0.92259688379E+01  0.19934872597E+02  0.00000000000E+00 0. -1.
        -13    1    3    3    0    0  0.22997118367E+02  0.92619066811E+01 -0.11377718547E+03  0.11644697636E+03  0.00000000000E+00 0.  1.
         22    1    1    2    0    0 -0.53264540044E+01 -0.94300299390E+01  0.55690579282E+01  0.12178299681E+02  0.00000000000E+00 0. -1.
<mgrwt>
<rscale>  0 0.38574042E+02</rscale>
<asrwt>0</asrwt>
<pdfrwt beam="1">  1        1 0.23943117E-02 0.58908681E+02</pdfrwt>
<pdfrwt beam="2">  1       -1 0.20461095E-01 0.58908681E+02</pdfrwt>
<totfact> 0.71749006E+04</totfact>
</mgrwt>
</event>
<event>
 6    1  0.1683416E-002  0.9212363E+02  0.7546771E-02  0.1404849E+00
         -2   -1    0    0    0  501 -0.00000000000E+00  0.00000000000E+00  0.72784663398E+02  0.72784663398E+02  0.00000000000E+00 0.  1.
          2   -1    0    0  501    0  0.00000000000E+00 -0.00000000000E+00 -0.53146344096E+02  0.53146344096E+02  0.00000000000E+00 0. -1.
         23    2    1    2    0    0 -0.88398008695E+01  0.11915221178E+02  0.40251907274E+02  0.10053347643E+03  0.90921115637E+02 0.  0.
         11    1    3    3    0    0 -0.30012846556E+02 -0.21207923770E+02 -0.86848751928E+01  0.37762071529E+02  0.00000000000E+00 0. -1.
        -11    1    3    3    0    0  0.21173045686E+02  0.33123144949E+02  0.48936782467E+02  0.62771404900E+02  0.00000000000E+00 0.  1.
         22    1    1    2    0    0  0.88398008695E+01 -0.11915221178E+02 -0.20613587972E+02  0.25397531065E+02  0.00000000000E+00 0. -1.
<mgrwt>
<rscale>  0 0.58359209E+02</rscale>
<asrwt>0</asrwt>
<pdfrwt beam="1">  1        2 0.81763606E-02 0.92123633E+02</pdfrwt>
<pdfrwt beam="2">  1       -2 0.11197641E-01 0.92123633E+02</pdfrwt>
<totfact> 0.39686013E+04</totfact>
</mgrwt>
</event>
<event>
 6    1  0.1683416E-002  0.1197877E+03  0.7546771E-02  0.1264535E+00
          2   -1    0    0  501    0  0.00000000000E+00  0.00000000000E+00  0.29679614386E+02  0.29679614386E+02  0.00000000000E+00 0. -1.
         -2   -1    0    0    0  501 -0.00000000000E+00 -0.00000000000E+00 -0.41129662657E+03  0.41129662657E+03  0.00000000000E+00 0.  1.
         23    2    1    2    0    0  0.73993767225E+02  0.27151872702E+02 -0.31758908488E+03  0.33942882713E+03  0.90204213165E+02 0.  0.
         11    1    3    3    0    0  0.67203566697E+02  0.48457665756E+02 -0.15919952143E+03  0.17946852752E+03  0.00000000000E+00 0. -1.
        -11    1    3    3    0    0  0.67902005281E+01 -0.21305793054E+02 -0.15838956345E+03  0.15996029961E+03  0.00000000000E+00 0.  1.
         22    1    1    2    0    0 -0.73993767225E+02 -0.27151872702E+02 -0.64027927299E+02  0.10154741382E+03  0.00000000000E+00 0.  1.
<mgrwt>
<rscale>  0 0.10788619E+03</rscale>
<asrwt>0</asrwt>
<pdfrwt beam="1">  1        2 0.45660950E-02 0.11978774E+03</pdfrwt>
<pdfrwt beam="2">  1       -2 0.63276398E-01 0.11978774E+03</pdfrwt>
<totfact> 0.39541915E+03</totfact>
</mgrwt>
</event>
<event>
 6    1  0.1683416E-002  0.9697732E+02  0.7546771E-02  0.1348981E+00
          4   -1    0    0  501    0  0.00000000000E+00  0.00000000000E+00  0.13246208034E+03  0.13246208034E+03  0.00000000000E+00 0. -1.
         -4   -1    0    0    0  501 -0.00000000000E+00 -0.00000000000E+00 -0.31408165232E+02  0.31408165232E+02  0.00000000000E+00 0.  1.
         23    2    1    2    0    0  0.19943689745E+02  0.24743566615E+02  0.71664200765E+02  0.12058340971E+03  0.91622083458E+02 0.  0.
         13    1    3    3    0    0 -0.14292101984E+02 -0.25953876484E+02  0.44935853558E+02  0.53824704539E+02  0.00000000000E+00 0. -1.
        -13    1    3    3    0    0  0.34235791729E+02  0.50697443099E+02  0.26728347207E+02  0.66758705174E+02  0.00000000000E+00 0.  1.
         22    1    1    2    0    0 -0.19943689745E+02 -0.24743566615E+02  0.29389714342E+02  0.43286835858E+02  0.00000000000E+00 0. -1.
<mgrwt>
<rscale>  0 0.73374058E+02</rscale>
<asrwt>0</asrwt>
<pdfrwt beam="1">  1        4 0.20378781E-01 0.96977322E+02</pdfrwt>
<pdfrwt beam="2">  1       -4 0.48320255E-02 0.96977322E+02</pdfrwt>
<totfact> 0.81754490E+03</totfact>
</mgrwt>
</event>
<event>
 6    1  0.1683416E-002  0.9586669E+02  0.7546771E-02  0.1357267E+00
          2   -1    0    0  501    0  0.00000000000E+00  0.00000000000E+00  0.48820684444E+03  0.48820684444E+03  0.00000000000E+00 0. -1.
         -2   -1    0    0    0  501 -0.00000000000E+00 -0.00000000000E+00 -0.86004013475E+01  0.86004013475E+01  0.00000000000E+00 0.  1.
         23    2    1    2    0    0  0.20882905831E+02  0.19511390727E+02  0.41861449733E+03  0.42945141774E+03  0.91507555426E+02 0.  0.
         11    1    3    3    0    0 -0.12269572168E+02  0.23470101940E+02  0.36715824542E+03  0.36811216397E+03  0.00000000000E+00 0. -1.
        -11    1    3    3    0    0  0.33152477999E+02 -0.39587112128E+01  0.51456251914E+02  0.61339253769E+02  0.00000000000E+00 0.  1.
         22    1    1    2    0    0 -0.20882905831E+02 -0.19511390727E+02  0.60991945760E+02  0.67355828045E+02  0.00000000000E+00 0.  1.
<mgrwt>
<rscale>  0 0.70837727E+02</rscale>
<asrwt>0</asrwt>
<pdfrwt beam="1">  1        2 0.75108724E-01 0.95866693E+02</pdfrwt>
<pdfrwt beam="2">  1       -2 0.13231390E-02 0.95866693E+02</pdfrwt>
<totfact> 0.79635796E+04</totfact>
</mgrwt>
</event>
<event>
 6    1  0.1683416E-002  0.9281377E+02  0.7546771E-02  0.1380903E+00
         -4   -1    0    0    0  501 -0.00000000000E+00  0.00000000000E+00  0.61699235607E+03  0.61699235607E+03  0.00000000000E+00 0.  1.
          4   -1    0    0  501    0  0.00000000000E+00 -0.00000000000E+00 -0.78045254403E+01  0.78045254403E+01  0.00000000000E+00 0. -1.
         23    2    1    2    0    0  0.21117885456E+02  0.26456290793E+01  0.58607081389E+03  0.59337458207E+03  0.90340640404E+02 0.  0.
         11    1    3    3    0    0 -0.34992948387E+02 -0.74601597700E+01  0.21989129520E+03  0.22278317290E+03  0.00000000000E+00 0.  1.
        -11    1    3    3    0    0  0.56110833843E+02  0.10105788849E+02  0.36617951869E+03  0.37059140917E+03  0.00000000000E+00 0. -1.
         22    1    1    2    0    0 -0.21117885456E+02 -0.26456290793E+01  0.23117016733E+02  0.31422299438E+02  0.00000000000E+00 0. -1.
<mgrwt>
<rscale>  0 0.64226953E+02</rscale>
<asrwt>0</asrwt>
<pdfrwt beam="1">  1        4 0.12006967E-02 0.92813769E+02</pdfrwt>
<pdfrwt beam="2">  1       -4 0.94921862E-01 0.92813769E+02</pdfrwt>
<totfact> 0.32081967E+03</totfact>
</mgrwt>
</event>
<event>
 6    1  0.1683416E-002  0.1090152E+03  0.7546771E-02  0.1293278E+00
          2   -1    0    0  501    0  0.00000000000E+00  0.00000000000E+00  0.16591316166E+02  0.16591316166E+02  0.00000000000E+00 0. -1.
         -2   -1    0    0    0  501 -0.00000000000E+00 -0.00000000000E+00 -0.43285057182E+03  0.43285057182E+03  0.00000000000E+00 0.  1.
         23    2    1    2    0    0 -0.29737044730E+02  0.52629412639E+02 -0.26417914035E+03  0.28578826482E+03  0.90720269007E+02 0.  0.
         13    1    3    3    0    0  0.15005739050E+02 -0.45961002264E+01 -0.47733325168E+01  0.16403689982E+02  0.00000000000E+00 0. -1.
        -13    1    3    3    0    0 -0.44742783780E+02  0.57225512866E+02 -0.25940580783E+03  0.26938457483E+03  0.00000000000E+00 0.  1.
         22    1    1    2    0    0  0.29737044730E+02 -0.52629412639E+02 -0.15208011531E+03  0.16365362317E+03  0.00000000000E+00 0. -1.
<mgrwt>
<rscale>  0 0.94072686E+02</rscale>
<asrwt>0</asrwt>
<pdfrwt beam="1">  1        2 0.25525101E-02 0.10901520E+03</pdfrwt>
<pdfrwt beam="2">  1       -2 0.66592398E-01 0.10901520E+03</pdfrwt>
<totfact> 0.76321900E+03</totfact>
</mgrwt>
</event>
<event>
 6    1  0.1683416E-002  0.9701238E+02  0.7546771E-02  0.1343363E+00
          2   -1    0    0  501    0  0.00000000000E+00  0.00000000000E+00  0.33449880714E+03  0.33449880714E+03  0.00000000000E+00 0. -1.
         -2   -1    0    0    0  501 -0.00000000000E+00 -0.00000000000E+00 -0.13187565040E+02  0.13187565040E+02  0.00000000000E+00 0.  1.
         23    2    1    2    0    0  0.23709716447E+02  0.25690350567E+02  0.25270629347E+03  0.27068777646E+03  0.90494512539E+02 0.  0.
         11    1    3    3    0    0  0.55517052479E+02  0.21874442308E+02  0.20269604806E+03  0.21129676344E+03  0.00000000000E+00 0. -1.
        -11    1    3    3    0    0 -0.31807336032E+02  0.38159082593E+01  0.50010245408E+02  0.59391013016E+02  0.00000000000E+00 0.  1.
         22    1    1    2    0    0 -0.23709716447E+02 -0.25690350567E+02  0.68604948634E+02  0.76998595723E+02  0.00000000000E+00 0.  1.
<mgrwt>
<rscale>  0 0.75164140E+02</rscale>
<asrwt>0</asrwt>
<pdfrwt beam="1">  1        2 0.51461349E-01 0.97012378E+02</pdfrwt>
<pdfrwt beam="2">  1       -2 0.20288564E-02 0.97012378E+02</pdfrwt>
<totfact> 0.64546975E+04</totfact>
</mgrwt>
</event>
<event>
 6    1  0.1683416E-002  0.3112576E+03  0.7546771E-02  0.1081568E+00
          2   -1    0    0  501    0  0.00000000000E+00  0.00000000000E+00  0.18539249762E+04  0.18539249762E+04  0.00000000000E+00 0. -1.
         -2   -1    0    0    0  501 -0.00000000000E+00 -0.00000000000E+00 -0.19558216762E+03  0.19558216762E+03  0.00000000000E+00 0.  1.
         23    2    1    2    0    0  0.21125835148E+03  0.20783673461E+03 -0.50351066847E+02  0.31530388029E+03  0.95158329482E+02 0.  0.
         11    1    3    3    0    0  0.85228315506E+02  0.14765800926E+03 -0.14438792787E+02  0.17110006488E+03  0.00000000000E+00 0. -1.
        -11    1    3    3    0    0  0.12603003597E+03  0.60178725351E+02 -0.35912274060E+02  0.14420381541E+03  0.00000000000E+00 0.  1.
         22    1    1    2    0    0 -0.21125835148E+03 -0.20783673461E+03  0.17086938754E+04  0.17342032636E+04  0.00000000000E+00 0. -1.
<mgrwt>
<rscale>  0 0.30746310E+03</rscale>
<asrwt>0</asrwt>
<pdfrwt beam="1">  1        2 0.28521922E+00 0.31125762E+03</pdfrwt>
<pdfrwt beam="2">  1       -2 0.30089565E-01 0.31125762E+03</pdfrwt>
<totfact> 0.90154749E+01</totfact>
</mgrwt>
</event>
<event>
 6    1  0.1683416E-002  0.9289953E+02  0.7546771E-02  0.1420142E+00
          1   -1    0    0  501    0  0.00000000000E+00  0.00000000000E+00  0.15786441727E+03  0.15786441727E+03  0.00000000000E+00 0. -1.
         -1   -1    0    0    0  501 -0.00000000000E+00 -0.00000000000E+00 -0.23338001191E+02  0.23338001191E+02  0.00000000000E+00 0.  1.
         23    2    1    2    0    0 -0.43643084268E+00  0.11397300757E+02  0.71704611892E+02  0.11735362820E+03  0.92196712245E+02 0.  0.
         13    1    3    3    0    0 -0.84615551357E+01 -0.14638926540E+02  0.85261639897E+02  0.86922053149E+02  0.00000000000E+00 0. -1.
        -13    1    3    3    0    0  0.80251242930E+01  0.26036227297E+02 -0.13557028005E+02  0.30431575052E+02  0.00000000000E+00 0.  1.
         22    1    1    2    0    0  0.43643084268E+00 -0.11397300757E+02  0.62821804186E+02  0.63848790259E+02  0.00000000000E+00 0. -1.
<mgrwt>
<rscale>  0 0.54990818E+02</rscale>
<asrwt>0</asrwt>
<pdfrwt beam="1">  1        1 0.24286833E-01 0.92899530E+02</pdfrwt>
<pdfrwt beam="2">  1       -1 0.35904618E-02 0.92899530E+02</pdfrwt>
<totfact> 0.49849408E+04</totfact>
</mgrwt>
</event>
<event>
 6    1  0.1683416E-002  0.1024052E+03  0.7546771E-02  0.1320048E+00
          1   -1    0    0  501    0  0.00000000000E+00  0.00000000000E+00  0.51615147260E+02  0.51615147260E+02  0.00000000000E+00 0. -1.
         -1   -1    0    0    0  501 -0.00000000000E+00 -0.00000000000E+00 -0.13747368376E+03  0.13747368376E+03  0.00000000000E+00 0.  1.
         23    2    1    2    0    0 -0.36955947672E+02  0.25230547330E+02 -0.12507415165E+02  0.10316613560E+03  0.92111310456E+02 0.  0.
         13    1    3    3    0    0  0.15154743090E+02  0.42985127215E+02  0.38350904812E+01  0.45739428492E+02  0.00000000000E+00 0. -1.
        -13    1    3    3    0    0 -0.52110690762E+02 -0.17754579885E+02 -0.16342505647E+02  0.57426707109E+02  0.00000000000E+00 0.  1.
         22    1    1    2    0    0  0.36955947672E+02 -0.25230547330E+02 -0.73351121335E+02  0.85922695418E+02  0.00000000000E+00 0.  1.
<mgrwt>
<rscale>  0 0.83259371E+02</rscale>
<asrwt>0</asrwt>
<pdfrwt beam="1">  1        1 0.79407921E-02 0.10240516E+03</pdfrwt>
<pdfrwt beam="2">  1       -1 0.21149797E-01 0.10240516E+03</pdfrwt>
<totfact> 0.14628490E+04</totfact>
</mgrwt>
</event>
<event>
 6    1  0.1683416E-002  0.1207641E+03  0.7546771E-02  0.1262211E+00
          2   -1    0    0  501    0  0.00000000000E+00  0.00000000000E+00  0.97638332062E+03  0.97638332062E+03  0.00000000000E+00 0. -1.
         -2   -1    0    0    0  501 -0.00000000000E+00 -0.00000000000E+00 -0.19204710815E+02  0.19204710815E+02  0.00000000000E+00 0.  1.
         23    2    1    2    0    0 -0.78233541139E+02  0.18954920908E+02  0.86423443149E+03  0.87263114359E+03  0.90023242588E+02 0.  0.
         11    1    3    3    0    0 -0.19570471690E+02 -0.30614284563E+02  0.15268287655E+03  0.15694680173E+03  0.00000000000E+00 0.  1.
        -11    1    3    3    0    0 -0.58663069450E+02  0.49569205471E+02  0.71155155494E+03  0.71568434186E+03  0.00000000000E+00 0. -1.
         22    1    1    2    0    0  0.78233541139E+02 -0.18954920908E+02  0.92944178316E+02  0.12295688785E+03  0.00000000000E+00 0.  1.
<mgrwt>
<rscale>  0 0.10911848E+03</rscale>
<asrwt>0</asrwt>
<pdfrwt beam="1">  1        2 0.15021278E+00 0.12076407E+03</pdfrwt>
<pdfrwt beam="2">  1       -2 0.29545717E-02 0.12076407E+03</pdfrwt>
<totfact> 0.11239943E+04</totfact>
</mgrwt>
</event>
<event>
 6    1  0.1683416E-002  0.9375118E+02  0.7546771E-02  0.1390428E+00
         -2   -1    0    0    0  501 -0.00000000000E+00  0.00000000000E+00  0.22999430256E+02  0.22999430256E+02  0.00000000000E+00 0. -1.
          2   -1    0    0  501    0  0.00000000000E+00 -0.00000000000E+00 -0.13615687895E+03  0.13615687895E+03  0.00000000000E+00 0.  1.
         23    2    1    2    0    0  0.78199871761E+01 -0.15881475453E+02 -0.89537277539E+02  0.12963875600E+03  0.92064702928E+02 0.  0.
         11    1    3    3    0    0 -0.35164767004E+02  0.51151686478E+01 -0.10157424275E+02  0.36958071604E+02  0.00000000000E+00 0. -1.
        -11    1    3    3    0    0  0.42984754180E+02 -0.20996644101E+02 -0.79379853263E+02  0.92680684393E+02  0.00000000000E+00 0.  1.
         22    1    1    2    0    0 -0.78199871761E+01  0.15881475453E+02 -0.23620171155E+02  0.29517553208E+02  0.00000000000E+00 0. -1.
<mgrwt>
<rscale>  0 0.61800263E+02</rscale>
<asrwt>0</asrwt>
<pdfrwt beam="1">  1        2 0.20947212E-01 0.93751176E+02</pdfrwt>
<pdfrwt beam="2">  1       -2 0.35383739E-02 0.93751176E+02</pdfrwt>
<totfact> 0.74910258E+04</totfact>
</mgrwt>
</event>
<event>
 6    1  0.1683416E-002  0.1100893E+03  0.7546771E-02  0.1292182E+00
         -1   -1    0    0    0  501 -0.00000000000E+00  0.00000000000E+00  0.47381343322E+03  0.47381343322E+03  0.00000000000E+00 0.  1.
          1   -1    0    0  501    0  0.00000000000E+00 -0.00000000000E+00 -0.43976687193E+02  0.43976687193E+02  0.00000000000E+00 0. -1.
         23    2    1    2    0    0 -0.44322853510E+02 -0.40306852143E+02  0.44298086869E+03  0.45645558174E+03  0.92360654006E+02 0.  0.
         11    1    3    3    0    0 -0.53638568441E+02 -0.52144549526E+02  0.20889823669E+03  0.22188876349E+03  0.00000000000E+00 0.  1.
        -11    1    3    3    0    0  0.93157149305E+01  0.11837697383E+02  0.23408263199E+03  0.23456681825E+03  0.00000000000E+00 0. -1.
         22    1    1    2    0    0  0.44322853510E+02  0.40306852143E+02 -0.13144122662E+02  0.61334538667E+02  0.00000000000E+00 0. -1.
<mgrwt>
<rscale>  0 0.94554635E+02</rscale>
<asrwt>0</asrwt>
<pdfrwt beam="1">  1        1 0.67656445E-02 0.11008927E+03</pdfrwt>
<pdfrwt beam="2">  1       -1 0.72894370E-01 0.11008927E+03</pdfrwt>
<totfact> 0.20778581E+03</totfact>
</mgrwt>
</event>
<event>
 6    1  0.1683416E-002  0.9277028E+02  0.7546771E-02  0.1343159E+00
         -1   -1    0    0    0  501 -0.00000000000E+00  0.00000000000E+00  0.28802431292E+02  0.28802431292E+02  0.00000000000E+00 0.  1.
          1   -1    0    0  501    0  0.00000000000E+00 -0.00000000000E+00 -0.15684778864E+03  0.15684778864E+03  0.00000000000E+00 0. -1.
         23    2    1    2    0    0  0.10816085777E+02 -0.38633116065E+02 -0.10169163523E+03  0.13764996953E+03  0.83646996775E+02 0.  0.
         11    1    3    3    0    0  0.41544297889E+01  0.65764732057E+01 -0.90192909227E+02  0.90527731450E+02  0.00000000000E+00 0. -1.
        -11    1    3    3    0    0  0.66616559879E+01 -0.45209589271E+02 -0.11498726000E+02  0.47122238085E+02  0.00000000000E+00 0.  1.
         22    1    1    2    0    0 -0.10816085777E+02  0.38633116065E+02 -0.26353722120E+02  0.48000250395E+02  0.00000000000E+00 0. -1.
<mgrwt>
<rscale>  0 0.75230373E+02</rscale>
<asrwt>0</asrwt>
<pdfrwt beam="1">  1        1 0.24130429E-01 0.92770283E+02</pdfrwt>
<pdfrwt beam="2">  1       -1 0.44311432E-02 0.92770283E+02</pdfrwt>
<totfact> 0.37008873E+04</totfact>
</mgrwt>
</event>
<event>
 6    1  0.1683416E-002  0.9153448E+02  0.7546771E-02  0.1386537E+00
          2   -1    0    0  501    0  0.00000000000E+00  0.00000000000E+00  0.14459821225E+03  0.14459821225E+03  0.00000000000E+00 0. -1.
         -2   -1    0    0    0  501 -0.00000000000E+00 -0.00000000000E+00 -0.21645456566E+02  0.21645456566E+02  0.00000000000E+00 0.  1.
         23    2    1    2    0    0 -0.86832371416E+01  0.18294096347E+02  0.97814295473E+02  0.13396341556E+03  0.89266386403E+02 0.  0.
         11    1    3    3    0    0 -0.42347788881E+01 -0.18185742475E+02 -0.91992742195E+01  0.20815408422E+02  0.00000000000E+00 0.  1.
        -11    1    3    3    0    0 -0.44484582535E+01  0.36479838822E+02  0.10701356969E+03  0.11314800714E+03  0.00000000000E+00 0. -1.
         22    1    1    2    0    0  0.86832371416E+01 -0.18294096347E+02  0.25138460209E+02  0.32280253253E+02  0.00000000000E+00 0. -1.
<mgrwt>
<rscale>  0 0.62776358E+02</rscale>
<asrwt>0</asrwt>
<pdfrwt beam="1">  1        2 0.22245878E-01 0.91534476E+02</pdfrwt>
<pdfrwt beam="2">  1       -2 0.33300703E-02 0.91534476E+02</pdfrwt>
<totfact> 0.76319288E+04</totfact>
</mgrwt>
</event>
<event>
 6    1  0.1683416E-002  0.1037936E+03  0.7546771E-02  0.1349139E+00
          2   -1    0    0  501    0  0.00000000000E+00  0.00000000000E+00  0.32634283687E+02  0.32634283687E+02  0.00000000000E+00 0. -1.
         -2   -1    0    0    0  501 -0.00000000000E+00 -0.00000000000E+00 -0.15633032512E+03  0.15633032512E+03  0.00000000000E+00 0.  1.
         23    2    1    2    0    0  0.15375063453E+02  0.20782275445E+02 -0.12572532197E+03  0.16303367114E+03  0.10052276255E+03 0.  0.
         11    1    3    3    0    0  0.52186073837E+02  0.34177269318E+02 -0.60200059715E+02  0.86692094393E+02  0.00000000000E+00 0.  1.
        -11    1    3    3    0    0 -0.36811010384E+02 -0.13394993872E+02 -0.65525262256E+02  0.76341576746E+02  0.00000000000E+00 0. -1.
         22    1    1    2    0    0 -0.15375063453E+02 -0.20782275445E+02  0.20292805374E+01  0.25930937669E+02  0.00000000000E+00 0.  1.
<mgrwt>
<rscale>  0 0.73324507E+02</rscale>
<asrwt>0</asrwt>
<pdfrwt beam="1">  1        2 0.50206590E-02 0.10379365E+03</pdfrwt>
<pdfrwt beam="2">  1       -2 0.24050819E-01 0.10379365E+03</pdfrwt>
<totfact> 0.21315261E+04</totfact>
</mgrwt>
</event>
<event>
 6    1  0.1683416E-002  0.1000966E+03  0.7546771E-02  0.1384004E+00
         -1   -1    0    0    0  501 -0.00000000000E+00  0.00000000000E+00  0.49698444085E+02  0.49698444085E+02  0.00000000000E+00 0.  1.
          1   -1    0    0  501    0  0.00000000000E+00 -0.00000000000E+00 -0.73778653350E+02  0.73778653350E+02  0.00000000000E+00 0. -1.
         23    2    1    2    0    0 -0.61894168532E+01 -0.14899098483E+02 -0.75535848827E+01  0.10038118156E+03  0.98787817823E+02 0.  0.
         11    1    3    3    0    0 -0.22841397155E+00 -0.32960409001E+02 -0.46524174078E+02  0.57017010691E+02  0.00000000000E+00 0. -1.
        -11    1    3    3    0    0 -0.59610028817E+01  0.18061310518E+02  0.38970589195E+02  0.43364170870E+02  0.00000000000E+00 0.  1.
         22    1    1    2    0    0  0.61894168532E+01  0.14899098483E+02 -0.16526624383E+02  0.23095915874E+02  0.00000000000E+00 0.  1.
<mgrwt>
<rscale>  0 0.63423036E+02</rscale>
<asrwt>0</asrwt>
<pdfrwt beam="1">  1        1 0.11350562E-01 0.10009658E+03</pdfrwt>
<pdfrwt beam="2">  1       -1 0.76459145E-02 0.10009658E+03</pdfrwt>
<totfact> 0.43674790E+04</totfact>
</mgrwt>
</event>
<event>
 6    1  0.1683416E-002  0.9137073E+02  0.7546771E-02  0.1399064E+00
         -2   -1    0    0    0  501 -0.00000000000E+00  0.00000000000E+00  0.45786055365E+01  0.45786055365E+01  0.00000000000E+00 0. -1.
          2   -1    0    0  501    0  0.00000000000E+00 -0.00000000000E+00 -0.65792455921E+03  0.65792455921E+03  0.00000000000E+00 0.  1.
         23    2    1    2    0    0  0.48632503550E+01 -0.15934965391E+02 -0.58851341298E+03  0.59556414280E+03  0.89838948173E+02 0.  0.
         11    1    3    3    0    0  0.16578041091E+02  0.17305320677E+02 -0.45651324791E+02  0.51559179836E+02  0.00000000000E+00 0. -1.
        -11    1    3    3    0    0 -0.11714790736E+02 -0.33240286068E+02 -0.54286208819E+03  0.54400496297E+03  0.00000000000E+00 0.  1.
         22    1    1    2    0    0 -0.48632503550E+01  0.15934965391E+02 -0.64832540693E+02  0.66939021943E+02  0.00000000000E+00 0. -1.
<mgrwt>
<rscale>  0 0.59707343E+02</rscale>
<asrwt>0</asrwt>
<pdfrwt beam="1">  1        2 0.10121907E+00 0.91370733E+02</pdfrwt>
<pdfrwt beam="2">  1       -2 0.70440151E-03 0.91370733E+02</pdfrwt>
<totfact> 0.13874089E+05</totfact>
</mgrwt>
</event>
<event>
 6    1  0.1683416E-002  0.9328908E+02  0.7546771E-02  0.1393743E+00
          2   -1    0    0  501    0  0.00000000000E+00  0.00000000000E+00  0.13707272622E+02  0.13707272622E+02  0.00000000000E+00 0. -1.
         -2   -1    0    0    0  501 -0.00000000000E+00 -0.00000000000E+00 -0.23271526570E+03  0.23271526570E+03  0.00000000000E+00 0.  1.
         23    2    1    2    0    0  0.21940534428E+01  0.16895724100E+02 -0.20120894775E+03  0.22178343570E+03  0.91720075957E+02 0.  0.
         11    1    3    3    0    0  0.35946619288E+02  0.38744343084E+02 -0.10648636786E+03  0.11888073897E+03  0.00000000000E+00 0. -1.
        -11    1    3    3    0    0 -0.33752565845E+02 -0.21848618983E+02 -0.94722579892E+02  0.10290269673E+03  0.00000000000E+00 0.  1.
         22    1    1    2    0    0 -0.21940534428E+01 -0.16895724100E+02 -0.17799045331E+02  0.24639102623E+02  0.00000000000E+00 0.  1.
<mgrwt>
<rscale>  0 0.60985293E+02</rscale>
<asrwt>0</asrwt>
<pdfrwt beam="1">  1        2 0.21088114E-02 0.93289076E+02</pdfrwt>
<pdfrwt beam="2">  1       -2 0.35802345E-01 0.93289076E+02</pdfrwt>
<totfact> 0.32666224E+04</totfact>
</mgrwt>
</event>
<event>
 6    1  0.1683416E-002  0.1403205E+03  0.7546771E-02  0.1231830E+00
          1   -1    0    0  501    0  0.00000000000E+00  0.00000000000E+00  0.12102749238E+04  0.12102749238E+04  0.00000000000E+00 0. -1.
         -1   -1    0    0    0  501 -0.00000000000E+00 -0.00000000000E+00 -0.11510445102E+02  0.11510445102E+02  0.00000000000E+00 0.  1.
         23    2    1    2    0    0  0.87474387367E+02  0.35600534850E+02  0.65253467991E+03  0.66745139050E+03  0.10378190433E+03 0.  0.
         13    1    3    3    0    0 -0.13442635420E+02 -0.20434686602E+02  0.95511423099E+02  0.98593675284E+02  0.00000000000E+00 0. -1.
        -13    1    3    3    0    0  0.10091702279E+03  0.56035221452E+02  0.55702325681E+03  0.56885771522E+03  0.00000000000E+00 0.  1.
         22    1    1    2    0    0 -0.87474387367E+02 -0.35600534850E+02  0.54622979876E+03  0.55433397837E+03  0.00000000000E+00 0. -1.
<mgrwt>
<rscale>  0 0.12709587E+03</rscale>
<asrwt>0</asrwt>
<pdfrwt beam="1">  1        1 0.18619604E+00 0.14032053E+03</pdfrwt>
<pdfrwt beam="2">  1       -1 0.17708387E-02 0.14032053E+03</pdfrwt>
<totfact> 0.89664593E+03</totfact>
</mgrwt>
</event>
<event>
 6    1  0.1683416E-002  0.9148836E+02  0.7546771E-02  0.1381216E+00
         -2   -1    0    0    0  501 -0.00000000000E+00  0.00000000000E+00  0.28425524060E+02  0.28425524060E+02  0.00000000000E+00 0. -1.
          2   -1    0    0  501    0  0.00000000000E+00 -0.00000000000E+00 -0.11415753032E+03  0.11415753032E+03  0.00000000000E+00 0.  1.
         23    2    1    2    0    0 -0.13383025320E+02  0.17597670561E+02 -0.64575026756E+02  0.11198238188E+03  0.88776891106E+02 0.  0.
         13    1    3    3    0    0  0.20963747394E+02  0.44458106379E+00  0.13527973521E+02  0.24953605444E+02  0.00000000000E+00 0. -1.
        -13    1    3    3    0    0 -0.34346772714E+02  0.17153089498E+02 -0.78103000277E+02  0.87028776433E+02  0.00000000000E+00 0.  1.
         22    1    1    2    0    0  0.13383025320E+02 -0.17597670561E+02 -0.21156979502E+02  0.30600672502E+02  0.00000000000E+00 0. -1.
<mgrwt>
<rscale>  0 0.64145166E+02</rscale>
<asrwt>0</asrwt>
<pdfrwt beam="1">  1        2 0.17562697E-01 0.91488359E+02</pdfrwt>
<pdfrwt beam="2">  1       -2 0.43731576E-02 0.91488359E+02</pdfrwt>
<totfact> 0.66643024E+04</totfact>
</mgrwt>
</event>
<event>
 6    1  0.1683416E-002  0.9350995E+02  0.7546771E-02  0.1388681E+00
          2   -1    0    0  501    0  0.00000000000E+00  0.00000000000E+00  0.55830404699E+02  0.55830404699E+02  0.00000000000E+00 0.  1.
         -2   -1    0    0    0  501 -0.00000000000E+00 -0.00000000000E+00 -0.17921629761E+03  0.17921629761E+03  0.00000000000E+00 0. -1.
         23    2    1    2    0    0  0.18336171030E+02 -0.66389275196E+00 -0.16495064492E+03  0.18961230421E+03  0.91692173748E+02 0.  0.
         11    1    3    3    0    0  0.17358855306E+02 -0.25218306289E+02 -0.16199355491E+03  0.16486116784E+03  0.00000000000E+00 0. -1.
        -11    1    3    3    0    0  0.97731572399E+00  0.24554413537E+02 -0.29570900097E+01  0.24751136368E+02  0.00000000000E+00 0.  1.
         22    1    1    2    0    0 -0.18336171030E+02  0.66389275196E+00  0.41564752006E+02  0.45434398102E+02  0.00000000000E+00 0.  1.
<mgrwt>
<rscale>  0 0.62235997E+02</rscale>
<asrwt>0</asrwt>
<pdfrwt beam="1">  1        2 0.85892929E-02 0.93509949E+02</pdfrwt>
<pdfrwt beam="2">  1       -2 0.27571738E-01 0.93509949E+02</pdfrwt>
<totfact> 0.84252864E+03</totfact>
</mgrwt>
</event>
<event>
 6    1  0.1683416E-002  0.9430891E+02  0.7546771E-02  0.1370638E+00
         -3   -1    0    0    0  501 -0.00000000000E+00  0.00000000000E+00  0.21728316205E+02  0.21728316205E+02  0.00000000000E+00 0.  1.
          3   -1    0    0  501    0  0.00000000000E+00 -0.00000000000E+00 -0.16999494290E+03  0.16999494290E+03  0.00000000000E+00 0. -1.
         23    2    1    2    0    0 -0.23986759642E+02 -0.10498592085E+01 -0.97951074027E+02  0.13597272832E+03  0.91201442429E+02 0.  0.
         11    1    3    3    0    0 -0.53420345859E+02  0.13231725472E+02 -0.83963218649E+02  0.10039240009E+03  0.00000000000E+00 0. -1.
        -11    1    3    3    0    0  0.29433586217E+02 -0.14281584680E+02 -0.13987855379E+02  0.35580328226E+02  0.00000000000E+00 0.  1.
         22    1    1    2    0    0  0.23986759642E+02  0.10498592085E+01 -0.50315552664E+02  0.55750530781E+02  0.00000000000E+00 0.  1.
<mgrwt>
<rscale>  0 0.66990208E+02</rscale>
<asrwt>0</asrwt>
<pdfrwt beam="1">  1        3 0.26153068E-01 0.94308907E+02</pdfrwt>
<pdfrwt beam="2">  1       -3 0.33428179E-02 0.94308907E+02</pdfrwt>
<totfact> 0.12373628E+04</totfact>
</mgrwt>
</event>
<event>
 6    1  0.1683416E-002  0.1216487E+03  0.7546771E-02  0.1261995E+00
          1   -1    0    0  501    0  0.00000000000E+00  0.00000000000E+00  0.19141699044E+03  0.19141699044E+03  0.00000000000E+00 0. -1.
         -1   -1    0    0    0  501 -0.00000000000E+00 -0.00000000000E+00 -0.73982617214E+02  0.73982617214E+02  0.00000000000E+00 0.  1.
         23    2    1    2    0    0 -0.19792986242E+02  0.76570453554E+02  0.13771905975E+03  0.18375240826E+03  0.92431658338E+02 0.  0.
         11    1    3    3    0    0  0.33725987582E+02  0.53638168631E+02  0.74730039872E+02  0.97974865306E+02  0.00000000000E+00 0.  1.
        -11    1    3    3    0    0 -0.53518973824E+02  0.22932284924E+02  0.62989019875E+02  0.85777542957E+02  0.00000000000E+00 0. -1.
         22    1    1    2    0    0  0.19792986242E+02 -0.76570453554E+02 -0.20284686518E+02  0.81647199395E+02  0.00000000000E+00 0.  1.
<mgrwt>
<rscale>  0 0.10923386E+03</rscale>
<asrwt>0</asrwt>
<pdfrwt beam="1">  1        1 0.29448767E-01 0.12164871E+03</pdfrwt>
<pdfrwt beam="2">  1       -1 0.11381941E-01 0.12164871E+03</pdfrwt>
<totfact> 0.72657416E+03</totfact>
</mgrwt>
</event>
<event>
 6    1  0.1683416E-002  0.9366754E+02  0.7546771E-02  0.1403806E+00
          2   -1    0    0  501    0  0.00000000000E+00  0.00000000000E+00  0.18060319819E+03  0.18060319819E+03  0.00000000000E+00 0. -1.
         -2   -1    0    0    0  501 -0.00000000000E+00 -0.00000000000E+00 -0.22676370067E+02  0.22676370067E+02  0.00000000000E+00 0.  1.
         23    2    1    2    0    0 -0.13256509700E+02 -0.54898687844E+01  0.77469912375E+02  0.12155326282E+03  0.92562058480E+02 0.  0.
         11    1    3    3    0    0 -0.19414763271E+02 -0.22012592792E+02  0.93330247742E+02  0.97836713037E+02  0.00000000000E+00 0. -1.
        -11    1    3    3    0    0  0.61582535709E+01  0.16522724007E+02 -0.15860335367E+02  0.23716549783E+02  0.00000000000E+00 0.  1.
         22    1    1    2    0    0  0.13256509700E+02  0.54898687844E+01  0.80456915744E+02  0.81726305433E+02  0.00000000000E+00 0. -1.
<mgrwt>
<rscale>  0 0.58599236E+02</rscale>
<asrwt>0</asrwt>
<pdfrwt beam="1">  1        2 0.27785106E-01 0.93667542E+02</pdfrwt>
<pdfrwt beam="2">  1       -2 0.34886724E-02 0.93667542E+02</pdfrwt>
<totfact> 0.56127294E+04</totfact>
</mgrwt>
</event>
<event>
 6    1  0.1683416E-002  0.9304876E+02  0.7546771E-02  0.1424021E+00
          2   -1    0    0  501    0  0.00000000000E+00  0.00000000000E+00  0.72502702727E+02  0.72502702727E+02  0.00000000000E+00 0. -1.
         -2   -1    0    0    0  501 -0.00000000000E+00 -0.00000000000E+00 -0.88592273172E+02  0.88592273172E+02  0.00000000000E+00 0.  1.
         23    2    1    2    0    0 -0.88664111160E+01  0.59814349013E+01 -0.63397192117E+02  0.11259341017E+03  0.92432035770E+02 0.  0.
         11    1    3    3    0    0  0.11565615182E+02 -0.38615168997E+02 -0.13221940488E+02  0.42423041398E+02  0.00000000000E+00 0.  1.
        -11    1    3    3    0    0 -0.20432026298E+02  0.44596603899E+02 -0.50175251629E+02  0.70170368775E+02  0.00000000000E+00 0. -1.
         22    1    1    2    0    0  0.88664111160E+01 -0.59814349013E+01  0.47307621673E+02  0.48501565726E+02  0.00000000000E+00 0. -1.
<mgrwt>
<rscale>  0 0.54179107E+02</rscale>
<asrwt>0</asrwt>
<pdfrwt beam="1">  1        2 0.11154262E-01 0.93048762E+02</pdfrwt>
<pdfrwt beam="2">  1       -2 0.13629580E-01 0.93048762E+02</pdfrwt>
<totfact> 0.19926957E+04</totfact>
</mgrwt>
</event>
<event>
 6    1  0.1683416E-002  0.9306646E+02  0.7546771E-02  0.1416622E+00
          2   -1    0    0  501    0  0.00000000000E+00  0.00000000000E+00  0.11049483797E+03  0.11049483797E+03  0.00000000000E+00 0. -1.
         -2   -1    0    0    0  501 -0.00000000000E+00 -0.00000000000E+00 -0.24978868889E+02  0.24978868889E+02  0.00000000000E+00 0.  1.
         23    2    1    2    0    0 -0.66664179814E+00 -0.11958517001E+02  0.76751616246E+02  0.12063239894E+03  0.92292548654E+02 0.  0.
         11    1    3    3    0    0  0.18791033793E+02 -0.38763657034E+02  0.73075947982E+01  0.43693534985E+02  0.00000000000E+00 0.  1.
        -11    1    3    3    0    0 -0.19457675592E+02  0.26805140033E+02  0.69444021448E+02  0.76938863954E+02  0.00000000000E+00 0. -1.
         22    1    1    2    0    0  0.66664179814E+00  0.11958517001E+02  0.87643528329E+01  0.14841307919E+02  0.00000000000E+00 0.  1.
<mgrwt>
<rscale>  0 0.55742014E+02</rscale>
<asrwt>0</asrwt>
<pdfrwt beam="1">  1        2 0.16999206E-01 0.93066455E+02</pdfrwt>
<pdfrwt beam="2">  1       -2 0.38429030E-02 0.93066455E+02</pdfrwt>
<totfact> 0.83868305E+04</totfact>
</mgrwt>
</event>
<event>
 6    1  0.1683416E-002  0.1041253E+03  0.7546771E-02  0.1348806E+00
          2   -1    0    0  501    0  0.00000000000E+00  0.00000000000E+00  0.25671757260E+03  0.25671757260E+03  0.00000000000E+00 0. -1.
         -2   -1    0    0    0  501 -0.00000000000E+00 -0.00000000000E+00 -0.20656926221E+02  0.20656926221E+02  0.00000000000E+00 0.  1.
         23    2    1    2    0    0 -0.25275086230E+02  0.49307692404E+01  0.12176998586E+03  0.16021863020E+03  0.10089072078E+03 0.  0.
         11    1    3    3    0    0  0.29470169887E+02  0.25844100922E+02  0.23214573734E+02  0.45555733989E+02  0.00000000000E+00 0.  1.
        -11    1    3    3    0    0 -0.54745256117E+02 -0.20913331681E+02  0.98555412124E+02  0.11466289621E+03  0.00000000000E+00 0. -1.
         22    1    1    2    0    0  0.25275086230E+02 -0.49307692404E+01  0.11429066052E+03  0.11715586862E+03  0.00000000000E+00 0. -1.
<mgrwt>
<rscale>  0 0.73429079E+02</rscale>
<asrwt>0</asrwt>
<pdfrwt beam="1">  1        2 0.39495009E-01 0.10412531E+03</pdfrwt>
<pdfrwt beam="2">  1       -2 0.31779888E-02 0.10412531E+03</pdfrwt>
<totfact> 0.44849442E+04</totfact>
</mgrwt>
</event>
<event>
 6    1  0.1683416E-002  0.9334141E+02  0.7546771E-02  0.1390096E+00
         -2   -1    0    0    0  501 -0.00000000000E+00  0.00000000000E+00  0.31466061183E+01  0.31466061183E+01  0.00000000000E+00 0.  1.
          2   -1    0    0  501    0  0.00000000000E+00 -0.00000000000E+00 -0.10179228043E+04  0.10179228043E+04  0.00000000000E+00 0. -1.
         23    2    1    2    0    0  0.83865860666E+01 -0.15963665971E+02 -0.90755444646E+03  0.91234187251E+03  0.91582998375E+02 0.  0.
         13    1    3    3    0    0 -0.25352095057E+02  0.26310119529E+01 -0.81567398854E+02  0.85456957022E+02  0.00000000000E+00 0.  1.
        -13    1    3    3    0    0  0.33738681123E+02 -0.18594677924E+02 -0.82598704761E+03  0.82688491549E+03  0.00000000000E+00 0. -1.
         22    1    1    2    0    0 -0.83865860666E+01  0.15963665971E+02 -0.10722175176E+03  0.10872753795E+03  0.00000000000E+00 0.  1.
<mgrwt>
<rscale>  0 0.61882829E+02</rscale>
<asrwt>0</asrwt>
<pdfrwt beam="1">  1        2 0.15660364E+00 0.93341411E+02</pdfrwt>
<pdfrwt beam="2">  1       -2 0.48409283E-03 0.93341411E+02</pdfrwt>
<totfact> 0.13715550E+05</totfact>
</mgrwt>
</event>
<event>
 6    1  0.1683416E-002  0.9152405E+02  0.7546771E-02  0.1406148E+00
         -2   -1    0    0    0  501 -0.00000000000E+00  0.00000000000E+00  0.81332077694E+01  0.81332077694E+01  0.00000000000E+00 0.  1.
          2   -1    0    0  501    0  0.00000000000E+00 -0.00000000000E+00 -0.35427170119E+03  0.35427170119E+03  0.00000000000E+00 0. -1.
         23    2    1    2    0    0 -0.94572278971E+01 -0.11415598728E+02 -0.27821756318E+03  0.29288507136E+03  0.90315544151E+02 0.  0.
         13    1    3    3    0    0 -0.25839843012E+02 -0.11660401677E+02 -0.27465962951E+03  0.27611876890E+03  0.00000000000E+00 0. -1.
        -13    1    3    3    0    0  0.16382615115E+02  0.24480294954E+00 -0.35579336654E+01  0.16766302469E+02  0.00000000000E+00 0.  1.
         22    1    1    2    0    0  0.94572278971E+01  0.11415598728E+02 -0.67920930244E+02  0.69519837593E+02  0.00000000000E+00 0.  1.
<mgrwt>
<rscale>  0 0.58062241E+02</rscale>
<asrwt>0</asrwt>
<pdfrwt beam="1">  1        2 0.54503343E-01 0.91524055E+02</pdfrwt>
<pdfrwt beam="2">  1       -2 0.12512626E-02 0.91524055E+02</pdfrwt>
<totfact> 0.12031041E+05</totfact>
</mgrwt>
</event>
<event>
 6    1  0.1683416E-002  0.9426579E+02  0.7546771E-02  0.1373091E+00
          1   -1    0    0  501    0  0.00000000000E+00  0.00000000000E+00  0.11166677331E+03  0.11166677331E+03  0.00000000000E+00 0. -1.
         -1   -1    0    0    0  501 -0.00000000000E+00 -0.00000000000E+00 -0.31216109489E+02  0.31216109489E+02  0.00000000000E+00 0.  1.
         23    2    1    2    0    0 -0.16205425769E+02 -0.16445614962E+02  0.70639657353E+02  0.11779643379E+03  0.91394554254E+02 0.  0.
         11    1    3    3    0    0  0.23476812342E+02 -0.13772821949E+02 -0.90908620297E+01  0.28696604583E+02  0.00000000000E+00 0.  1.
        -11    1    3    3    0    0 -0.39682238111E+02 -0.26727930131E+01  0.79730519383E+02  0.89099829209E+02  0.00000000000E+00 0. -1.
         22    1    1    2    0    0  0.16205425769E+02  0.16445614962E+02  0.98110064659E+01  0.25086449006E+02  0.00000000000E+00 0.  1.
<mgrwt>
<rscale>  0 0.66315343E+02</rscale>
<asrwt>0</asrwt>
<pdfrwt beam="1">  1        1 0.17179503E-01 0.94265787E+02</pdfrwt>
<pdfrwt beam="2">  1       -1 0.48024785E-02 0.94265787E+02</pdfrwt>
<totfact> 0.50516031E+04</totfact>
</mgrwt>
</event>
<event>
 6    1  0.1683416E-002  0.9570040E+02  0.7546771E-02  0.1408354E+00
         -2   -1    0    0    0  501 -0.00000000000E+00  0.00000000000E+00  0.41346344626E+02  0.41346344626E+02  0.00000000000E+00 0.  1.
          2   -1    0    0  501    0  0.00000000000E+00 -0.00000000000E+00 -0.10072144173E+03  0.10072144173E+03  0.00000000000E+00 0. -1.
         23    2    1    2    0    0  0.44217113995E+01  0.11719905981E+02 -0.16136485253E+02  0.97051286240E+02  0.94877069287E+02 0.  0.
         11    1    3    3    0    0  0.92777783631E+01  0.13413193707E+02 -0.55247043178E+02  0.57604051218E+02  0.00000000000E+00 0. -1.
        -11    1    3    3    0    0 -0.48560669636E+01 -0.16932877253E+01  0.39110557925E+02  0.39447235022E+02  0.00000000000E+00 0.  1.
         22    1    1    2    0    0 -0.44217113995E+01 -0.11719905981E+02 -0.43238611848E+02  0.45016500113E+02  0.00000000000E+00 0. -1.
<mgrwt>
<rscale>  0 0.57562659E+02</rscale>
<asrwt>0</asrwt>
<pdfrwt beam="1">  1        2 0.15495606E-01 0.95700397E+02</pdfrwt>
<pdfrwt beam="2">  1       -2 0.63609762E-02 0.95700397E+02</pdfrwt>
<totfact> 0.44256946E+04</totfact>
</mgrwt>
</event>
<event>
 6    1  0.1683416E-002  0.9640393E+02  0.7546771E-02  0.1356878E+00
          1   -1    0    0  501    0  0.00000000000E+00  0.00000000000E+00  0.50428359367E+03  0.50428359367E+03  0.00000000000E+00 0. -1.
         -1   -1    0    0    0  501 -0.00000000000E+00 -0.00000000000E+00 -0.77845813638E+01  0.77845813638E+01  0.00000000000E+00 0.  1.
         23    2    1    2    0    0 -0.27738634655E+02 -0.55556391391E+01  0.36123758018E+03  0.37388007135E+03  0.92159760416E+02 0.  0.
         11    1    3    3    0    0  0.22687824086E+02  0.17197024956E+01  0.24997501874E+02  0.33801920631E+02  0.00000000000E+00 0.  1.
        -11    1    3    3    0    0 -0.50426458741E+02 -0.72753416347E+01  0.33624007831E+03  0.34007815072E+03  0.00000000000E+00 0. -1.
         22    1    1    2    0    0  0.27738634655E+02  0.55556391391E+01  0.13526143212E+03  0.13818810368E+03  0.00000000000E+00 0.  1.
<mgrwt>
<rscale>  0 0.70954095E+02</rscale>
<asrwt>0</asrwt>
<pdfrwt beam="1">  1        1 0.77582066E-01 0.96403934E+02</pdfrwt>
<pdfrwt beam="2">  1       -1 0.11976283E-02 0.96403934E+02</pdfrwt>
<totfact> 0.57337621E+04</totfact>
</mgrwt>
</event>
<event>
 6    1  0.1683416E-002  0.9377276E+02  0.7546771E-02  0.1383352E+00
         -2   -1    0    0    0  501 -0.00000000000E+00  0.00000000000E+00  0.12386759093E+03  0.12386759093E+03  0.00000000000E+00 0.  1.
          2   -1    0    0  501    0  0.00000000000E+00 -0.00000000000E+00 -0.33245544880E+02  0.33245544880E+02  0.00000000000E+00 0. -1.
         23    2    1    2    0    0 -0.57536757107E+01 -0.18978106480E+02  0.98294369995E+02  0.13584960214E+03  0.91651829870E+02 0.  0.
         13    1    3    3    0    0  0.11273426245E+02 -0.40241596293E+02  0.93456630012E+01  0.42823096904E+02  0.00000000000E+00 0. -1.
        -13    1    3    3    0    0 -0.17027101956E+02  0.21263489813E+02  0.88948706993E+02  0.93026505233E+02  0.00000000000E+00 0.  1.
         22    1    1    2    0    0  0.57536757107E+01  0.18978106480E+02 -0.76723239403E+01  0.21263533677E+02  0.00000000000E+00 0. -1.
<mgrwt>
<rscale>  0 0.63590808E+02</rscale>
<asrwt>0</asrwt>
<pdfrwt beam="1">  1        2 0.51146993E-02 0.93772764E+02</pdfrwt>
<pdfrwt beam="2">  1       -2 0.19056552E-01 0.93772764E+02</pdfrwt>
<totfact> 0.30494218E+04</totfact>
</mgrwt>
</event>
<event>
 6    1  0.1683416E-002  0.1072127E+03  0.7546771E-02  0.1368733E+00
          2   -1    0    0  501    0  0.00000000000E+00  0.00000000000E+00  0.52018423967E+03  0.52018423967E+03  0.00000000000E+00 0.  1.
         -2   -1    0    0    0  501 -0.00000000000E+00 -0.00000000000E+00 -0.74047011043E+01  0.74047011043E+01  0.00000000000E+00 0. -1.
         23    2    1    2    0    0 -0.14264106483E+02 -0.89996553488E+01  0.44793012892E+03  0.46058219140E+03  0.10587774134E+03 0.  0.
         11    1    3    3    0    0 -0.46108439587E+02  0.11144106194E+02  0.37958950433E+03  0.38254198606E+03  0.00000000000E+00 0.  1.
        -11    1    3    3    0    0  0.31844333104E+02 -0.20143761543E+02  0.68340624597E+02  0.78040205345E+02  0.00000000000E+00 0. -1.
         22    1    1    2    0    0  0.14264106483E+02  0.89996553488E+01  0.64849409647E+02  0.67006749374E+02  0.00000000000E+00 0. -1.
<mgrwt>
<rscale>  0 0.67520698E+02</rscale>
<asrwt>0</asrwt>
<pdfrwt beam="1">  1        2 0.80028316E-01 0.10721266E+03</pdfrwt>
<pdfrwt beam="2">  1       -2 0.11391852E-02 0.10721266E+03</pdfrwt>
<totfact> 0.93406212E+04</totfact>
</mgrwt>
</event>
<event>
 6    1  0.1683416E-002  0.8749567E+02  0.7546771E-02  0.1404144E+00
         -2   -1    0    0    0  501 -0.00000000000E+00  0.00000000000E+00  0.22869519657E+02  0.22869519657E+02  0.00000000000E+00 0.  1.
          2   -1    0    0  501    0  0.00000000000E+00 -0.00000000000E+00 -0.12839678311E+03  0.12839678311E+03  0.00000000000E+00 0. -1.
         23    2    1    2    0    0 -0.15208700007E+02  0.86781028162E+01 -0.71486398001E+02  0.11298583066E+03  0.85725601809E+02 0.  0.
         13    1    3    3    0    0  0.31139872520E+02 -0.12940813063E+02 -0.42315515727E+02  0.54108771697E+02  0.00000000000E+00 0. -1.
        -13    1    3    3    0    0 -0.46348572527E+02  0.21618915879E+02 -0.29170882274E+02  0.58877058959E+02  0.00000000000E+00 0.  1.
         22    1    1    2    0    0  0.15208700007E+02 -0.86781028162E+01 -0.34040865452E+02  0.38280472112E+02  0.00000000000E+00 0. -1.
<mgrwt>
<rscale>  0 0.58521296E+02</rscale>
<asrwt>0</asrwt>
<pdfrwt beam="1">  1        2 0.19753352E-01 0.87495673E+02</pdfrwt>
<pdfrwt beam="2">  1       -2 0.35183876E-02 0.87495673E+02</pdfrwt>
<totfact> 0.79815425E+04</totfact>
</mgrwt>
</event>
<event>
 6    1  0.1683416E-002  0.1234510E+03  0.7546771E-02  0.1263947E+00
         -1   -1    0    0    0  501 -0.00000000000E+00  0.00000000000E+00  0.12557623891E+02  0.12557623891E+02  0.00000000000E+00 0.  1.
          1   -1    0    0  501    0  0.00000000000E+00 -0.00000000000E+00 -0.77046027131E+03  0.77046027131E+03  0.00000000000E+00 0. -1.
         23    2    1    2    0    0  0.32119318456E+02  0.65374615880E+02 -0.45108843545E+03  0.46767609384E+03  0.99672770265E+02 0.  0.
         13    1    3    3    0    0  0.34452165714E+02  0.10593469133E+02 -0.35670806299E+03  0.35852449779E+03  0.00000000000E+00 0. -1.
        -13    1    3    3    0    0 -0.23328472580E+01  0.54781146747E+02 -0.94380372460E+02  0.10915159605E+03  0.00000000000E+00 0.  1.
         22    1    1    2    0    0 -0.32119318456E+02 -0.65374615880E+02 -0.30681421197E+03  0.31534180137E+03  0.00000000000E+00 0. -1.
<mgrwt>
<rscale>  0 0.10819612E+03</rscale>
<asrwt>0</asrwt>
<pdfrwt beam="1">  1        1 0.11853242E+00 0.12345101E+03</pdfrwt>
<pdfrwt beam="2">  1       -1 0.19319410E-02 0.12345101E+03</pdfrwt>
<totfact> 0.16631023E+04</totfact>
</mgrwt>
</event>
<event>
 6    1  0.1683416E-002  0.9549647E+02  0.7546771E-02  0.1420091E+00
          4   -1    0    0  501    0  0.00000000000E+00  0.00000000000E+00  0.12914236212E+03  0.12914236212E+03  0.00000000000E+00 0. -1.
         -4   -1    0    0    0  501 -0.00000000000E+00 -0.00000000000E+00 -0.22051841011E+02  0.22051841011E+02  0.00000000000E+00 0.  1.
         23    2    1    2    0    0 -0.48743944023E+01  0.93096433768E+01  0.90571715381E+02  0.13161615105E+03  0.94916523375E+02 0.  0.
         11    1    3    3    0    0  0.11480400044E+02  0.49909202819E+02  0.41998417750E+02  0.66231376286E+02  0.00000000000E+00 0.  1.
        -11    1    3    3    0    0 -0.16354794446E+02 -0.40599559442E+02  0.48573297631E+02  0.65384774764E+02  0.00000000000E+00 0. -1.
         22    1    1    2    0    0  0.48743944023E+01 -0.93096433768E+01  0.16518805726E+02  0.19578052079E+02  0.00000000000E+00 0. -1.
<mgrwt>
<rscale>  0 0.55001681E+02</rscale>
<asrwt>0</asrwt>
<pdfrwt beam="1">  1        4 0.19868055E-01 0.95496469E+02</pdfrwt>
<pdfrwt beam="2">  1       -4 0.33925910E-02 0.95496469E+02</pdfrwt>
<totfact> 0.14879205E+04</totfact>
</mgrwt>
</event>
<event>
 6    1  0.1683416E-002  0.9398954E+02  0.7546771E-02  0.1395784E+00
          2   -1    0    0  501    0  0.00000000000E+00  0.00000000000E+00  0.15774000024E+02  0.15774000024E+02  0.00000000000E+00 0. -1.
         -2   -1    0    0    0  501 -0.00000000000E+00 -0.00000000000E+00 -0.19464118731E+03  0.19464118731E+03  0.00000000000E+00 0.  1.
         23    2    1    2    0    0 -0.15981558621E+02 -0.21502573717E+01 -0.16030184506E+03  0.18582442169E+03  0.92595898106E+02 0.  0.
         13    1    3    3    0    0  0.50795558522E+01 -0.32951839788E+02 -0.16386072376E+02  0.37150087496E+02  0.00000000000E+00 0. -1.
        -13    1    3    3    0    0 -0.21061114474E+02  0.30801582417E+02 -0.14391577268E+03  0.14867433420E+03  0.00000000000E+00 0.  1.
         22    1    1    2    0    0  0.15981558621E+02  0.21502573717E+01 -0.18565342232E+02  0.24590765643E+02  0.00000000000E+00 0.  1.
<mgrwt>
<rscale>  0 0.60490668E+02</rscale>
<asrwt>0</asrwt>
<pdfrwt beam="1">  1        2 0.24267694E-02 0.93989543E+02</pdfrwt>
<pdfrwt beam="2">  1       -2 0.29944796E-01 0.93989543E+02</pdfrwt>
<totfact> 0.37415033E+04</totfact>
</mgrwt>
</event>
<event>
 6    1  0.1683416E-002  0.8905209E+02  0.7546771E-02  0.1432730E+00
         -1   -1    0    0    0  501 -0.00000000000E+00  0.00000000000E+00  0.67106430466E+02  0.67106430466E+02  0.00000000000E+00 0.  1.
          1   -1    0    0  501    0  0.00000000000E+00 -0.00000000000E+00 -0.73297184612E+02  0.73297184612E+02  0.00000000000E+00 0. -1.
         23    2    1    2    0    0  0.10471255641E+02  0.21445171049E+01  0.36613428958E+02  0.96285090175E+02  0.88408309913E+02 0.  0.
         13    1    3    3    0    0 -0.31814211476E+02  0.94445732347E+01 -0.82575477743E+01  0.34198408014E+02  0.00000000000E+00 0. -1.
        -13    1    3    3    0    0  0.42285467118E+02 -0.73000561298E+01  0.44870976732E+02  0.62086682161E+02  0.00000000000E+00 0.  1.
         22    1    1    2    0    0 -0.10471255641E+02 -0.21445171049E+01 -0.42804183105E+02  0.44118524903E+02  0.00000000000E+00 0. -1.
<mgrwt>
<rscale>  0 0.52415930E+02</rscale>
<asrwt>0</asrwt>
<pdfrwt beam="1">  1        1 0.11276490E-01 0.89052094E+02</pdfrwt>
<pdfrwt beam="2">  1       -1 0.10324066E-01 0.89052094E+02</pdfrwt>
<totfact> 0.27640097E+04</totfact>
</mgrwt>
</event>
<event>
 6    1  0.1683416E-002  0.1050719E+03  0.7546771E-02  0.1306497E+00
         -2   -1    0    0    0  501 -0.00000000000E+00  0.00000000000E+00  0.55220519595E+02  0.55220519595E+02  0.00000000000E+00 0.  1.
          2   -1    0    0  501    0  0.00000000000E+00 -0.00000000000E+00 -0.12483696914E+03  0.12483696914E+03  0.00000000000E+00 0. -1.
         23    2    1    2    0    0  0.34301877586E+02  0.40285020655E+02 -0.18885156642E+02  0.10675560762E+03  0.90777799721E+02 0.  0.
         13    1    3    3    0    0  0.14860882789E+02 -0.29135722778E+02 -0.23437933310E+01  0.32790692982E+02  0.00000000000E+00 0. -1.
        -13    1    3    3    0    0  0.19440994797E+02  0.69420743433E+02 -0.16541363311E+02  0.73964914640E+02  0.00000000000E+00 0.  1.
         22    1    1    2    0    0 -0.34301877586E+02 -0.40285020655E+02 -0.50731292904E+02  0.73301881114E+02  0.00000000000E+00 0. -1.
<mgrwt>
<rscale>  0 0.88511587E+02</rscale>
<asrwt>0</asrwt>
<pdfrwt beam="1">  1        2 0.19205687E-01 0.10507193E+03</pdfrwt>
<pdfrwt beam="2">  1       -2 0.84954646E-02 0.10507193E+03</pdfrwt>
<totfact> 0.22545121E+04</totfact>
</mgrwt>
</event>
<event>
 6    1  0.1683416E-002  0.9486215E+02  0.7546771E-02  0.1373901E+00
         -2   -1    0    0    0  501 -0.00000000000E+00  0.00000000000E+00  0.36896351938E+02  0.36896351938E+02  0.00000000000E+00 0.  1.
          2   -1    0    0  501    0  0.00000000000E+00 -0.00000000000E+00 -0.11517353874E+03  0.11517353874E+03  0.00000000000E+00 0. -1.
         23    2    1    2    0    0 -0.14249123574E+02 -0.17225822019E+02 -0.31042656186E+02  0.99812189337E+02  0.92190347490E+02 0.  0.
         11    1    3    3    0    0  0.38422201264E+02  0.25817909726E+01 -0.14638482426E+02  0.41197285862E+02  0.00000000000E+00 0.  1.
        -11    1    3    3    0    0 -0.52671324839E+02 -0.19807612992E+02 -0.16404173759E+02  0.58614903475E+02  0.00000000000E+00 0. -1.
         22    1    1    2    0    0  0.14249123574E+02  0.17225822019E+02 -0.47234530611E+02  0.52257701336E+02  0.00000000000E+00 0. -1.
<mgrwt>
<rscale>  0 0.66094542E+02</rscale>
<asrwt>0</asrwt>
<pdfrwt beam="1">  1        2 0.17719006E-01 0.94862145E+02</pdfrwt>
<pdfrwt beam="2">  1       -2 0.56763619E-02 0.94862145E+02</pdfrwt>
<totfact> 0.44992512E+04</totfact>
</mgrwt>
</event>
<event>
 6    1  0.1683416E-002  0.9093814E+02  0.7546771E-02  0.1408803E+00
          2   -1    0    0  501    0  0.00000000000E+00  0.00000000000E+00  0.11212852520E+03  0.11212852520E+03  0.00000000000E+00 0.  1.
         -2   -1    0    0    0  501 -0.00000000000E+00 -0.00000000000E+00 -0.28713621167E+02  0.28713621167E+02  0.00000000000E+00 0. -1.
         23    2    1    2    0    0  0.61347076802E+01  0.13135124571E+02  0.48557213062E+02  0.10308999735E+03  0.89775155120E+02 0.  0.
         11    1    3    3    0    0  0.46497257151E+02  0.13166320513E+01  0.37102852198E+02  0.59500841034E+02  0.00000000000E+00 0. -1.
        -11    1    3    3    0    0 -0.40362549471E+02  0.11818492520E+02  0.11454360864E+02  0.43589156313E+02  0.00000000000E+00 0.  1.
         22    1    1    2    0    0 -0.61347076802E+01 -0.13135124571E+02  0.34857690976E+02  0.37752149025E+02  0.00000000000E+00 0.  1.
<mgrwt>
<rscale>  0 0.57461886E+02</rscale>
<asrwt>0</asrwt>
<pdfrwt beam="1">  1        2 0.17250542E-01 0.90938136E+02</pdfrwt>
<pdfrwt beam="2">  1       -2 0.44174802E-02 0.90938136E+02</pdfrwt>
<totfact> 0.66951775E+04</totfact>
</mgrwt>
</event>
<event>
 6    1  0.1683416E-002  0.9593137E+02  0.7546771E-02  0.1373916E+00
         -2   -1    0    0    0  501 -0.00000000000E+00  0.00000000000E+00  0.13441101288E+02  0.13441101288E+02  0.00000000000E+00 0.  1.
          2   -1    0    0  501    0  0.00000000000E+00 -0.00000000000E+00 -0.27311193910E+03  0.27311193910E+03  0.00000000000E+00 0. -1.
         23    2    1    2    0    0  0.15930253913E+02  0.14603265359E+02 -0.17957225649E+03  0.20359033143E+03  0.93465498446E+02 0.  0.
         11    1    3    3    0    0 -0.21777035724E+02  0.19892676115E+01 -0.23858769444E+01  0.21997474386E+02  0.00000000000E+00 0.  1.
        -11    1    3    3    0    0  0.37707289637E+02  0.12613997747E+02 -0.17718637955E+03  0.18159285704E+03  0.00000000000E+00 0. -1.
         22    1    1    2    0    0 -0.15930253913E+02 -0.14603265359E+02 -0.80098581319E+02  0.82962708961E+02  0.00000000000E+00 0. -1.
<mgrwt>
<rscale>  0 0.66090402E+02</rscale>
<asrwt>0</asrwt>
<pdfrwt beam="1">  1        2 0.42017220E-01 0.95931370E+02</pdfrwt>
<pdfrwt beam="2">  1       -2 0.20678618E-02 0.95931370E+02</pdfrwt>
<totfact> 0.77540029E+04</totfact>
</mgrwt>
</event>
<event>
 6    1  0.1683416E-002  0.9326868E+02  0.7546771E-02  0.1410155E+00
          2   -1    0    0  501    0  0.00000000000E+00  0.00000000000E+00  0.12343981207E+03  0.12343981207E+03  0.00000000000E+00 0. -1.
         -2   -1    0    0    0  501 -0.00000000000E+00 -0.00000000000E+00 -0.33424333033E+02  0.33424333033E+02  0.00000000000E+00 0.  1.
         23    2    1    2    0    0 -0.10281912154E+02 -0.82083461379E+01  0.33918026965E+02  0.99244540863E+02  0.92336080023E+02 0.  0.
         11    1    3    3    0    0 -0.42678685203E+02 -0.31766120679E+02  0.18657440557E+02  0.56379576814E+02  0.00000000000E+00 0. -1.
        -11    1    3    3    0    0  0.32396773049E+02  0.23557774542E+02  0.15260586409E+02  0.42864964048E+02  0.00000000000E+00 0.  1.
         22    1    1    2    0    0  0.10281912154E+02  0.82083461379E+01  0.56097452075E+02  0.57619604244E+02  0.00000000000E+00 0.  1.
<mgrwt>
<rscale>  0 0.57159356E+02</rscale>
<asrwt>0</asrwt>
<pdfrwt beam="1">  1        2 0.18990740E-01 0.93268678E+02</pdfrwt>
<pdfrwt beam="2">  1       -2 0.51422051E-02 0.93268678E+02</pdfrwt>
<totfact> 0.48110380E+04</totfact>
</mgrwt>
</event>
<event>
 6    1  0.1683416E-002  0.8476864E+02  0.7546771E-02  0.1421409E+00
         -1   -1    0    0    0  501 -0.00000000000E+00  0.00000000000E+00  0.14438767358E+02  0.14438767358E+02  0.00000000000E+00 0.  1.
          1   -1    0    0  501    0  0.00000000000E+00 -0.00000000000E+00 -0.17323061107E+03  0.17323061107E+03  0.00000000000E+00 0. -1.
         23    2    1    2    0    0  0.98288977128E+00  0.14690456359E+02 -0.12779452157E+03  0.15335306219E+03  0.83480215374E+02 0.  0.
         11    1    3    3    0    0  0.19253169571E+02  0.44891263777E+02 -0.83213873808E+02  0.96490719223E+02  0.00000000000E+00 0. -1.
        -11    1    3    3    0    0 -0.18270279800E+02 -0.30200807418E+02 -0.44580647762E+02  0.56862342965E+02  0.00000000000E+00 0.  1.
         22    1    1    2    0    0 -0.98288977128E+00 -0.14690456359E+02 -0.30997322143E+02  0.34316316241E+02  0.00000000000E+00 0. -1.
<mgrwt>
<rscale>  0 0.54723983E+02</rscale>
<asrwt>0</asrwt>
<pdfrwt beam="1">  1        1 0.26650865E-01 0.84768638E+02</pdfrwt>
<pdfrwt beam="2">  1       -1 0.22213487E-02 0.84768638E+02</pdfrwt>
<totfact> 0.87426803E+04</totfact>
</mgrwt>
</event>
<event>
 6    1  0.1683416E-002  0.9256681E+02  0.7546771E-02  0.1380525E+00
          3   -1    0    0  501    0  0.00000000000E+00  0.00000000000E+00  0.51785600706E+02  0.51785600706E+02  0.00000000000E+00 0. -1.
         -3   -1    0    0    0  501 -0.00000000000E+00 -0.00000000000E+00 -0.10538310940E+03  0.10538310940E+03  0.00000000000E+00 0.  1.
         23    2    1    2    0    0 -0.17458949572E+01 -0.21515565437E+02 -0.80501877057E+02  0.12267504776E+03  0.90014706726E+02 0.  0.
         13    1    3    3    0    0  0.19320388481E+02 -0.41146995086E+02 -0.82090186658E+02  0.93835768027E+02  0.00000000000E+00 0.  1.
        -13    1    3    3    0    0 -0.21066283439E+02  0.19631429648E+02  0.15883096004E+01  0.28839279730E+02  0.00000000000E+00 0. -1.
         22    1    1    2    0    0  0.17458949572E+01  0.21515565437E+02  0.26904368363E+02  0.34493662350E+02  0.00000000000E+00 0. -1.
<mgrwt>
<rscale>  0 0.64325914E+02</rscale>
<asrwt>0</asrwt>
<pdfrwt beam="1">  1        3 0.79670155E-02 0.92566814E+02</pdfrwt>
<pdfrwt beam="2">  1       -3 0.16212786E-01 0.92566814E+02</pdfrwt>
<totfact> 0.72668644E+03</totfact>
</mgrwt>
</event>
<event>
 6    1  0.1683416E-002  0.9490500E+02  0.7546771E-02  0.1394860E+00
          2   -1    0    0  501    0  0.00000000000E+00  0.00000000000E+00  0.44983421082E+03  0.44983421082E+03  0.00000000000E+00 0. -1.
         -2   -1    0    0    0  501 -0.00000000000E+00 -0.00000000000E+00 -0.68663259959E+01  0.68663259959E+01  0.00000000000E+00 0.  1.
         23    2    1    2    0    0 -0.96348959365E+01  0.12642978768E+02  0.36565764866E+03  0.37777304637E+03  0.93564322316E+02 0.  0.
         11    1    3    3    0    0 -0.35706053409E+02 -0.27801055505E+02  0.21119727062E+03  0.21599099068E+03  0.00000000000E+00 0. -1.
        -11    1    3    3    0    0  0.26071157473E+02  0.40444034273E+02  0.15446037803E+03  0.16178205569E+03  0.00000000000E+00 0.  1.
         22    1    1    2    0    0  0.96348959365E+01 -0.12642978768E+02  0.77310236162E+02  0.78927490441E+02  0.00000000000E+00 0. -1.
<mgrwt>
<rscale>  0 0.60713789E+02</rscale>
<asrwt>0</asrwt>
<pdfrwt beam="1">  1        2 0.69205240E-01 0.94904997E+02</pdfrwt>
<pdfrwt beam="2">  1       -2 0.10563582E-02 0.94904997E+02</pdfrwt>
<totfact> 0.11957933E+05</totfact>
</mgrwt>
</event>
<event>
 6    1  0.1683416E-002  0.1339830E+03  0.7546771E-02  0.1236973E+00
         -2   -1    0    0    0  501 -0.00000000000E+00  0.00000000000E+00  0.44377514643E+02  0.44377514643E+02  0.00000000000E+00 0.  1.
          2   -1    0    0  501    0  0.00000000000E+00 -0.00000000000E+00 -0.70294383116E+03  0.70294383116E+03  0.00000000000E+00 0. -1.
         23    2    1    2    0    0 -0.41413159466E+02 -0.88413316058E+02 -0.70872251957E+02  0.15157284370E+03  0.91757760532E+02 0.  0.
         11    1    3    3    0    0 -0.42609964600E+02  0.25818219162E+01 -0.27349079301E+02  0.50697603752E+02  0.00000000000E+00 0. -1.
        -11    1    3    3    0    0  0.11968051338E+01 -0.90995137974E+02 -0.43523172656E+02  0.10087523995E+03  0.00000000000E+00 0.  1.
         22    1    1    2    0    0  0.41413159466E+02  0.88413316058E+02 -0.58769406456E+03  0.59574850209E+03  0.00000000000E+00 0. -1.
<mgrwt>
<rscale>  0 0.12378988E+03</rscale>
<asrwt>0</asrwt>
<pdfrwt beam="1">  1        2 0.10814521E+00 0.13398302E+03</pdfrwt>
<pdfrwt beam="2">  1       -2 0.68273098E-02 0.13398302E+03</pdfrwt>
<totfact> 0.49000426E+03</totfact>
</mgrwt>
</event>
<event>
 6    1  0.1683416E-002  0.9525891E+02  0.7546771E-02  0.1399536E+00
          2   -1    0    0  501    0  0.00000000000E+00  0.00000000000E+00  0.10320570939E+03  0.10320570939E+03  0.00000000000E+00 0. -1.
         -2   -1    0    0    0  501 -0.00000000000E+00 -0.00000000000E+00 -0.31423420365E+02  0.31423420365E+02  0.00000000000E+00 0.  1.
         23    2    1    2    0    0  0.14588639274E+02 -0.35608822256E+00  0.47857154444E+02  0.10660472504E+03  0.94134504702E+02 0.  0.
         11    1    3    3    0    0  0.31454711942E+02 -0.10291336959E+02 -0.18157345008E+02  0.37749168169E+02  0.00000000000E+00 0.  1.
        -11    1    3    3    0    0 -0.16866072668E+02  0.99352487364E+01  0.66014499452E+02  0.68855556875E+02  0.00000000000E+00 0. -1.
         22    1    1    2    0    0 -0.14588639274E+02  0.35608822256E+00  0.23925134577E+02  0.28024404708E+02  0.00000000000E+00 0. -1.
<mgrwt>
<rscale>  0 0.59595743E+02</rscale>
<asrwt>0</asrwt>
<pdfrwt beam="1">  1        2 0.15877801E-01 0.95258911E+02</pdfrwt>
<pdfrwt beam="2">  1       -2 0.48343724E-02 0.95258911E+02</pdfrwt>
<totfact> 0.64834038E+04</totfact>
</mgrwt>
</event>
<event>
 6    1  0.1683416E-002  0.1050729E+03  0.7546771E-02  0.1304463E+00
          2   -1    0    0  501    0  0.00000000000E+00  0.00000000000E+00  0.35218291916E+03  0.35218291916E+03  0.00000000000E+00 0. -1.
         -2   -1    0    0    0  501 -0.00000000000E+00 -0.00000000000E+00 -0.40144816658E+02  0.40144816658E+02  0.00000000000E+00 0.  1.
         23    2    1    2    0    0 -0.10448114411E+02 -0.53909703422E+02  0.36287279121E+02  0.11116241823E+03  0.89581791583E+02 0.  0.
         11    1    3    3    0    0  0.23300050414E+02 -0.65391334606E+02  0.23381857924E+02  0.73250462598E+02  0.00000000000E+00 0.  1.
        -11    1    3    3    0    0 -0.33748164825E+02  0.11481631183E+02  0.12905421196E+02  0.37911955633E+02  0.00000000000E+00 0. -1.
         22    1    1    2    0    0  0.10448114411E+02  0.53909703422E+02  0.27575082338E+03  0.28116531758E+03  0.00000000000E+00 0. -1.
<mgrwt>
<rscale>  0 0.89338064E+02</rscale>
<asrwt>0</asrwt>
<pdfrwt beam="1">  1        2 0.54181986E-01 0.10507291E+03</pdfrwt>
<pdfrwt beam="2">  1       -2 0.61761259E-02 0.10507291E+03</pdfrwt>
<totfact> 0.12015307E+04</totfact>
</mgrwt>
</event>
<event>
 6    1  0.1683416E-002  0.9132822E+02  0.7546771E-02  0.1409762E+00
         -4   -1    0    0    0  501 -0.00000000000E+00  0.00000000000E+00  0.52158756537E+02  0.52158756537E+02  0.00000000000E+00 0.  1.
          4   -1    0    0  501    0  0.00000000000E+00 -0.00000000000E+00 -0.59123326936E+02  0.59123326936E+02  0.00000000000E+00 0. -1.
         23    2    1    2    0    0  0.42818547596E+01 -0.13433420113E+02  0.67959758596E+01  0.91580720844E+02  0.90233320266E+02 0.  0.
         11    1    3    3    0    0  0.26650238141E+02 -0.39329058485E+02 -0.16379546503E+02  0.50252358929E+02  0.00000000000E+00 0. -1.
        -11    1    3    3    0    0 -0.22368383381E+02  0.25895638372E+02  0.23175522363E+02  0.41328361915E+02  0.00000000000E+00 0.  1.
         22    1    1    2    0    0 -0.42818547596E+01  0.13433420113E+02 -0.13760546258E+02  0.19701362629E+02  0.00000000000E+00 0. -1.
<mgrwt>
<rscale>  0 0.57247080E+02</rscale>
<asrwt>0</asrwt>
<pdfrwt beam="1">  1        4 0.90958964E-02 0.91328217E+02</pdfrwt>
<pdfrwt beam="2">  1       -4 0.80244241E-02 0.91328217E+02</pdfrwt>
<totfact> 0.14152776E+04</totfact>
</mgrwt>
</event>
<event>
 6    1  0.1683416E-002  0.9380466E+02  0.7546771E-02  0.1425906E+00
         -2   -1    0    0    0  501 -0.00000000000E+00  0.00000000000E+00  0.31643679649E+02  0.31643679649E+02  0.00000000000E+00 0.  1.
          2   -1    0    0  501    0  0.00000000000E+00 -0.00000000000E+00 -0.85807091710E+02  0.85807091710E+02  0.00000000000E+00 0. -1.
         23    2    1    2    0    0 -0.30284501972E+01 -0.96800406766E+01 -0.51279432194E+02  0.10690600783E+03  0.93254703071E+02 0.  0.
         11    1    3    3    0    0  0.23382291680E+02  0.13122156402E+02 -0.64297709634E+02  0.69664323847E+02  0.00000000000E+00 0. -1.
        -11    1    3    3    0    0 -0.26410741877E+02 -0.22802197078E+02  0.13018277440E+02  0.37241683979E+02  0.00000000000E+00 0.  1.
         22    1    1    2    0    0  0.30284501972E+01  0.96800406766E+01 -0.28839798676E+01  0.10544763533E+02  0.00000000000E+00 0. -1.
<mgrwt>
<rscale>  0 0.53790661E+02</rscale>
<asrwt>0</asrwt>
<pdfrwt beam="1">  1        2 0.13201091E-01 0.93804661E+02</pdfrwt>
<pdfrwt beam="2">  1       -2 0.48682585E-02 0.93804661E+02</pdfrwt>
<totfact> 0.79352862E+04</totfact>
</mgrwt>
</event>
<event>
 6    1  0.1683416E-002  0.9316599E+02  0.7546771E-02  0.1414001E+00
         -2   -1    0    0    0  501 -0.00000000000E+00  0.00000000000E+00  0.77084002186E+02  0.77084002186E+02  0.00000000000E+00 0. -1.
          2   -1    0    0  501    0  0.00000000000E+00 -0.00000000000E+00 -0.36200745132E+02  0.36200745132E+02  0.00000000000E+00 0.  1.
         23    2    1    2    0    0 -0.12022276945E+02  0.31706381135E+01  0.37189677029E+02  0.10031437252E+03  0.92332622445E+02 0.  0.
         11    1    3    3    0    0  0.73251577992E+01 -0.30426688549E+02  0.50425103196E+02  0.59347555511E+02  0.00000000000E+00 0. -1.
        -11    1    3    3    0    0 -0.19347434744E+02  0.33597326662E+02 -0.13235426167E+02  0.40966817009E+02  0.00000000000E+00 0.  1.
         22    1    1    2    0    0  0.12022276945E+02 -0.31706381135E+01  0.36935800246E+01  0.12970374798E+02  0.00000000000E+00 0. -1.
<mgrwt>
<rscale>  0 0.56310586E+02</rscale>
<asrwt>0</asrwt>
<pdfrwt beam="1">  1        2 0.55693454E-02 0.93165988E+02</pdfrwt>
<pdfrwt beam="2">  1       -2 0.11859077E-01 0.93165988E+02</pdfrwt>
<totfact> 0.58903454E+04</totfact>
</mgrwt>
</event>
<event>
 6    1  0.1683416E-002  0.9372932E+02  0.7546771E-02  0.1384315E+00
         -2   -1    0    0    0  501 -0.00000000000E+00  0.00000000000E+00  0.45450934204E+01  0.45450934204E+01  0.00000000000E+00 0.  1.
          2   -1    0    0  501    0  0.00000000000E+00 -0.00000000000E+00 -0.73564211130E+03  0.73564211130E+03  0.00000000000E+00 0. -1.
         23    2    1    2    0    0 -0.19397609999E+02  0.24431879037E+01 -0.65237035456E+03  0.65906924149E+03  0.91667601321E+02 0.  0.
         13    1    3    3    0    0  0.24936596767E+02  0.21770121247E+02 -0.11923563081E+03  0.12374533402E+03  0.00000000000E+00 0.  1.
        -13    1    3    3    0    0 -0.44334206766E+02 -0.19326933343E+02 -0.53313472375E+03  0.53532390747E+03  0.00000000000E+00 0. -1.
         22    1    1    2    0    0  0.19397609999E+02 -0.24431879037E+01 -0.78726663324E+02  0.81117963232E+02  0.00000000000E+00 0.  1.
<mgrwt>
<rscale>  0 0.63342925E+02</rscale>
<asrwt>0</asrwt>
<pdfrwt beam="1">  1        2 0.11317567E+00 0.93729321E+02</pdfrwt>
<pdfrwt beam="2">  1       -2 0.69924536E-03 0.93729321E+02</pdfrwt>
<totfact> 0.12352767E+05</totfact>
</mgrwt>
</event>
<event>
 6    1  0.1683416E-002  0.1277602E+03  0.7546771E-02  0.1246646E+00
         -2   -1    0    0    0  501 -0.00000000000E+00  0.00000000000E+00  0.99692986202E+02  0.99692986202E+02  0.00000000000E+00 0.  1.
          2   -1    0    0  501    0  0.00000000000E+00 -0.00000000000E+00 -0.35781284149E+03  0.35781284149E+03  0.00000000000E+00 0. -1.
         23    2    1    2    0    0  0.74796185539E+02  0.54547215719E+02  0.48926115411E+02  0.13680800070E+03  0.88049964070E+02 0.  0.
         11    1    3    3    0    0  0.89767928431E+02  0.27135167946E+02  0.23880446193E+02  0.96772279216E+02  0.00000000000E+00 0.  1.
        -11    1    3    3    0    0 -0.14971742892E+02  0.27412047772E+02  0.25045669218E+02  0.40035721486E+02  0.00000000000E+00 0. -1.
         22    1    1    2    0    0 -0.74796185539E+02 -0.54547215719E+02 -0.30704597070E+03  0.32069782699E+03  0.00000000000E+00 0. -1.
<mgrwt>
<rscale>  0 0.11787411E+03</rscale>
<asrwt>0</asrwt>
<pdfrwt beam="1">  1        2 0.55048131E-01 0.12776018E+03</pdfrwt>
<pdfrwt beam="2">  1       -2 0.15337382E-01 0.12776018E+03</pdfrwt>
<totfact> 0.28818306E+03</totfact>
</mgrwt>
</event>
<event>
 6    1  0.1683416E-002  0.9399130E+02  0.7546771E-02  0.1377156E+00
         -2   -1    0    0    0  501 -0.00000000000E+00  0.00000000000E+00  0.28690747201E+02  0.28690747201E+02  0.00000000000E+00 0.  1.
          2   -1    0    0  501    0  0.00000000000E+00 -0.00000000000E+00 -0.11680612609E+03  0.11680612609E+03  0.00000000000E+00 0. -1.
         23    2    1    2    0    0  0.20624230700E+02  0.70213745584E+01 -0.71191319019E+02  0.11790915147E+03  0.91431425146E+02 0.  0.
         13    1    3    3    0    0 -0.92550517666E+01 -0.16002704776E+02  0.15012072205E+02  0.23813963451E+02  0.00000000000E+00 0.  1.
        -13    1    3    3    0    0  0.29879282467E+02  0.23024079335E+02 -0.86203391224E+02  0.94095188019E+02  0.00000000000E+00 0. -1.
         22    1    1    2    0    0 -0.20624230700E+02 -0.70213745584E+01 -0.16924059867E+02  0.27587721817E+02  0.00000000000E+00 0.  1.
<mgrwt>
<rscale>  0 0.65217388E+02</rscale>
<asrwt>0</asrwt>
<pdfrwt beam="1">  1        2 0.17970173E-01 0.93991298E+02</pdfrwt>
<pdfrwt beam="2">  1       -2 0.44139611E-02 0.93991298E+02</pdfrwt>
<totfact> 0.64291566E+04</totfact>
</mgrwt>
</event>
<event>
 6    1  0.1683416E-002  0.9206438E+02  0.7546771E-02  0.1420157E+00
         -2   -1    0    0    0  501 -0.00000000000E+00  0.00000000000E+00  0.32214231845E+02  0.32214231845E+02  0.00000000000E+00 0.  1.
          2   -1    0    0  501    0  0.00000000000E+00 -0.00000000000E+00 -0.12684475286E+03  0.12684475286E+03  0.00000000000E+00 0. -1.
         23    2    1    2    0    0  0.11652267440E+02  0.12223032531E+01 -0.35327602897E+02  0.98609787365E+02  0.91315832560E+02 0.  0.
         13    1    3    3    0    0 -0.84658740322E+00 -0.39917683157E+02 -0.38540310266E+02  0.55493185657E+02  0.00000000000E+00 0. -1.
        -13    1    3    3    0    0  0.12498854843E+02  0.41139986411E+02  0.32127073699E+01  0.43116601709E+02  0.00000000000E+00 0.  1.
         22    1    1    2    0    0 -0.11652267440E+02 -0.12223032531E+01 -0.59302918115E+02  0.60449197337E+02  0.00000000000E+00 0. -1.
<mgrwt>
<rscale>  0 0.54987685E+02</rscale>
<asrwt>0</asrwt>
<pdfrwt beam="1">  1        2 0.19514578E-01 0.92064383E+02</pdfrwt>
<pdfrwt beam="2">  1       -2 0.49560356E-02 0.92064383E+02</pdfrwt>
<totfact> 0.49209023E+04</totfact>
</mgrwt>
</event>
<event>
 6    1  0.1683416E-002  0.9584462E+02  0.7546771E-02  0.1396288E+00
          2   -1    0    0  501    0  0.00000000000E+00  0.00000000000E+00  0.23835806831E+02  0.23835806831E+02  0.00000000000E+00 0. -1.
         -2   -1    0    0    0  501 -0.00000000000E+00 -0.00000000000E+00 -0.16182556474E+03  0.16182556474E+03  0.00000000000E+00 0.  1.
         23    2    1    2    0    0 -0.12344574869E+02 -0.86711684390E+01 -0.14079060142E+03  0.17031789037E+03  0.94649947929E+02 0.  0.
         13    1    3    3    0    0 -0.40092893808E+01  0.50374045556E+01  0.13625807702E+02  0.15070251541E+02  0.00000000000E+00 0. -1.
        -13    1    3    3    0    0 -0.83352854881E+01 -0.13708572995E+02 -0.15441640912E+03  0.15524763883E+03  0.00000000000E+00 0.  1.
         22    1    1    2    0    0  0.12344574869E+02  0.86711684390E+01  0.28008435106E+01  0.15343481194E+02  0.00000000000E+00 0. -1.
<mgrwt>
<rscale>  0 0.60369420E+02</rscale>
<asrwt>0</asrwt>
<pdfrwt beam="1">  1        2 0.36670471E-02 0.95844616E+02</pdfrwt>
<pdfrwt beam="2">  1       -2 0.24896242E-01 0.95844616E+02</pdfrwt>
<totfact> 0.29968496E+04</totfact>
</mgrwt>
</event>
<event>
 6    1  0.1683416E-002  0.8992769E+02  0.7546771E-02  0.1423504E+00
          2   -1    0    0  501    0  0.00000000000E+00  0.00000000000E+00  0.75635876575E+02  0.75635876575E+02  0.00000000000E+00 0. -1.
         -2   -1    0    0    0  501 -0.00000000000E+00 -0.00000000000E+00 -0.34982297937E+02  0.34982297937E+02  0.00000000000E+00 0.  1.
         23    2    1    2    0    0  0.85670050361E+01 -0.83199477456E+01  0.30549536645E+02  0.94975068350E+02  0.89131219632E+02 0.  0.
         11    1    3    3    0    0  0.28252107268E+02  0.20277372176E+02 -0.14857325707E+02  0.37816577246E+02  0.00000000000E+00 0.  1.
        -11    1    3    3    0    0 -0.19685102232E+02 -0.28597319921E+02  0.45406862352E+02  0.57158491104E+02  0.00000000000E+00 0. -1.
         22    1    1    2    0    0 -0.85670050361E+01  0.83199477456E+01  0.10104041993E+02  0.15643106161E+02  0.00000000000E+00 0. -1.
<mgrwt>
<rscale>  0 0.54286366E+02</rscale>
<asrwt>0</asrwt>
<pdfrwt beam="1">  1        2 0.11636289E-01 0.89927690E+02</pdfrwt>
<pdfrwt beam="2">  1       -2 0.53818920E-02 0.89927690E+02</pdfrwt>
<totfact> 0.78859494E+04</totfact>
</mgrwt>
</event>
<event>
 6    1  0.1683416E-002  0.9076191E+02  0.7546771E-02  0.1426159E+00
         -2   -1    0    0    0  501 -0.00000000000E+00  0.00000000000E+00  0.28574498251E+02  0.28574498251E+02  0.00000000000E+00 0.  1.
          2   -1    0    0  501    0  0.00000000000E+00 -0.00000000000E+00 -0.91153077465E+02  0.91153077465E+02  0.00000000000E+00 0. -1.
         23    2    1    2    0    0  0.66381305435E+01 -0.89638903298E+01 -0.57722636907E+02  0.10756220344E+03  0.90073906823E+02 0.  0.
         11    1    3    3    0    0  0.31011373296E+02 -0.28763409477E+02 -0.62837132137E+02  0.75746578627E+02  0.00000000000E+00 0. -1.
        -11    1    3    3    0    0 -0.24373242753E+02  0.19799519147E+02  0.51144952302E+01  0.31815624812E+02  0.00000000000E+00 0.  1.
         22    1    1    2    0    0 -0.66381305435E+01  0.89638903298E+01 -0.48559423070E+01  0.12165372277E+02  0.00000000000E+00 0.  1.
<mgrwt>
<rscale>  0 0.53738719E+02</rscale>
<asrwt>0</asrwt>
<pdfrwt beam="1">  1        2 0.14023550E-01 0.90761913E+02</pdfrwt>
<pdfrwt beam="2">  1       -2 0.43960766E-02 0.90761913E+02</pdfrwt>
<totfact> 0.85567928E+04</totfact>
</mgrwt>
</event>
<event>
 6    1  0.1683416E-002  0.9242368E+02  0.7546771E-02  0.1390874E+00
         -1   -1    0    0    0  501 -0.00000000000E+00  0.00000000000E+00  0.16660222266E+03  0.16660222266E+03  0.00000000000E+00 0. -1.
          1   -1    0    0  501    0  0.00000000000E+00 -0.00000000000E+00 -0.21298160750E+02  0.21298160750E+02  0.00000000000E+00 0.  1.
         23    2    1    2    0    0  0.17063866897E+02 -0.67334365658E+01  0.14174312682E+03  0.16921362392E+03  0.90584887250E+02 0.  0.
         11    1    3    3    0    0  0.32854092660E+02  0.34438527808E+01  0.77775806105E+01  0.33937328808E+02  0.00000000000E+00 0.  1.
        -11    1    3    3    0    0 -0.15790225763E+02 -0.10177289347E+02  0.13396554621E+03  0.13527629511E+03  0.00000000000E+00 0. -1.
         22    1    1    2    0    0 -0.17063866897E+02  0.67334365658E+01  0.35609350873E+01  0.18686759488E+02  0.00000000000E+00 0. -1.
<mgrwt>
<rscale>  0 0.61689741E+02</rscale>
<asrwt>0</asrwt>
<pdfrwt beam="1">  1        1 0.32766402E-02 0.92423679E+02</pdfrwt>
<pdfrwt beam="2">  1       -1 0.25631110E-01 0.92423679E+02</pdfrwt>
<totfact> 0.35034390E+04</totfact>
</mgrwt>
</event>
<event>
 6    1  0.1683416E-002  0.9426675E+02  0.7546771E-02  0.1392238E+00
          2   -1    0    0  501    0  0.00000000000E+00  0.00000000000E+00  0.41630155186E+02  0.41630155186E+02  0.00000000000E+00 0.  1.
         -2   -1    0    0    0  501 -0.00000000000E+00 -0.00000000000E+00 -0.79929156590E+02  0.79929156590E+02  0.00000000000E+00 0. -1.
         23    2    1    2    0    0 -0.12224704370E+02 -0.11691326086E+02 -0.43560148944E+02  0.10384462363E+03  0.92736663617E+02 0.  0.
         11    1    3    3    0    0 -0.72762492164E+01  0.37879411291E+02 -0.37262487220E+02  0.53631022331E+02  0.00000000000E+00 0. -1.
        -11    1    3    3    0    0 -0.49484551537E+01 -0.49570737377E+02 -0.62976617242E+01  0.50213601302E+02  0.00000000000E+00 0.  1.
         22    1    1    2    0    0  0.12224704370E+02  0.11691326086E+02  0.52611475392E+01  0.17714688143E+02  0.00000000000E+00 0. -1.
<mgrwt>
<rscale>  0 0.61353509E+02</rscale>
<asrwt>0</asrwt>
<pdfrwt beam="1">  1        2 0.64046393E-02 0.94266745E+02</pdfrwt>
<pdfrwt beam="2">  1       -2 0.12296793E-01 0.94266745E+02</pdfrwt>
<totfact> 0.46628313E+04</totfact>
</mgrwt>
</event>
<event>
 6    1  0.1683416E-002  0.9132990E+02  0.7546771E-02  0.1429655E+00
         -2   -1    0    0    0  501 -0.00000000000E+00  0.00000000000E+00  0.38411357438E+02  0.38411357438E+02  0.00000000000E+00 0. -1.
          2   -1    0    0  501    0  0.00000000000E+00 -0.00000000000E+00 -0.91461812945E+02  0.91461812945E+02  0.00000000000E+00 0.  1.
         23    2    1    2    0    0 -0.10257522576E+02 -0.15944196597E+01 -0.17698924031E+02  0.93029043019E+02  0.90738040478E+02 0.  0.
         13    1    3    3    0    0 -0.49891999481E+02 -0.91354768832E+01 -0.13356058060E+02  0.52450479855E+02  0.00000000000E+00 0. -1.
        -13    1    3    3    0    0  0.39634476905E+02  0.75410572234E+01 -0.43428659707E+01  0.40578563164E+02  0.00000000000E+00 0.  1.
         22    1    1    2    0    0  0.10257522576E+02  0.15944196597E+01 -0.35351531476E+02  0.36844127363E+02  0.00000000000E+00 0.  1.
<mgrwt>
<rscale>  0 0.53029363E+02</rscale>
<asrwt>0</asrwt>
<pdfrwt beam="1">  1        2 0.14071048E-01 0.91329902E+02</pdfrwt>
<pdfrwt beam="2">  1       -2 0.59094397E-02 0.91329902E+02</pdfrwt>
<totfact> 0.54941525E+04</totfact>
</mgrwt>
</event>
<event>
 6    1  0.1683416E-002  0.9585299E+02  0.7546771E-02  0.1377472E+00
          2   -1    0    0  501    0  0.00000000000E+00  0.00000000000E+00  0.30391501588E+03  0.30391501588E+03  0.00000000000E+00 0. -1.
         -2   -1    0    0    0  501 -0.00000000000E+00 -0.00000000000E+00 -0.11176682470E+02  0.11176682470E+02  0.00000000000E+00 0.  1.
         23    2    1    2    0    0 -0.18455459028E+02  0.87752443437E+01  0.24909469440E+03  0.26690066072E+03  0.93649276756E+02 0.  0.
         11    1    3    3    0    0 -0.42964883394E+01 -0.22643082351E+02  0.22165313865E+03  0.22284811613E+03  0.00000000000E+00 0. -1.
        -11    1    3    3    0    0 -0.14158970689E+02  0.31418326694E+02  0.27441555749E+02  0.44052544593E+02  0.00000000000E+00 0.  1.
         22    1    1    2    0    0  0.18455459028E+02 -0.87752443437E+01  0.43643639014E+02  0.48191037627E+02  0.00000000000E+00 0. -1.
<mgrwt>
<rscale>  0 0.65132908E+02</rscale>
<asrwt>0</asrwt>
<pdfrwt beam="1">  1        2 0.46756150E-01 0.95852991E+02</pdfrwt>
<pdfrwt beam="2">  1       -2 0.17194898E-02 0.95852991E+02</pdfrwt>
<totfact> 0.90355403E+04</totfact>
</mgrwt>
</event>
<event>
 6    1  0.1683416E-002  0.6226556E+02  0.7546771E-02  0.1493357E+00
         -3   -1    0    0    0  501 -0.00000000000E+00  0.00000000000E+00  0.20124847757E+02  0.20124847757E+02  0.00000000000E+00 0.  1.
          3   -1    0    0  501    0  0.00000000000E+00 -0.00000000000E+00 -0.74125806885E+02  0.74125806885E+02  0.00000000000E+00 0. -1.
         23    2    1    2    0    0 -0.11781955422E+02  0.55024515364E+01 -0.35617001975E+02  0.71732632369E+02  0.60892596187E+02 0.  0.
         11    1    3    3    0    0 -0.35658899850E+01  0.26679209550E+02  0.28425462268E+01  0.27066138672E+02  0.00000000000E+00 0.  1.
        -11    1    3    3    0    0 -0.82160654374E+01 -0.21176758013E+02 -0.38459548202E+02  0.44666493696E+02  0.00000000000E+00 0. -1.
         22    1    1    2    0    0  0.11781955422E+02 -0.55024515364E+01 -0.18383957153E+02  0.22518022273E+02  0.00000000000E+00 0.  1.
<mgrwt>
<rscale>  0 0.42092151E+02</rscale>
<asrwt>0</asrwt>
<pdfrwt beam="1">  1        3 0.11403971E-01 0.62265558E+02</pdfrwt>
<pdfrwt beam="2">  1       -3 0.30961303E-02 0.62265558E+02</pdfrwt>
<totfact> 0.51318736E+04</totfact>
</mgrwt>
</event>
<event>
 6    1  0.1683416E-002  0.9826068E+02  0.7546771E-02  0.1364882E+00
          1   -1    0    0  501    0  0.00000000000E+00  0.00000000000E+00  0.43654266591E+01  0.43654266591E+01  0.00000000000E+00 0. -1.
         -1   -1    0    0    0  501 -0.00000000000E+00 -0.00000000000E+00 -0.85617028300E+03  0.85617028300E+03  0.00000000000E+00 0.  1.
         23    2    1    2    0    0  0.20634129755E+02  0.10946206384E+02 -0.72050396861E+03  0.72717338415E+03  0.95444094085E+02 0.  0.
         11    1    3    3    0    0  0.28837382165E+02 -0.14435590147E+02 -0.82014314641E+02  0.88126776175E+02  0.00000000000E+00 0. -1.
        -11    1    3    3    0    0 -0.82032524099E+01  0.25381796531E+02 -0.63848965397E+03  0.63904660798E+03  0.00000000000E+00 0.  1.
         22    1    1    2    0    0 -0.20634129755E+02 -0.10946206384E+02 -0.13130088773E+03  0.13336232551E+03  0.00000000000E+00 0. -1.
<mgrwt>
<rscale>  0 0.68610852E+02</rscale>
<asrwt>0</asrwt>
<pdfrwt beam="1">  1        1 0.67160427E-03 0.98260683E+02</pdfrwt>
<pdfrwt beam="2">  1       -1 0.13171847E+00 0.98260683E+02</pdfrwt>
<totfact> 0.13645297E+04</totfact>
</mgrwt>
</event>
<event>
 6    1  0.1683416E-002  0.1168905E+03  0.7546771E-02  0.1262702E+00
         -2   -1    0    0    0  501 -0.00000000000E+00  0.00000000000E+00  0.14565316531E+03  0.14565316531E+03  0.00000000000E+00 0.  1.
          2   -1    0    0  501    0  0.00000000000E+00 -0.00000000000E+00 -0.81387917806E+02  0.81387917806E+02  0.00000000000E+00 0. -1.
         23    2    1    2    0    0 -0.87594324479E+02  0.75493085944E+01  0.74369711927E+02  0.13854329816E+03  0.77030082906E+02 0.  0.
         11    1    3    3    0    0 -0.41759121541E+02 -0.30969295856E+02  0.14729570032E+02  0.54035930185E+02  0.00000000000E+00 0.  1.
        -11    1    3    3    0    0 -0.45835202938E+02  0.38518604450E+02  0.59640141895E+02  0.84507367977E+02  0.00000000000E+00 0. -1.
         22    1    1    2    0    0  0.87594324479E+02 -0.75493085944E+01 -0.10104464421E+02  0.88497784957E+02  0.00000000000E+00 0. -1.
<mgrwt>
<rscale>  0 0.10885670E+03</rscale>
<asrwt>0</asrwt>
<pdfrwt beam="1">  1        2 0.12521218E-01 0.11689051E+03</pdfrwt>
<pdfrwt beam="2">  1       -2 0.22408179E-01 0.11689051E+03</pdfrwt>
<totfact> 0.77967893E+03</totfact>
</mgrwt>
</event>
<event>
 6    1  0.1683416E-002  0.9374541E+02  0.7546771E-02  0.1383681E+00
         -2   -1    0    0    0  501 -0.00000000000E+00  0.00000000000E+00  0.90982830456E+02  0.90982830456E+02  0.00000000000E+00 0.  1.
          2   -1    0    0  501    0  0.00000000000E+00 -0.00000000000E+00 -0.48195543697E+02  0.48195543697E+02  0.00000000000E+00 0. -1.
         23    2    1    2    0    0 -0.88486172502E+00 -0.19723128074E+02  0.61385277069E+02  0.11205513679E+03  0.91642875771E+02 0.  0.
         11    1    3    3    0    0 -0.24348168477E+02  0.29966241663E+02  0.21899637306E+02  0.44389222360E+02  0.00000000000E+00 0. -1.
        -11    1    3    3    0    0  0.23463306752E+02 -0.49689369737E+02  0.39485639763E+02  0.67665914433E+02  0.00000000000E+00 0.  1.
         22    1    1    2    0    0  0.88486172502E+00  0.19723128074E+02 -0.18597990310E+02  0.27123237360E+02  0.00000000000E+00 0. -1.
<mgrwt>
<rscale>  0 0.63506124E+02</rscale>
<asrwt>0</asrwt>
<pdfrwt beam="1">  1        2 0.74146990E-02 0.93745408E+02</pdfrwt>
<pdfrwt beam="2">  1       -2 0.13997359E-01 0.93745408E+02</pdfrwt>
<totfact> 0.31513461E+04</totfact>
</mgrwt>
</event>
<event>
 6    1  0.1683416E-002  0.9209674E+02  0.7546771E-02  0.1426491E+00
          2   -1    0    0  501    0  0.00000000000E+00  0.00000000000E+00  0.23281384178E+03  0.23281384178E+03  0.00000000000E+00 0. -1.
         -2   -1    0    0    0  501 -0.00000000000E+00 -0.00000000000E+00 -0.12303417097E+02  0.12303417097E+02  0.00000000000E+00 0.  1.
         23    2    1    2    0    0 -0.41567755878E+00 -0.10614282951E+02  0.16843182366E+03  0.19196637483E+03  0.91482096901E+02 0.  0.
         11    1    3    3    0    0  0.31475799473E+02 -0.27705262287E+02  0.13941933089E+03  0.14558865800E+03  0.00000000000E+00 0. -1.
        -11    1    3    3    0    0 -0.31891477032E+02  0.17090979336E+02  0.29012492764E+02  0.46377716830E+02  0.00000000000E+00 0.  1.
         22    1    1    2    0    0  0.41567755878E+00  0.10614282951E+02  0.52078601024E+02  0.53150884048E+02  0.00000000000E+00 0. -1.
<mgrwt>
<rscale>  0 0.53670922E+02</rscale>
<asrwt>0</asrwt>
<pdfrwt beam="1">  1        2 0.35817511E-01 0.92096742E+02</pdfrwt>
<pdfrwt beam="2">  1       -2 0.18928336E-02 0.92096742E+02</pdfrwt>
<totfact> 0.10353480E+05</totfact>
</mgrwt>
</event>
<event>
 6    1  0.1683416E-002  0.9130051E+02  0.7546771E-02  0.1386440E+00
          2   -1    0    0  501    0  0.00000000000E+00  0.00000000000E+00  0.27017018011E+03  0.27017018011E+03  0.00000000000E+00 0. -1.
         -2   -1    0    0    0  501 -0.00000000000E+00 -0.00000000000E+00 -0.13156618133E+02  0.13156618133E+02  0.00000000000E+00 0.  1.
         23    2    1    2    0    0 -0.19923567029E+02 -0.45581653954E+01  0.16030065848E+03  0.18447786756E+03  0.88983465399E+02 0.  0.
         13    1    3    3    0    0 -0.46137284509E+02  0.94392045031E+00  0.14795520289E+03  0.15498478012E+03  0.00000000000E+00 0. -1.
        -13    1    3    3    0    0  0.26213717480E+02 -0.55020858457E+01  0.12345455595E+02  0.29493087438E+02  0.00000000000E+00 0.  1.
         22    1    1    2    0    0  0.19923567029E+02  0.45581653954E+01  0.96712903489E+02  0.98848930678E+02  0.00000000000E+00 0.  1.
<mgrwt>
<rscale>  0 0.62800955E+02</rscale>
<asrwt>0</asrwt>
<pdfrwt beam="1">  1        2 0.41564639E-01 0.91300507E+02</pdfrwt>
<pdfrwt beam="2">  1       -2 0.20240953E-02 0.91300507E+02</pdfrwt>
<totfact> 0.80311368E+04</totfact>
</mgrwt>
</event>
<event>
 6    1  0.1683416E-002  0.9067300E+02  0.7546771E-02  0.1423241E+00
          1   -1    0    0  501    0  0.00000000000E+00  0.00000000000E+00  0.20768891957E+02  0.20768891957E+02  0.00000000000E+00 0. -1.
         -1   -1    0    0    0  501 -0.00000000000E+00 -0.00000000000E+00 -0.13934794846E+03  0.13934794846E+03  0.00000000000E+00 0.  1.
         23    2    1    2    0    0 -0.11684285378E+02  0.54561962801E+00 -0.11743163175E+03  0.14836367875E+03  0.89915364722E+02 0.  0.
         13    1    3    3    0    0 -0.25403129231E+02 -0.32317808345E+02 -0.22258607608E+02  0.46746179775E+02  0.00000000000E+00 0. -1.
        -13    1    3    3    0    0  0.13718843853E+02  0.32863427973E+02 -0.95173024140E+02  0.10161749898E+03  0.00000000000E+00 0.  1.
         22    1    1    2    0    0  0.11684285378E+02 -0.54561962801E+00 -0.11474247588E+01  0.11753161666E+02  0.00000000000E+00 0. -1.
<mgrwt>
<rscale>  0 0.54340957E+02</rscale>
<asrwt>0</asrwt>
<pdfrwt beam="1">  1        1 0.31952143E-02 0.90673001E+02</pdfrwt>
<pdfrwt beam="2">  1       -1 0.21438145E-01 0.90673001E+02</pdfrwt>
<totfact> 0.48253311E+04</totfact>
</mgrwt>
</event>
<event>
 6    1  0.1683416E-002  0.9091940E+02  0.7546771E-02  0.1399405E+00
         -1   -1    0    0    0  501 -0.00000000000E+00  0.00000000000E+00  0.38835686238E+03  0.38835686238E+03  0.00000000000E+00 0.  1.
          1   -1    0    0  501    0  0.00000000000E+00 -0.00000000000E+00 -0.27963527695E+02  0.27963527695E+02  0.00000000000E+00 0. -1.
         23    2    1    2    0    0  0.52838592197E+01  0.15967291829E+02  0.37986300417E+03  0.39059216421E+03  0.89350227898E+02 0.  0.
         11    1    3    3    0    0 -0.70034076512E+00  0.38541062521E+02  0.70510434059E+02  0.80359350972E+02  0.00000000000E+00 0. -1.
        -11    1    3    3    0    0  0.59841999848E+01 -0.22573770692E+02  0.30935257011E+03  0.31023281324E+03  0.00000000000E+00 0.  1.
         22    1    1    2    0    0 -0.52838592197E+01 -0.15967291829E+02 -0.19469669484E+02  0.25728225870E+02  0.00000000000E+00 0. -1.
<mgrwt>
<rscale>  0 0.59626794E+02</rscale>
<asrwt>0</asrwt>
<pdfrwt beam="1">  1        1 0.43020815E-02 0.90919397E+02</pdfrwt>
<pdfrwt beam="2">  1       -1 0.59747206E-01 0.90919397E+02</pdfrwt>
<totfact> 0.55494938E+03</totfact>
</mgrwt>
</event>
<event>
 6    1  0.1683416E-002  0.9607231E+02  0.7546771E-02  0.1414181E+00
         -2   -1    0    0    0  501 -0.00000000000E+00  0.00000000000E+00  0.13577282721E+03  0.13577282721E+03  0.00000000000E+00 0.  1.
          2   -1    0    0  501    0  0.00000000000E+00 -0.00000000000E+00 -0.25661516166E+02  0.25661516166E+02  0.00000000000E+00 0. -1.
         23    2    1    2    0    0 -0.75390188653E+01 -0.84268922979E+01  0.11435682127E+03  0.14935652584E+03  0.95404611638E+02 0.  0.
         11    1    3    3    0    0 -0.44821626054E+02 -0.28069334358E+02  0.52580502033E+02  0.74575967224E+02  0.00000000000E+00 0. -1.
        -11    1    3    3    0    0  0.37282607189E+02  0.19642442060E+02  0.61776319237E+02  0.74780558619E+02  0.00000000000E+00 0.  1.
         22    1    1    2    0    0  0.75390188653E+01  0.84268922979E+01 -0.42455102269E+01  0.12077817532E+02  0.00000000000E+00 0.  1.
<mgrwt>
<rscale>  0 0.56271175E+02</rscale>
<asrwt>0</asrwt>
<pdfrwt beam="1">  1        2 0.39479257E-02 0.96072313E+02</pdfrwt>
<pdfrwt beam="2">  1       -2 0.20888127E-01 0.96072313E+02</pdfrwt>
<totfact> 0.36727300E+04</totfact>
</mgrwt>
</event>
<event>
 6    1  0.1683416E-002  0.9455314E+02  0.7546771E-02  0.1360763E+00
          1   -1    0    0  501    0  0.00000000000E+00  0.00000000000E+00  0.70846654381E+01  0.70846654381E+01  0.00000000000E+00 0. -1.
         -1   -1    0    0    0  501 -0.00000000000E+00 -0.00000000000E+00 -0.53462140447E+03  0.53462140447E+03  0.00000000000E+00 0.  1.
         23    2    1    2    0    0  0.19931538846E+02 -0.19786347557E+02 -0.42514124716E+03  0.43552884756E+03  0.90285830713E+02 0.  0.
         13    1    3    3    0    0  0.18477497187E+01  0.35893771049E+02 -0.16985448417E+03  0.17361544509E+03  0.00000000000E+00 0. -1.
        -13    1    3    3    0    0  0.18083789127E+02 -0.55680118606E+02 -0.25528676299E+03  0.26191340247E+03  0.00000000000E+00 0.  1.
         22    1    1    2    0    0 -0.19931538846E+02  0.19786347557E+02 -0.10239549187E+03  0.10617722235E+03  0.00000000000E+00 0. -1.
<mgrwt>
<rscale>  0 0.69803225E+02</rscale>
<asrwt>0</asrwt>
<pdfrwt beam="1">  1        1 0.10899484E-02 0.94553144E+02</pdfrwt>
<pdfrwt beam="2">  1       -1 0.82249457E-01 0.94553144E+02</pdfrwt>
<totfact> 0.19707481E+04</totfact>
</mgrwt>
</event>
<event>
 6    1  0.1683416E-002  0.9237299E+02  0.7546771E-02  0.1399751E+00
          2   -1    0    0  501    0  0.00000000000E+00  0.00000000000E+00  0.11019884226E+03  0.11019884226E+03  0.00000000000E+00 0. -1.
         -2   -1    0    0    0  501 -0.00000000000E+00 -0.00000000000E+00 -0.27663555369E+02  0.27663555369E+02  0.00000000000E+00 0.  1.
         23    2    1    2    0    0  0.10256125374E+02  0.12214670829E+02  0.59617805434E+02  0.10994112890E+03  0.90985618686E+02 0.  0.
         13    1    3    3    0    0  0.14205542135E+02 -0.34001777848E+02  0.50747923448E+02  0.62715787952E+02  0.00000000000E+00 0. -1.
        -13    1    3    3    0    0 -0.39494167608E+01  0.46216448677E+02  0.88698819856E+01  0.47225340946E+02  0.00000000000E+00 0.  1.
         22    1    1    2    0    0 -0.10256125374E+02 -0.12214670829E+02  0.22917481459E+02  0.27921268732E+02  0.00000000000E+00 0.  1.
<mgrwt>
<rscale>  0 0.59545022E+02</rscale>
<asrwt>0</asrwt>
<pdfrwt beam="1">  1        2 0.16953668E-01 0.92372989E+02</pdfrwt>
<pdfrwt beam="2">  1       -2 0.42559317E-02 0.92372989E+02</pdfrwt>
<totfact> 0.72310745E+04</totfact>
</mgrwt>
</event>
<event>
 6    1  0.1683416E-002  0.8776103E+02  0.7546771E-02  0.1420609E+00
          2   -1    0    0  501    0  0.00000000000E+00  0.00000000000E+00  0.30936089693E+03  0.30936089693E+03  0.00000000000E+00 0. -1.
         -2   -1    0    0    0  501 -0.00000000000E+00 -0.00000000000E+00 -0.82751481739E+01  0.82751481739E+01  0.00000000000E+00 0.  1.
         23    2    1    2    0    0  0.79866036868E+01  0.10799642630E+02  0.26118115104E+03  0.27553147245E+03  0.86727046146E+02 0.  0.
         11    1    3    3    0    0 -0.67764821715E+01 -0.20711637235E+02  0.22224733243E+03  0.22331316442E+03  0.00000000000E+00 0. -1.
        -11    1    3    3    0    0  0.14763085858E+02  0.31511279865E+02  0.38933818607E+02  0.52218308036E+02  0.00000000000E+00 0.  1.
         22    1    1    2    0    0 -0.79866036868E+01 -0.10799642630E+02  0.39904597713E+02  0.42104572650E+02  0.00000000000E+00 0.  1.
<mgrwt>
<rscale>  0 0.54892285E+02</rscale>
<asrwt>0</asrwt>
<pdfrwt beam="1">  1        2 0.47593975E-01 0.87761032E+02</pdfrwt>
<pdfrwt beam="2">  1       -2 0.12731000E-02 0.87761032E+02</pdfrwt>
<totfact> 0.13436616E+05</totfact>
</mgrwt>
</event>
<event>
 6    1  0.1683416E-002  0.9859103E+02  0.7546771E-02  0.1399395E+00
         -4   -1    0    0    0  501 -0.00000000000E+00  0.00000000000E+00  0.37380699758E+03  0.37380699758E+03  0.00000000000E+00 0.  1.
          4   -1    0    0  501    0  0.00000000000E+00 -0.00000000000E+00 -0.83692877887E+01  0.83692877887E+01  0.00000000000E+00 0. -1.
         23    2    1    2    0    0  0.36754389537E+01  0.12669983645E+02  0.32684629319E+03  0.34139228394E+03  0.97704425826E+02 0.  0.
         11    1    3    3    0    0 -0.22787757820E+02 -0.35225702551E+02  0.17588813034E+03  0.18082247211E+03  0.00000000000E+00 0. -1.
        -11    1    3    3    0    0  0.26463196773E+02  0.47895686196E+02  0.15095816285E+03  0.16056981183E+03  0.00000000000E+00 0.  1.
         22    1    1    2    0    0 -0.36754389537E+01 -0.12669983645E+02  0.38591416599E+02  0.40784001424E+02  0.00000000000E+00 0. -1.
<mgrwt>
<rscale>  0 0.59629116E+02</rscale>
<asrwt>0</asrwt>
<pdfrwt beam="1">  1        4 0.12875830E-02 0.98591035E+02</pdfrwt>
<pdfrwt beam="2">  1       -4 0.57508756E-01 0.98591035E+02</pdfrwt>
<totfact> 0.86803660E+03</totfact>
</mgrwt>
</event>
<event>
 6    1  0.1683416E-002  0.9817555E+02  0.7546771E-02  0.1372160E+00
         -1   -1    0    0    0  501 -0.00000000000E+00  0.00000000000E+00  0.42463699872E+02  0.42463699872E+02  0.00000000000E+00 0.  1.
          1   -1    0    0  501    0  0.00000000000E+00 -0.00000000000E+00 -0.11750244145E+03  0.11750244145E+03  0.00000000000E+00 0. -1.
         23    2    1    2    0    0  0.69187098990E+01 -0.19567415026E+02 -0.18719338239E+02  0.99944249734E+02  0.95956694156E+02 0.  0.
         13    1    3    3    0    0  0.38404597467E+01  0.16697162141E+02 -0.49435259103E+02  0.52320064958E+02  0.00000000000E+00 0. -1.
        -13    1    3    3    0    0  0.30782501522E+01 -0.36264577167E+02  0.30715920863E+02  0.47624184776E+02  0.00000000000E+00 0.  1.
         22    1    1    2    0    0 -0.69187098990E+01  0.19567415026E+02 -0.56319403340E+02  0.60021891590E+02  0.00000000000E+00 0.  1.
<mgrwt>
<rscale>  0 0.66570370E+02</rscale>
<asrwt>0</asrwt>
<pdfrwt beam="1">  1        1 0.18077299E-01 0.98175554E+02</pdfrwt>
<pdfrwt beam="2">  1       -1 0.65328769E-02 0.98175554E+02</pdfrwt>
<totfact> 0.30263663E+04</totfact>
</mgrwt>
</event>
<event>
 6    1  0.1683416E-002  0.1142489E+03  0.7546771E-02  0.1282267E+00
          2   -1    0    0  501    0  0.00000000000E+00  0.00000000000E+00  0.49298827280E+03  0.49298827280E+03  0.00000000000E+00 0. -1.
         -2   -1    0    0    0  501 -0.00000000000E+00 -0.00000000000E+00 -0.16396898886E+02  0.16396898886E+02  0.00000000000E+00 0.  1.
         23    2    1    2    0    0 -0.17295953196E+02  0.62234055519E+02  0.27829141300E+03  0.30083037754E+03  0.94236817845E+02 0.  0.
         13    1    3    3    0    0  0.29913584455E+01  0.28914360094E+01  0.20212183751E+03  0.20216465029E+03  0.00000000000E+00 0. -1.
        -13    1    3    3    0    0 -0.20287311642E+02  0.59342619510E+02  0.76169575495E+02  0.98665727256E+02  0.00000000000E+00 0.  1.
         22    1    1    2    0    0  0.17295953196E+02 -0.62234055519E+02  0.19829996091E+03  0.20855479414E+03  0.00000000000E+00 0.  1.
<mgrwt>
<rscale>  0 0.99068355E+02</rscale>
<asrwt>0</asrwt>
<pdfrwt beam="1">  1        2 0.75844338E-01 0.11424888E+03</pdfrwt>
<pdfrwt beam="2">  1       -2 0.25226002E-02 0.11424888E+03</pdfrwt>
<totfact> 0.31796475E+04</totfact>
</mgrwt>
</event>
<event>
 6    1  0.1683416E-002  0.9543345E+02  0.7546771E-02  0.1367137E+00
         -2   -1    0    0    0  501 -0.00000000000E+00  0.00000000000E+00  0.10994847835E+02  0.10994847835E+02  0.00000000000E+00 0. -1.
          2   -1    0    0  501    0  0.00000000000E+00 -0.00000000000E+00 -0.33876422226E+03  0.33876422226E+03  0.00000000000E+00 0.  1.
         23    2    1    2    0    0 -0.16514839657E+02  0.18172831878E+02 -0.23132088088E+03  0.25023367809E+03  0.92220127794E+02 0.  0.
         13    1    3    3    0    0 -0.23854200058E+02  0.53286957352E+02 -0.12355965438E+03  0.13665837286E+03  0.00000000000E+00 0.  1.
        -13    1    3    3    0    0  0.73393604011E+01 -0.35114125474E+02 -0.10776122650E+03  0.11357530522E+03  0.00000000000E+00 0. -1.
         22    1    1    2    0    0  0.16514839657E+02 -0.18172831878E+02 -0.96448493549E+02  0.99525392012E+02  0.00000000000E+00 0.  1.
<mgrwt>
<rscale>  0 0.67969550E+02</rscale>
<asrwt>0</asrwt>
<pdfrwt beam="1">  1        2 0.52117572E-01 0.95433452E+02</pdfrwt>
<pdfrwt beam="2">  1       -2 0.16915151E-02 0.95433452E+02</pdfrwt>
<totfact> 0.82513315E+04</totfact>
</mgrwt>
</event>
<event>
 6    1  0.1683416E-002  0.9053543E+02  0.7546771E-02  0.1410441E+00
          2   -1    0    0  501    0  0.00000000000E+00  0.00000000000E+00  0.35568152428E+03  0.35568152428E+03  0.00000000000E+00 0. -1.
         -2   -1    0    0    0  501 -0.00000000000E+00 -0.00000000000E+00 -0.80765757145E+01  0.80765757145E+01  0.00000000000E+00 0.  1.
         23    2    1    2    0    0 -0.21665417639E+01  0.14155491317E+02  0.26810584635E+03  0.28297951935E+03  0.89395702848E+02 0.  0.
         11    1    3    3    0    0  0.20991472067E+02  0.45458767163E+02  0.17592993849E+03  0.18291660578E+03  0.00000000000E+00 0. -1.
        -11    1    3    3    0    0 -0.23158013831E+02 -0.31303275846E+02  0.92175907855E+02  0.10006291357E+03  0.00000000000E+00 0.  1.
         22    1    1    2    0    0  0.21665417639E+01 -0.14155491317E+02  0.79499102215E+02  0.80778580643E+02  0.00000000000E+00 0.  1.
<mgrwt>
<rscale>  0 0.57095538E+02</rscale>
<asrwt>0</asrwt>
<pdfrwt beam="1">  1        2 0.54720222E-01 0.90535427E+02</pdfrwt>
<pdfrwt beam="2">  1       -2 0.12425504E-02 0.90535427E+02</pdfrwt>
<totfact> 0.12080475E+05</totfact>
</mgrwt>
</event>
<event>
 6    1  0.1683416E-002  0.9441729E+02  0.7546771E-02  0.1389539E+00
          2   -1    0    0  501    0  0.00000000000E+00  0.00000000000E+00  0.13167428895E+03  0.13167428895E+03  0.00000000000E+00 0.  1.
         -2   -1    0    0    0  501 -0.00000000000E+00 -0.00000000000E+00 -0.24654791431E+02  0.24654791431E+02  0.00000000000E+00 0. -1.
         23    2    1    2    0    0  0.57309439677E+01  0.16619578719E+02  0.99622874696E+02  0.13725647844E+03  0.92766209344E+02 0.  0.
         13    1    3    3    0    0  0.78770089428E+01 -0.24975986358E+02 -0.31374954904E+01  0.26375955762E+02  0.00000000000E+00 0. -1.
        -13    1    3    3    0    0 -0.21460649751E+01  0.41595565077E+02  0.10276037019E+03  0.11088052268E+03  0.00000000000E+00 0.  1.
         22    1    1    2    0    0 -0.57309439677E+01 -0.16619578719E+02  0.73966228255E+01  0.19072601940E+02  0.00000000000E+00 0.  1.
<mgrwt>
<rscale>  0 0.62021597E+02</rscale>
<asrwt>0</asrwt>
<pdfrwt beam="1">  1        2 0.20257583E-01 0.94417285E+02</pdfrwt>
<pdfrwt beam="2">  1       -2 0.37930449E-02 0.94417285E+02</pdfrwt>
<totfact> 0.70293903E+04</totfact>
</mgrwt>
</event>
<event>
 6    1  0.1683416E-002  0.9362814E+02  0.7546771E-02  0.1394557E+00
         -4   -1    0    0    0  501 -0.00000000000E+00  0.00000000000E+00  0.24829864384E+03  0.24829864384E+03  0.00000000000E+00 0. -1.
          4   -1    0    0  501    0  0.00000000000E+00 -0.00000000000E+00 -0.12773249121E+02  0.12773249121E+02  0.00000000000E+00 0.  1.
         23    2    1    2    0    0  0.52458345718E+01 -0.15786786748E+02  0.21600936290E+03  0.23542785049E+03  0.92138409531E+02 0.  0.
         11    1    3    3    0    0  0.29010289120E+02 -0.34861774030E+02  0.53731797496E+02  0.70313912034E+02  0.00000000000E+00 0. -1.
        -11    1    3    3    0    0 -0.23764454549E+02  0.19074987282E+02  0.16227756541E+03  0.16511393846E+03  0.00000000000E+00 0.  1.
         22    1    1    2    0    0 -0.52458345718E+01  0.15786786748E+02  0.19516031816E+02  0.25644042467E+02  0.00000000000E+00 0.  1.
<mgrwt>
<rscale>  0 0.60787468E+02</rscale>
<asrwt>0</asrwt>
<pdfrwt beam="1">  1        4 0.19651154E-02 0.93628136E+02</pdfrwt>
<pdfrwt beam="2">  1       -4 0.38199788E-01 0.93628136E+02</pdfrwt>
<totfact> 0.10215126E+04</totfact>
</mgrwt>
</event>
<event>
 6    1  0.1683416E-002  0.9879312E+02  0.7546771E-02  0.1385556E+00
         -1   -1    0    0    0  501 -0.00000000000E+00  0.00000000000E+00  0.38649306492E+02  0.38649306492E+02  0.00000000000E+00 0.  1.
          1   -1    0    0  501    0  0.00000000000E+00 -0.00000000000E+00 -0.86800060462E+02  0.86800060462E+02  0.00000000000E+00 0. -1.
         23    2    1    2    0    0 -0.90742940052E+01  0.13617376425E+02 -0.36324793483E+02  0.10525954046E+03  0.97428458286E+02 0.  0.
         13    1    3    3    0    0  0.32839618115E+02  0.41838195914E+01  0.16647541955E+02  0.37055168566E+02  0.00000000000E+00 0.  1.
        -13    1    3    3    0    0 -0.41913912120E+02  0.94335568334E+01 -0.52972335438E+02  0.68204371894E+02  0.00000000000E+00 0. -1.
         22    1    1    2    0    0  0.90742940052E+01 -0.13617376425E+02 -0.11825960488E+02  0.20189826494E+02  0.00000000000E+00 0. -1.
<mgrwt>
<rscale>  0 0.63025518E+02</rscale>
<asrwt>0</asrwt>
<pdfrwt beam="1">  1        1 0.13353855E-01 0.98793118E+02</pdfrwt>
<pdfrwt beam="2">  1       -1 0.59460473E-02 0.98793118E+02</pdfrwt>
<totfact> 0.51281537E+04</totfact>
</mgrwt>
</event>
<event>
 6    1  0.1683416E-002  0.9745056E+02  0.7546771E-02  0.1402775E+00
         -4   -1    0    0    0  501 -0.00000000000E+00  0.00000000000E+00  0.22806266171E+02  0.22806266171E+02  0.00000000000E+00 0.  1.
          4   -1    0    0  501    0  0.00000000000E+00 -0.00000000000E+00 -0.13431494922E+03  0.13431494922E+03  0.00000000000E+00 0. -1.
         23    2    1    2    0    0 -0.10753919959E+02 -0.72148781338E+01 -0.94518501993E+02  0.13575845543E+03  0.96586281323E+02 0.  0.
         11    1    3    3    0    0  0.48327346685E+01 -0.26495383770E+02 -0.10532425448E+03  0.10871319730E+03  0.00000000000E+00 0. -1.
        -11    1    3    3    0    0 -0.15586654628E+02  0.19280505637E+02  0.10805752490E+02  0.27045258123E+02  0.00000000000E+00 0.  1.
         22    1    1    2    0    0  0.10753919959E+02  0.72148781338E+01 -0.16990181057E+02  0.21362759965E+02  0.00000000000E+00 0. -1.
<mgrwt>
<rscale>  0 0.58837645E+02</rscale>
<asrwt>0</asrwt>
<pdfrwt beam="1">  1        4 0.20663838E-01 0.97450557E+02</pdfrwt>
<pdfrwt beam="2">  1       -4 0.35086564E-02 0.97450557E+02</pdfrwt>
<totfact> 0.13238592E+04</totfact>
</mgrwt>
</event>
<event>
 6    1  0.1683416E-002  0.9160764E+02  0.7546771E-02  0.1397166E+00
          1   -1    0    0  501    0  0.00000000000E+00  0.00000000000E+00  0.15395981747E+02  0.15395981747E+02  0.00000000000E+00 0. -1.
         -1   -1    0    0    0  501 -0.00000000000E+00 -0.00000000000E+00 -0.19452422886E+03  0.19452422886E+03  0.00000000000E+00 0.  1.
         23    2    1    2    0    0 -0.89334876178E+01  0.14507565718E+02 -0.15944281017E+03  0.18388575091E+03  0.90009349564E+02 0.  0.
         13    1    3    3    0    0  0.83466252437E+00 -0.35061249790E+02 -0.99453872551E+02  0.10545643965E+03  0.00000000000E+00 0.  1.
        -13    1    3    3    0    0 -0.97681501421E+01  0.49568815508E+02 -0.59988937620E+02  0.78429311261E+02  0.00000000000E+00 0. -1.
         22    1    1    2    0    0  0.89334876178E+01 -0.14507565718E+02 -0.19685436944E+02  0.26034459698E+02  0.00000000000E+00 0. -1.
<mgrwt>
<rscale>  0 0.60158955E+02</rscale>
<asrwt>0</asrwt>
<pdfrwt beam="1">  1        1 0.23686125E-02 0.91607640E+02</pdfrwt>
<pdfrwt beam="2">  1       -1 0.29926805E-01 0.91607640E+02</pdfrwt>
<totfact> 0.42315506E+04</totfact>
</mgrwt>
</event>
<event>
 6    1  0.1683416E-002  0.9616049E+02  0.7546771E-02  0.1350862E+00
         -2   -1    0    0    0  501 -0.00000000000E+00  0.00000000000E+00  0.34737138651E+03  0.34737138651E+03  0.00000000000E+00 0.  1.
          2   -1    0    0  501    0  0.00000000000E+00 -0.00000000000E+00 -0.12621108999E+02  0.12621108999E+02  0.00000000000E+00 0. -1.
         23    2    1    2    0    0 -0.23675723758E+02  0.20879728674E+02  0.28760392613E+03  0.30325378374E+03  0.90831360559E+02 0.  0.
         13    1    3    3    0    0 -0.16888593500E+02  0.40420768420E+02  0.27616032001E+03  0.27961327840E+03  0.00000000000E+00 0.  1.
        -13    1    3    3    0    0 -0.67871302582E+01 -0.19541039746E+02  0.11443606117E+02  0.23640505334E+02  0.00000000000E+00 0. -1.
         22    1    1    2    0    0  0.23675723758E+02 -0.20879728674E+02  0.47146351385E+02  0.56738711775E+02  0.00000000000E+00 0. -1.
<mgrwt>
<rscale>  0 0.72787585E+02</rscale>
<asrwt>0</asrwt>
<pdfrwt beam="1">  1        2 0.19417093E-02 0.96160486E+02</pdfrwt>
<pdfrwt beam="2">  1       -2 0.53441745E-01 0.96160486E+02</pdfrwt>
<totfact> 0.17042193E+04</totfact>
</mgrwt>
</event>
<event>
 6    1  0.1683416E-002  0.9194505E+02  0.7546771E-02  0.1403837E+00
         -2   -1    0    0    0  501 -0.00000000000E+00  0.00000000000E+00  0.61431863613E+01  0.61431863613E+01  0.00000000000E+00 0.  1.
          2   -1    0    0  501    0  0.00000000000E+00 -0.00000000000E+00 -0.47522014159E+03  0.47522014159E+03  0.00000000000E+00 0. -1.
         23    2    1    2    0    0  0.85587344915E+01  0.12515984903E+02 -0.42217781769E+03  0.43207407034E+03  0.90686221085E+02 0.  0.
         13    1    3    3    0    0  0.38176796256E+02 -0.13985867721E+02 -0.31771949126E+03  0.32031039227E+03  0.00000000000E+00 0. -1.
        -13    1    3    3    0    0 -0.29618061765E+02  0.26501852624E+02 -0.10445832643E+03  0.11176367807E+03  0.00000000000E+00 0.  1.
         22    1    1    2    0    0 -0.85587344915E+01 -0.12515984903E+02 -0.46899137534E+02  0.49289257609E+02  0.00000000000E+00 0. -1.
<mgrwt>
<rscale>  0 0.58592101E+02</rscale>
<asrwt>0</asrwt>
<pdfrwt beam="1">  1        2 0.73110796E-01 0.91945052E+02</pdfrwt>
<pdfrwt beam="2">  1       -2 0.94510553E-03 0.91945052E+02</pdfrwt>
<totfact> 0.13138799E+05</totfact>
</mgrwt>
</event>
<event>
 6    1  0.1683416E-002  0.9593671E+02  0.7546771E-02  0.1417184E+00
          2   -1    0    0  501    0  0.00000000000E+00  0.00000000000E+00  0.12161308289E+03  0.12161308289E+03  0.00000000000E+00 0. -1.
         -2   -1    0    0    0  501 -0.00000000000E+00 -0.00000000000E+00 -0.25829720774E+02  0.25829720774E+02  0.00000000000E+00 0.  1.
         23    2    1    2    0    0  0.82992754513E+01 -0.69723233755E+01  0.67920860714E+02  0.11754614414E+03  0.95322407732E+02 0.  0.
         11    1    3    3    0    0  0.14232121471E+02 -0.11488867730E+02  0.91244461852E+02  0.93059653889E+02  0.00000000000E+00 0. -1.
        -11    1    3    3    0    0 -0.59328460202E+01  0.45165443546E+01 -0.23323601138E+02  0.24486490251E+02  0.00000000000E+00 0.  1.
         22    1    1    2    0    0 -0.82992754513E+01  0.69723233755E+01  0.27862501400E+02  0.29896659521E+02  0.00000000000E+00 0. -1.
<mgrwt>
<rscale>  0 0.55621068E+02</rscale>
<asrwt>0</asrwt>
<pdfrwt beam="1">  1        2 0.18709705E-01 0.95936712E+02</pdfrwt>
<pdfrwt beam="2">  1       -2 0.39738033E-02 0.95936712E+02</pdfrwt>
<totfact> 0.71929277E+04</totfact>
</mgrwt>
</event>
<event>
 6    1  0.1683416E-002  0.9324017E+02  0.7546771E-02  0.1377912E+00
          4   -1    0    0  501    0  0.00000000000E+00  0.00000000000E+00  0.55400768072E+02  0.55400768072E+02  0.00000000000E+00 0. -1.
         -4   -1    0    0    0  501 -0.00000000000E+00 -0.00000000000E+00 -0.33066994721E+03  0.33066994721E+03  0.00000000000E+00 0.  1.
         23    2    1    2    0    0  0.16029865256E+02 -0.15130437706E+02 -0.32155696386E+03  0.33480234551E+03  0.90597145811E+02 0.  0.
         13    1    3    3    0    0  0.21838650671E+02 -0.41633458352E+02 -0.28720674777E+03  0.29102918665E+03  0.00000000000E+00 0.  1.
        -13    1    3    3    0    0 -0.58087854148E+01  0.26503020646E+02 -0.34350216083E+02  0.43773158856E+02  0.00000000000E+00 0. -1.
         22    1    1    2    0    0 -0.16029865256E+02  0.15130437706E+02  0.46287784716E+02  0.51268369774E+02  0.00000000000E+00 0. -1.
<mgrwt>
<rscale>  0 0.65015840E+02</rscale>
<asrwt>0</asrwt>
<pdfrwt beam="1">  1        4 0.85231954E-02 0.93240171E+02</pdfrwt>
<pdfrwt beam="2">  1       -4 0.50872298E-01 0.93240171E+02</pdfrwt>
<totfact> 0.56851675E+02</totfact>
</mgrwt>
</event>
<event>
 6    1  0.1683416E-002  0.8850697E+02  0.7546771E-02  0.1410090E+00
         -2   -1    0    0    0  501 -0.00000000000E+00  0.00000000000E+00  0.28101726996E+02  0.28101726996E+02  0.00000000000E+00 0. -1.
          2   -1    0    0  501    0  0.00000000000E+00 -0.00000000000E+00 -0.11592124635E+03  0.11592124635E+03  0.00000000000E+00 0.  1.
         23    2    1    2    0    0 -0.15317035909E+02  0.17058098201E+01 -0.46618534453E+02  0.10003385500E+03  0.87154822099E+02 0.  0.
         13    1    3    3    0    0  0.53421924865E+01 -0.38776978215E+02 -0.70493808125E+01  0.39772940926E+02  0.00000000000E+00 0. -1.
        -13    1    3    3    0    0 -0.20659228396E+02  0.40482788035E+02 -0.39569153640E+02  0.60260914072E+02  0.00000000000E+00 0.  1.
         22    1    1    2    0    0  0.15317035909E+02 -0.17058098201E+01 -0.41200984906E+02  0.43989118352E+02  0.00000000000E+00 0. -1.
<mgrwt>
<rscale>  0 0.57173655E+02</rscale>
<asrwt>0</asrwt>
<pdfrwt beam="1">  1        2 0.17834038E-01 0.88506974E+02</pdfrwt>
<pdfrwt beam="2">  1       -2 0.43233427E-02 0.88506974E+02</pdfrwt>
<totfact> 0.66289102E+04</totfact>
</mgrwt>
</event>
<event>
 6    1  0.1683416E-002  0.9406112E+02  0.7546771E-02  0.1416706E+00
          2   -1    0    0  501    0  0.00000000000E+00  0.00000000000E+00  0.35589139912E+03  0.35589139912E+03  0.00000000000E+00 0. -1.
         -2   -1    0    0    0  501 -0.00000000000E+00 -0.00000000000E+00 -0.79608944592E+01  0.79608944592E+01  0.00000000000E+00 0.  1.
         23    2    1    2    0    0  0.11867892646E+01  0.11525148016E+02  0.29356689063E+03  0.30826776304E+03  0.93344828168E+02 0.  0.
         11    1    3    3    0    0  0.35301642051E+02  0.35833179891E+02  0.19011361604E+03  0.19665556111E+03  0.00000000000E+00 0. -1.
        -11    1    3    3    0    0 -0.34114852786E+02 -0.24308031875E+02  0.10345327459E+03  0.11161220192E+03  0.00000000000E+00 0.  1.
         22    1    1    2    0    0 -0.11867892646E+01 -0.11525148016E+02  0.54363614030E+02  0.55584530546E+02  0.00000000000E+00 0.  1.
<mgrwt>
<rscale>  0 0.55723944E+02</rscale>
<asrwt>0</asrwt>
<pdfrwt beam="1">  1        2 0.54752511E-01 0.94061121E+02</pdfrwt>
<pdfrwt beam="2">  1       -2 0.12247533E-02 0.94061121E+02</pdfrwt>
<totfact> 0.12395042E+05</totfact>
</mgrwt>
</event>
<event>
 6    1  0.1683416E-002  0.9247119E+02  0.7546771E-02  0.1410735E+00
         -2   -1    0    0    0  501 -0.00000000000E+00  0.00000000000E+00  0.64989626449E+01  0.64989626449E+01  0.00000000000E+00 0.  1.
          2   -1    0    0  501    0  0.00000000000E+00 -0.00000000000E+00 -0.43150642696E+03  0.43150642696E+03  0.00000000000E+00 0. -1.
         23    2    1    2    0    0 -0.33482298833E+01 -0.12952468534E+02 -0.37611403837E+03  0.38731471802E+03  0.91498327067E+02 0.  0.
         13    1    3    3    0    0  0.91326480995E+01 -0.26579941572E+02 -0.36429847376E+03  0.36538100189E+03  0.00000000000E+00 0. -1.
        -13    1    3    3    0    0 -0.12480877983E+02  0.13627473038E+02 -0.11815564608E+02  0.21933716138E+02  0.00000000000E+00 0.  1.
         22    1    1    2    0    0  0.33482298833E+01  0.12952468534E+02 -0.48893425947E+02  0.50690671581E+02  0.00000000000E+00 0. -1.
<mgrwt>
<rscale>  0 0.57030150E+02</rscale>
<asrwt>0</asrwt>
<pdfrwt beam="1">  1        2 0.66385598E-01 0.92471190E+02</pdfrwt>
<pdfrwt beam="2">  1       -2 0.99984051E-03 0.92471190E+02</pdfrwt>
<totfact> 0.13459499E+05</totfact>
</mgrwt>
</event>
<event>
 6    1  0.1683416E-002  0.1103347E+03  0.7546771E-02  0.1336477E+00
          2   -1    0    0  501    0  0.00000000000E+00  0.00000000000E+00  0.43049244659E+02  0.43049244659E+02  0.00000000000E+00 0. -1.
         -2   -1    0    0    0  501 -0.00000000000E+00 -0.00000000000E+00 -0.23811274530E+03  0.23811274530E+03  0.00000000000E+00 0.  1.
         23    2    1    2    0    0  0.18678539156E+02  0.19183851635E+02 -0.21901502943E+03  0.24523729484E+03  0.10703662771E+03 0.  0.
         13    1    3    3    0    0  0.87710989740E+01  0.23359544371E+02  0.98818883859E+00  0.24971523935E+02  0.00000000000E+00 0. -1.
        -13    1    3    3    0    0  0.99074401822E+01 -0.41756927357E+01 -0.22000321827E+03  0.22026577090E+03  0.00000000000E+00 0.  1.
         22    1    1    2    0    0 -0.18678539156E+02 -0.19183851635E+02  0.23951528789E+02  0.35924695126E+02  0.00000000000E+00 0. -1.
<mgrwt>
<rscale>  0 0.77440302E+02</rscale>
<asrwt>0</asrwt>
<pdfrwt beam="1">  1        2 0.66229609E-02 0.11033471E+03</pdfrwt>
<pdfrwt beam="2">  1       -2 0.36632729E-01 0.11033471E+03</pdfrwt>
<totfact> 0.70906080E+03</totfact>
</mgrwt>
</event>
<event>
 6    1  0.1683416E-002  0.7675934E+02  0.7546771E-02  0.1413214E+00
         -2   -1    0    0    0  501 -0.00000000000E+00  0.00000000000E+00  0.14096991170E+02  0.14096991170E+02  0.00000000000E+00 0.  1.
          2   -1    0    0  501    0  0.00000000000E+00 -0.00000000000E+00 -0.17812757801E+03  0.17812757801E+03  0.00000000000E+00 0. -1.
         23    2    1    2    0    0  0.22106419705E+02 -0.42146268555E+01 -0.11484898963E+03  0.13813865257E+03  0.73386238780E+02 0.  0.
         11    1    3    3    0    0  0.20675738010E+02  0.20762500958E+02 -0.10841730364E+03  0.11230707599E+03  0.00000000000E+00 0. -1.
        -11    1    3    3    0    0  0.14306816949E+01 -0.24977127813E+02 -0.64316859902E+01  0.25831576580E+02  0.00000000000E+00 0.  1.
         22    1    1    2    0    0 -0.22106419705E+02  0.42146268555E+01 -0.49181597208E+02  0.54085916611E+02  0.00000000000E+00 0.  1.
<mgrwt>
<rscale>  0 0.56482804E+02</rscale>
<asrwt>0</asrwt>
<pdfrwt beam="1">  1        2 0.27404241E-01 0.76759344E+02</pdfrwt>
<pdfrwt beam="2">  1       -2 0.21687680E-02 0.76759344E+02</pdfrwt>
<totfact> 0.11001010E+05</totfact>
</mgrwt>
</event>
<event>
 6    1  0.1683416E-002  0.1142650E+03  0.7546771E-02  0.1277137E+00
         -2   -1    0    0    0  501 -0.00000000000E+00  0.00000000000E+00  0.38176254629E+03  0.38176254629E+03  0.00000000000E+00 0.  1.
          2   -1    0    0  501    0  0.00000000000E+00 -0.00000000000E+00 -0.24852410771E+02  0.24852410771E+02  0.00000000000E+00 0. -1.
         23    2    1    2    0    0  0.70355171620E+02 -0.10872914426E+02  0.15531551993E+03  0.19281958884E+03  0.89377920453E+02 0.  0.
         13    1    3    3    0    0  0.64473128694E+02  0.10144982051E+02  0.42435774271E+02  0.77849212728E+02  0.00000000000E+00 0. -1.
        -13    1    3    3    0    0  0.58820429256E+01 -0.21017896478E+02  0.11287974566E+03  0.11497037611E+03  0.00000000000E+00 0.  1.
         22    1    1    2    0    0 -0.70355171620E+02  0.10872914426E+02  0.20159461558E+03  0.21379536822E+03  0.00000000000E+00 0.  1.
<mgrwt>
<rscale>  0 0.10151732E+03</rscale>
<asrwt>0</asrwt>
<pdfrwt beam="1">  1        2 0.38234481E-02 0.11426497E+03</pdfrwt>
<pdfrwt beam="2">  1       -2 0.58732695E-01 0.11426497E+03</pdfrwt>
<totfact> 0.57970980E+03</totfact>
</mgrwt>
</event>
<event>
 6    1  0.1683416E-002  0.1052283E+03  0.7546771E-02  0.1303222E+00
          1   -1    0    0  501    0  0.00000000000E+00  0.00000000000E+00  0.14077041821E+03  0.14077041821E+03  0.00000000000E+00 0. -1.
         -1   -1    0    0    0  501 -0.00000000000E+00 -0.00000000000E+00 -0.10704375321E+03  0.10704375321E+03  0.00000000000E+00 0.  1.
         23    2    1    2    0    0 -0.42914957872E+02  0.35862524148E+02 -0.72485251766E+02  0.12777757071E+03  0.89135748193E+02 0.  0.
         11    1    3    3    0    0 -0.27024624241E+02  0.19424754251E+01  0.16156955461E+02  0.31546009826E+02  0.00000000000E+00 0. -1.
        -11    1    3    3    0    0 -0.15890333631E+02  0.33920048723E+02 -0.88642207228E+02  0.96231560886E+02  0.00000000000E+00 0.  1.
         22    1    1    2    0    0  0.42914957872E+02 -0.35862524148E+02  0.10621191677E+03  0.12003660071E+03  0.00000000000E+00 0. -1.
<mgrwt>
<rscale>  0 0.89847200E+02</rscale>
<asrwt>0</asrwt>
<pdfrwt beam="1">  1        1 0.21656987E-01 0.10522830E+03</pdfrwt>
<pdfrwt beam="2">  1       -1 0.16468270E-01 0.10522830E+03</pdfrwt>
<totfact> 0.59507654E+03</totfact>
</mgrwt>
</event>
<event>
 6    1  0.1683416E-002  0.9099516E+02  0.7546771E-02  0.1373562E+00
         -2   -1    0    0    0  501 -0.00000000000E+00  0.00000000000E+00  0.58791663045E+01  0.58791663045E+01  0.00000000000E+00 0.  1.
          2   -1    0    0  501    0  0.00000000000E+00 -0.00000000000E+00 -0.58225326552E+03  0.58225326552E+03  0.00000000000E+00 0. -1.
         23    2    1    2    0    0  0.33771700086E+01  0.25245116172E+02 -0.42519969132E+03  0.43482743266E+03  0.87357870412E+02 0.  0.
         11    1    3    3    0    0  0.30138347835E+02 -0.10764825100E+02 -0.72031778128E+02  0.78821180719E+02  0.00000000000E+00 0.  1.
        -11    1    3    3    0    0 -0.26761177826E+02  0.36009941273E+02 -0.35316791319E+03  0.35600625194E+03  0.00000000000E+00 0. -1.
         22    1    1    2    0    0 -0.33771700086E+01 -0.25245116172E+02 -0.15117440789E+03  0.15330499916E+03  0.00000000000E+00 0. -1.
<mgrwt>
<rscale>  0 0.66186737E+02</rscale>
<asrwt>0</asrwt>
<pdfrwt beam="1">  1        2 0.89577436E-01 0.90995158E+02</pdfrwt>
<pdfrwt beam="2">  1       -2 0.90448702E-03 0.90995158E+02</pdfrwt>
<totfact> 0.11185233E+05</totfact>
</mgrwt>
</event>
<event>
 6    1  0.1683416E-002  0.9306084E+02  0.7546771E-02  0.1404483E+00
         -2   -1    0    0    0  501 -0.00000000000E+00  0.00000000000E+00  0.33854887725E+03  0.33854887725E+03  0.00000000000E+00 0.  1.
          2   -1    0    0  501    0  0.00000000000E+00 -0.00000000000E+00 -0.13983204865E+02  0.13983204865E+02  0.00000000000E+00 0. -1.
         23    2    1    2    0    0  0.12588140761E+02  0.71471509016E+01  0.32498874544E+03  0.33805029892E+03  0.91928107158E+02 0.  0.
         13    1    3    3    0    0  0.42627424425E+02 -0.14225719498E+01  0.28029861641E+03  0.28352501722E+03  0.00000000000E+00 0.  1.
        -13    1    3    3    0    0 -0.30039283664E+02  0.85697228514E+01  0.44690129023E+02  0.54525281704E+02  0.00000000000E+00 0. -1.
         22    1    1    2    0    0 -0.12588140761E+02 -0.71471509016E+01 -0.42307304668E+00  0.14481783200E+02  0.00000000000E+00 0. -1.
<mgrwt>
<rscale>  0 0.58443253E+02</rscale>
<asrwt>0</asrwt>
<pdfrwt beam="1">  1        2 0.21512625E-02 0.93060840E+02</pdfrwt>
<pdfrwt beam="2">  1       -2 0.52084437E-01 0.93060840E+02</pdfrwt>
<totfact> 0.15555180E+04</totfact>
</mgrwt>
</event>
<event>
 6    1  0.1683416E-002  0.9935007E+02  0.7546771E-02  0.1344059E+00
          1   -1    0    0  501    0  0.00000000000E+00  0.00000000000E+00  0.93038063283E+02  0.93038063283E+02  0.00000000000E+00 0. -1.
         -1   -1    0    0    0  501 -0.00000000000E+00 -0.00000000000E+00 -0.46474246673E+02  0.46474246673E+02  0.00000000000E+00 0.  1.
         23    2    1    2    0    0 -0.14400597432E+02  0.28757521707E+02  0.35359395169E+02  0.10545483910E+03  0.94000340438E+02 0.  0.
         13    1    3    3    0    0 -0.26718808036E+02  0.11381546284E+02 -0.26941199086E+02  0.39613918096E+02  0.00000000000E+00 0.  1.
        -13    1    3    3    0    0  0.12318210605E+02  0.17375975423E+02  0.62300594256E+02  0.65840921007E+02  0.00000000000E+00 0. -1.
         22    1    1    2    0    0  0.14400597432E+02 -0.28757521707E+02  0.11204421440E+02  0.34057470853E+02  0.00000000000E+00 0.  1.
<mgrwt>
<rscale>  0 0.74939491E+02</rscale>
<asrwt>0</asrwt>
<pdfrwt beam="1">  1        1 0.14313548E-01 0.99350069E+02</pdfrwt>
<pdfrwt beam="2">  1       -1 0.71498841E-02 0.99350069E+02</pdfrwt>
<totfact> 0.35707704E+04</totfact>
</mgrwt>
</event>
<event>
 6    1  0.1683416E-002  0.9298314E+02  0.7546771E-02  0.1424644E+00
         -4   -1    0    0    0  501 -0.00000000000E+00  0.00000000000E+00  0.13880775945E+04  0.13880775945E+04  0.00000000000E+00 0.  1.
          4   -1    0    0  501    0  0.00000000000E+00 -0.00000000000E+00 -0.38961855226E+01  0.38961855226E+01  0.00000000000E+00 0. -1.
         23    2    1    2    0    0 -0.77017822216E+01  0.73070943755E+01  0.13743888431E+04  0.13775306009E+04  0.92375067910E+02 0.  0.
         11    1    3    3    0    0 -0.31433425789E+02 -0.11511347331E+02  0.20232847678E+03  0.20507896989E+03  0.00000000000E+00 0. -1.
        -11    1    3    3    0    0  0.23731643567E+02  0.18818441706E+02  0.11720603663E+04  0.11724516310E+04  0.00000000000E+00 0.  1.
         22    1    1    2    0    0  0.77017822216E+01 -0.73070943755E+01  0.97925658284E+01  0.14443179120E+02  0.00000000000E+00 0. -1.
<mgrwt>
<rscale>  0 0.54050408E+02</rscale>
<asrwt>0</asrwt>
<pdfrwt beam="1">  1        4 0.59941426E-03 0.92983140E+02</pdfrwt>
<pdfrwt beam="2">  1       -4 0.21355000E+00 0.92983140E+02</pdfrwt>
<totfact> 0.11731411E+03</totfact>
</mgrwt>
</event>
<event>
 6    1  0.1683416E-002  0.9404762E+02  0.7546771E-02  0.1402563E+00
          2   -1    0    0  501    0  0.00000000000E+00  0.00000000000E+00  0.17923883092E+03  0.17923883092E+03  0.00000000000E+00 0. -1.
         -2   -1    0    0    0  501 -0.00000000000E+00 -0.00000000000E+00 -0.17051127883E+02  0.17051127883E+02  0.00000000000E+00 0.  1.
         23    2    1    2    0    0  0.81884552546E+01  0.11912585234E+02  0.12528173227E+03  0.15665397560E+03  0.92930055113E+02 0.  0.
         11    1    3    3    0    0 -0.28623766887E+02 -0.21872989589E+02  0.85520534107E+02  0.92798219047E+02  0.00000000000E+00 0.  1.
        -11    1    3    3    0    0  0.36812222142E+02  0.33785574823E+02  0.39761198161E+02  0.63855756548E+02  0.00000000000E+00 0. -1.
         22    1    1    2    0    0 -0.81884552546E+01 -0.11912585234E+02  0.36905970768E+02  0.39635983207E+02  0.00000000000E+00 0.  1.
<mgrwt>
<rscale>  0 0.58886927E+02</rscale>
<asrwt>0</asrwt>
<pdfrwt beam="1">  1        2 0.27575203E-01 0.94047624E+02</pdfrwt>
<pdfrwt beam="2">  1       -2 0.26232506E-02 0.94047624E+02</pdfrwt>
<totfact> 0.85751307E+04</totfact>
</mgrwt>
</event>
<event>
 6    1  0.1683416E-002  0.9185264E+02  0.7546771E-02  0.1386858E+00
         -1   -1    0    0    0  501 -0.00000000000E+00  0.00000000000E+00  0.12671299602E+02  0.12671299602E+02  0.00000000000E+00 0.  1.
          1   -1    0    0  501    0  0.00000000000E+00 -0.00000000000E+00 -0.25146641227E+03  0.25146641227E+03  0.00000000000E+00 0. -1.
         23    2    1    2    0    0 -0.11012374153E+02  0.16619237331E+02 -0.18048573249E+03  0.20251421594E+03  0.89662905331E+02 0.  0.
         13    1    3    3    0    0 -0.38716840836E+02  0.26121948777E+02 -0.16024320986E+03  0.16691086327E+03  0.00000000000E+00 0. -1.
        -13    1    3    3    0    0  0.27704466683E+02 -0.95027114467E+01 -0.20242522636E+02  0.35603352675E+02  0.00000000000E+00 0.  1.
         22    1    1    2    0    0  0.11012374153E+02 -0.16619237331E+02 -0.58309380177E+02  0.61623495929E+02  0.00000000000E+00 0. -1.
<mgrwt>
<rscale>  0 0.62694867E+02</rscale>
<asrwt>0</asrwt>
<pdfrwt beam="1">  1        1 0.38687139E-01 0.91852643E+02</pdfrwt>
<pdfrwt beam="2">  1       -1 0.19494308E-02 0.91852643E+02</pdfrwt>
<totfact> 0.67538010E+04</totfact>
</mgrwt>
</event>
<event>
 6    1  0.1683416E-002  0.8221868E+02  0.7546771E-02  0.1415153E+00
         -4   -1    0    0    0  501 -0.00000000000E+00  0.00000000000E+00  0.62354721241E+03  0.62354721241E+03  0.00000000000E+00 0.  1.
          4   -1    0    0  501    0  0.00000000000E+00 -0.00000000000E+00 -0.69377309143E+01  0.69377309143E+01  0.00000000000E+00 0. -1.
         23    2    1    2    0    0  0.54511093401E+01 -0.16913456867E+02  0.60169193586E+03  0.60728337476E+03  0.80275350897E+02 0.  0.
         13    1    3    3    0    0 -0.56152985450E+01 -0.46231382551E+02  0.25832058961E+03  0.26248504591E+03  0.00000000000E+00 0. -1.
        -13    1    3    3    0    0  0.11066407885E+02  0.29317925685E+02  0.34337134625E+03  0.34479832884E+03  0.00000000000E+00 0.  1.
         22    1    1    2    0    0 -0.54511093401E+01  0.16913456867E+02  0.14917545638E+02  0.23201568570E+02  0.00000000000E+00 0. -1.
<mgrwt>
<rscale>  0 0.56059716E+02</rscale>
<asrwt>0</asrwt>
<pdfrwt beam="1">  1        4 0.10673437E-02 0.82218681E+02</pdfrwt>
<pdfrwt beam="2">  1       -4 0.95930297E-01 0.82218681E+02</pdfrwt>
<totfact> 0.36121963E+03</totfact>
</mgrwt>
</event>
<event>
 6    1  0.1683416E-002  0.9286697E+02  0.7546771E-02  0.1427057E+00
          2   -1    0    0  501    0  0.00000000000E+00  0.00000000000E+00  0.24654508556E+03  0.24654508556E+03  0.00000000000E+00 0. -1.
         -2   -1    0    0    0  501 -0.00000000000E+00 -0.00000000000E+00 -0.10990598601E+02  0.10990598601E+02  0.00000000000E+00 0.  1.
         23    2    1    2    0    0 -0.36796375697E+01  0.95895492911E+01  0.19966476624E+03  0.22020511704E+03  0.92297212879E+02 0.  0.
         11    1    3    3    0    0  0.40746754306E+02  0.84969536614E+01  0.13837457749E+03  0.14449920382E+03  0.00000000000E+00 0. -1.
        -11    1    3    3    0    0 -0.44426391876E+02  0.10925956297E+01  0.61290188754E+02  0.75705913229E+02  0.00000000000E+00 0.  1.
         22    1    1    2    0    0  0.36796375697E+01 -0.95895492911E+01  0.35889720719E+02  0.37330567121E+02  0.00000000000E+00 0.  1.
<mgrwt>
<rscale>  0 0.53555257E+02</rscale>
<asrwt>0</asrwt>
<pdfrwt beam="1">  1        2 0.37930009E-01 0.92866973E+02</pdfrwt>
<pdfrwt beam="2">  1       -2 0.16908615E-02 0.92866973E+02</pdfrwt>
<totfact> 0.11471203E+05</totfact>
</mgrwt>
</event>
<event>
 6    1  0.1683416E-002  0.9351090E+02  0.7546771E-02  0.1399605E+00
          2   -1    0    0  501    0  0.00000000000E+00  0.00000000000E+00  0.24056684857E+03  0.24056684857E+03  0.00000000000E+00 0.  1.
         -2   -1    0    0    0  501 -0.00000000000E+00 -0.00000000000E+00 -0.13846330380E+02  0.13846330380E+02  0.00000000000E+00 0. -1.
         23    2    1    2    0    0 -0.66552978482E+01 -0.13898734773E+02  0.15472942046E+03  0.18079126666E+03  0.92232427730E+02 0.  0.
         11    1    3    3    0    0  0.27485754852E+02 -0.10479344043E+02  0.85415958600E+01  0.30630739971E+02  0.00000000000E+00 0. -1.
        -11    1    3    3    0    0 -0.34141052700E+02 -0.34193907296E+01  0.14618782460E+03  0.15016052668E+03  0.00000000000E+00 0.  1.
         22    1    1    2    0    0  0.66552978482E+01  0.13898734773E+02  0.71991097727E+02  0.73621912293E+02  0.00000000000E+00 0. -1.
<mgrwt>
<rscale>  0 0.59579558E+02</rscale>
<asrwt>0</asrwt>
<pdfrwt beam="1">  1        2 0.37010281E-01 0.93510901E+02</pdfrwt>
<pdfrwt beam="2">  1       -2 0.21302049E-02 0.93510901E+02</pdfrwt>
<totfact> 0.84585917E+04</totfact>
</mgrwt>
</event>
<event>
 6    1  0.1683416E-002  0.9333357E+02  0.7546771E-02  0.1423771E+00
          2   -1    0    0  501    0  0.00000000000E+00  0.00000000000E+00  0.27463369077E+03  0.27463369077E+03  0.00000000000E+00 0. -1.
         -2   -1    0    0    0  501 -0.00000000000E+00 -0.00000000000E+00 -0.10007249852E+02  0.10007249852E+02  0.00000000000E+00 0.  1.
         23    2    1    2    0    0 -0.42743785157E+01  0.97419365321E+01  0.22450375612E+03  0.24313183952E+03  0.92725289089E+02 0.  0.
         11    1    3    3    0    0  0.19886140992E+02  0.29365196469E+02  0.20106293953E+03  0.20416679216E+03  0.00000000000E+00 0. -1.
        -11    1    3    3    0    0 -0.24160519508E+02 -0.19623259937E+02  0.23440816589E+02  0.38965047361E+02  0.00000000000E+00 0.  1.
         22    1    1    2    0    0  0.42743785157E+01 -0.97419365321E+01  0.40122684799E+02  0.41509101105E+02  0.00000000000E+00 0. -1.
<mgrwt>
<rscale>  0 0.54230988E+02</rscale>
<asrwt>0</asrwt>
<pdfrwt beam="1">  1        2 0.42251331E-01 0.93333568E+02</pdfrwt>
<pdfrwt beam="2">  1       -2 0.15395771E-02 0.93333568E+02</pdfrwt>
<totfact> 0.11720904E+05</totfact>
</mgrwt>
</event>
<event>
 6    1  0.1683416E-002  0.9745876E+02  0.7546771E-02  0.1401137E+00
          1   -1    0    0  501    0  0.00000000000E+00  0.00000000000E+00  0.34425923724E+02  0.34425923724E+02  0.00000000000E+00 0. -1.
         -1   -1    0    0    0  501 -0.00000000000E+00 -0.00000000000E+00 -0.89468383244E+02  0.89468383244E+02  0.00000000000E+00 0.  1.
         23    2    1    2    0    0 -0.39842800369E+01  0.12674602672E+02 -0.51059718901E+02  0.11002411363E+03  0.96548902873E+02 0.  0.
         11    1    3    3    0    0 -0.10799495501E+02  0.20016901140E+01 -0.78783359925E+02  0.79545293183E+02  0.00000000000E+00 0.  1.
        -11    1    3    3    0    0  0.68152154639E+01  0.10672912558E+02  0.27723641025E+02  0.30478820449E+02  0.00000000000E+00 0. -1.
         22    1    1    2    0    0  0.39842800369E+01 -0.12674602672E+02 -0.39827406196E+01  0.13870193335E+02  0.00000000000E+00 0. -1.
<mgrwt>
<rscale>  0 0.59219526E+02</rscale>
<asrwt>0</asrwt>
<pdfrwt beam="1">  1        1 0.52962960E-02 0.97458764E+02</pdfrwt>
<pdfrwt beam="2">  1       -1 0.13764367E-01 0.97458764E+02</pdfrwt>
<totfact> 0.49153304E+04</totfact>
</mgrwt>
</event>
<event>
 6    1  0.1683416E-002  0.9228001E+02  0.7546771E-02  0.1430028E+00
          2   -1    0    0  501    0  0.00000000000E+00  0.00000000000E+00  0.32525111810E+02  0.32525111810E+02  0.00000000000E+00 0. -1.
         -2   -1    0    0    0  501 -0.00000000000E+00 -0.00000000000E+00 -0.81941379860E+02  0.81941379860E+02  0.00000000000E+00 0.  1.
         23    2    1    2    0    0 -0.52467498550E+01 -0.85206670073E+01 -0.48926313169E+02  0.10444799847E+03  0.91735871462E+02 0.  0.
         11    1    3    3    0    0  0.52472471945E+01  0.12989919615E+02  0.23947545885E+02  0.27744487175E+02  0.00000000000E+00 0. -1.
        -11    1    3    3    0    0 -0.10493997050E+02 -0.21510586622E+02 -0.72873859054E+02  0.76703511291E+02  0.00000000000E+00 0.  1.
         22    1    1    2    0    0  0.52467498550E+01  0.85206670073E+01 -0.48995488094E+00  0.10018493204E+02  0.00000000000E+00 0. -1.
<mgrwt>
<rscale>  0 0.52954312E+02</rscale>
<asrwt>0</asrwt>
<pdfrwt beam="1">  1        2 0.50038634E-02 0.92280010E+02</pdfrwt>
<pdfrwt beam="2">  1       -2 0.12606366E-01 0.92280010E+02</pdfrwt>
<totfact> 0.61271498E+04</totfact>
</mgrwt>
</event>
<event>
 6    1  0.1683416E-002  0.9148485E+02  0.7546771E-02  0.1428558E+00
          2   -1    0    0  501    0  0.00000000000E+00  0.00000000000E+00  0.16374875031E+03  0.16374875031E+03  0.00000000000E+00 0. -1.
         -2   -1    0    0    0  501 -0.00000000000E+00 -0.00000000000E+00 -0.20447117843E+02  0.20447117843E+02  0.00000000000E+00 0.  1.
         23    2    1    2    0    0 -0.10488231222E+02 -0.52718136381E+00  0.84743012079E+02  0.12470307081E+03  0.90880123560E+02 0.  0.
         13    1    3    3    0    0  0.21606996981E+02 -0.36694828785E+02  0.32924997136E+02  0.53827764346E+02  0.00000000000E+00 0. -1.
        -13    1    3    3    0    0 -0.32095228203E+02  0.36167647421E+02  0.51818014943E+02  0.70875306461E+02  0.00000000000E+00 0.  1.
         22    1    1    2    0    0  0.10488231222E+02  0.52718136381E+00  0.58558620386E+02  0.59492797345E+02  0.00000000000E+00 0. -1.
<mgrwt>
<rscale>  0 0.53250591E+02</rscale>
<asrwt>0</asrwt>
<pdfrwt beam="1">  1        2 0.25192115E-01 0.91484850E+02</pdfrwt>
<pdfrwt beam="2">  1       -2 0.31457105E-02 0.91484850E+02</pdfrwt>
<totfact> 0.72355693E+04</totfact>
</mgrwt>
</event>
<event>
 6    1  0.1683416E-002  0.9982464E+02  0.7546771E-02  0.1336316E+00
         -2   -1    0    0    0  501 -0.00000000000E+00  0.00000000000E+00  0.45291663000E+02  0.45291663000E+02  0.00000000000E+00 0.  1.
          2   -1    0    0  501    0  0.00000000000E+00 -0.00000000000E+00 -0.11780813414E+03  0.11780813414E+03  0.00000000000E+00 0. -1.
         23    2    1    2    0    0  0.36072650932E+02  0.36338406617E+01 -0.24240115316E+02  0.10272556858E+03  0.93008162574E+02 0.  0.
         11    1    3    3    0    0  0.38224767889E+02 -0.38873882027E+02 -0.25404847100E+02  0.60147467446E+02  0.00000000000E+00 0. -1.
        -11    1    3    3    0    0 -0.21521169571E+01  0.42507722689E+02  0.11647317836E+01  0.42578101129E+02  0.00000000000E+00 0.  1.
         22    1    1    2    0    0 -0.36072650932E+02 -0.36338406617E+01 -0.48276355823E+02  0.60374228564E+02  0.00000000000E+00 0.  1.
<mgrwt>
<rscale>  0 0.77494514E+02</rscale>
<asrwt>0</asrwt>
<pdfrwt beam="1">  1        2 0.18124328E-01 0.99824642E+02</pdfrwt>
<pdfrwt beam="2">  1       -2 0.69679482E-02 0.99824642E+02</pdfrwt>
<totfact> 0.32401552E+04</totfact>
</mgrwt>
</event>
<event>
 6    1  0.1683416E-002  0.9521438E+02  0.7546771E-02  0.1388868E+00
          2   -1    0    0  501    0  0.00000000000E+00  0.00000000000E+00  0.37339218518E+02  0.37339218518E+02  0.00000000000E+00 0. -1.
         -2   -1    0    0    0  501 -0.00000000000E+00 -0.00000000000E+00 -0.20555235951E+03  0.20555235951E+03  0.00000000000E+00 0.  1.
         23    2    1    2    0    0 -0.24070829114E+01 -0.17159943076E+02 -0.19150035829E+03  0.21386482858E+03  0.93624355723E+02 0.  0.
         13    1    3    3    0    0  0.30334337225E+02  0.24602852375E+02 -0.10884473514E+03  0.11564016918E+03  0.00000000000E+00 0. -1.
        -13    1    3    3    0    0 -0.32741420137E+02 -0.41762795452E+02 -0.82655623145E+02  0.98224659399E+02  0.00000000000E+00 0.  1.
         22    1    1    2    0    0  0.24070829114E+01  0.17159943076E+02  0.23287217292E+02  0.29026749452E+02  0.00000000000E+00 0. -1.
<mgrwt>
<rscale>  0 0.62189013E+02</rscale>
<asrwt>0</asrwt>
<pdfrwt beam="1">  1        2 0.57444952E-02 0.95214377E+02</pdfrwt>
<pdfrwt beam="2">  1       -2 0.31623440E-01 0.95214377E+02</pdfrwt>
<totfact> 0.10961404E+04</totfact>
</mgrwt>
</event>
<event>
 6    1  0.1683416E-002  0.8433140E+02  0.7546771E-02  0.1423069E+00
         -2   -1    0    0    0  501 -0.00000000000E+00  0.00000000000E+00  0.84413646053E+01  0.84413646053E+01  0.00000000000E+00 0. -1.
          2   -1    0    0  501    0  0.00000000000E+00 -0.00000000000E+00 -0.38353224719E+03  0.38353224719E+03  0.00000000000E+00 0.  1.
         23    2    1    2    0    0 -0.55053932927E+01  0.13498151639E+02 -0.36404123656E+03  0.37368142411E+03  0.83061876686E+02 0.  0.
         13    1    3    3    0    0 -0.28149600407E+02 -0.25621601377E+02 -0.13729566084E+03  0.14247443611E+03  0.00000000000E+00 0. -1.
        -13    1    3    3    0    0  0.22644207114E+02  0.39119753016E+02 -0.22674557572E+03  0.23120698800E+03  0.00000000000E+00 0.  1.
         22    1    1    2    0    0  0.55053932927E+01 -0.13498151639E+02 -0.11049646029E+02  0.18292187686E+02  0.00000000000E+00 0. -1.
<mgrwt>
<rscale>  0 0.54376877E+02</rscale>
<asrwt>0</asrwt>
<pdfrwt beam="1">  1        2 0.59004970E-01 0.84331399E+02</pdfrwt>
<pdfrwt beam="2">  1       -2 0.12986713E-02 0.84331399E+02</pdfrwt>
<totfact> 0.10370598E+05</totfact>
</mgrwt>
</event>
<event>
 6    1  0.1683416E-002  0.9257277E+02  0.7546771E-02  0.1416348E+00
         -2   -1    0    0    0  501 -0.00000000000E+00  0.00000000000E+00  0.14543519132E+02  0.14543519132E+02  0.00000000000E+00 0.  1.
          2   -1    0    0  501    0  0.00000000000E+00 -0.00000000000E+00 -0.19071276120E+03  0.19071276120E+03  0.00000000000E+00 0. -1.
         23    2    1    2    0    0  0.12154940687E+02  0.12721735385E+01 -0.14824868881E+03  0.17477811925E+03  0.91762499021E+02 0.  0.
         11    1    3    3    0    0  0.40724248749E+02 -0.70212229414E+01 -0.25687221877E+02  0.48657942574E+02  0.00000000000E+00 0.  1.
        -11    1    3    3    0    0 -0.28569308063E+02  0.82933964799E+01 -0.12256146693E+03  0.12612017668E+03  0.00000000000E+00 0. -1.
         22    1    1    2    0    0 -0.12154940687E+02 -0.12721735385E+01 -0.27920553263E+02  0.30478161085E+02  0.00000000000E+00 0. -1.
<mgrwt>
<rscale>  0 0.55801014E+02</rscale>
<asrwt>0</asrwt>
<pdfrwt beam="1">  1        2 0.29340421E-01 0.92572767E+02</pdfrwt>
<pdfrwt beam="2">  1       -2 0.22374648E-02 0.92572767E+02</pdfrwt>
<totfact> 0.10071250E+05</totfact>
</mgrwt>
</event>
<event>
 6    1  0.1683416E-002  0.1056615E+03  0.7546771E-02  0.1382432E+00
          1   -1    0    0  501    0  0.00000000000E+00  0.00000000000E+00  0.57142392507E+01  0.57142392507E+01  0.00000000000E+00 0. -1.
         -1   -1    0    0    0  501 -0.00000000000E+00 -0.00000000000E+00 -0.68878430632E+03  0.68878430632E+03  0.00000000000E+00 0.  1.
         23    2    1    2    0    0 -0.12747308434E+02  0.59576690641E+01 -0.65040603903E+03  0.65893274147E+03  0.10472036332E+03 0.  0.
         11    1    3    3    0    0 -0.25196044311E+02  0.45945448487E+02 -0.20609518123E+03  0.21265241267E+03  0.00000000000E+00 0. -1.
        -11    1    3    3    0    0  0.12448735877E+02 -0.39987779423E+02 -0.44431085779E+03  0.44628032881E+03  0.00000000000E+00 0.  1.
         22    1    1    2    0    0  0.12747308434E+02 -0.59576690641E+01 -0.32664028043E+02  0.35565804096E+02  0.00000000000E+00 0.  1.
<mgrwt>
<rscale>  0 0.63828877E+02</rscale>
<asrwt>0</asrwt>
<pdfrwt beam="1">  1        1 0.87911393E-03 0.10566145E+03</pdfrwt>
<pdfrwt beam="2">  1       -1 0.10596679E+00 0.10566145E+03</pdfrwt>
<totfact> 0.15678560E+04</totfact>
</mgrwt>
</event>
<event>
 6    1  0.1683416E-002  0.9670805E+02  0.7546771E-02  0.1368242E+00
         -2   -1    0    0    0  501 -0.00000000000E+00  0.00000000000E+00  0.70426908982E+03  0.70426908982E+03  0.00000000000E+00 0.  1.
          2   -1    0    0  501    0  0.00000000000E+00 -0.00000000000E+00 -0.51933861205E+01  0.51933861205E+01  0.00000000000E+00 0. -1.
         23    2    1    2    0    0  0.22724034143E+02  0.45158148960E+01  0.59768902132E+03  0.60546231403E+03  0.93891816477E+02 0.  0.
         13    1    3    3    0    0  0.52298730506E+02  0.88186025180E+01  0.20894510192E+03  0.21557128886E+03  0.00000000000E+00 0. -1.
        -13    1    3    3    0    0 -0.29574696363E+02 -0.43027876220E+01  0.38874391940E+03  0.38989102518E+03  0.00000000000E+00 0.  1.
         22    1    1    2    0    0 -0.22724034143E+02 -0.45158148960E+01  0.10138668238E+03  0.10400016190E+03  0.00000000000E+00 0.  1.
<mgrwt>
<rscale>  0 0.67658279E+02</rscale>
<asrwt>0</asrwt>
<pdfrwt beam="1">  1        2 0.79898304E-03 0.96708053E+02</pdfrwt>
<pdfrwt beam="2">  1       -2 0.10834902E+00 0.96708053E+02</pdfrwt>
<totfact> 0.12517334E+04</totfact>
</mgrwt>
</event>
<event>
 6    1  0.1683416E-002  0.9854046E+02  0.7546771E-02  0.1339125E+00
         -2   -1    0    0    0  501 -0.00000000000E+00  0.00000000000E+00  0.48484253632E+03  0.48484253632E+03  0.00000000000E+00 0.  1.
          2   -1    0    0  501    0  0.00000000000E+00 -0.00000000000E+00 -0.10039458663E+02  0.10039458663E+02  0.00000000000E+00 0. -1.
         23    2    1    2    0    0  0.20102984253E+02  0.29737450841E+02  0.39932118029E+03  0.41129992281E+03  0.91770232198E+02 0.  0.
         11    1    3    3    0    0  0.42435279017E+02  0.12015245603E+02  0.85672393685E+02  0.96358072168E+02  0.00000000000E+00 0. -1.
        -11    1    3    3    0    0 -0.22332294764E+02  0.17722205239E+02  0.31364878661E+03  0.31494185065E+03  0.00000000000E+00 0.  1.
         22    1    1    2    0    0 -0.20102984253E+02 -0.29737450841E+02  0.75481897362E+02  0.83582072167E+02  0.00000000000E+00 0. -1.
<mgrwt>
<rscale>  0 0.76554232E+02</rscale>
<asrwt>0</asrwt>
<pdfrwt beam="1">  1        2 0.15445325E-02 0.98540456E+02</pdfrwt>
<pdfrwt beam="2">  1       -2 0.74591141E-01 0.98540456E+02</pdfrwt>
<totfact> 0.11714925E+04</totfact>
</mgrwt>
</event>
<event>
 6    1  0.1683416E-002  0.9616671E+02  0.7546771E-02  0.1388001E+00
         -4   -1    0    0    0  501 -0.00000000000E+00  0.00000000000E+00  0.44120903476E+03  0.44120903476E+03  0.00000000000E+00 0.  1.
          4   -1    0    0  501    0  0.00000000000E+00 -0.00000000000E+00 -0.80365195515E+01  0.80365195515E+01  0.00000000000E+00 0. -1.
         23    2    1    2    0    0  0.48946403732E+01  0.16337437401E+02  0.40543679907E+03  0.41668577368E+03  0.94642308610E+02 0.  0.
         13    1    3    3    0    0  0.29601400342E+02  0.39060520293E-01  0.36690965687E+03  0.36810180757E+03  0.00000000000E+00 0.  1.
        -13    1    3    3    0    0 -0.24706759969E+02  0.16298376881E+02  0.38527142202E+02  0.48583966114E+02  0.00000000000E+00 0. -1.
         22    1    1    2    0    0 -0.48946403732E+01 -0.16337437401E+02  0.27735716131E+02  0.32559780627E+02  0.00000000000E+00 0.  1.
<mgrwt>
<rscale>  0 0.62406642E+02</rscale>
<asrwt>0</asrwt>
<pdfrwt beam="1">  1        4 0.12363880E-02 0.96166709E+02</pdfrwt>
<pdfrwt beam="2">  1       -4 0.67878294E-01 0.96166709E+02</pdfrwt>
<totfact> 0.64695172E+03</totfact>
</mgrwt>
</event>
<event>
 6    1  0.1683416E-002  0.9516430E+02  0.7546771E-02  0.1350958E+00
         -3   -1    0    0    0  501 -0.00000000000E+00  0.00000000000E+00  0.19692830404E+02  0.19692830404E+02  0.00000000000E+00 0.  1.
          3   -1    0    0  501    0  0.00000000000E+00 -0.00000000000E+00 -0.21381783005E+03  0.21381783005E+03  0.00000000000E+00 0. -1.
         23    2    1    2    0    0  0.18202568120E+02 -0.26943762694E+02 -0.12484369252E+03  0.15697831859E+03  0.89436821894E+02 0.  0.
         11    1    3    3    0    0 -0.33312058535E+02 -0.92127802076E+01 -0.23115414379E+02  0.41579934402E+02  0.00000000000E+00 0. -1.
        -11    1    3    3    0    0  0.51514626655E+02 -0.17730982486E+02 -0.10172827814E+03  0.11539838418E+03  0.00000000000E+00 0.  1.
         22    1    1    2    0    0 -0.18202568120E+02  0.26943762694E+02 -0.69281307125E+02  0.76532341864E+02  0.00000000000E+00 0. -1.
<mgrwt>
<rscale>  0 0.72757929E+02</rscale>
<asrwt>0</asrwt>
<pdfrwt beam="1">  1        3 0.32895052E-01 0.95164305E+02</pdfrwt>
<pdfrwt beam="2">  1       -3 0.30296661E-02 0.95164305E+02</pdfrwt>
<totfact> 0.94828945E+03</totfact>
</mgrwt>
</event>
<event>
 6    1  0.1683416E-002  0.1441756E+03  0.7546771E-02  0.1220256E+00
         -4   -1    0    0    0  501 -0.00000000000E+00  0.00000000000E+00  0.47482644909E+02  0.47482644909E+02  0.00000000000E+00 0.  1.
          4   -1    0    0  501    0  0.00000000000E+00 -0.00000000000E+00 -0.34222984548E+03  0.34222984548E+03  0.00000000000E+00 0. -1.
         23    2    1    2    0    0  0.93601220871E+02 -0.59189240702E+02 -0.16964811811E+03  0.22263665373E+03  0.92314900434E+02 0.  0.
         13    1    3    3    0    0  0.66530971711E+02 -0.55865953827E+02 -0.50669764271E+02  0.10057236203E+03  0.00000000000E+00 0.  1.
        -13    1    3    3    0    0  0.27070249161E+02 -0.33232868754E+01 -0.11897835383E+03  0.12206429169E+03  0.00000000000E+00 0. -1.
         22    1    1    2    0    0 -0.93601220871E+02  0.59189240702E+02 -0.12509908247E+03  0.16707583667E+03  0.00000000000E+00 0.  1.
<mgrwt>
<rscale>  0 0.13497404E+03</rscale>
<asrwt>0</asrwt>
<pdfrwt beam="1">  1        4 0.52650745E-01 0.14417557E+03</pdfrwt>
<pdfrwt beam="2">  1       -4 0.73050224E-02 0.14417557E+03</pdfrwt>
<totfact> 0.75033133E+02</totfact>
</mgrwt>
</event>
<event>
 6    1  0.1683416E-002  0.9329116E+02  0.7546771E-02  0.1396597E+00
          4   -1    0    0  501    0  0.00000000000E+00  0.00000000000E+00  0.77027942169E+02  0.77027942169E+02  0.00000000000E+00 0. -1.
         -4   -1    0    0    0  501 -0.00000000000E+00 -0.00000000000E+00 -0.54725646669E+02  0.54725646669E+02  0.00000000000E+00 0.  1.
         23    2    1    2    0    0  0.12929295107E+02 -0.98900912486E+01 -0.11732775790E+02  0.94026057053E+02  0.91860006534E+02 0.  0.
         13    1    3    3    0    0  0.49077602695E+02  0.12633363635E+02 -0.74027555301E+01  0.51215366370E+02  0.00000000000E+00 0. -1.
        -13    1    3    3    0    0 -0.36148307588E+02 -0.22523454883E+02 -0.43300202597E+01  0.42810690683E+02  0.00000000000E+00 0.  1.
         22    1    1    2    0    0 -0.12929295107E+02  0.98900912486E+01  0.34035071289E+02  0.37727531785E+02  0.00000000000E+00 0.  1.
<mgrwt>
<rscale>  0 0.60295117E+02</rscale>
<asrwt>0</asrwt>
<pdfrwt beam="1">  1        4 0.11850453E-01 0.93291165E+02</pdfrwt>
<pdfrwt beam="2">  1       -4 0.84193302E-02 0.93291165E+02</pdfrwt>
<totfact> 0.84468191E+03</totfact>
</mgrwt>
</event>
<event>
 6    1  0.1683416E-002  0.9561799E+02  0.7546771E-02  0.1372205E+00
          2   -1    0    0  501    0  0.00000000000E+00  0.00000000000E+00  0.19213264380E+03  0.19213264380E+03  0.00000000000E+00 0. -1.
         -2   -1    0    0    0  501 -0.00000000000E+00 -0.00000000000E+00 -0.35184309746E+02  0.35184309746E+02  0.00000000000E+00 0.  1.
         23    2    1    2    0    0  0.20993083056E+02 -0.79511198846E+01  0.32696811763E+02  0.10105385270E+03  0.92945520616E+02 0.  0.
         13    1    3    3    0    0 -0.96511626268E+01  0.32276218037E+02  0.37316484345E+02  0.50273444230E+02  0.00000000000E+00 0. -1.
        -13    1    3    3    0    0  0.30644245683E+02 -0.40227337922E+02 -0.46196725819E+01  0.50780408471E+02  0.00000000000E+00 0.  1.
         22    1    1    2    0    0 -0.20993083056E+02  0.79511198846E+01  0.12425152229E+03  0.12626310084E+03  0.00000000000E+00 0. -1.
<mgrwt>
<rscale>  0 0.66558107E+02</rscale>
<asrwt>0</asrwt>
<pdfrwt beam="1">  1        2 0.29558868E-01 0.95617988E+02</pdfrwt>
<pdfrwt beam="2">  1       -2 0.54129708E-02 0.95617988E+02</pdfrwt>
<totfact> 0.27509533E+04</totfact>
</mgrwt>
</event>
<event>
 6    1  0.1683416E-002  0.9144488E+02  0.7546771E-02  0.1412940E+00
         -2   -1    0    0    0  501 -0.00000000000E+00  0.00000000000E+00  0.22217181022E+03  0.22217181022E+03  0.00000000000E+00 0.  1.
          2   -1    0    0  501    0  0.00000000000E+00 -0.00000000000E+00 -0.14291712551E+02  0.14291712551E+02  0.00000000000E+00 0. -1.
         23    2    1    2    0    0 -0.10775414597E+01  0.13323526068E+02  0.20224421126E+03  0.22195694984E+03  0.90462639548E+02 0.  0.
         11    1    3    3    0    0 -0.24309181826E+02  0.38073622070E+02  0.16709154523E+03  0.17308992318E+03  0.00000000000E+00 0.  1.
        -11    1    3    3    0    0  0.23231640366E+02 -0.24750096002E+02  0.35152666029E+02  0.48867026666E+02  0.00000000000E+00 0. -1.
         22    1    1    2    0    0  0.10775414597E+01 -0.13323526068E+02  0.56358864114E+01  0.14506572928E+02  0.00000000000E+00 0. -1.
<mgrwt>
<rscale>  0 0.56542925E+02</rscale>
<asrwt>0</asrwt>
<pdfrwt beam="1">  1        2 0.21987252E-02 0.91444883E+02</pdfrwt>
<pdfrwt beam="2">  1       -2 0.34180276E-01 0.91444883E+02</pdfrwt>
<totfact> 0.33523324E+04</totfact>
</mgrwt>
</event>
<event>
 6    1  0.1683416E-002  0.9122604E+02  0.7546771E-02  0.1398306E+00
          2   -1    0    0  501    0  0.00000000000E+00  0.00000000000E+00  0.16940577102E+03  0.16940577102E+03  0.00000000000E+00 0. -1.
         -2   -1    0    0    0  501 -0.00000000000E+00 -0.00000000000E+00 -0.17410424885E+02  0.17410424885E+02  0.00000000000E+00 0.  1.
         23    2    1    2    0    0 -0.15987696093E+02 -0.56074156368E+01  0.12157017069E+03  0.15199176716E+03  0.89638949943E+02 0.  0.
         11    1    3    3    0    0 -0.29779925663E+02 -0.33276555089E+02  0.26287557368E+02  0.51819000024E+02  0.00000000000E+00 0.  1.
        -11    1    3    3    0    0  0.13792229570E+02  0.27669139453E+02  0.95282613324E+02  0.10017276714E+03  0.00000000000E+00 0. -1.
         22    1    1    2    0    0  0.15987696093E+02  0.56074156368E+01  0.30425175441E+02  0.34824428740E+02  0.00000000000E+00 0.  1.
<mgrwt>
<rscale>  0 0.59887162E+02</rscale>
<asrwt>0</asrwt>
<pdfrwt beam="1">  1        2 0.26062425E-01 0.91226043E+02</pdfrwt>
<pdfrwt beam="2">  1       -2 0.26785270E-02 0.91226043E+02</pdfrwt>
<totfact> 0.88041988E+04</totfact>
</mgrwt>
</event>
<event>
 6    1  0.1683416E-002  0.9630437E+02  0.7546771E-02  0.1372984E+00
         -2   -1    0    0    0  501 -0.00000000000E+00  0.00000000000E+00  0.51538155261E+03  0.51538155261E+03  0.00000000000E+00 0.  1.
          2   -1    0    0  501    0  0.00000000000E+00 -0.00000000000E+00 -0.70598554369E+01  0.70598554369E+01  0.00000000000E+00 0. -1.
         23    2    1    2    0    0 -0.21543665426E+02  0.25239489958E+01  0.45065398802E+03  0.46082919727E+03  0.93829804938E+02 0.  0.
         11    1    3    3    0    0  0.82237950059E+01 -0.36070324598E+02  0.30502174000E+03  0.30725715776E+03  0.00000000000E+00 0. -1.
        -11    1    3    3    0    0 -0.29767460432E+02  0.38594273594E+02  0.14563224802E+03  0.15357203951E+03  0.00000000000E+00 0.  1.
         22    1    1    2    0    0  0.21543665426E+02 -0.25239489958E+01  0.57667709154E+02  0.61612210783E+02  0.00000000000E+00 0.  1.
<mgrwt>
<rscale>  0 0.66344426E+02</rscale>
<asrwt>0</asrwt>
<pdfrwt beam="1">  1        2 0.10861320E-02 0.96304372E+02</pdfrwt>
<pdfrwt beam="2">  1       -2 0.79289440E-01 0.96304372E+02</pdfrwt>
<totfact> 0.16562147E+04</totfact>
</mgrwt>
</event>
<event>
 6    1  0.1683416E-002  0.9862558E+02  0.7546771E-02  0.1334414E+00
          2   -1    0    0  501    0  0.00000000000E+00  0.00000000000E+00  0.12456102278E+03  0.12456102278E+03  0.00000000000E+00 0. -1.
         -2   -1    0    0    0  501 -0.00000000000E+00 -0.00000000000E+00 -0.37965072859E+02  0.37965072859E+02  0.00000000000E+00 0.  1.
         23    2    1    2    0    0 -0.54488950940E+01 -0.38478258933E+02  0.60187348316E+02  0.11554012851E+03  0.90646221823E+02 0.  0.
         11    1    3    3    0    0 -0.66136234363E+01  0.28741006383E+02  0.29238464904E+02  0.41529186036E+02  0.00000000000E+00 0. -1.
        -11    1    3    3    0    0  0.11647283423E+01 -0.67219265315E+02  0.30948883412E+02  0.74010942476E+02  0.00000000000E+00 0.  1.
         22    1    1    2    0    0  0.54488950940E+01  0.38478258933E+02  0.26408601605E+02  0.46985967128E+02  0.00000000000E+00 0. -1.
<mgrwt>
<rscale>  0 0.78140085E+02</rscale>
<asrwt>0</asrwt>
<pdfrwt beam="1">  1        2 0.19163234E-01 0.98625577E+02</pdfrwt>
<pdfrwt beam="2">  1       -2 0.58407805E-02 0.98625577E+02</pdfrwt>
<totfact> 0.39650866E+04</totfact>
</mgrwt>
</event>
<event>
 6    1  0.1683416E-002  0.9959900E+02  0.7546771E-02  0.1357424E+00
          4   -1    0    0  501    0  0.00000000000E+00  0.00000000000E+00  0.22966813294E+03  0.22966813294E+03  0.00000000000E+00 0. -1.
         -4   -1    0    0    0  501 -0.00000000000E+00 -0.00000000000E+00 -0.18870641440E+02  0.18870641440E+02  0.00000000000E+00 0.  1.
         23    2    1    2    0    0 -0.14521656889E+02  0.20861795497E+02  0.12956871394E+03  0.16342586505E+03  0.96300927857E+02 0.  0.
         13    1    3    3    0    0 -0.17134145339E+01  0.23844670237E+02  0.14279024005E+03  0.14477761133E+03  0.00000000000E+00 0. -1.
        -13    1    3    3    0    0 -0.12808242355E+02 -0.29828747409E+01 -0.13221526117E+02  0.18648253720E+02  0.00000000000E+00 0.  1.
         22    1    1    2    0    0  0.14521656889E+02 -0.20861795497E+02  0.81228777563E+02  0.85112909330E+02  0.00000000000E+00 0. -1.
<mgrwt>
<rscale>  0 0.70791014E+02</rscale>
<asrwt>0</asrwt>
<pdfrwt beam="1">  1        4 0.35333557E-01 0.99599005E+02</pdfrwt>
<pdfrwt beam="2">  1       -4 0.29031758E-02 0.99599005E+02</pdfrwt>
<totfact> 0.66259181E+03</totfact>
</mgrwt>
</event>
<event>
 6    1  0.1683416E-002  0.9411584E+02  0.7546771E-02  0.1407517E+00
         -2   -1    0    0    0  501 -0.00000000000E+00  0.00000000000E+00  0.10487163222E+02  0.10487163222E+02  0.00000000000E+00 0.  1.
          2   -1    0    0  501    0  0.00000000000E+00 -0.00000000000E+00 -0.29532721656E+03  0.29532721656E+03  0.00000000000E+00 0. -1.
         23    2    1    2    0    0 -0.97200097010E+01 -0.91416283434E+01 -0.21479127639E+03  0.23450604150E+03  0.93165139011E+02 0.  0.
         13    1    3    3    0    0 -0.20735396399E+01  0.95006736715E+01 -0.21412478487E+03  0.21434548248E+03  0.00000000000E+00 0. -1.
        -13    1    3    3    0    0 -0.76464700610E+01 -0.18642302015E+02 -0.66649152646E+00  0.20160559014E+02  0.00000000000E+00 0.  1.
         22    1    1    2    0    0  0.97200097010E+01  0.91416283434E+01 -0.70048776945E+02  0.71308338284E+02  0.00000000000E+00 0. -1.
<mgrwt>
<rscale>  0 0.57751619E+02</rscale>
<asrwt>0</asrwt>
<pdfrwt beam="1">  1        2 0.45434950E-01 0.94115839E+02</pdfrwt>
<pdfrwt beam="2">  1       -2 0.16134099E-02 0.94115839E+02</pdfrwt>
<totfact> 0.10172164E+05</totfact>
</mgrwt>
</event>
<event>
 6    1  0.1683416E-002  0.9767915E+02  0.7546771E-02  0.1342836E+00
         -2   -1    0    0    0  501 -0.00000000000E+00  0.00000000000E+00  0.11460195233E+02  0.11460195233E+02  0.00000000000E+00 0.  1.
          2   -1    0    0  501    0  0.00000000000E+00 -0.00000000000E+00 -0.38157081945E+03  0.38157081945E+03  0.00000000000E+00 0. -1.
         23    2    1    2    0    0 -0.31857090026E+02  0.13400503312E+02 -0.27600710438E+03  0.29278172481E+03  0.91360653685E+02 0.  0.
         13    1    3    3    0    0 -0.41168363286E+02  0.11600514957E+02 -0.46885055917E+02  0.63463489908E+02  0.00000000000E+00 0.  1.
        -13    1    3    3    0    0  0.93112732603E+01  0.17999883550E+01 -0.22912204846E+03  0.22931823490E+03  0.00000000000E+00 0. -1.
         22    1    1    2    0    0  0.31857090026E+02 -0.13400503312E+02 -0.94103519838E+02  0.10024928987E+03  0.00000000000E+00 0.  1.
<mgrwt>
<rscale>  0 0.75335088E+02</rscale>
<asrwt>0</asrwt>
<pdfrwt beam="1">  1        2 0.58703200E-01 0.97679152E+02</pdfrwt>
<pdfrwt beam="2">  1       -2 0.17631071E-02 0.97679152E+02</pdfrwt>
<totfact> 0.68836248E+04</totfact>
</mgrwt>
</event>
<event>
 6    1  0.1683416E-002  0.9073536E+02  0.7546771E-02  0.1431616E+00
          4   -1    0    0  501    0  0.00000000000E+00  0.00000000000E+00  0.41009918494E+01  0.41009918494E+01  0.00000000000E+00 0. -1.
         -4   -1    0    0    0  501 -0.00000000000E+00 -0.00000000000E+00 -0.91918446244E+03  0.91918446244E+03  0.00000000000E+00 0.  1.
         23    2    1    2    0    0 -0.93827086704E+01 -0.41912804973E+01 -0.90245154707E+03  0.90700148837E+03  0.90151555971E+02 0.  0.
         13    1    3    3    0    0 -0.33376223640E+02 -0.36572101547E+02 -0.43243601289E+03  0.43526129642E+03  0.00000000000E+00 0. -1.
        -13    1    3    3    0    0  0.23993514970E+02  0.32380821050E+02 -0.47001553418E+03  0.47174019196E+03  0.00000000000E+00 0.  1.
         22    1    1    2    0    0  0.93827086704E+01  0.41912804973E+01 -0.12631923520E+02  0.16283965918E+02  0.00000000000E+00 0. -1.
<mgrwt>
<rscale>  0 0.52637040E+02</rscale>
<asrwt>0</asrwt>
<pdfrwt beam="1">  1        4 0.63092268E-03 0.90735357E+02</pdfrwt>
<pdfrwt beam="2">  1       -4 0.14141280E+00 0.90735357E+02</pdfrwt>
<totfact> 0.32396109E+03</totfact>
</mgrwt>
</event>
<event>
 6    1  0.1683416E-002  0.9144912E+02  0.7546771E-02  0.1430955E+00
          2   -1    0    0  501    0  0.00000000000E+00  0.00000000000E+00  0.25636954375E+02  0.25636954375E+02  0.00000000000E+00 0. -1.
         -2   -1    0    0    0  501 -0.00000000000E+00 -0.00000000000E+00 -0.10093963318E+03  0.10093963318E+03  0.00000000000E+00 0.  1.
         23    2    1    2    0    0  0.75157609985E+01  0.68044960328E+01 -0.69782318393E+02  0.11503266237E+03  0.90885387284E+02 0.  0.
         11    1    3    3    0    0 -0.87828764146E+01  0.47723893545E+01 -0.89109859821E+02  0.89668733322E+02  0.00000000000E+00 0.  1.
        -11    1    3    3    0    0  0.16298637413E+02  0.20321066783E+01  0.19327541428E+02  0.25363929047E+02  0.00000000000E+00 0. -1.
         22    1    1    2    0    0 -0.75157609985E+01 -0.68044960328E+01 -0.55203604150E+01  0.11543925189E+02  0.00000000000E+00 0.  1.
<mgrwt>
<rscale>  0 0.52768817E+02</rscale>
<asrwt>0</asrwt>
<pdfrwt beam="1">  1        2 0.39441468E-02 0.91449119E+02</pdfrwt>
<pdfrwt beam="2">  1       -2 0.15529174E-01 0.91449119E+02</pdfrwt>
<totfact> 0.59646805E+04</totfact>
</mgrwt>
</event>
<event>
 6    1  0.1683416E-002  0.8808424E+02  0.7546771E-02  0.1400143E+00
         -2   -1    0    0    0  501 -0.00000000000E+00  0.00000000000E+00  0.12415403104E+04  0.12415403104E+04  0.00000000000E+00 0.  1.
          2   -1    0    0  501    0  0.00000000000E+00 -0.00000000000E+00 -0.27428068783E+01  0.27428068783E+01  0.00000000000E+00 0. -1.
         23    2    1    2    0    0  0.16451809967E+02  0.79696076812E+01  0.11622500724E+04  0.11655831433E+04  0.86166445770E+02 0.  0.
         11    1    3    3    0    0  0.20685136885E+02 -0.14277534791E+02  0.10794325991E+04  0.10797251775E+04  0.00000000000E+00 0.  1.
        -11    1    3    3    0    0 -0.42333269181E+01  0.22247142473E+02  0.82817473295E+02  0.85857965780E+02  0.00000000000E+00 0. -1.
         22    1    1    2    0    0 -0.16451809967E+02 -0.79696076812E+01  0.76547431060E+02  0.78699973949E+02  0.00000000000E+00 0.  1.
<mgrwt>
<rscale>  0 0.59452576E+02</rscale>
<asrwt>0</asrwt>
<pdfrwt beam="1">  1        2 0.42197128E-03 0.88084239E+02</pdfrwt>
<pdfrwt beam="2">  1       -2 0.19100575E+00 0.88084239E+02</pdfrwt>
<totfact> 0.71490417E+03</totfact>
</mgrwt>
</event>
<event>
 6    1  0.1683416E-002  0.1044691E+03  0.7546771E-02  0.1307565E+00
         -1   -1    0    0    0  501 -0.00000000000E+00  0.00000000000E+00  0.33191692777E+03  0.33191692777E+03  0.00000000000E+00 0.  1.
          1   -1    0    0  501    0  0.00000000000E+00 -0.00000000000E+00 -0.22597635222E+02  0.22597635222E+02  0.00000000000E+00 0. -1.
         23    2    1    2    0    0 -0.43187830988E+02 -0.30363760628E+02  0.26746370563E+03  0.28714218838E+03  0.90147966220E+02 0.  0.
         11    1    3    3    0    0  0.69088397719E+01  0.18526484191E+02  0.14286609832E+03  0.14422789166E+03  0.00000000000E+00 0.  1.
        -11    1    3    3    0    0 -0.50096670760E+02 -0.48890244819E+02  0.12459760731E+03  0.14291429672E+03  0.00000000000E+00 0. -1.
         22    1    1    2    0    0  0.43187830988E+02  0.30363760628E+02  0.41855586924E+02  0.67372374618E+02  0.00000000000E+00 0.  1.
<mgrwt>
<rscale>  0 0.88081766E+02</rscale>
<asrwt>0</asrwt>
<pdfrwt beam="1">  1        1 0.34765595E-02 0.10446915E+03</pdfrwt>
<pdfrwt beam="2">  1       -1 0.51064139E-01 0.10446915E+03</pdfrwt>
<totfact> 0.10044671E+04</totfact>
</mgrwt>
</event>
<event>
 6    1  0.1683416E-002  0.9750855E+02  0.7546771E-02  0.1335307E+00
          4   -1    0    0  501    0  0.00000000000E+00  0.00000000000E+00  0.19600915749E+03  0.19600915749E+03  0.00000000000E+00 0. -1.
         -4   -1    0    0    0  501 -0.00000000000E+00 -0.00000000000E+00 -0.29406590109E+02  0.29406590109E+02  0.00000000000E+00 0.  1.
         23    2    1    2    0    0 -0.43660314729E+01 -0.39349525717E+02  0.15677243212E+03  0.18462262362E+03  0.89109316431E+02 0.  0.
         11    1    3    3    0    0 -0.28871494546E+02 -0.12429752841E+02  0.14183089836E+03  0.14527238444E+03  0.00000000000E+00 0. -1.
        -11    1    3    3    0    0  0.24505463073E+02 -0.26919772876E+02  0.14941533762E+02  0.39350239177E+02  0.00000000000E+00 0.  1.
         22    1    1    2    0    0  0.43660314729E+01  0.39349525717E+02  0.98301352668E+01  0.40793123983E+02  0.00000000000E+00 0. -1.
<mgrwt>
<rscale>  0 0.77836115E+02</rscale>
<asrwt>0</asrwt>
<pdfrwt beam="1">  1        4 0.30155254E-01 0.97508552E+02</pdfrwt>
<pdfrwt beam="2">  1       -4 0.45240909E-02 0.97508552E+02</pdfrwt>
<totfact> 0.44350667E+03</totfact>
</mgrwt>
</event>
<event>
 6    1  0.1683416E-002  0.9451936E+02  0.7546771E-02  0.1366067E+00
         -2   -1    0    0    0  501 -0.00000000000E+00  0.00000000000E+00  0.59178440313E+01  0.59178440313E+01  0.00000000000E+00 0.  1.
          2   -1    0    0  501    0  0.00000000000E+00 -0.00000000000E+00 -0.61302766835E+03  0.61302766835E+03  0.00000000000E+00 0. -1.
         23    2    1    2    0    0  0.49875570108E+01 -0.25241132353E+02 -0.49172658496E+03  0.50072841374E+03  0.90950093337E+02 0.  0.
         13    1    3    3    0    0 -0.35855842382E+02 -0.30308960123E+02 -0.16943088196E+03  0.17581552337E+03  0.00000000000E+00 0.  1.
        -13    1    3    3    0    0  0.40843399393E+02  0.50678277699E+01 -0.32229570300E+03  0.32491289036E+03  0.00000000000E+00 0. -1.
         22    1    1    2    0    0 -0.49875570108E+01  0.25241132353E+02 -0.11538323935E+03  0.11821709864E+03  0.00000000000E+00 0. -1.
<mgrwt>
<rscale>  0 0.68272697E+02</rscale>
<asrwt>0</asrwt>
<pdfrwt beam="1">  1        2 0.94311979E-01 0.94519363E+02</pdfrwt>
<pdfrwt beam="2">  1       -2 0.91043726E-03 0.94519363E+02</pdfrwt>
<totfact> 0.10517916E+05</totfact>
</mgrwt>
</event>
<event>
 6    1  0.1683416E-002  0.9431979E+02  0.7546771E-02  0.1412565E+00
         -4   -1    0    0    0  501 -0.00000000000E+00  0.00000000000E+00  0.44853775521E+03  0.44853775521E+03  0.00000000000E+00 0.  1.
          4   -1    0    0  501    0  0.00000000000E+00 -0.00000000000E+00 -0.64607263154E+01  0.64607263154E+01  0.00000000000E+00 0. -1.
         23    2    1    2    0    0  0.61808246708E+01 -0.10579721801E+02  0.40873034260E+03  0.41947194786E+03  0.93520527042E+02 0.  0.
         13    1    3    3    0    0 -0.11770106126E+02  0.32047003966E+02  0.73214798762E+02  0.80783368457E+02  0.00000000000E+00 0. -1.
        -13    1    3    3    0    0  0.17950930796E+02 -0.42626725767E+02  0.33551554384E+03  0.33868857941E+03  0.00000000000E+00 0.  1.
         22    1    1    2    0    0 -0.61808246708E+01  0.10579721801E+02  0.33346686298E+02  0.35526533662E+02  0.00000000000E+00 0. -1.
<mgrwt>
<rscale>  0 0.56625450E+02</rscale>
<asrwt>0</asrwt>
<pdfrwt beam="1">  1        4 0.99395824E-03 0.94319786E+02</pdfrwt>
<pdfrwt beam="2">  1       -4 0.69005784E-01 0.94319786E+02</pdfrwt>
<totfact> 0.86164284E+03</totfact>
</mgrwt>
</event>
<event>
 6    1  0.1683416E-002  0.9253558E+02  0.7546771E-02  0.1396292E+00
         -2   -1    0    0    0  501 -0.00000000000E+00  0.00000000000E+00  0.11081763637E+02  0.11081763637E+02  0.00000000000E+00 0.  1.
          2   -1    0    0  501    0  0.00000000000E+00 -0.00000000000E+00 -0.27187836538E+03  0.27187836538E+03  0.00000000000E+00 0. -1.
         23    2    1    2    0    0  0.15440804201E+02 -0.65214875257E+01 -0.21042059755E+03  0.22986879232E+03  0.91004865668E+02 0.  0.
         13    1    3    3    0    0 -0.33380741917E+02 -0.22939221488E+02 -0.10490300939E+03  0.11245053664E+03  0.00000000000E+00 0.  1.
        -13    1    3    3    0    0  0.48821546118E+02  0.16417733962E+02 -0.10551758816E+03  0.11741825567E+03  0.00000000000E+00 0. -1.
         22    1    1    2    0    0 -0.15440804201E+02  0.65214875257E+01 -0.50376004199E+02  0.53091336703E+02  0.00000000000E+00 0.  1.
<mgrwt>
<rscale>  0 0.60368427E+02</rscale>
<asrwt>0</asrwt>
<pdfrwt beam="1">  1        2 0.41827436E-01 0.92535581E+02</pdfrwt>
<pdfrwt beam="2">  1       -2 0.17048869E-02 0.92535581E+02</pdfrwt>
<totfact> 0.10224672E+05</totfact>
</mgrwt>
</event>
<event>
 6    1  0.1683416E-002  0.9789112E+02  0.7546771E-02  0.1336160E+00
         -2   -1    0    0    0  501 -0.00000000000E+00  0.00000000000E+00  0.30166364030E+02  0.30166364030E+02  0.00000000000E+00 0.  1.
          2   -1    0    0  501    0  0.00000000000E+00 -0.00000000000E+00 -0.18499741670E+03  0.18499741670E+03  0.00000000000E+00 0. -1.
         23    2    1    2    0    0  0.36712417081E+02 -0.11762915485E+02 -0.65263062500E+02  0.11765176808E+03  0.89980572659E+02 0.  0.
         13    1    3    3    0    0 -0.30030787675E+01 -0.38121406619E+02 -0.18005629345E+01  0.38281877586E+02  0.00000000000E+00 0.  1.
        -13    1    3    3    0    0  0.39715495848E+02  0.26358491133E+02 -0.63462499565E+02  0.79369890490E+02  0.00000000000E+00 0. -1.
         22    1    1    2    0    0 -0.36712417081E+02  0.11762915485E+02 -0.89567990166E+02  0.97512012650E+02  0.00000000000E+00 0. -1.
<mgrwt>
<rscale>  0 0.77547169E+02</rscale>
<asrwt>0</asrwt>
<pdfrwt beam="1">  1        2 0.28461140E-01 0.97891119E+02</pdfrwt>
<pdfrwt beam="2">  1       -2 0.46409792E-02 0.97891119E+02</pdfrwt>
<totfact> 0.36125276E+04</totfact>
</mgrwt>
</event>
<event>
 6    1  0.1683416E-002  0.2354123E+03  0.7546771E-02  0.1126015E+00
          2   -1    0    0  501    0  0.00000000000E+00  0.00000000000E+00  0.25815760142E+03  0.25815760142E+03  0.00000000000E+00 0. -1.
         -2   -1    0    0    0  501 -0.00000000000E+00 -0.00000000000E+00 -0.24567187777E+03  0.24567187777E+03  0.00000000000E+00 0.  1.
         23    2    1    2    0    0 -0.43793294402E+02  0.21338805106E+03 -0.10336263719E+03  0.25710462094E+03  0.89256027104E+02 0.  0.
         11    1    3    3    0    0 -0.39821846767E+02  0.21237476780E+03 -0.11499545375E+03  0.24477086400E+03  0.00000000000E+00 0. -1.
        -11    1    3    3    0    0 -0.39714476350E+01  0.10132832542E+01  0.11632816559E+02  0.12333756944E+02  0.00000000000E+00 0.  1.
         22    1    1    2    0    0  0.43793294402E+02 -0.21338805106E+03  0.11584836084E+03  0.24672485825E+03  0.00000000000E+00 0.  1.
<mgrwt>
<rscale>  0 0.23088942E+03</rscale>
<asrwt>0</asrwt>
<pdfrwt beam="1">  1        2 0.39716554E-01 0.23541230E+03</pdfrwt>
<pdfrwt beam="2">  1       -2 0.37795673E-01 0.23541230E+03</pdfrwt>
<totfact> 0.85546891E+02</totfact>
</mgrwt>
</event>
<event>
 6    1  0.1683416E-002  0.8802060E+02  0.7546771E-02  0.1438063E+00
          2   -1    0    0  501    0  0.00000000000E+00  0.00000000000E+00  0.23678963165E+02  0.23678963165E+02  0.00000000000E+00 0. -1.
         -2   -1    0    0    0  501 -0.00000000000E+00 -0.00000000000E+00 -0.10557668648E+03  0.10557668648E+03  0.00000000000E+00 0.  1.
         23    2    1    2    0    0 -0.81880734713E+01  0.61082676674E+01 -0.79837407659E+02  0.11883449896E+03  0.87425802827E+02 0.  0.
         11    1    3    3    0    0 -0.28018137425E+02  0.21105037662E+01  0.75840790463E+01  0.29103066950E+02  0.00000000000E+00 0. -1.
        -11    1    3    3    0    0  0.19830063953E+02  0.39977639012E+01 -0.87421486705E+02  0.89731432009E+02  0.00000000000E+00 0.  1.
         22    1    1    2    0    0  0.81880734713E+01 -0.61082676674E+01 -0.20603156592E+01  0.10421150689E+02  0.00000000000E+00 0.  1.
<mgrwt>
<rscale>  0 0.51375098E+02</rscale>
<asrwt>0</asrwt>
<pdfrwt beam="1">  1        2 0.36429174E-02 0.88020603E+02</pdfrwt>
<pdfrwt beam="2">  1       -2 0.16242567E-01 0.88020603E+02</pdfrwt>
<totfact> 0.61170392E+04</totfact>
</mgrwt>
</event>
<event>
 6    1  0.1683416E-002  0.9055821E+02  0.7546771E-02  0.1401676E+00
         -2   -1    0    0    0  501 -0.00000000000E+00  0.00000000000E+00  0.40008074492E+02  0.40008074492E+02  0.00000000000E+00 0.  1.
          2   -1    0    0  501    0  0.00000000000E+00 -0.00000000000E+00 -0.86633854319E+02  0.86633854319E+02  0.00000000000E+00 0. -1.
         23    2    1    2    0    0 -0.11440036838E+02 -0.11779022915E+02 -0.16097397626E+02  0.91977798308E+02  0.89057112842E+02 0.  0.
         13    1    3    3    0    0 -0.10384190818E+02 -0.18448112283E+02  0.34746433996E+02  0.40687577235E+02  0.00000000000E+00 0.  1.
        -13    1    3    3    0    0 -0.10558460194E+01  0.66690893682E+01 -0.50843831622E+02  0.51290221074E+02  0.00000000000E+00 0. -1.
         22    1    1    2    0    0  0.11440036838E+02  0.11779022915E+02 -0.30528382202E+02  0.34664130503E+02  0.00000000000E+00 0. -1.
<mgrwt>
<rscale>  0 0.59093518E+02</rscale>
<asrwt>0</asrwt>
<pdfrwt beam="1">  1        2 0.13328285E-01 0.90558209E+02</pdfrwt>
<pdfrwt beam="2">  1       -2 0.61550884E-02 0.90558209E+02</pdfrwt>
<totfact> 0.55000814E+04</totfact>
</mgrwt>
</event>
<event>
 6    1  0.1683416E-002  0.9375043E+02  0.7546771E-02  0.1400752E+00
         -2   -1    0    0    0  501 -0.00000000000E+00  0.00000000000E+00  0.75234487676E+02  0.75234487676E+02  0.00000000000E+00 0. -1.
          2   -1    0    0  501    0  0.00000000000E+00 -0.00000000000E+00 -0.49477961826E+02  0.49477961826E+02  0.00000000000E+00 0.  1.
         23    2    1    2    0    0  0.41875180776E+01 -0.14421309431E+02  0.41879512213E+02  0.10267928898E+03  0.92539901495E+02 0.  0.
         11    1    3    3    0    0 -0.37741811940E+02  0.53336095320E+01 -0.29057399724E+01  0.38227412728E+02  0.00000000000E+00 0.  1.
        -11    1    3    3    0    0  0.41929330017E+02 -0.19754918963E+02  0.44785252185E+02  0.64451876251E+02  0.00000000000E+00 0. -1.
         22    1    1    2    0    0 -0.41875180776E+01  0.14421309431E+02 -0.16122986363E+02  0.22033160523E+02  0.00000000000E+00 0.  1.
<mgrwt>
<rscale>  0 0.59309675E+02</rscale>
<asrwt>0</asrwt>
<pdfrwt beam="1">  1        2 0.76119941E-02 0.93750428E+02</pdfrwt>
<pdfrwt beam="2">  1       -2 0.11574537E-01 0.93750428E+02</pdfrwt>
<totfact> 0.41267888E+04</totfact>
</mgrwt>
</event>
<event>
 6    1  0.1683416E-002  0.9374503E+02  0.7546771E-02  0.1421376E+00
          2   -1    0    0  501    0  0.00000000000E+00  0.00000000000E+00  0.11677105233E+03  0.11677105233E+03  0.00000000000E+00 0.  1.
         -2   -1    0    0    0  501 -0.00000000000E+00 -0.00000000000E+00 -0.25698340040E+02  0.25698340040E+02  0.00000000000E+00 0. -1.
         23    2    1    2    0    0 -0.47394028807E+01 -0.98062189126E+01  0.64611010203E+02  0.11385391498E+03  0.93110189816E+02 0.  0.
         13    1    3    3    0    0  0.19626426663E+01 -0.35913561280E+02 -0.76131846578E+01  0.36764064393E+02  0.00000000000E+00 0. -1.
        -13    1    3    3    0    0 -0.67020455470E+01  0.26107342368E+02  0.72224194861E+02  0.77089850586E+02  0.00000000000E+00 0.  1.
         22    1    1    2    0    0  0.47394028807E+01  0.98062189126E+01  0.26461702087E+02  0.28615477392E+02  0.00000000000E+00 0.  1.
<mgrwt>
<rscale>  0 0.54730915E+02</rscale>
<asrwt>0</asrwt>
<pdfrwt beam="1">  1        2 0.17964777E-01 0.93745034E+02</pdfrwt>
<pdfrwt beam="2">  1       -2 0.39535908E-02 0.93745034E+02</pdfrwt>
<totfact> 0.75625507E+04</totfact>
</mgrwt>
</event>
<event>
 6    1  0.1683416E-002  0.9450982E+02  0.7546771E-02  0.1368936E+00
         -3   -1    0    0    0  501 -0.00000000000E+00  0.00000000000E+00  0.24473048701E+02  0.24473048701E+02  0.00000000000E+00 0.  1.
          3   -1    0    0  501    0  0.00000000000E+00 -0.00000000000E+00 -0.15184535097E+03  0.15184535097E+03  0.00000000000E+00 0. -1.
         23    2    1    2    0    0 -0.21667554626E+02  0.11518456138E+02 -0.83799717544E+02  0.12631112125E+03  0.91268553929E+02 0.  0.
         11    1    3    3    0    0 -0.33891442660E+02  0.33993176096E+02 -0.88138271750E+02  0.10036194923E+03  0.00000000000E+00 0.  1.
        -11    1    3    3    0    0  0.12223888034E+02 -0.22474719959E+02  0.43385542062E+01  0.25949172019E+02  0.00000000000E+00 0. -1.
         22    1    1    2    0    0  0.21667554626E+02 -0.11518456138E+02 -0.43572584725E+02  0.50007278419E+02  0.00000000000E+00 0. -1.
<mgrwt>
<rscale>  0 0.67463909E+02</rscale>
<asrwt>0</asrwt>
<pdfrwt beam="1">  1        3 0.23360823E-01 0.94509823E+02</pdfrwt>
<pdfrwt beam="2">  1       -3 0.37650844E-02 0.94509823E+02</pdfrwt>
<totfact> 0.12609240E+04</totfact>
</mgrwt>
</event>
<event>
 6    1  0.1683416E-002  0.9110045E+02  0.7546771E-02  0.1416190E+00
         -2   -1    0    0    0  501 -0.00000000000E+00  0.00000000000E+00  0.90205207190E+02  0.90205207190E+02  0.00000000000E+00 0.  1.
          2   -1    0    0  501    0  0.00000000000E+00 -0.00000000000E+00 -0.32255249208E+02  0.32255249208E+02  0.00000000000E+00 0. -1.
         23    2    1    2    0    0  0.11651135713E+02 -0.54316868385E+01  0.60493623738E+02  0.10935616623E+03  0.90188915031E+02 0.  0.
         13    1    3    3    0    0  0.20428036955E+02 -0.14222189355E+02  0.81354330885E+02  0.85077038722E+02  0.00000000000E+00 0.  1.
        -13    1    3    3    0    0 -0.87769012423E+01  0.87905025166E+01 -0.20860707147E+02  0.24279127509E+02  0.00000000000E+00 0. -1.
         22    1    1    2    0    0 -0.11651135713E+02  0.54316868385E+01 -0.25436657564E+01  0.13104290167E+02  0.00000000000E+00 0. -1.
<mgrwt>
<rscale>  0 0.55835294E+02</rscale>
<asrwt>0</asrwt>
<pdfrwt beam="1">  1        2 0.49623461E-02 0.91100453E+02</pdfrwt>
<pdfrwt beam="2">  1       -2 0.13877724E-01 0.91100453E+02</pdfrwt>
<totfact> 0.53026560E+04</totfact>
</mgrwt>
</event>
<event>
 6    1  0.1974313E-002  0.9616990E+02  0.7546771E-02  0.1416829E+00
          2   -1    0    0  501    0  0.00000000000E+00  0.00000000000E+00  0.28312283493E+03  0.28312283493E+03  0.00000000000E+00 0. -1.
         -2   -1    0    0    0  501 -0.00000000000E+00 -0.00000000000E+00 -0.10157571146E+02  0.10157571146E+02  0.00000000000E+00 0.  1.
         23    2    1    2    0    0  0.10754726060E+02 -0.11868121193E+01  0.23860033713E+03  0.25725234979E+03  0.95559290181E+02 0.  0.
         13    1    3    3    0    0  0.10588844378E+01  0.11864194225E+02  0.24057919652E+03  0.24087388845E+03  0.00000000000E+00 0. -1.
        -13    1    3    3    0    0  0.96958416226E+01 -0.13051006344E+02 -0.19788593894E+01  0.16378461340E+02  0.00000000000E+00 0.  1.
         22    1    1    2    0    0 -0.10754726060E+02  0.11868121193E+01  0.34364926658E+02  0.36028056287E+02  0.00000000000E+00 0.  1.
<mgrwt>
<rscale>  0 0.55697580E+02</rscale>
<asrwt>0</asrwt>
<pdfrwt beam="1">  1        2 0.43557353E-01 0.96169905E+02</pdfrwt>
<pdfrwt beam="2">  1       -2 0.15627035E-02 0.96169905E+02</pdfrwt>
<totfact> 0.11164220E+05</totfact>
</mgrwt>
</event>
<event>
 6    1  0.1683416E-002  0.9369029E+02  0.7546771E-02  0.1360092E+00
         -2   -1    0    0    0  501 -0.00000000000E+00  0.00000000000E+00  0.48201708479E+01  0.48201708479E+01  0.00000000000E+00 0.  1.
          2   -1    0    0  501    0  0.00000000000E+00 -0.00000000000E+00 -0.81740533983E+03  0.81740533983E+03  0.00000000000E+00 0. -1.
         23    2    1    2    0    0 -0.27804861138E+02 -0.89031016872E+01 -0.68274673320E+03  0.68914510292E+03  0.89025252942E+02 0.  0.
         13    1    3    3    0    0  0.10175094450E+02  0.23971186003E+02 -0.76299455051E+02  0.80621071356E+02  0.00000000000E+00 0.  1.
        -13    1    3    3    0    0 -0.37979955588E+02 -0.32874287690E+02 -0.60644727815E+03  0.60852403157E+03  0.00000000000E+00 0. -1.
         22    1    1    2    0    0  0.27804861138E+02  0.89031016872E+01 -0.12983843578E+03  0.13308040776E+03  0.00000000000E+00 0.  1.
<mgrwt>
<rscale>  0 0.70000287E+02</rscale>
<asrwt>0</asrwt>
<pdfrwt beam="1">  1        2 0.12575476E+00 0.93690294E+02</pdfrwt>
<pdfrwt beam="2">  1       -2 0.74156419E-03 0.93690294E+02</pdfrwt>
<totfact> 0.10009467E+05</totfact>
</mgrwt>
</event>
<event>
 6    1  0.1683416E-002  0.9479492E+02  0.7546771E-02  0.1416926E+00
          1   -1    0    0  501    0  0.00000000000E+00  0.00000000000E+00  0.87002416067E+02  0.87002416067E+02  0.00000000000E+00 0. -1.
         -1   -1    0    0    0  501 -0.00000000000E+00 -0.00000000000E+00 -0.39818846891E+02  0.39818846891E+02  0.00000000000E+00 0.  1.
         23    2    1    2    0    0  0.23717318933E+01 -0.11028493323E+02  0.19296451612E+02  0.96738974096E+02  0.94121322171E+02 0.  0.
         13    1    3    3    0    0  0.34520091737E+01 -0.51919325751E+02  0.20217122668E+02  0.55823514783E+02  0.00000000000E+00 0.  1.
        -13    1    3    3    0    0 -0.10802772804E+01  0.40890832428E+02 -0.92067105677E+00  0.40915459313E+02  0.00000000000E+00 0. -1.
         22    1    1    2    0    0 -0.23717318933E+01  0.11028493323E+02  0.27887117564E+02  0.30082288862E+02  0.00000000000E+00 0. -1.
<mgrwt>
<rscale>  0 0.55676534E+02</rscale>
<asrwt>0</asrwt>
<pdfrwt beam="1">  1        1 0.13384987E-01 0.94794916E+02</pdfrwt>
<pdfrwt beam="2">  1       -1 0.61259765E-02 0.94794916E+02</pdfrwt>
<totfact> 0.48651948E+04</totfact>
</mgrwt>
</event>
<event>
 6    1  0.1683416E-002  0.9383765E+02  0.7546771E-02  0.1367044E+00
          4   -1    0    0  501    0  0.00000000000E+00  0.00000000000E+00  0.37807570956E+02  0.37807570956E+02  0.00000000000E+00 0. -1.
         -4   -1    0    0    0  501 -0.00000000000E+00 -0.00000000000E+00 -0.97857076539E+02  0.97857076539E+02  0.00000000000E+00 0.  1.
         23    2    1    2    0    0  0.54426276006E+01  0.25291284989E+02 -0.36517222331E+02  0.10069266376E+03  0.90201073807E+02 0.  0.
         11    1    3    3    0    0  0.21778240217E+02  0.17668247106E+02 -0.62825723434E+02  0.68800655722E+02  0.00000000000E+00 0.  1.
        -11    1    3    3    0    0 -0.16335612617E+02  0.76230378831E+01  0.26308501103E+02  0.31892008034E+02  0.00000000000E+00 0. -1.
         22    1    1    2    0    0 -0.54426276006E+01 -0.25291284989E+02 -0.23532283252E+02  0.34971983739E+02  0.00000000000E+00 0.  1.
<mgrwt>
<rscale>  0 0.67995962E+02</rscale>
<asrwt>0</asrwt>
<pdfrwt beam="1">  1        4 0.58165494E-02 0.93837652E+02</pdfrwt>
<pdfrwt beam="2">  1       -4 0.15054935E-01 0.93837652E+02</pdfrwt>
<totfact> 0.10254249E+04</totfact>
</mgrwt>
</event>
<event>
 6    1  0.1683416E-002  0.9141415E+02  0.7546771E-02  0.1421395E+00
         -1   -1    0    0    0  501 -0.00000000000E+00  0.00000000000E+00  0.13887759002E+04  0.13887759002E+04  0.00000000000E+00 0.  1.
          1   -1    0    0  501    0  0.00000000000E+00 -0.00000000000E+00 -0.21212211776E+01  0.21212211776E+01  0.00000000000E+00 0. -1.
         23    2    1    2    0    0  0.84620085694E+01 -0.81412851467E+01  0.13239680850E+04  0.13271202040E+04  0.90656824369E+02 0.  0.
         13    1    3    3    0    0  0.87808018452E+01  0.41131510751E+02  0.63778789524E+03  0.63917314006E+03  0.00000000000E+00 0. -1.
        -13    1    3    3    0    0 -0.31879327579E+00 -0.49272795898E+02  0.68618018973E+03  0.68794706397E+03  0.00000000000E+00 0.  1.
         22    1    1    2    0    0 -0.84620085694E+01  0.81412851467E+01  0.62686594057E+02  0.63776917355E+02  0.00000000000E+00 0.  1.
<mgrwt>
<rscale>  0 0.54726808E+02</rscale>
<asrwt>0</asrwt>
<pdfrwt beam="1">  1        1 0.32634283E-03 0.91414145E+02</pdfrwt>
<pdfrwt beam="2">  1       -1 0.21365710E+00 0.91414145E+02</pdfrwt>
<totfact> 0.98130233E+03</totfact>
</mgrwt>
</event>
<event>
 6    1  0.1683416E-002  0.9468545E+02  0.7546771E-02  0.1392139E+00
          2   -1    0    0  501    0  0.00000000000E+00  0.00000000000E+00  0.12430441262E+03  0.12430441262E+03  0.00000000000E+00 0.  1.
         -2   -1    0    0    0  501 -0.00000000000E+00 -0.00000000000E+00 -0.35677345462E+02  0.35677345462E+02  0.00000000000E+00 0. -1.
         23    2    1    2    0    0  0.15446788421E+02  0.63955060777E+01  0.30466937006E+02  0.99466416970E+02  0.93197790123E+02 0.  0.
         13    1    3    3    0    0  0.16835659851E+02 -0.41170783050E+02  0.26357118468E+02  0.51702712825E+02  0.00000000000E+00 0.  1.
        -13    1    3    3    0    0 -0.13888714304E+01  0.47566289128E+02  0.41098185374E+01  0.47763704145E+02  0.00000000000E+00 0. -1.
         22    1    1    2    0    0 -0.15446788421E+02 -0.63955060777E+01  0.58160130156E+02  0.60515341115E+02  0.00000000000E+00 0.  1.
<mgrwt>
<rscale>  0 0.61377794E+02</rscale>
<asrwt>0</asrwt>
<pdfrwt beam="1">  1        2 0.19123756E-01 0.94685447E+02</pdfrwt>
<pdfrwt beam="2">  1       -2 0.54888224E-02 0.94685447E+02</pdfrwt>
<totfact> 0.43393983E+04</totfact>
</mgrwt>
</event>
<event>
 6    1  0.1683416E-002  0.9134666E+02  0.7546771E-02  0.1426924E+00
         -1   -1    0    0    0  501 -0.00000000000E+00  0.00000000000E+00  0.91748491801E+02  0.91748491801E+02  0.00000000000E+00 0.  1.
          1   -1    0    0  501    0  0.00000000000E+00 -0.00000000000E+00 -0.33963694426E+02  0.33963694426E+02  0.00000000000E+00 0. -1.
         23    2    1    2    0    0  0.92451635757E+01 -0.56109792470E+01  0.65521017690E+02  0.11241537298E+03  0.90704223642E+02 0.  0.
         11    1    3    3    0    0  0.31330543244E+02  0.32306194719E+02  0.46116132280E+02  0.64435943492E+02  0.00000000000E+00 0. -1.
        -11    1    3    3    0    0 -0.22085379668E+02 -0.37917173966E+02  0.19404885410E+02  0.47979429493E+02  0.00000000000E+00 0.  1.
         22    1    1    2    0    0 -0.92451635757E+01  0.56109792470E+01 -0.77362203151E+01  0.13296813243E+02  0.00000000000E+00 0. -1.
<mgrwt>
<rscale>  0 0.53582427E+02</rscale>
<asrwt>0</asrwt>
<pdfrwt beam="1">  1        1 0.52251838E-02 0.91346660E+02</pdfrwt>
<pdfrwt beam="2">  1       -1 0.14115152E-01 0.91346660E+02</pdfrwt>
<totfact> 0.47716922E+04</totfact>
</mgrwt>
</event>
<event>
 6    1  0.1683416E-002  0.9317953E+02  0.7546771E-02  0.1390090E+00
          4   -1    0    0  501    0  0.00000000000E+00  0.00000000000E+00  0.34588862861E+03  0.34588862861E+03  0.00000000000E+00 0. -1.
         -4   -1    0    0    0  501 -0.00000000000E+00 -0.00000000000E+00 -0.91369573466E+01  0.91369573466E+01  0.00000000000E+00 0.  1.
         23    2    1    2    0    0  0.90300840594E+01 -0.15719499078E+02  0.26098109793E+03  0.27711650527E+03  0.91399009566E+02 0.  0.
         11    1    3    3    0    0 -0.35967031948E+02 -0.10061809716E+02  0.18414855237E+03  0.18789772948E+03  0.00000000000E+00 0. -1.
        -11    1    3    3    0    0  0.44997116007E+02 -0.56576893621E+01  0.76832545554E+02  0.89218775794E+02  0.00000000000E+00 0.  1.
         22    1    1    2    0    0 -0.90300840594E+01  0.15719499078E+02  0.75770573332E+02  0.77909080680E+02  0.00000000000E+00 0. -1.
<mgrwt>
<rscale>  0 0.61884411E+02</rscale>
<asrwt>0</asrwt>
<pdfrwt beam="1">  1        4 0.53213625E-01 0.93179526E+02</pdfrwt>
<pdfrwt beam="2">  1       -4 0.14056860E-02 0.93179526E+02</pdfrwt>
<totfact> 0.87758655E+03</totfact>
</mgrwt>
</event>
<event>
 6    1  0.1683416E-002  0.9338434E+02  0.7546771E-02  0.1378940E+00
         -2   -1    0    0    0  501 -0.00000000000E+00  0.00000000000E+00  0.14457549400E+02  0.14457549400E+02  0.00000000000E+00 0.  1.
          2   -1    0    0  501    0  0.00000000000E+00 -0.00000000000E+00 -0.25871579161E+03  0.25871579161E+03  0.00000000000E+00 0. -1.
         23    2    1    2    0    0 -0.20739962153E+02  0.59456769093E+01 -0.15174349069E+03  0.17817609709E+03  0.90857787241E+02 0.  0.
         13    1    3    3    0    0  0.22052267161E+02 -0.81650916756E+01 -0.41767210908E+01  0.23883387701E+02  0.00000000000E+00 0.  1.
        -13    1    3    3    0    0 -0.42792229314E+02  0.14110768585E+02 -0.14756676960E+03  0.15429270939E+03  0.00000000000E+00 0. -1.
         22    1    1    2    0    0  0.20739962153E+02 -0.59456769093E+01 -0.92514751525E+02  0.94997243927E+02  0.00000000000E+00 0.  1.
<mgrwt>
<rscale>  0 0.64743348E+02</rscale>
<asrwt>0</asrwt>
<pdfrwt beam="1">  1        2 0.39802431E-01 0.93384338E+02</pdfrwt>
<pdfrwt beam="2">  1       -2 0.22242383E-02 0.93384338E+02</pdfrwt>
<totfact> 0.73609896E+04</totfact>
</mgrwt>
</event>
<event>
 6    1  0.1683416E-002  0.9008532E+02  0.7546771E-02  0.1421264E+00
          4   -1    0    0  501    0  0.00000000000E+00  0.00000000000E+00  0.11831073580E+03  0.11831073580E+03  0.00000000000E+00 0.  1.
         -4   -1    0    0    0  501 -0.00000000000E+00 -0.00000000000E+00 -0.28105396317E+02  0.28105396317E+02  0.00000000000E+00 0. -1.
         23    2    1    2    0    0 -0.90615872639E+01  0.83093547550E+01  0.47227504437E+02  0.10171431956E+03  0.89242410820E+02 0.  0.
         11    1    3    3    0    0  0.35656578702E+02 -0.84225279406E+01  0.38556002552E+02  0.53187366117E+02  0.00000000000E+00 0.  1.
        -11    1    3    3    0    0 -0.44718165966E+02  0.16731882696E+02  0.86715018850E+01  0.48526953447E+02  0.00000000000E+00 0. -1.
         22    1    1    2    0    0  0.90615872639E+01 -0.83093547550E+01  0.42977835046E+02  0.44701812552E+02  0.00000000000E+00 0.  1.
<mgrwt>
<rscale>  0 0.54754439E+02</rscale>
<asrwt>0</asrwt>
<pdfrwt beam="1">  1        4 0.18201651E-01 0.90085324E+02</pdfrwt>
<pdfrwt beam="2">  1       -4 0.43239072E-02 0.90085324E+02</pdfrwt>
<totfact> 0.11664490E+04</totfact>
</mgrwt>
</event>
<event>
 6    1  0.1683416E-002  0.9202078E+02  0.7546771E-02  0.1404233E+00
         -1   -1    0    0    0  501 -0.00000000000E+00  0.00000000000E+00  0.59506082267E+02  0.59506082267E+02  0.00000000000E+00 0.  1.
          1   -1    0    0  501    0  0.00000000000E+00 -0.00000000000E+00 -0.51927442917E+02  0.51927442917E+02  0.00000000000E+00 0. -1.
         23    2    1    2    0    0  0.26730331400E+01 -0.14791458126E+02 -0.45295886919E+01  0.92132190360E+02  0.90784861002E+02 0.  0.
         11    1    3    3    0    0  0.36128385794E+01  0.69614645056E+01 -0.45266860239E+02  0.45941301969E+02  0.00000000000E+00 0. -1.
        -11    1    3    3    0    0 -0.93980543939E+00 -0.21752922631E+02  0.40737271547E+02  0.46190888391E+02  0.00000000000E+00 0.  1.
         22    1    1    2    0    0 -0.26730331400E+01  0.14791458126E+02  0.12108228043E+02  0.19301334824E+02  0.00000000000E+00 0. -1.
<mgrwt>
<rscale>  0 0.58500789E+02</rscale>
<asrwt>0</asrwt>
<pdfrwt beam="1">  1        1 0.79888373E-02 0.92020777E+02</pdfrwt>
<pdfrwt beam="2">  1       -1 0.91547819E-02 0.92020777E+02</pdfrwt>
<totfact> 0.52324510E+04</totfact>
</mgrwt>
</event>
<event>
 6    1  0.1683416E-002  0.9515685E+02  0.7546771E-02  0.1369850E+00
          2   -1    0    0  501    0  0.00000000000E+00  0.00000000000E+00  0.23991966403E+03  0.23991966403E+03  0.00000000000E+00 0. -1.
         -2   -1    0    0    0  501 -0.00000000000E+00 -0.00000000000E+00 -0.20622244541E+02  0.20622244541E+02  0.00000000000E+00 0.  1.
         23    2    1    2    0    0 -0.18124532744E+02 -0.15240055562E+02  0.96659966112E+02  0.13563913458E+03  0.92163267083E+02 0.  0.
         13    1    3    3    0    0 -0.32271638898E+02  0.22808321231E+02  0.84466842138E+02  0.93254091681E+02  0.00000000000E+00 0. -1.
        -13    1    3    3    0    0  0.14147106154E+02 -0.38048376793E+02  0.12193123974E+02  0.42385042897E+02  0.00000000000E+00 0.  1.
         22    1    1    2    0    0  0.18124532744E+02  0.15240055562E+02  0.12263745337E+03  0.12490277399E+03  0.00000000000E+00 0. -1.
<mgrwt>
<rscale>  0 0.67208928E+02</rscale>
<asrwt>0</asrwt>
<pdfrwt beam="1">  1        2 0.36910715E-01 0.95156848E+02</pdfrwt>
<pdfrwt beam="2">  1       -2 0.31726532E-02 0.95156848E+02</pdfrwt>
<totfact> 0.47742337E+04</totfact>
</mgrwt>
</event>
<event>
 6    1  0.1683416E-002  0.9307786E+02  0.7546771E-02  0.1418134E+00
         -2   -1    0    0    0  501 -0.00000000000E+00  0.00000000000E+00  0.62468589961E+02  0.62468589961E+02  0.00000000000E+00 0.  1.
          2   -1    0    0  501    0  0.00000000000E+00 -0.00000000000E+00 -0.64804758692E+02  0.64804758692E+02  0.00000000000E+00 0. -1.
         23    2    1    2    0    0 -0.11401328132E+02 -0.26105172057E+01  0.25980797962E+02  0.96635860409E+02  0.92340037746E+02 0.  0.
         11    1    3    3    0    0 -0.49118145723E+02 -0.14052437755E+02  0.33773682251E+01  0.51200291623E+02  0.00000000000E+00 0. -1.
        -11    1    3    3    0    0  0.37716817591E+02  0.11441920549E+02  0.22603429737E+02  0.45435568786E+02  0.00000000000E+00 0.  1.
         22    1    1    2    0    0  0.11401328132E+02  0.26105172057E+01 -0.28316966692E+02  0.30637488244E+02  0.00000000000E+00 0. -1.
<mgrwt>
<rscale>  0 0.55417581E+02</rscale>
<asrwt>0</asrwt>
<pdfrwt beam="1">  1        2 0.99699628E-02 0.93077858E+02</pdfrwt>
<pdfrwt beam="2">  1       -2 0.96105523E-02 0.93077858E+02</pdfrwt>
<totfact> 0.39560394E+04</totfact>
</mgrwt>
</event>
<event>
 6    1  0.1683416E-002  0.9504267E+02  0.7546771E-02  0.1358105E+00
         -3   -1    0    0    0  501 -0.00000000000E+00  0.00000000000E+00  0.55797960401E+03  0.55797960401E+03  0.00000000000E+00 0.  1.
          3   -1    0    0  501    0  0.00000000000E+00 -0.00000000000E+00 -0.68871615069E+01  0.68871615069E+01  0.00000000000E+00 0. -1.
         23    2    1    2    0    0  0.11136958424E+02 -0.26687299883E+02  0.42694381091E+03  0.43739470370E+03  0.90536541410E+02 0.  0.
         13    1    3    3    0    0  0.34776546957E+02 -0.50523163129E+02  0.28697091940E+03  0.29345239275E+03  0.00000000000E+00 0.  1.
        -13    1    3    3    0    0 -0.23639588533E+02  0.23835863245E+02  0.13997289151E+03  0.14394231095E+03  0.00000000000E+00 0. -1.
         22    1    1    2    0    0 -0.11136958424E+02  0.26687299883E+02  0.12414863159E+03  0.12747206182E+03  0.00000000000E+00 0. -1.
<mgrwt>
<rscale>  0 0.70587953E+02</rscale>
<asrwt>0</asrwt>
<pdfrwt beam="1">  1        3 0.10595637E-02 0.95042670E+02</pdfrwt>
<pdfrwt beam="2">  1       -3 0.85842980E-01 0.95042670E+02</pdfrwt>
<totfact> 0.67340256E+03</totfact>
</mgrwt>
</event>
<event>
 6    1  0.1683416E-002  0.9053577E+02  0.7546771E-02  0.1425229E+00
          2   -1    0    0  501    0  0.00000000000E+00  0.00000000000E+00  0.84388616044E+01  0.84388616044E+01  0.00000000000E+00 0. -1.
         -2   -1    0    0    0  501 -0.00000000000E+00 -0.00000000000E+00 -0.38602513994E+03  0.38602513994E+03  0.00000000000E+00 0.  1.
         23    2    1    2    0    0 -0.10159291497E+02  0.51690365444E+01 -0.36964737051E+03  0.38057312684E+03  0.89815345061E+02 0.  0.
         11    1    3    3    0    0  0.39197685164E+02 -0.22681953163E+00 -0.20019417286E+03  0.20399562940E+03  0.00000000000E+00 0. -1.
        -11    1    3    3    0    0 -0.49356976661E+02  0.53958560761E+01 -0.16945319765E+03  0.17657749744E+03  0.00000000000E+00 0.  1.
         22    1    1    2    0    0  0.10159291497E+02 -0.51690365444E+01 -0.79389078294E+01  0.13890874704E+02  0.00000000000E+00 0. -1.
<mgrwt>
<rscale>  0 0.53929812E+02</rscale>
<asrwt>0</asrwt>
<pdfrwt beam="1">  1        2 0.12982861E-02 0.90535774E+02</pdfrwt>
<pdfrwt beam="2">  1       -2 0.59388497E-01 0.90535774E+02</pdfrwt>
<totfact> 0.23614903E+04</totfact>
</mgrwt>
</event>
<event>
 6    1  0.1683416E-002  0.1062498E+03  0.7546771E-02  0.1342361E+00
          4   -1    0    0  501    0  0.00000000000E+00  0.00000000000E+00  0.10204202396E+02  0.10204202396E+02  0.00000000000E+00 0. -1.
         -4   -1    0    0    0  501 -0.00000000000E+00 -0.00000000000E+00 -0.61281902690E+03  0.61281902690E+03  0.00000000000E+00 0.  1.
         23    2    1    2    0    0  0.26668707402E+02 -0.46718694450E+01 -0.57352305172E+03  0.58328184580E+03  0.10274227205E+03 0.  0.
         11    1    3    3    0    0  0.34992530088E+02 -0.42629965403E+02 -0.45994452301E+03  0.46323941473E+03  0.00000000000E+00 0. -1.
        -11    1    3    3    0    0 -0.83238226861E+01  0.37958095958E+02 -0.11357852871E+03  0.12004243106E+03  0.00000000000E+00 0.  1.
         22    1    1    2    0    0 -0.26668707402E+02  0.46718694450E+01 -0.29091772787E+02  0.39741383500E+02  0.00000000000E+00 0. -1.
<mgrwt>
<rscale>  0 0.75489670E+02</rscale>
<asrwt>0</asrwt>
<pdfrwt beam="1">  1        4 0.15698767E-02 0.10624980E+03</pdfrwt>
<pdfrwt beam="2">  1       -4 0.94279886E-01 0.10624980E+03</pdfrwt>
<totfact> 0.22501337E+03</totfact>
</mgrwt>
</event>
<event>
 6    1  0.1683416E-002  0.9319401E+02  0.7546771E-02  0.1368231E+00
         -3   -1    0    0    0  501 -0.00000000000E+00  0.00000000000E+00  0.51085821071E+02  0.51085821071E+02  0.00000000000E+00 0.  1.
          3   -1    0    0  501    0  0.00000000000E+00 -0.00000000000E+00 -0.75596997442E+02  0.75596997442E+02  0.00000000000E+00 0. -1.
         23    2    1    2    0    0  0.25872980128E+02  0.10411684214E+01 -0.33857616286E+02  0.99153723514E+02  0.89524452378E+02 0.  0.
         13    1    3    3    0    0 -0.16948052361E+02 -0.20227915963E+02 -0.43022299029E+02  0.50471014224E+02  0.00000000000E+00 0. -1.
        -13    1    3    3    0    0  0.42821032490E+02  0.21269084384E+02  0.91646827429E+01  0.48682709290E+02  0.00000000000E+00 0.  1.
         22    1    1    2    0    0 -0.25872980128E+02 -0.10411684214E+01  0.93464399156E+01  0.27529095000E+02  0.00000000000E+00 0.  1.
<mgrwt>
<rscale>  0 0.67661316E+02</rscale>
<asrwt>0</asrwt>
<pdfrwt beam="1">  1        3 0.11630307E-01 0.93194006E+02</pdfrwt>
<pdfrwt beam="2">  1       -3 0.78593571E-02 0.93194006E+02</pdfrwt>
<totfact> 0.13006822E+04</totfact>
</mgrwt>
</event>
<event>
 6    1  0.1991914E-002  0.9484215E+02  0.7546771E-02  0.1424031E+00
          2   -1    0    0  501    0  0.00000000000E+00  0.00000000000E+00  0.29276115028E+03  0.29276115028E+03  0.00000000000E+00 0. -1.
         -2   -1    0    0    0  501 -0.00000000000E+00 -0.00000000000E+00 -0.99948650604E+01  0.99948650604E+01  0.00000000000E+00 0.  1.
         23    2    1    2    0    0 -0.91728963487E+01 -0.42236789737E+01  0.22592733640E+03  0.24502692740E+03  0.94302981538E+02 0.  0.
         11    1    3    3    0    0 -0.14670206334E+00 -0.70230391248E+01  0.23307321708E+03  0.23317904949E+03  0.00000000000E+00 0. -1.
        -11    1    3    3    0    0 -0.90261942854E+01  0.27993601510E+01 -0.71458806747E+01  0.11847877918E+02  0.00000000000E+00 0.  1.
         22    1    1    2    0    0  0.91728963487E+01  0.42236789737E+01  0.56838948817E+02  0.57729087937E+02  0.00000000000E+00 0. -1.
<mgrwt>
<rscale>  0 0.54177158E+02</rscale>
<asrwt>0</asrwt>
<pdfrwt beam="1">  1        2 0.45040170E-01 0.94842152E+02</pdfrwt>
<pdfrwt beam="2">  1       -2 0.15376718E-02 0.94842152E+02</pdfrwt>
<totfact> 0.11008485E+05</totfact>
</mgrwt>
</event>
<event>
 6    1  0.1683416E-002  0.1338812E+03  0.7546771E-02  0.1239142E+00
         -2   -1    0    0    0  501 -0.00000000000E+00  0.00000000000E+00  0.15068210446E+03  0.15068210446E+03  0.00000000000E+00 0.  1.
          2   -1    0    0  501    0  0.00000000000E+00 -0.00000000000E+00 -0.11035530309E+03  0.11035530309E+03  0.00000000000E+00 0. -1.
         23    2    1    2    0    0 -0.74266025017E+02 -0.57010044424E+02  0.83660046249E+02  0.15787075718E+03  0.95700496332E+02 0.  0.
         13    1    3    3    0    0 -0.78134167854E+02 -0.78402670620E+02  0.60650843429E+02  0.12621589343E+03  0.00000000000E+00 0. -1.
        -13    1    3    3    0    0  0.38681428364E+01  0.21392626197E+02  0.23009202820E+02  0.31654863750E+02  0.00000000000E+00 0.  1.
         22    1    1    2    0    0  0.74266025017E+02  0.57010044424E+02 -0.43333244876E+02  0.10316665037E+03  0.00000000000E+00 0.  1.
<mgrwt>
<rscale>  0 0.12242984E+03</rscale>
<asrwt>0</asrwt>
<pdfrwt beam="1">  1        2 0.16977739E-01 0.13388119E+03</pdfrwt>
<pdfrwt beam="2">  1       -2 0.23181862E-01 0.13388119E+03</pdfrwt>
<totfact> 0.52002638E+03</totfact>
</mgrwt>
</event>
<event>
 6    1  0.1683416E-002  0.9320768E+02  0.7546771E-02  0.1392528E+00
          1   -1    0    0  501    0  0.00000000000E+00  0.00000000000E+00  0.18600160387E+03  0.18600160387E+03  0.00000000000E+00 0. -1.
         -1   -1    0    0    0  501 -0.00000000000E+00 -0.00000000000E+00 -0.17291581273E+02  0.17291581273E+02  0.00000000000E+00 0.  1.
         23    2    1    2    0    0 -0.12251471954E+02 -0.12380326162E+02  0.15602642810E+03  0.18174684879E+03  0.91565821888E+02 0.  0.
         11    1    3    3    0    0  0.14136601644E+02  0.31388321533E+02  0.29672289498E+02  0.45447937233E+02  0.00000000000E+00 0. -1.
        -11    1    3    3    0    0 -0.26388073598E+02 -0.43768647695E+02  0.12635413860E+03  0.13629891156E+03  0.00000000000E+00 0.  1.
         22    1    1    2    0    0  0.12251471954E+02  0.12380326162E+02  0.12683594494E+02  0.21546336352E+02  0.00000000000E+00 0. -1.
<mgrwt>
<rscale>  0 0.61282366E+02</rscale>
<asrwt>0</asrwt>
<pdfrwt beam="1">  1        1 0.28615630E-01 0.93207676E+02</pdfrwt>
<pdfrwt beam="2">  1       -1 0.26602434E-02 0.93207676E+02</pdfrwt>
<totfact> 0.62749082E+04</totfact>
</mgrwt>
</event>
<event>
 6    1  0.1683416E-002  0.9081674E+02  0.7546771E-02  0.1396500E+00
          2   -1    0    0  501    0  0.00000000000E+00  0.00000000000E+00  0.12254867222E+02  0.12254867222E+02  0.00000000000E+00 0. -1.
         -2   -1    0    0    0  501 -0.00000000000E+00 -0.00000000000E+00 -0.24374451231E+03  0.24374451231E+03  0.00000000000E+00 0.  1.
         23    2    1    2    0    0 -0.17539276689E+02  0.21671932257E+01 -0.20423505993E+03  0.22351653228E+03  0.89080623850E+02 0.  0.
         11    1    3    3    0    0  0.29063783949E+02 -0.15830313571E+02 -0.40351098130E+02  0.52187292375E+02  0.00000000000E+00 0. -1.
        -11    1    3    3    0    0 -0.46603060638E+02  0.17997506796E+02 -0.16388396180E+03  0.17132923990E+03  0.00000000000E+00 0.  1.
         22    1    1    2    0    0  0.17539276689E+02 -0.21671932257E+01 -0.27254585158E+02  0.32482847249E+02  0.00000000000E+00 0. -1.
<mgrwt>
<rscale>  0 0.60318415E+02</rscale>
<asrwt>0</asrwt>
<pdfrwt beam="1">  1        2 0.18853642E-02 0.90816741E+02</pdfrwt>
<pdfrwt beam="2">  1       -2 0.37499155E-01 0.90816741E+02</pdfrwt>
<totfact> 0.34748585E+04</totfact>
</mgrwt>
</event>
<event>
 6    1  0.1683416E-002  0.9848067E+02  0.7546771E-02  0.1332406E+00
          2   -1    0    0  501    0  0.00000000000E+00  0.00000000000E+00  0.22262773797E+03  0.22262773797E+03  0.00000000000E+00 0. -1.
         -2   -1    0    0    0  501 -0.00000000000E+00 -0.00000000000E+00 -0.25146377781E+02  0.25146377781E+02  0.00000000000E+00 0.  1.
         23    2    1    2    0    0 -0.38477871296E+02 -0.12410711726E+02  0.91833401419E+02  0.13465442897E+03  0.89799049440E+02 0.  0.
         13    1    3    3    0    0 -0.28019889450E+02 -0.29558946598E+02  0.10364004460E+03  0.11135575590E+03  0.00000000000E+00 0. -1.
        -13    1    3    3    0    0 -0.10457981846E+02  0.17148234872E+02 -0.11806643178E+02  0.23298673067E+02  0.00000000000E+00 0.  1.
         22    1    1    2    0    0  0.38477871296E+02  0.12410711726E+02  0.10564795877E+03  0.11311968678E+03  0.00000000000E+00 0. -1.
<mgrwt>
<rscale>  0 0.78829496E+02</rscale>
<asrwt>0</asrwt>
<pdfrwt beam="1">  1        2 0.34250420E-01 0.98480666E+02</pdfrwt>
<pdfrwt beam="2">  1       -2 0.38686737E-02 0.98480666E+02</pdfrwt>
<totfact> 0.38811662E+04</totfact>
</mgrwt>
</event>
<event>
 6    1  0.1683416E-002  0.9506802E+02  0.7546771E-02  0.1367389E+00
          2   -1    0    0  501    0  0.00000000000E+00  0.00000000000E+00  0.10129077445E+03  0.10129077445E+03  0.00000000000E+00 0. -1.
         -2   -1    0    0    0  501 -0.00000000000E+00 -0.00000000000E+00 -0.65911935856E+02  0.65911935856E+02  0.00000000000E+00 0.  1.
         23    2    1    2    0    0 -0.24695699037E+02 -0.14134442040E+01 -0.28051161230E+02  0.99120111551E+02  0.91793537311E+02 0.  0.
         13    1    3    3    0    0  0.22642394725E+02 -0.25359058913E+02 -0.30972696087E+02  0.45989866392E+02  0.00000000000E+00 0.  1.
        -13    1    3    3    0    0 -0.47338093762E+02  0.23945614708E+02  0.29215348565E+01  0.53130245160E+02  0.00000000000E+00 0. -1.
         22    1    1    2    0    0  0.24695699037E+02  0.14134442040E+01  0.63429999827E+02  0.68082598757E+02  0.00000000000E+00 0.  1.
<mgrwt>
<rscale>  0 0.67898271E+02</rscale>
<asrwt>0</asrwt>
<pdfrwt beam="1">  1        2 0.15583196E-01 0.95068022E+02</pdfrwt>
<pdfrwt beam="2">  1       -2 0.10140298E-01 0.95068022E+02</pdfrwt>
<totfact> 0.21508874E+04</totfact>
</mgrwt>
</event>
<event>
 6    1  0.1683416E-002  0.9587076E+02  0.7546771E-02  0.1354695E+00
          2   -1    0    0  501    0  0.00000000000E+00  0.00000000000E+00  0.44439175610E+02  0.44439175610E+02  0.00000000000E+00 0. -1.
         -2   -1    0    0    0  501 -0.00000000000E+00 -0.00000000000E+00 -0.16341212069E+03  0.16341212069E+03  0.00000000000E+00 0.  1.
         23    2    1    2    0    0  0.24845237132E+02 -0.16538537287E+02 -0.14117652229E+03  0.17065172823E+03  0.91106491965E+02 0.  0.
         11    1    3    3    0    0  0.20511726308E+02 -0.25147347670E+02 -0.35019545925E+01  0.32640215945E+02  0.00000000000E+00 0. -1.
        -11    1    3    3    0    0  0.43335108242E+01  0.86088103833E+01 -0.13767456770E+03  0.13801151229E+03  0.00000000000E+00 0.  1.
         22    1    1    2    0    0 -0.24845237132E+02  0.16538537287E+02  0.22203577210E+02  0.37199568071E+02  0.00000000000E+00 0. -1.
<mgrwt>
<rscale>  0 0.71612311E+02</rscale>
<asrwt>0</asrwt>
<pdfrwt beam="1">  1        2 0.68367962E-02 0.95870756E+02</pdfrwt>
<pdfrwt beam="2">  1       -2 0.25140326E-01 0.95870756E+02</pdfrwt>
<totfact> 0.13188451E+04</totfact>
</mgrwt>
</event>
<event>
 6    1  0.1683416E-002  0.9183527E+02  0.7546771E-02  0.1400392E+00
          1   -1    0    0  501    0  0.00000000000E+00  0.00000000000E+00  0.65589204098E+02  0.65589204098E+02  0.00000000000E+00 0. -1.
         -1   -1    0    0    0  501 -0.00000000000E+00 -0.00000000000E+00 -0.15686479000E+03  0.15686479000E+03  0.00000000000E+00 0.  1.
         23    2    1    2    0    0 -0.15330498414E+02 -0.48102578708E+01 -0.14207642846E+03  0.16917277445E+03  0.90418766467E+02 0.  0.
         13    1    3    3    0    0  0.73454416773E+01  0.55537069447E+01 -0.14388105659E+03  0.14417544042E+03  0.00000000000E+00 0.  1.
        -13    1    3    3    0    0 -0.22675940092E+02 -0.10363964816E+02  0.18046281374E+01  0.24997334027E+02  0.00000000000E+00 0. -1.
         22    1    1    2    0    0  0.15330498414E+02  0.48102578708E+01  0.50800842557E+02  0.53281219646E+02  0.00000000000E+00 0. -1.
<mgrwt>
<rscale>  0 0.59394170E+02</rscale>
<asrwt>0</asrwt>
<pdfrwt beam="1">  1        1 0.10090647E-01 0.91835266E+02</pdfrwt>
<pdfrwt beam="2">  1       -1 0.24133045E-01 0.91835266E+02</pdfrwt>
<totfact> 0.85303700E+03</totfact>
</mgrwt>
</event>
<event>
 6    1  0.1683416E-002  0.9516264E+02  0.7546771E-02  0.1364516E+00
          2   -1    0    0  501    0  0.00000000000E+00  0.00000000000E+00  0.47970188293E+02  0.47970188293E+02  0.00000000000E+00 0.  1.
         -2   -1    0    0    0  501 -0.00000000000E+00 -0.00000000000E+00 -0.77593229523E+02  0.77593229523E+02  0.00000000000E+00 0. -1.
         23    2    1    2    0    0 -0.19614360503E+02  0.16870241163E+02 -0.29707685361E+02  0.99691901828E+02  0.91578384708E+02 0.  0.
         13    1    3    3    0    0  0.16899447038E+02  0.24496372519E+01 -0.51871018901E+02  0.54609473855E+02  0.00000000000E+00 0. -1.
        -13    1    3    3    0    0 -0.36513807542E+02  0.14420603911E+02  0.22163333541E+02  0.45082427973E+02  0.00000000000E+00 0.  1.
         22    1    1    2    0    0  0.19614360503E+02 -0.16870241163E+02  0.84644129979E-01  0.25871515987E+02  0.00000000000E+00 0. -1.
<mgrwt>
<rscale>  0 0.68715508E+02</rscale>
<asrwt>0</asrwt>
<pdfrwt beam="1">  1        2 0.73800291E-02 0.95162644E+02</pdfrwt>
<pdfrwt beam="2">  1       -2 0.11937420E-01 0.95162644E+02</pdfrwt>
<totfact> 0.40934970E+04</totfact>
</mgrwt>
</event>
<event>
 6    1  0.1683416E-002  0.9130465E+02  0.7546771E-02  0.1387578E+00
          2   -1    0    0  501    0  0.00000000000E+00  0.00000000000E+00  0.50156164494E+03  0.50156164494E+03  0.00000000000E+00 0. -1.
         -2   -1    0    0    0  501 -0.00000000000E+00 -0.00000000000E+00 -0.62093021796E+01  0.62093021796E+01  0.00000000000E+00 0.  1.
         23    2    1    2    0    0  0.17957751110E+02  0.89477866561E+01  0.41834911978E+03  0.42819683035E+03  0.89072980114E+02 0.  0.
         11    1    3    3    0    0  0.22144559669E+02  0.73690836217E+01  0.42186261299E+03  0.42250769124E+03  0.00000000000E+00 0. -1.
        -11    1    3    3    0    0 -0.41868085583E+01  0.15787030345E+01 -0.35134932142E+01  0.56891391036E+01  0.00000000000E+00 0.  1.
         22    1    1    2    0    0 -0.17957751110E+02 -0.89477866561E+01  0.77003222977E+02  0.79574116771E+02  0.00000000000E+00 0. -1.
<mgrwt>
<rscale>  0 0.62513139E+02</rscale>
<asrwt>0</asrwt>
<pdfrwt beam="1">  1        2 0.77163298E-01 0.91304652E+02</pdfrwt>
<pdfrwt beam="2">  1       -2 0.95527765E-03 0.91304652E+02</pdfrwt>
<totfact> 0.12197926E+05</totfact>
</mgrwt>
</event>
<event>
 6    1  0.2083666E-002  0.1012688E+03  0.7546771E-02  0.1317691E+00
         -2   -1    0    0    0  501 -0.00000000000E+00  0.00000000000E+00  0.74467260490E+01  0.74467260490E+01  0.00000000000E+00 0. -1.
          2   -1    0    0  501    0  0.00000000000E+00 -0.00000000000E+00 -0.21261258524E+04  0.21261258524E+04  0.00000000000E+00 0.  1.
         23    2    1    2    0    0 -0.16514987953E+02  0.45351492864E+02 -0.20307043133E+04  0.20332278204E+04  0.89027293222E+02 0.  0.
         13    1    3    3    0    0  0.17094383595E+02  0.53760251814E+02 -0.77712278528E+03  0.77916763666E+03  0.00000000000E+00 0.  1.
        -13    1    3    3    0    0 -0.33609371548E+02 -0.84087589496E+01 -0.12535815280E+04  0.12540601837E+04  0.00000000000E+00 0. -1.
         22    1    1    2    0    0  0.16514987953E+02 -0.45351492864E+02 -0.87974813024E+02  0.10034475800E+03  0.00000000000E+00 0. -1.
<mgrwt>
<rscale>  0 0.84142327E+02</rscale>
<asrwt>0</asrwt>
<pdfrwt beam="1">  1        2 0.32709691E+00 0.10126876E+03</pdfrwt>
<pdfrwt beam="2">  1       -2 0.11456480E-02 0.10126876E+03</pdfrwt>
<totfact> 0.10850980E+04</totfact>
</mgrwt>
</event>
<event>
 6    1  0.1683416E-002  0.1183786E+03  0.7546771E-02  0.1270600E+00
         -1   -1    0    0    0  501 -0.00000000000E+00  0.00000000000E+00  0.46335848910E+03  0.46335848910E+03  0.00000000000E+00 0.  1.
          1   -1    0    0  501    0  0.00000000000E+00 -0.00000000000E+00 -0.14710787408E+03  0.14710787408E+03  0.00000000000E+00 0. -1.
         23    2    1    2    0    0  0.21070220809E+02  0.69469838534E+02  0.44618827383E+03  0.46162481034E+03  0.93506562045E+02 0.  0.
         11    1    3    3    0    0  0.50014717360E+02  0.84007815079E+01  0.19983770277E+03  0.20617262799E+03  0.00000000000E+00 0. -1.
        -11    1    3    3    0    0 -0.28944496550E+02  0.61069057026E+02  0.24635057106E+03  0.25545218235E+03  0.00000000000E+00 0.  1.
         22    1    1    2    0    0 -0.21070220809E+02 -0.69469838534E+02 -0.12993765882E+03  0.14884155284E+03  0.00000000000E+00 0. -1.
<mgrwt>
<rscale>  0 0.10475658E+03</rscale>
<asrwt>0</asrwt>
<pdfrwt beam="1">  1        1 0.22631981E-01 0.11837859E+03</pdfrwt>
<pdfrwt beam="2">  1       -1 0.71285921E-01 0.11837859E+03</pdfrwt>
<totfact> 0.45176545E+02</totfact>
</mgrwt>
</event>
<event>
 6    1  0.1683416E-002  0.9165453E+02  0.7546771E-02  0.1410301E+00
         -2   -1    0    0    0  501 -0.00000000000E+00  0.00000000000E+00  0.62730413687E+02  0.62730413687E+02  0.00000000000E+00 0. -1.
          2   -1    0    0  501    0  0.00000000000E+00 -0.00000000000E+00 -0.46540721165E+02  0.46540721165E+02  0.00000000000E+00 0.  1.
         23    2    1    2    0    0 -0.79661770951E+01  0.11308000250E+02  0.22016441541E+02  0.94261742749E+02  0.90604754846E+02 0.  0.
         11    1    3    3    0    0 -0.20493769324E+02  0.41272670612E+02 -0.11600701349E+02  0.47518461595E+02  0.00000000000E+00 0. -1.
        -11    1    3    3    0    0  0.12527592229E+02 -0.29964670362E+02  0.33617142890E+02  0.46743281154E+02  0.00000000000E+00 0.  1.
         22    1    1    2    0    0  0.79661770951E+01 -0.11308000250E+02 -0.58267490195E+01  0.15009392103E+02  0.00000000000E+00 0.  1.
<mgrwt>
<rscale>  0 0.57126625E+02</rscale>
<asrwt>0</asrwt>
<pdfrwt beam="1">  1        2 0.71601109E-02 0.91654528E+02</pdfrwt>
<pdfrwt beam="2">  1       -2 0.96508330E-02 0.91654528E+02</pdfrwt>
<totfact> 0.59006926E+04</totfact>
</mgrwt>
</event>
<event>
 6    1  0.1683416E-002  0.1345064E+03  0.7546771E-02  0.1236878E+00
         -2   -1    0    0    0  501 -0.00000000000E+00  0.00000000000E+00  0.46585871845E+02  0.46585871845E+02  0.00000000000E+00 0.  1.
          2   -1    0    0  501    0  0.00000000000E+00 -0.00000000000E+00 -0.28788342237E+03  0.28788342237E+03  0.00000000000E+00 0. -1.
         23    2    1    2    0    0  0.38649310788E+02  0.88621863538E+02 -0.13032569034E+03  0.18728791742E+03  0.93511360425E+02 0.  0.
         13    1    3    3    0    0 -0.30392876925E+01  0.36472744944E+02  0.44630261205E+01  0.36870272519E+02  0.00000000000E+00 0.  1.
        -13    1    3    3    0    0  0.41688598480E+02  0.52149118593E+02 -0.13478871646E+03  0.15041764490E+03  0.00000000000E+00 0. -1.
         22    1    1    2    0    0 -0.38649310788E+02 -0.88621863538E+02 -0.11097186018E+03  0.14718137679E+03  0.00000000000E+00 0.  1.
<mgrwt>
<rscale>  0 0.12384966E+03</rscale>
<asrwt>0</asrwt>
<pdfrwt beam="1">  1        2 0.44289757E-01 0.13450643E+03</pdfrwt>
<pdfrwt beam="2">  1       -2 0.71670572E-02 0.13450643E+03</pdfrwt>
<totfact> 0.12098253E+04</totfact>
</mgrwt>
</event>
<event>
 6    1  0.1683416E-002  0.9479885E+02  0.7546771E-02  0.1378737E+00
         -2   -1    0    0    0  501 -0.00000000000E+00  0.00000000000E+00  0.17429121231E+03  0.17429121231E+03  0.00000000000E+00 0.  1.
          2   -1    0    0  501    0  0.00000000000E+00 -0.00000000000E+00 -0.22131217302E+02  0.22131217302E+02  0.00000000000E+00 0. -1.
         23    2    1    2    0    0 -0.14812990761E+00 -0.20691800031E+02  0.14729709101E+03  0.17516636304E+03  0.92512967672E+02 0.  0.
         13    1    3    3    0    0  0.21225630919E+02 -0.65884648681E+01 -0.32463825086E+01  0.22460504817E+02  0.00000000000E+00 0. -1.
        -13    1    3    3    0    0 -0.21373760827E+02 -0.14103335163E+02  0.15054347352E+03  0.15270585822E+03  0.00000000000E+00 0.  1.
         22    1    1    2    0    0  0.14812990761E+00  0.20691800031E+02  0.48629039956E+01  0.21256066576E+02  0.00000000000E+00 0. -1.
<mgrwt>
<rscale>  0 0.64796962E+02</rscale>
<asrwt>0</asrwt>
<pdfrwt beam="1">  1        2 0.34048028E-02 0.94798849E+02</pdfrwt>
<pdfrwt beam="2">  1       -2 0.26814032E-01 0.94798849E+02</pdfrwt>
<totfact> 0.29003251E+04</totfact>
</mgrwt>
</event>
<event>
 6    1  0.1683416E-002  0.1011843E+03  0.7546771E-02  0.1370970E+00
          2   -1    0    0  501    0  0.00000000000E+00  0.00000000000E+00  0.50106630217E+03  0.50106630217E+03  0.00000000000E+00 0. -1.
         -2   -1    0    0    0  501 -0.00000000000E+00 -0.00000000000E+00 -0.73878733204E+01  0.73878733204E+01  0.00000000000E+00 0.  1.
         23    2    1    2    0    0 -0.11759491080E+02  0.15346466424E+02  0.43727108405E+03  0.44882542228E+03  0.99319983265E+02 0.  0.
         11    1    3    3    0    0 -0.19650654036E+02  0.53471399778E+02  0.18514811002E+03  0.19371412299E+03  0.00000000000E+00 0.  1.
        -11    1    3    3    0    0  0.78911629559E+01 -0.38124933354E+02  0.25212297402E+03  0.25511129929E+03  0.00000000000E+00 0. -1.
         22    1    1    2    0    0  0.11759491080E+02 -0.15346466424E+02  0.56407344801E+02  0.59628753213E+02  0.00000000000E+00 0.  1.
<mgrwt>
<rscale>  0 0.66898234E+02</rscale>
<asrwt>0</asrwt>
<pdfrwt beam="1">  1        2 0.77087097E-01 0.10118428E+03</pdfrwt>
<pdfrwt beam="2">  1       -2 0.11365963E-02 0.10118428E+03</pdfrwt>
<totfact> 0.96843054E+04</totfact>
</mgrwt>
</event>
<event>
 6    1  0.1683416E-002  0.1027072E+03  0.7546771E-02  0.1319147E+00
          1   -1    0    0  501    0  0.00000000000E+00  0.00000000000E+00  0.20591825687E+02  0.20591825687E+02  0.00000000000E+00 0. -1.
         -1   -1    0    0    0  501 -0.00000000000E+00 -0.00000000000E+00 -0.27237719410E+03  0.27237719410E+03  0.00000000000E+00 0.  1.
         23    2    1    2    0    0  0.79395732507E+01  0.44369592047E+02 -0.19571553834E+03  0.22102790938E+03  0.92287958354E+02 0.  0.
         13    1    3    3    0    0 -0.10300696349E+02  0.27043269224E+02 -0.58765954113E+01  0.29529258867E+02  0.00000000000E+00 0. -1.
        -13    1    3    3    0    0  0.18240269599E+02  0.17326322823E+02 -0.18983894293E+03  0.19149865051E+03  0.00000000000E+00 0.  1.
         22    1    1    2    0    0 -0.79395732507E+01 -0.44369592047E+02 -0.56069830079E+02  0.71941110409E+02  0.00000000000E+00 0. -1.
<mgrwt>
<rscale>  0 0.83595516E+02</rscale>
<asrwt>0</asrwt>
<pdfrwt beam="1">  1        1 0.31679735E-02 0.10270718E+03</pdfrwt>
<pdfrwt beam="2">  1       -1 0.41904180E-01 0.10270718E+03</pdfrwt>
<totfact> 0.16214647E+04</totfact>
</mgrwt>
</event>
<event>
 6    1  0.1683416E-002  0.9215363E+02  0.7546771E-02  0.1402136E+00
         -1   -1    0    0    0  501 -0.00000000000E+00  0.00000000000E+00  0.18518183237E+03  0.18518183237E+03  0.00000000000E+00 0.  1.
          1   -1    0    0  501    0  0.00000000000E+00 -0.00000000000E+00 -0.19874643286E+02  0.19874643286E+02  0.00000000000E+00 0. -1.
         23    2    1    2    0    0  0.12524925723E+02 -0.90786047479E+01  0.16567851209E+03  0.18958286233E+03  0.90846009784E+02 0.  0.
         13    1    3    3    0    0  0.39635552251E+02  0.20582773550E+02  0.12349572819E+03  0.13132335074E+03  0.00000000000E+00 0.  1.
        -13    1    3    3    0    0 -0.27110626528E+02 -0.29661378298E+02  0.42182783904E+02  0.58259511594E+02  0.00000000000E+00 0. -1.
         22    1    1    2    0    0 -0.12524925723E+02  0.90786047479E+01 -0.37132300353E+00  0.15473613324E+02  0.00000000000E+00 0.  1.
<mgrwt>
<rscale>  0 0.58986281E+02</rscale>
<asrwt>0</asrwt>
<pdfrwt beam="1">  1        1 0.30576375E-02 0.92153634E+02</pdfrwt>
<pdfrwt beam="2">  1       -1 0.28489512E-01 0.92153634E+02</pdfrwt>
<totfact> 0.32365595E+04</totfact>
</mgrwt>
</event>
<event>
 6    1  0.1683416E-002  0.9140406E+02  0.7546771E-02  0.1411116E+00
         -2   -1    0    0    0  501 -0.00000000000E+00  0.00000000000E+00  0.31896260701E+02  0.31896260701E+02  0.00000000000E+00 0.  1.
          2   -1    0    0  501    0  0.00000000000E+00 -0.00000000000E+00 -0.10398843161E+03  0.10398843161E+03  0.00000000000E+00 0. -1.
         23    2    1    2    0    0 -0.13141318625E+02 -0.41139639249E+01 -0.37764727476E+02  0.98898312021E+02  0.90360846194E+02 0.  0.
         13    1    3    3    0    0  0.62178661624E+01  0.31865653571E+02  0.11907705607E+02  0.34581428396E+02  0.00000000000E+00 0.  1.
        -13    1    3    3    0    0 -0.19359184787E+02 -0.35979617496E+02 -0.49672433084E+02  0.64316883625E+02  0.00000000000E+00 0. -1.
         22    1    1    2    0    0  0.13141318625E+02  0.41139639249E+01 -0.34327443434E+02  0.36986380292E+02  0.00000000000E+00 0. -1.
<mgrwt>
<rscale>  0 0.56945488E+02</rscale>
<asrwt>0</asrwt>
<pdfrwt beam="1">  1        2 0.15998220E-01 0.91404056E+02</pdfrwt>
<pdfrwt beam="2">  1       -2 0.49071171E-02 0.91404056E+02</pdfrwt>
<totfact> 0.62499804E+04</totfact>
</mgrwt>
</event>
<event>
 6    1  0.1683416E-002  0.9185807E+02  0.7546771E-02  0.1416201E+00
          4   -1    0    0  501    0  0.00000000000E+00  0.00000000000E+00  0.26314553511E+02  0.26314553511E+02  0.00000000000E+00 0. -1.
         -4   -1    0    0    0  501 -0.00000000000E+00 -0.00000000000E+00 -0.10567929813E+03  0.10567929813E+03  0.00000000000E+00 0.  1.
         23    2    1    2    0    0 -0.35082208791E+01 -0.12036618539E+02 -0.75411814980E+02  0.11884799859E+03  0.90998445764E+02 0.  0.
         11    1    3    3    0    0  0.38717636329E+01 -0.31990240732E+02  0.76380016031E+01  0.33116538530E+02  0.00000000000E+00 0. -1.
        -11    1    3    3    0    0 -0.73799845121E+01  0.19953622193E+02 -0.83049816583E+02  0.85731460063E+02  0.00000000000E+00 0.  1.
         22    1    1    2    0    0  0.35082208791E+01  0.12036618539E+02 -0.39529296373E+01  0.13145853046E+02  0.00000000000E+00 0. -1.
<mgrwt>
<rscale>  0 0.55832920E+02</rscale>
<asrwt>0</asrwt>
<pdfrwt beam="1">  1        4 0.40483928E-02 0.91858069E+02</pdfrwt>
<pdfrwt beam="2">  1       -4 0.16258354E-01 0.91858069E+02</pdfrwt>
<totfact> 0.15871345E+04</totfact>
</mgrwt>
</event>
<event>
 6    1  0.1683416E-002  0.1034892E+03  0.7546771E-02  0.1312107E+00
          2   -1    0    0  501    0  0.00000000000E+00  0.00000000000E+00  0.42338766670E+03  0.42338766670E+03  0.00000000000E+00 0. -1.
         -2   -1    0    0    0  501 -0.00000000000E+00 -0.00000000000E+00 -0.14503694751E+02  0.14503694751E+02  0.00000000000E+00 0.  1.
         23    2    1    2    0    0 -0.40713001456E+02  0.29040606868E+02  0.31431531105E+03  0.33091408835E+03  0.90604159816E+02 0.  0.
         11    1    3    3    0    0 -0.17650584121E+02 -0.28682965279E+02  0.17712552940E+03  0.18029894282E+03  0.00000000000E+00 0. -1.
        -11    1    3    3    0    0 -0.23062417335E+02  0.57723572147E+02  0.13718978165E+03  0.15061514553E+03  0.00000000000E+00 0.  1.
         22    1    1    2    0    0  0.40713001456E+02 -0.29040606868E+02  0.94568660894E+02  0.10697727309E+03  0.00000000000E+00 0. -1.
<mgrwt>
<rscale>  0 0.86284641E+02</rscale>
<asrwt>0</asrwt>
<pdfrwt beam="1">  1        2 0.65136555E-01 0.10348922E+03</pdfrwt>
<pdfrwt beam="2">  1       -2 0.22313380E-02 0.10348922E+03</pdfrwt>
<totfact> 0.44251426E+04</totfact>
</mgrwt>
</event>
<event>
 6    1  0.1683416E-002  0.9627720E+02  0.7546771E-02  0.1358828E+00
          3   -1    0    0  501    0  0.00000000000E+00  0.00000000000E+00  0.11102598103E+02  0.11102598103E+02  0.00000000000E+00 0. -1.
         -3   -1    0    0    0  501 -0.00000000000E+00 -0.00000000000E+00 -0.35542312476E+03  0.35542312476E+03  0.00000000000E+00 0.  1.
         23    2    1    2    0    0  0.27010112019E+02  0.50758340680E+01 -0.29142428064E+03  0.30691596624E+03  0.92271277979E+02 0.  0.
         13    1    3    3    0    0  0.13839716733E+01 -0.79811763678E+01 -0.27220288972E+03  0.27232338814E+03  0.00000000000E+00 0.  1.
        -13    1    3    3    0    0  0.25626140346E+02  0.13057010436E+02 -0.19221390919E+02  0.34592578097E+02  0.00000000000E+00 0. -1.
         22    1    1    2    0    0 -0.27010112019E+02 -0.50758340680E+01 -0.52896246014E+02  0.59609756627E+02  0.00000000000E+00 0. -1.
<mgrwt>
<rscale>  0 0.70373355E+02</rscale>
<asrwt>0</asrwt>
<pdfrwt beam="1">  1        3 0.17080922E-02 0.96277199E+02</pdfrwt>
<pdfrwt beam="2">  1       -3 0.54680476E-01 0.96277199E+02</pdfrwt>
<totfact> 0.85092096E+03</totfact>
</mgrwt>
</event>
<event>
 6    1  0.1683416E-002  0.1051369E+03  0.7546771E-02  0.1309521E+00
         -2   -1    0    0    0  501 -0.00000000000E+00  0.00000000000E+00  0.68442407065E+01  0.68442407065E+01  0.00000000000E+00 0.  1.
          2   -1    0    0  501    0  0.00000000000E+00 -0.00000000000E+00 -0.95882962240E+03  0.95882962240E+03  0.00000000000E+00 0. -1.
         23    2    1    2    0    0 -0.28064870030E+01 -0.49904407182E+02 -0.76219110132E+03  0.76940823930E+03  0.92495608254E+02 0.  0.
         11    1    3    3    0    0 -0.31925365833E+02 -0.46450849707E+02 -0.67639940389E+03  0.67874373957E+03  0.00000000000E+00 0. -1.
        -11    1    3    3    0    0  0.29118878830E+02 -0.34535574750E+01 -0.85791697435E+02  0.90664499736E+02  0.00000000000E+00 0.  1.
         22    1    1    2    0    0  0.28064870030E+01  0.49904407182E+02 -0.18979428037E+03  0.19626562380E+03  0.00000000000E+00 0.  1.
<mgrwt>
<rscale>  0 0.87301652E+02</rscale>
<asrwt>0</asrwt>
<pdfrwt beam="1">  1        2 0.14751230E+00 0.10513688E+03</pdfrwt>
<pdfrwt beam="2">  1       -2 0.10529597E-02 0.10513688E+03</pdfrwt>
<totfact> 0.50361620E+04</totfact>
</mgrwt>
</event>
<event>
 6    1  0.1683416E-002  0.9326024E+02  0.7546771E-02  0.1390789E+00
          1   -1    0    0  501    0  0.00000000000E+00  0.00000000000E+00  0.44036945884E+03  0.44036945884E+03  0.00000000000E+00 0. -1.
         -1   -1    0    0    0  501 -0.00000000000E+00 -0.00000000000E+00 -0.72817198651E+01  0.72817198651E+01  0.00000000000E+00 0.  1.
         23    2    1    2    0    0  0.10523924175E+02 -0.14454279166E+02  0.32585121595E+03  0.33893433991E+03  0.91530282806E+02 0.  0.
         11    1    3    3    0    0 -0.26269866855E+02 -0.31342130449E+02  0.80782144843E+02  0.90543856617E+02  0.00000000000E+00 0.  1.
        -11    1    3    3    0    0  0.36793791030E+02  0.16887851282E+02  0.24506907110E+03  0.24839048329E+03  0.00000000000E+00 0. -1.
         22    1    1    2    0    0 -0.10523924175E+02  0.14454279166E+02  0.10723652303E+03  0.10871683879E+03  0.00000000000E+00 0. -1.
<mgrwt>
<rscale>  0 0.61710871E+02</rscale>
<asrwt>0</asrwt>
<pdfrwt beam="1">  1        1 0.67749127E-01 0.93260237E+02</pdfrwt>
<pdfrwt beam="2">  1       -1 0.11202649E-02 0.93260237E+02</pdfrwt>
<totfact> 0.74561808E+04</totfact>
</mgrwt>
</event>
<event>
 6    1  0.1683416E-002  0.9913027E+02  0.7546771E-02  0.1341838E+00
         -1   -1    0    0    0  501 -0.00000000000E+00  0.00000000000E+00  0.76993220721E+01  0.76993220721E+01  0.00000000000E+00 0.  1.
          1   -1    0    0  501    0  0.00000000000E+00 -0.00000000000E+00 -0.82574232087E+03  0.82574232087E+03  0.00000000000E+00 0. -1.
         23    2    1    2    0    0 -0.33634147818E+02 -0.62716601751E+00 -0.75933770246E+03  0.76578101144E+03  0.93247851844E+02 0.  0.
         11    1    3    3    0    0 -0.10313914670E+02  0.29944554676E+02 -0.91291056158E+02  0.96628723085E+02  0.00000000000E+00 0.  1.
        -11    1    3    3    0    0 -0.23320233149E+02 -0.30571720694E+02 -0.66804664630E+03  0.66915228836E+03  0.00000000000E+00 0. -1.
         22    1    1    2    0    0  0.33634147818E+02  0.62716601751E+00 -0.58705296338E+02  0.67660631498E+02  0.00000000000E+00 0.  1.
<mgrwt>
<rscale>  0 0.75660413E+02</rscale>
<asrwt>0</asrwt>
<pdfrwt beam="1">  1        1 0.12703725E+00 0.99130273E+02</pdfrwt>
<pdfrwt beam="2">  1       -1 0.11845114E-02 0.99130273E+02</pdfrwt>
<totfact> 0.29559647E+04</totfact>
</mgrwt>
</event>
<event>
 6    1  0.1683416E-002  0.9299374E+02  0.7546771E-02  0.1397812E+00
          1   -1    0    0  501    0  0.00000000000E+00  0.00000000000E+00  0.72292162867E+02  0.72292162867E+02  0.00000000000E+00 0. -1.
         -1   -1    0    0    0  501 -0.00000000000E+00 -0.00000000000E+00 -0.42530782398E+02  0.42530782398E+02  0.00000000000E+00 0.  1.
         23    2    1    2    0    0 -0.74518079634E+01  0.14294851381E+02  0.17636049091E+02  0.94651284973E+02  0.91585824785E+02 0.  0.
         11    1    3    3    0    0 -0.10113841901E+02 -0.54995569696E+01  0.52892375599E+02  0.54130752086E+02  0.00000000000E+00 0. -1.
        -11    1    3    3    0    0  0.26620339378E+01  0.19794408351E+02 -0.35256326508E+02  0.40520532887E+02  0.00000000000E+00 0.  1.
         22    1    1    2    0    0  0.74518079634E+01 -0.14294851381E+02  0.12125331377E+02  0.20171660292E+02  0.00000000000E+00 0. -1.
<mgrwt>
<rscale>  0 0.60004699E+02</rscale>
<asrwt>0</asrwt>
<pdfrwt beam="1">  1        1 0.11121871E-01 0.92993739E+02</pdfrwt>
<pdfrwt beam="2">  1       -1 0.65431973E-02 0.92993739E+02</pdfrwt>
<totfact> 0.55965941E+04</totfact>
</mgrwt>
</event>
<event>
 6    1  0.1683416E-002  0.6992959E+02  0.7546771E-02  0.1434101E+00
          2   -1    0    0  501    0  0.00000000000E+00  0.00000000000E+00  0.13852897382E+02  0.13852897382E+02  0.00000000000E+00 0. -1.
         -2   -1    0    0    0  501 -0.00000000000E+00 -0.00000000000E+00 -0.19532141936E+03  0.19532141936E+03  0.00000000000E+00 0.  1.
         23    2    1    2    0    0  0.41443002433E+01 -0.21220653555E+02 -0.17180498382E+03  0.18549151008E+03  0.66503056204E+02 0.  0.
         13    1    3    3    0    0  0.21609999551E+02 -0.37852442492E+02 -0.86765122591E+02  0.97097816564E+02  0.00000000000E+00 0. -1.
        -13    1    3    3    0    0 -0.17465699308E+02  0.16631788938E+02 -0.85039861226E+02  0.88393693514E+02  0.00000000000E+00 0.  1.
         22    1    1    2    0    0 -0.41443002433E+01  0.21220653555E+02 -0.96635381617E+01  0.23682806666E+02  0.00000000000E+00 0.  1.
<mgrwt>
<rscale>  0 0.52145573E+02</rscale>
<asrwt>0</asrwt>
<pdfrwt beam="1">  1        2 0.21312150E-02 0.69929592E+02</pdfrwt>
<pdfrwt beam="2">  1       -2 0.30049449E-01 0.69929592E+02</pdfrwt>
<totfact> 0.42296495E+04</totfact>
</mgrwt>
</event>
<event>
 6    1  0.1683416E-002  0.9663296E+02  0.7546771E-02  0.1358980E+00
         -2   -1    0    0    0  501 -0.00000000000E+00  0.00000000000E+00  0.86150340575E+01  0.86150340575E+01  0.00000000000E+00 0.  1.
          2   -1    0    0  501    0  0.00000000000E+00 -0.00000000000E+00 -0.44879464087E+03  0.44879464087E+03  0.00000000000E+00 0. -1.
         23    2    1    2    0    0  0.87704785820E+01 -0.25653109775E+02 -0.36137728357E+03  0.37407415139E+03  0.92751961264E+02 0.  0.
         11    1    3    3    0    0  0.18547309086E+02 -0.28084969960E+01 -0.34212758581E+03  0.34264146757E+03  0.00000000000E+00 0. -1.
        -11    1    3    3    0    0 -0.97768305037E+01 -0.22844612779E+02 -0.19249697762E+02  0.31432683813E+02  0.00000000000E+00 0.  1.
         22    1    1    2    0    0 -0.87704785820E+01  0.25653109775E+02 -0.78802323245E+02  0.83335523544E+02  0.00000000000E+00 0.  1.
<mgrwt>
<rscale>  0 0.70328303E+02</rscale>
<asrwt>0</asrwt>
<pdfrwt beam="1">  1        2 0.69045332E-01 0.96632964E+02</pdfrwt>
<pdfrwt beam="2">  1       -2 0.13253898E-02 0.96632964E+02</pdfrwt>
<totfact> 0.87047554E+04</totfact>
</mgrwt>
</event>
<event>
 6    1  0.1683416E-002  0.9479110E+02  0.7546771E-02  0.1376591E+00
          2   -1    0    0  501    0  0.00000000000E+00  0.00000000000E+00  0.36111700050E+02  0.36111700050E+02  0.00000000000E+00 0. -1.
         -2   -1    0    0    0  501 -0.00000000000E+00 -0.00000000000E+00 -0.10009912180E+03  0.10009912180E+03  0.00000000000E+00 0.  1.
         23    2    1    2    0    0  0.21293373006E+02  0.24802221982E+01 -0.64691192636E+02  0.11476194007E+03  0.92335222144E+02 0.  0.
         11    1    3    3    0    0 -0.36679090293E+01  0.40439435549E+02 -0.67968714878E+01  0.41170365145E+02  0.00000000000E+00 0. -1.
        -11    1    3    3    0    0  0.24961282036E+02 -0.37959213351E+02 -0.57894321148E+02  0.73591574927E+02  0.00000000000E+00 0.  1.
         22    1    1    2    0    0 -0.21293373006E+02 -0.24802221982E+01  0.70377088325E+00  0.21448881780E+02  0.00000000000E+00 0.  1.
<mgrwt>
<rscale>  0 0.65368476E+02</rscale>
<asrwt>0</asrwt>
<pdfrwt beam="1">  1        2 0.55556462E-02 0.94791099E+02</pdfrwt>
<pdfrwt beam="2">  1       -2 0.15399865E-01 0.94791099E+02</pdfrwt>
<totfact> 0.38980671E+04</totfact>
</mgrwt>
</event>
<event>
 6    1  0.1683416E-002  0.9251799E+02  0.7546771E-02  0.1376471E+00
          2   -1    0    0  501    0  0.00000000000E+00  0.00000000000E+00  0.64200629994E+02  0.64200629994E+02  0.00000000000E+00 0. -1.
         -2   -1    0    0    0  501 -0.00000000000E+00 -0.00000000000E+00 -0.72310610605E+02  0.72310610605E+02  0.00000000000E+00 0.  1.
         23    2    1    2    0    0  0.22964918616E+02  0.25119822498E+01 -0.36894062866E+02  0.99602963301E+02  0.89587280802E+02 0.  0.
         13    1    3    3    0    0 -0.21206154047E+02  0.29940188347E+02 -0.15286018783E+01  0.36721280906E+02  0.00000000000E+00 0. -1.
        -13    1    3    3    0    0  0.44171072663E+02 -0.27428206097E+02 -0.35365460988E+02  0.62881682394E+02  0.00000000000E+00 0.  1.
         22    1    1    2    0    0 -0.22964918616E+02 -0.25119822498E+01  0.28784082256E+02  0.36908277299E+02  0.00000000000E+00 0. -1.
<mgrwt>
<rscale>  0 0.65400571E+02</rscale>
<asrwt>0</asrwt>
<pdfrwt beam="1">  1        2 0.98770200E-02 0.92517990E+02</pdfrwt>
<pdfrwt beam="2">  1       -2 0.11124709E-01 0.92517990E+02</pdfrwt>
<totfact> 0.31820467E+04</totfact>
</mgrwt>
</event>
<event>
 6    1  0.1683416E-002  0.9440560E+02  0.7546771E-02  0.1392532E+00
          4   -1    0    0  501    0  0.00000000000E+00  0.00000000000E+00  0.70297266132E+02  0.70297266132E+02  0.00000000000E+00 0. -1.
         -4   -1    0    0    0  501 -0.00000000000E+00 -0.00000000000E+00 -0.51800164439E+02  0.51800164439E+02  0.00000000000E+00 0.  1.
         23    2    1    2    0    0  0.40866306595E+01 -0.16256026115E+02 -0.34656084958E+01  0.94469191865E+02  0.92905644792E+02 0.  0.
         13    1    3    3    0    0 -0.81850067573E+01 -0.22297064532E+01  0.43301908045E+02  0.44125062797E+02  0.00000000000E+00 0. -1.
        -13    1    3    3    0    0  0.12271637417E+02 -0.14026319662E+02 -0.46767516541E+02  0.50344129068E+02  0.00000000000E+00 0.  1.
         22    1    1    2    0    0 -0.40866306595E+01  0.16256026115E+02  0.21962710188E+02  0.27628238706E+02  0.00000000000E+00 0. -1.
<mgrwt>
<rscale>  0 0.61281401E+02</rscale>
<asrwt>0</asrwt>
<pdfrwt beam="1">  1        4 0.10814964E-01 0.94405602E+02</pdfrwt>
<pdfrwt beam="2">  1       -4 0.79692560E-02 0.94405602E+02</pdfrwt>
<totfact> 0.10826962E+04</totfact>
</mgrwt>
</event>
<event>
 6    1  0.1683416E-002  0.1235274E+03  0.7546771E-02  0.1256423E+00
         -2   -1    0    0    0  501 -0.00000000000E+00  0.00000000000E+00  0.17636909620E+02  0.17636909620E+02  0.00000000000E+00 0.  1.
          2   -1    0    0  501    0  0.00000000000E+00 -0.00000000000E+00 -0.75892320734E+03  0.75892320734E+03  0.00000000000E+00 0. -1.
         23    2    1    2    0    0  0.56929460298E+02  0.62156322001E+02 -0.59536527135E+03  0.60804507979E+03  0.90303050426E+02 0.  0.
         11    1    3    3    0    0  0.80553930852E+02  0.38313986288E+02 -0.40084005047E+03  0.41064539859E+03  0.00000000000E+00 0.  1.
        -11    1    3    3    0    0 -0.23624470554E+02  0.23842335713E+02 -0.19452522088E+03  0.19739968120E+03  0.00000000000E+00 0. -1.
         22    1    1    2    0    0 -0.56929460298E+02 -0.62156322001E+02 -0.14592102637E+03  0.16851503717E+03  0.00000000000E+00 0.  1.
<mgrwt>
<rscale>  0 0.11226985E+03</rscale>
<asrwt>0</asrwt>
<pdfrwt beam="1">  1        2 0.11675742E+00 0.12352738E+03</pdfrwt>
<pdfrwt beam="2">  1       -2 0.27133707E-02 0.12352738E+03</pdfrwt>
<totfact> 0.17594864E+04</totfact>
</mgrwt>
</event>
<event>
 6    1  0.1683416E-002  0.1107565E+03  0.7546771E-02  0.1320902E+00
          2   -1    0    0  501    0  0.00000000000E+00  0.00000000000E+00  0.93571121418E+02  0.93571121418E+02  0.00000000000E+00 0. -1.
         -2   -1    0    0    0  501 -0.00000000000E+00 -0.00000000000E+00 -0.11911286981E+03  0.11911286981E+03  0.00000000000E+00 0.  1.
         23    2    1    2    0    0  0.13319713811E+02 -0.32187212052E+02 -0.87804823718E+02  0.14133890069E+03  0.10513594240E+03 0.  0.
         13    1    3    3    0    0  0.21787176621E+02  0.24028641123E+02 -0.76888991297E+02  0.83450426254E+02  0.00000000000E+00 0.  1.
        -13    1    3    3    0    0 -0.84674628101E+01 -0.56215853175E+02 -0.10915832421E+02  0.57888474432E+02  0.00000000000E+00 0. -1.
         22    1    1    2    0    0 -0.13319713811E+02  0.32187212052E+02  0.62263075325E+02  0.71345090543E+02  0.00000000000E+00 0. -1.
<mgrwt>
<rscale>  0 0.82942813E+02</rscale>
<asrwt>0</asrwt>
<pdfrwt beam="1">  1        2 0.14395557E-01 0.11075648E+03</pdfrwt>
<pdfrwt beam="2">  1       -2 0.18325057E-01 0.11075648E+03</pdfrwt>
<totfact> 0.92467746E+03</totfact>
</mgrwt>
</event>
<event>
 6    1  0.1683416E-002  0.9831948E+02  0.7546771E-02  0.1388755E+00
          2   -1    0    0  501    0  0.00000000000E+00  0.00000000000E+00  0.10955690409E+03  0.10955690409E+03  0.00000000000E+00 0. -1.
         -2   -1    0    0    0  501 -0.00000000000E+00 -0.00000000000E+00 -0.80220667997E+02  0.80220667997E+02  0.00000000000E+00 0.  1.
         23    2    1    2    0    0  0.12153708191E+02 -0.10042950023E+02 -0.49012147831E+02  0.10985859605E+03  0.97047138146E+02 0.  0.
         11    1    3    3    0    0  0.38289489742E+02 -0.15156015046E+02  0.12328928589E+02  0.42985954647E+02  0.00000000000E+00 0. -1.
        -11    1    3    3    0    0 -0.26135781551E+02  0.51130650227E+01 -0.61341076420E+02  0.66872641399E+02  0.00000000000E+00 0.  1.
         22    1    1    2    0    0 -0.12153708191E+02  0.10042950023E+02  0.78348383926E+02  0.79918976043E+02  0.00000000000E+00 0. -1.
<mgrwt>
<rscale>  0 0.62217353E+02</rscale>
<asrwt>0</asrwt>
<pdfrwt beam="1">  1        2 0.16854908E-01 0.98319482E+02</pdfrwt>
<pdfrwt beam="2">  1       -2 0.12341641E-01 0.98319482E+02</pdfrwt>
<totfact> 0.14482080E+04</totfact>
</mgrwt>
</event>
<event>
 6    1  0.1683416E-002  0.9492678E+02  0.7546771E-02  0.1346740E+00
          2   -1    0    0  501    0  0.00000000000E+00  0.00000000000E+00  0.34783619978E+03  0.34783619978E+03  0.00000000000E+00 0. -1.
         -2   -1    0    0    0  501 -0.00000000000E+00 -0.00000000000E+00 -0.16136717634E+02  0.16136717634E+02  0.00000000000E+00 0.  1.
         23    2    1    2    0    0  0.26110214242E+02 -0.23622341645E+02  0.14052455216E+03  0.16958255714E+03  0.88155179164E+02 0.  0.
         11    1    3    3    0    0 -0.14410852451E+02 -0.15361767808E+02 -0.20205508858E+01  0.21159848875E+02  0.00000000000E+00 0.  1.
        -11    1    3    3    0    0  0.40521066693E+02 -0.82605738365E+01  0.14254510304E+03  0.14842270826E+03  0.00000000000E+00 0. -1.
         22    1    1    2    0    0 -0.26110214242E+02  0.23622341645E+02  0.19117492999E+03  0.19439036027E+03  0.00000000000E+00 0. -1.
<mgrwt>
<rscale>  0 0.74081317E+02</rscale>
<asrwt>0</asrwt>
<pdfrwt beam="1">  1        2 0.53513256E-01 0.94926782E+02</pdfrwt>
<pdfrwt beam="2">  1       -2 0.24825722E-02 0.94926782E+02</pdfrwt>
<totfact> 0.46170760E+04</totfact>
</mgrwt>
</event>
<event>
 6    1  0.1683416E-002  0.9485905E+02  0.7546771E-02  0.1396300E+00
          1   -1    0    0  501    0  0.00000000000E+00  0.00000000000E+00  0.85127077478E+02  0.85127077478E+02  0.00000000000E+00 0. -1.
         -1   -1    0    0    0  501 -0.00000000000E+00 -0.00000000000E+00 -0.35874231333E+02  0.35874231333E+02  0.00000000000E+00 0.  1.
         23    2    1    2    0    0 -0.11208855525E+02  0.10789227614E+02  0.44130786402E+02  0.10462201180E+03  0.93574532697E+02 0.  0.
         11    1    3    3    0    0 -0.63460384962E+01  0.54855413658E+00 -0.29471395415E+02  0.30151886573E+02  0.00000000000E+00 0.  1.
        -11    1    3    3    0    0 -0.48628170283E+01  0.10240673477E+02  0.73602181817E+02  0.74470125224E+02  0.00000000000E+00 0. -1.
         22    1    1    2    0    0  0.11208855525E+02 -0.10789227614E+02  0.51220597423E+01  0.16379297014E+02  0.00000000000E+00 0.  1.
<mgrwt>
<rscale>  0 0.60366540E+02</rscale>
<asrwt>0</asrwt>
<pdfrwt beam="1">  1        1 0.13096473E-01 0.94859048E+02</pdfrwt>
<pdfrwt beam="2">  1       -1 0.55191126E-02 0.94859048E+02</pdfrwt>
<totfact> 0.58358217E+04</totfact>
</mgrwt>
</event>
<event>
 6    1  0.1683416E-002  0.9296020E+02  0.7546771E-02  0.1382389E+00
         -2   -1    0    0    0  501 -0.00000000000E+00  0.00000000000E+00  0.13904184959E+03  0.13904184959E+03  0.00000000000E+00 0.  1.
          2   -1    0    0  501    0  0.00000000000E+00 -0.00000000000E+00 -0.23564456479E+02  0.23564456479E+02  0.00000000000E+00 0. -1.
         23    2    1    2    0    0 -0.13575296599E+02 -0.15595969143E+02  0.10156656921E+03  0.13768575325E+03  0.90631538305E+02 0.  0.
         13    1    3    3    0    0 -0.25674452263E+02 -0.37762998631E+02  0.10271234870E+03  0.11240573002E+03  0.00000000000E+00 0.  1.
        -13    1    3    3    0    0  0.12099155664E+02  0.22167029488E+02 -0.11457794901E+01  0.25280023235E+02  0.00000000000E+00 0. -1.
         22    1    1    2    0    0  0.13575296599E+02  0.15595969143E+02  0.13910823902E+02  0.24920552821E+02  0.00000000000E+00 0. -1.
<mgrwt>
<rscale>  0 0.63839975E+02</rscale>
<asrwt>0</asrwt>
<pdfrwt beam="1">  1        2 0.36253011E-02 0.92960199E+02</pdfrwt>
<pdfrwt beam="2">  1       -2 0.21391053E-01 0.92960199E+02</pdfrwt>
<totfact> 0.39284222E+04</totfact>
</mgrwt>
</event>
<event>
 6    1  0.1683416E-002  0.9453617E+02  0.7546771E-02  0.1368299E+00
         -2   -1    0    0    0  501 -0.00000000000E+00  0.00000000000E+00  0.27031574456E+03  0.27031574456E+03  0.00000000000E+00 0.  1.
          2   -1    0    0  501    0  0.00000000000E+00 -0.00000000000E+00 -0.14031384870E+02  0.14031384870E+02  0.00000000000E+00 0. -1.
         23    2    1    2    0    0 -0.22860966229E+02  0.95581953185E+01  0.22753859907E+03  0.24639582341E+03  0.91231052027E+02 0.  0.
         11    1    3    3    0    0  0.28528461073E+02  0.15143092723E+02  0.37691074970E+02  0.49636715048E+02  0.00000000000E+00 0. -1.
        -11    1    3    3    0    0 -0.51389427302E+02 -0.55848974043E+01  0.18984752410E+03  0.19675910837E+03  0.00000000000E+00 0.  1.
         22    1    1    2    0    0  0.22860966229E+02 -0.95581953185E+01  0.28745760616E+02  0.37951306013E+02  0.00000000000E+00 0. -1.
<mgrwt>
<rscale>  0 0.67642249E+02</rscale>
<asrwt>0</asrwt>
<pdfrwt beam="1">  1        2 0.21586748E-02 0.94536172E+02</pdfrwt>
<pdfrwt beam="2">  1       -2 0.41587034E-01 0.94536172E+02</pdfrwt>
<totfact> 0.23982094E+04</totfact>
</mgrwt>
</event>
<event>
 6    1  0.1683416E-002  0.9125863E+02  0.7546771E-02  0.1405612E+00
          2   -1    0    0  501    0  0.00000000000E+00  0.00000000000E+00  0.87592609272E+02  0.87592609272E+02  0.00000000000E+00 0. -1.
         -2   -1    0    0    0  501 -0.00000000000E+00 -0.00000000000E+00 -0.33205175571E+02  0.33205175571E+02  0.00000000000E+00 0.  1.
         23    2    1    2    0    0  0.11965160318E+02 -0.91788265930E+01  0.53287713434E+02  0.10567742428E+03  0.90004009240E+02 0.  0.
         11    1    3    3    0    0 -0.73593687342E+00  0.11076874960E+01  0.76926808925E+02  0.76938303244E+02  0.00000000000E+00 0. -1.
        -11    1    3    3    0    0  0.12701097191E+02 -0.10286514089E+02 -0.23639095492E+02  0.28739121031E+02  0.00000000000E+00 0.  1.
         22    1    1    2    0    0 -0.11965160318E+02  0.91788265930E+01  0.10997202677E+01  0.15120360568E+02  0.00000000000E+00 0.  1.
<mgrwt>
<rscale>  0 0.58184602E+02</rscale>
<asrwt>0</asrwt>
<pdfrwt beam="1">  1        2 0.13475786E-01 0.91258630E+02</pdfrwt>
<pdfrwt beam="2">  1       -2 0.51084886E-02 0.91258630E+02</pdfrwt>
<totfact> 0.71817634E+04</totfact>
</mgrwt>
</event>
<event>
 6    1  0.1683416E-002  0.9473188E+02  0.7546771E-02  0.1417816E+00
         -1   -1    0    0    0  501 -0.00000000000E+00  0.00000000000E+00  0.76623484715E+02  0.76623484715E+02  0.00000000000E+00 0.  1.
          1   -1    0    0  501    0  0.00000000000E+00 -0.00000000000E+00 -0.55205141944E+02  0.55205141944E+02  0.00000000000E+00 0. -1.
         23    2    1    2    0    0 -0.11001904997E+02  0.18045876900E+01  0.45648456429E+02  0.10515660277E+03  0.94073540819E+02 0.  0.
         11    1    3    3    0    0 -0.33830365612E+02 -0.13494387519E+02  0.62918077211E+02  0.72699907647E+02  0.00000000000E+00 0.  1.
        -11    1    3    3    0    0  0.22828460615E+02  0.15298975209E+02 -0.17269620783E+02  0.32456695126E+02  0.00000000000E+00 0. -1.
         22    1    1    2    0    0  0.11001904997E+02 -0.18045876900E+01 -0.24230113658E+02  0.26672023886E+02  0.00000000000E+00 0. -1.
<mgrwt>
<rscale>  0 0.55485607E+02</rscale>
<asrwt>0</asrwt>
<pdfrwt beam="1">  1        1 0.84930988E-02 0.94731882E+02</pdfrwt>
<pdfrwt beam="2">  1       -1 0.11788228E-01 0.94731882E+02</pdfrwt>
<totfact> 0.33030102E+04</totfact>
</mgrwt>
</event>
<event>
 6    1  0.1683416E-002  0.8930390E+02  0.7546771E-02  0.1436357E+00
          1   -1    0    0  501    0  0.00000000000E+00  0.00000000000E+00  0.46501527859E+01  0.46501527859E+01  0.00000000000E+00 0. -1.
         -1   -1    0    0    0  501 -0.00000000000E+00 -0.00000000000E+00 -0.69899795005E+03  0.69899795005E+03  0.00000000000E+00 0.  1.
         23    2    1    2    0    0  0.58210898216E+00 -0.10017977276E+02 -0.68159542701E+03  0.68742091372E+03  0.88738310647E+02 0.  0.
         11    1    3    3    0    0  0.60661586334E+01  0.31467747170E+02 -0.50170010531E+03  0.50272260051E+03  0.00000000000E+00 0.  1.
        -11    1    3    3    0    0 -0.54840496513E+01 -0.41485724446E+02 -0.17989532170E+03  0.18469831321E+03  0.00000000000E+00 0. -1.
         22    1    1    2    0    0 -0.58210898216E+00  0.10017977276E+02 -0.12752370255E+02  0.16227189119E+02  0.00000000000E+00 0. -1.
<mgrwt>
<rscale>  0 0.51704794E+02</rscale>
<asrwt>0</asrwt>
<pdfrwt beam="1">  1        1 0.71540839E-03 0.89303900E+02</pdfrwt>
<pdfrwt beam="2">  1       -1 0.10753811E+00 0.89303900E+02</pdfrwt>
<totfact> 0.19792396E+04</totfact>
</mgrwt>
</event>
<event>
 6    1  0.1683416E-002  0.9171026E+02  0.7546771E-02  0.1404279E+00
         -1   -1    0    0    0  501 -0.00000000000E+00  0.00000000000E+00  0.34882303903E+03  0.34882303903E+03  0.00000000000E+00 0.  1.
          1   -1    0    0  501    0  0.00000000000E+00 -0.00000000000E+00 -0.82445472307E+01  0.82445472307E+01  0.00000000000E+00 0. -1.
         23    2    1    2    0    0 -0.13423023348E+02 -0.70748807019E+01  0.30178092257E+03  0.31540845916E+03  0.90446334306E+02 0.  0.
         11    1    3    3    0    0  0.22246355130E+02 -0.22592531754E+02  0.24211688281E+03  0.24418416769E+03  0.00000000000E+00 0.  1.
        -11    1    3    3    0    0 -0.35669378478E+02  0.15517651053E+02  0.59664039760E+02  0.71224291472E+02  0.00000000000E+00 0. -1.
         22    1    1    2    0    0  0.13423023348E+02  0.70748807019E+01  0.38797569233E+02  0.41659127105E+02  0.00000000000E+00 0.  1.
<mgrwt>
<rscale>  0 0.58490323E+02</rscale>
<asrwt>0</asrwt>
<pdfrwt beam="1">  1        1 0.12683922E-02 0.91710255E+02</pdfrwt>
<pdfrwt beam="2">  1       -1 0.53665071E-01 0.91710255E+02</pdfrwt>
<totfact> 0.36296678E+04</totfact>
</mgrwt>
</event>
<event>
 6    1  0.1683416E-002  0.9172447E+02  0.7546771E-02  0.1413491E+00
          1   -1    0    0  501    0  0.00000000000E+00  0.00000000000E+00  0.16265752940E+01  0.16265752940E+01  0.00000000000E+00 0. -1.
         -1   -1    0    0    0  501 -0.00000000000E+00 -0.00000000000E+00 -0.23530501971E+04  0.23530501971E+04  0.00000000000E+00 0.  1.
         23    2    1    2    0    0  0.11656287138E+02 -0.60486087136E+01 -0.22913218952E+04  0.22931570825E+04  0.90779530421E+02 0.  0.
         13    1    3    3    0    0 -0.24755703880E+02  0.20061268819E+02 -0.38744839526E+03  0.38875642550E+03  0.00000000000E+00 0. -1.
        -13    1    3    3    0    0  0.36411991019E+02 -0.26109877533E+02 -0.19038734999E+04  0.19044006570E+04  0.00000000000E+00 0.  1.
         22    1    1    2    0    0 -0.11656287138E+02  0.60486087136E+01 -0.60101726653E+02  0.61519689888E+02  0.00000000000E+00 0. -1.
<mgrwt>
<rscale>  0 0.56421974E+02</rscale>
<asrwt>0</asrwt>
<pdfrwt beam="1">  1        1 0.25024175E-03 0.91724467E+02</pdfrwt>
<pdfrwt beam="2">  1       -1 0.36200860E+00 0.91724467E+02</pdfrwt>
<totfact> 0.17313538E+03</totfact>
</mgrwt>
</event>
<event>
 6    1  0.1683416E-002  0.7399290E+02  0.7546771E-02  0.1465817E+00
         -2   -1    0    0    0  501 -0.00000000000E+00  0.00000000000E+00  0.60960592133E+01  0.60960592133E+01  0.00000000000E+00 0.  1.
          2   -1    0    0  501    0  0.00000000000E+00 -0.00000000000E+00 -0.30498648750E+03  0.30498648750E+03  0.00000000000E+00 0. -1.
         23    2    1    2    0    0  0.89980286030E+01 -0.70596626165E+01 -0.24222040360E+03  0.25326996112E+03  0.73103665643E+02 0.  0.
         11    1    3    3    0    0 -0.30660882146E+02 -0.13869955889E+02 -0.10374267585E+03  0.10906423869E+03  0.00000000000E+00 0. -1.
        -11    1    3    3    0    0  0.39658910749E+02  0.68102932726E+01 -0.13847772775E+03  0.14420572242E+03  0.00000000000E+00 0.  1.
         22    1    1    2    0    0 -0.89980286030E+01  0.70596626165E+01 -0.56670024687E+02  0.57812585594E+02  0.00000000000E+00 0.  1.
<mgrwt>
<rscale>  0 0.46394863E+02</rscale>
<asrwt>0</asrwt>
<pdfrwt beam="1">  1        2 0.46920986E-01 0.73992900E+02</pdfrwt>
<pdfrwt beam="2">  1       -2 0.93785551E-03 0.73992900E+02</pdfrwt>
<totfact> 0.20401638E+05</totfact>
</mgrwt>
</event>
<event>
 6    1  0.1683416E-002  0.9283110E+02  0.7546771E-02  0.1409578E+00
         -2   -1    0    0    0  501 -0.00000000000E+00  0.00000000000E+00  0.29911971426E+02  0.29911971426E+02  0.00000000000E+00 0. -1.
          2   -1    0    0  501    0  0.00000000000E+00 -0.00000000000E+00 -0.10169723436E+03  0.10169723436E+03  0.00000000000E+00 0.  1.
         23    2    1    2    0    0 -0.70272688123E+01  0.11484698222E+02 -0.48563605921E+02  0.10476658753E+03  0.91849514116E+02 0.  0.
         13    1    3    3    0    0  0.37443115887E+02  0.26485443243E+02 -0.22558288491E+02  0.51111075226E+02  0.00000000000E+00 0. -1.
        -13    1    3    3    0    0 -0.44470384699E+02 -0.15000745021E+02 -0.26005317430E+02  0.53655512308E+02  0.00000000000E+00 0.  1.
         22    1    1    2    0    0  0.70272688123E+01 -0.11484698222E+02 -0.23221657017E+02  0.26842618256E+02  0.00000000000E+00 0.  1.
<mgrwt>
<rscale>  0 0.57288060E+02</rscale>
<asrwt>0</asrwt>
<pdfrwt beam="1">  1        2 0.15645728E-01 0.92831105E+02</pdfrwt>
<pdfrwt beam="2">  1       -2 0.46018418E-02 0.92831105E+02</pdfrwt>
<totfact> 0.70682329E+04</totfact>
</mgrwt>
</event>
<event>
 6    1  0.1683416E-002  0.9760307E+02  0.7546771E-02  0.1352796E+00
          3   -1    0    0  501    0  0.00000000000E+00  0.00000000000E+00  0.92468713855E+02  0.92468713855E+02  0.00000000000E+00 0. -1.
         -3   -1    0    0    0  501 -0.00000000000E+00 -0.00000000000E+00 -0.59538150360E+02  0.59538150360E+02  0.00000000000E+00 0.  1.
         23    2    1    2    0    0 -0.26840417936E+02  0.11527910755E+02 -0.12080441322E+02  0.98347835934E+02  0.93129259682E+02 0.  0.
         13    1    3    3    0    0 -0.81076046810E+01  0.51188075855E+02 -0.16184732330E+02  0.54294547829E+02  0.00000000000E+00 0.  1.
        -13    1    3    3    0    0 -0.18732813255E+02 -0.39660165100E+02  0.41042910072E+01  0.44053288105E+02  0.00000000000E+00 0. -1.
         22    1    1    2    0    0  0.26840417936E+02 -0.11527910755E+02  0.45011004817E+02  0.53659028281E+02  0.00000000000E+00 0. -1.
<mgrwt>
<rscale>  0 0.72191387E+02</rscale>
<asrwt>0</asrwt>
<pdfrwt beam="1">  1        3 0.14225956E-01 0.97603073E+02</pdfrwt>
<pdfrwt beam="2">  1       -3 0.91597154E-02 0.97603073E+02</pdfrwt>
<totfact> 0.73252505E+03</totfact>
</mgrwt>
</event>
<event>
 6    1  0.1683416E-002  0.9377596E+02  0.7546771E-02  0.1373258E+00
          2   -1    0    0  501    0  0.00000000000E+00  0.00000000000E+00  0.33440846204E+02  0.33440846204E+02  0.00000000000E+00 0. -1.
         -2   -1    0    0    0  501 -0.00000000000E+00 -0.00000000000E+00 -0.10899786124E+03  0.10899786124E+03  0.00000000000E+00 0.  1.
         23    2    1    2    0    0 -0.33300481013E+01  0.23149237492E+02 -0.73141226646E+02  0.11892674346E+03  0.90812746126E+02 0.  0.
         13    1    3    3    0    0  0.22475799862E+02  0.17292460970E+02 -0.85237429772E+02  0.89831009234E+02  0.00000000000E+00 0.  1.
        -13    1    3    3    0    0 -0.25805847963E+02  0.58567765221E+01  0.12096203127E+02  0.29095734230E+02  0.00000000000E+00 0. -1.
         22    1    1    2    0    0  0.33300481013E+01 -0.23149237492E+02 -0.24157883945E+01  0.23511963984E+02  0.00000000000E+00 0.  1.
<mgrwt>
<rscale>  0 0.66269657E+02</rscale>
<asrwt>0</asrwt>
<pdfrwt beam="1">  1        2 0.51447455E-02 0.93775963E+02</pdfrwt>
<pdfrwt beam="2">  1       -2 0.16768902E-01 0.93775963E+02</pdfrwt>
<totfact> 0.37388444E+04</totfact>
</mgrwt>
</event>
<event>
 6    1  0.1683416E-002  0.9596113E+02  0.7546771E-02  0.1372569E+00
          2   -1    0    0  501    0  0.00000000000E+00  0.00000000000E+00  0.33571611060E+03  0.33571611060E+03  0.00000000000E+00 0. -1.
         -2   -1    0    0    0  501 -0.00000000000E+00 -0.00000000000E+00 -0.12312790179E+02  0.12312790179E+02  0.00000000000E+00 0.  1.
         23    2    1    2    0    0 -0.14458149868E+02  0.16681912332E+02  0.19049760183E+03  0.21330230974E+03  0.93387444251E+02 0.  0.
         11    1    3    3    0    0 -0.84766773053E+01 -0.38841503505E+02  0.88447551594E+02  0.96971572307E+02  0.00000000000E+00 0. -1.
        -11    1    3    3    0    0 -0.59814725624E+01  0.55523415837E+02  0.10205005023E+03  0.11633073744E+03  0.00000000000E+00 0.  1.
         22    1    1    2    0    0  0.14458149868E+02 -0.16681912332E+02  0.13290571860E+03  0.13472659104E+03  0.00000000000E+00 0. -1.
<mgrwt>
<rscale>  0 0.66458232E+02</rscale>
<asrwt>0</asrwt>
<pdfrwt beam="1">  1        2 0.51648625E-01 0.95961133E+02</pdfrwt>
<pdfrwt beam="2">  1       -2 0.18942757E-02 0.95961133E+02</pdfrwt>
<totfact> 0.70867353E+04</totfact>
</mgrwt>
</event>
<event>
 6    1  0.1683416E-002  0.9578440E+02  0.7546771E-02  0.1365689E+00
         -4   -1    0    0    0  501 -0.00000000000E+00  0.00000000000E+00  0.27350934080E+02  0.27350934080E+02  0.00000000000E+00 0. -1.
          4   -1    0    0  501    0  0.00000000000E+00 -0.00000000000E+00 -0.20681152932E+03  0.20681152932E+03  0.00000000000E+00 0.  1.
         23    2    1    2    0    0 -0.77763330196E+01  0.23632954238E+02 -0.62007827630E+02  0.11410355910E+03  0.92496830387E+02 0.  0.
         13    1    3    3    0    0 -0.24968310455E+02 -0.24375206276E+02 -0.51228229279E+02  0.61983051579E+02  0.00000000000E+00 0. -1.
        -13    1    3    3    0    0  0.17191977435E+02  0.48008160514E+02 -0.10779598350E+02  0.52120507525E+02  0.00000000000E+00 0.  1.
         22    1    1    2    0    0  0.77763330196E+01 -0.23632954238E+02 -0.11745276761E+03  0.12005890430E+03  0.00000000000E+00 0.  1.
<mgrwt>
<rscale>  0 0.68380356E+02</rscale>
<asrwt>0</asrwt>
<pdfrwt beam="1">  1        4 0.31817158E-01 0.95784401E+02</pdfrwt>
<pdfrwt beam="2">  1       -4 0.42078361E-02 0.95784401E+02</pdfrwt>
<totfact> 0.44745398E+03</totfact>
</mgrwt>
</event>
<event>
 6    1  0.1683416E-002  0.9326081E+02  0.7546771E-02  0.1370346E+00
          4   -1    0    0  501    0  0.00000000000E+00  0.00000000000E+00  0.21733553204E+02  0.21733553204E+02  0.00000000000E+00 0. -1.
         -4   -1    0    0    0  501 -0.00000000000E+00 -0.00000000000E+00 -0.17093731313E+03  0.17093731313E+03  0.00000000000E+00 0.  1.
         23    2    1    2    0    0  0.24647071308E+02 -0.38661408964E+01 -0.13463281261E+03  0.16377903920E+03  0.89861862213E+02 0.  0.
         13    1    3    3    0    0  0.44369814128E+02 -0.29264614903E+02 -0.48939237193E+02  0.72250584968E+02  0.00000000000E+00 0. -1.
        -13    1    3    3    0    0 -0.19722742820E+02  0.25398474007E+02 -0.85693575420E+02  0.91528454234E+02  0.00000000000E+00 0.  1.
         22    1    1    2    0    0 -0.24647071308E+02  0.38661408964E+01 -0.14570947318E+02  0.28891827136E+02  0.00000000000E+00 0. -1.
<mgrwt>
<rscale>  0 0.67071079E+02</rscale>
<asrwt>0</asrwt>
<pdfrwt beam="1">  1        4 0.33436238E-02 0.93260814E+02</pdfrwt>
<pdfrwt beam="2">  1       -4 0.26298047E-01 0.93260814E+02</pdfrwt>
<totfact> 0.90931151E+03</totfact>
</mgrwt>
</event>
<event>
 6    1  0.1683416E-002  0.9518176E+02  0.7546771E-02  0.1373846E+00
          4   -1    0    0  501    0  0.00000000000E+00  0.00000000000E+00  0.45377910981E+02  0.45377910981E+02  0.00000000000E+00 0. -1.
         -4   -1    0    0    0  501 -0.00000000000E+00 -0.00000000000E+00 -0.84527973793E+02  0.84527973793E+02  0.00000000000E+00 0.  1.
         23    2    1    2    0    0  0.21387095389E+01  0.22047439428E+02 -0.47320937389E+02  0.10629599585E+03  0.92568374480E+02 0.  0.
         11    1    3    3    0    0  0.68190204718E+01  0.52387216605E+02 -0.37039098865E+01  0.52958837339E+02  0.00000000000E+00 0. -1.
        -11    1    3    3    0    0 -0.46803109329E+01 -0.30339777177E+02 -0.43617027502E+02  0.53337158508E+02  0.00000000000E+00 0.  1.
         22    1    1    2    0    0 -0.21387095389E+01 -0.22047439428E+02  0.81708745763E+01  0.23609888927E+02  0.00000000000E+00 0. -1.
<mgrwt>
<rscale>  0 0.66109411E+02</rscale>
<asrwt>0</asrwt>
<pdfrwt beam="1">  1        4 0.69812171E-02 0.95181761E+02</pdfrwt>
<pdfrwt beam="2">  1       -4 0.13004304E-01 0.95181761E+02</pdfrwt>
<totfact> 0.98591881E+03</totfact>
</mgrwt>
</event>
<event>
 6    1  0.1683416E-002  0.1002816E+03  0.7546771E-02  0.1346940E+00
         -2   -1    0    0    0  501 -0.00000000000E+00  0.00000000000E+00  0.75309890805E+02  0.75309890805E+02  0.00000000000E+00 0.  1.
          2   -1    0    0  501    0  0.00000000000E+00 -0.00000000000E+00 -0.59609186135E+02  0.59609186135E+02  0.00000000000E+00 0. -1.
         23    2    1    2    0    0 -0.16958725646E+02  0.24459152963E+02  0.25697569316E+02  0.10352185028E+03  0.95763040248E+02 0.  0.
         11    1    3    3    0    0  0.16102751761E+02 -0.31068230045E+02  0.14756773002E+02  0.37977570774E+02  0.00000000000E+00 0. -1.
        -11    1    3    3    0    0 -0.33061477407E+02  0.55527383008E+02  0.10940796313E+02  0.65544279507E+02  0.00000000000E+00 0.  1.
         22    1    1    2    0    0  0.16958725646E+02 -0.24459152963E+02 -0.99968646452E+01  0.31397226660E+02  0.00000000000E+00 0. -1.
<mgrwt>
<rscale>  0 0.74017774E+02</rscale>
<asrwt>0</asrwt>
<pdfrwt beam="1">  1        2 0.91706440E-02 0.10028165E+03</pdfrwt>
<pdfrwt beam="2">  1       -2 0.11586137E-01 0.10028165E+03</pdfrwt>
<totfact> 0.33007635E+04</totfact>
</mgrwt>
</event>
<event>
 6    1  0.1683416E-002  0.9202732E+02  0.7546771E-02  0.1389853E+00
         -1   -1    0    0    0  501 -0.00000000000E+00  0.00000000000E+00  0.20872101379E+03  0.20872101379E+03  0.00000000000E+00 0.  1.
          1   -1    0    0  501    0  0.00000000000E+00 -0.00000000000E+00 -0.46399502351E+02  0.46399502351E+02  0.00000000000E+00 0. -1.
         23    2    1    2    0    0  0.16949968844E+02  0.83377999746E+01  0.19598691898E+03  0.21651766628E+03  0.90067791411E+02 0.  0.
         13    1    3    3    0    0 -0.25153978024E+02  0.60326125207E+01  0.13413811488E+02  0.29138382984E+02  0.00000000000E+00 0. -1.
        -13    1    3    3    0    0  0.42103946868E+02  0.23051874539E+01  0.18257310749E+03  0.18737928330E+03  0.00000000000E+00 0.  1.
         22    1    1    2    0    0 -0.16949968844E+02 -0.83377999746E+01 -0.33665407541E+02  0.38602849857E+02  0.00000000000E+00 0. -1.
<mgrwt>
<rscale>  0 0.61943220E+02</rscale>
<asrwt>0</asrwt>
<pdfrwt beam="1">  1        1 0.71383851E-02 0.92027319E+02</pdfrwt>
<pdfrwt beam="2">  1       -1 0.32110925E-01 0.92027319E+02</pdfrwt>
<totfact> 0.84204355E+03</totfact>
</mgrwt>
</event>
<event>
 6    1  0.1683416E-002  0.9255575E+02  0.7546771E-02  0.1421651E+00
         -2   -1    0    0    0  501 -0.00000000000E+00  0.00000000000E+00  0.25894319991E+02  0.25894319991E+02  0.00000000000E+00 0.  1.
          2   -1    0    0  501    0  0.00000000000E+00 -0.00000000000E+00 -0.11130410949E+03  0.11130410949E+03  0.00000000000E+00 0. -1.
         23    2    1    2    0    0  0.10115915681E+02 -0.49655916170E+01 -0.62543371801E+02  0.11170604025E+03  0.91867171627E+02 0.  0.
         13    1    3    3    0    0 -0.22959007621E+02  0.33839884554E+02 -0.21196852491E+02  0.46060399185E+02  0.00000000000E+00 0.  1.
        -13    1    3    3    0    0  0.33074923302E+02 -0.38805476171E+02 -0.41346519309E+02  0.65645641068E+02  0.00000000000E+00 0. -1.
         22    1    1    2    0    0 -0.10115915681E+02  0.49655916170E+01 -0.22866417695E+02  0.25492389224E+02  0.00000000000E+00 0.  1.
<mgrwt>
<rscale>  0 0.54673042E+02</rscale>
<asrwt>0</asrwt>
<pdfrwt beam="1">  1        2 0.17123709E-01 0.92555746E+02</pdfrwt>
<pdfrwt beam="2">  1       -2 0.39837415E-02 0.92555746E+02</pdfrwt>
<totfact> 0.78824523E+04</totfact>
</mgrwt>
</event>
<event>
 6    1  0.1683416E-002  0.9216519E+02  0.7546771E-02  0.1393315E+00
          1   -1    0    0  501    0  0.00000000000E+00  0.00000000000E+00  0.11778084133E+03  0.11778084133E+03  0.00000000000E+00 0. -1.
         -1   -1    0    0    0  501 -0.00000000000E+00 -0.00000000000E+00 -0.26761097934E+02  0.26761097934E+02  0.00000000000E+00 0.  1.
         23    2    1    2    0    0  0.87419450909E+01  0.15493575387E+02  0.64058117456E+02  0.11224020935E+03  0.90432017009E+02 0.  0.
         11    1    3    3    0    0  0.27449931940E+02 -0.15096853273E+02 -0.74892474267E+01  0.32210286700E+02  0.00000000000E+00 0.  1.
        -11    1    3    3    0    0 -0.18707986850E+02  0.30590428659E+02  0.71547364882E+02  0.80029922648E+02  0.00000000000E+00 0. -1.
         22    1    1    2    0    0 -0.87419450909E+01 -0.15493575387E+02  0.26961625941E+02  0.32301729917E+02  0.00000000000E+00 0.  1.
<mgrwt>
<rscale>  0 0.61089586E+02</rscale>
<asrwt>0</asrwt>
<pdfrwt beam="1">  1        1 0.18120129E-01 0.92165190E+02</pdfrwt>
<pdfrwt beam="2">  1       -1 0.41170920E-02 0.92165190E+02</pdfrwt>
<totfact> 0.58923265E+04</totfact>
</mgrwt>
</event>
<event>
 6    1  0.1683416E-002  0.1046767E+03  0.7546771E-02  0.1316193E+00
         -2   -1    0    0    0  501 -0.00000000000E+00  0.00000000000E+00  0.57532104514E+03  0.57532104514E+03  0.00000000000E+00 0.  1.
          2   -1    0    0  501    0  0.00000000000E+00 -0.00000000000E+00 -0.10637561088E+02  0.10637561088E+02  0.00000000000E+00 0. -1.
         23    2    1    2    0    0 -0.43043488965E+02  0.12754538479E+02  0.46493803747E+03  0.47657590966E+03  0.94561084970E+02 0.  0.
         11    1    3    3    0    0  0.17479495644E+02  0.34892406339E+01  0.30180788612E+03  0.30233376870E+03  0.00000000000E+00 0. -1.
        -11    1    3    3    0    0 -0.60522984609E+02  0.92652978448E+01  0.16313015134E+03  0.17424214096E+03  0.00000000000E+00 0.  1.
         22    1    1    2    0    0  0.43043488965E+02 -0.12754538479E+02  0.99745446581E+02  0.10938269656E+03  0.00000000000E+00 0. -1.
<mgrwt>
<rscale>  0 0.84709736E+02</rscale>
<asrwt>0</asrwt>
<pdfrwt beam="1">  1        2 0.16365483E-02 0.10467674E+03</pdfrwt>
<pdfrwt beam="2">  1       -2 0.88510906E-01 0.10467674E+03</pdfrwt>
<totfact> 0.75050568E+03</totfact>
</mgrwt>
</event>
<event>
 6    1  0.1683416E-002  0.9469799E+02  0.7546771E-02  0.1364398E+00
          2   -1    0    0  501    0  0.00000000000E+00  0.00000000000E+00  0.21357776640E+02  0.21357776640E+02  0.00000000000E+00 0. -1.
         -2   -1    0    0    0  501 -0.00000000000E+00 -0.00000000000E+00 -0.17899971059E+03  0.17899971059E+03  0.00000000000E+00 0.  1.
         23    2    1    2    0    0 -0.26141509857E+02  0.29355699000E+01 -0.13868723340E+03  0.16793408856E+03  0.90970947479E+02 0.  0.
         13    1    3    3    0    0 -0.45083362172E+01 -0.36390014039E+02 -0.21642709465E+02  0.42578927772E+02  0.00000000000E+00 0. -1.
        -13    1    3    3    0    0 -0.21633173640E+02  0.39325583939E+02 -0.11704452393E+03  0.12535516079E+03  0.00000000000E+00 0.  1.
         22    1    1    2    0    0  0.26141509857E+02 -0.29355699000E+01 -0.18954700553E+02  0.32423398670E+02  0.00000000000E+00 0. -1.
<mgrwt>
<rscale>  0 0.68749339E+02</rscale>
<asrwt>0</asrwt>
<pdfrwt beam="1">  1        2 0.32858116E-02 0.94697990E+02</pdfrwt>
<pdfrwt beam="2">  1       -2 0.27538418E-01 0.94697990E+02</pdfrwt>
<totfact> 0.29007214E+04</totfact>
</mgrwt>
</event>
<event>
 6    1  0.1683416E-002  0.9640619E+02  0.7546771E-02  0.1355082E+00
         -2   -1    0    0    0  501 -0.00000000000E+00  0.00000000000E+00  0.65652300149E+02  0.65652300149E+02  0.00000000000E+00 0.  1.
          2   -1    0    0  501    0  0.00000000000E+00 -0.00000000000E+00 -0.18795146279E+03  0.18795146279E+03  0.00000000000E+00 0. -1.
         23    2    1    2    0    0  0.13818929970E+02 -0.25677337318E+02  0.28088869877E+02  0.10041483122E+03  0.91890506801E+02 0.  0.
         11    1    3    3    0    0  0.31415288412E+01  0.20089238930E+02 -0.23201022368E+02  0.30850189029E+02  0.00000000000E+00 0. -1.
        -11    1    3    3    0    0  0.10677401129E+02 -0.45766576247E+02  0.51289892245E+02  0.69564642188E+02  0.00000000000E+00 0.  1.
         22    1    1    2    0    0 -0.13818929970E+02  0.25677337318E+02 -0.15038803252E+03  0.15318893172E+03  0.00000000000E+00 0. -1.
<mgrwt>
<rscale>  0 0.71494804E+02</rscale>
<asrwt>0</asrwt>
<pdfrwt beam="1">  1        2 0.28915610E-01 0.96406191E+02</pdfrwt>
<pdfrwt beam="2">  1       -2 0.10100354E-01 0.96406191E+02</pdfrwt>
<totfact> 0.10898104E+04</totfact>
</mgrwt>
</event>
<event>
 6    1  0.1683416E-002  0.9094411E+02  0.7546771E-02  0.1420715E+00
          2   -1    0    0  501    0  0.00000000000E+00  0.00000000000E+00  0.37538053654E+02  0.37538053654E+02  0.00000000000E+00 0. -1.
         -2   -1    0    0    0  501 -0.00000000000E+00 -0.00000000000E+00 -0.70663111053E+02  0.70663111053E+02  0.00000000000E+00 0.  1.
         23    2    1    2    0    0 -0.45446902655E+01  0.11160891510E+02 -0.29757430013E+02  0.95688745951E+02  0.90142175212E+02 0.  0.
         13    1    3    3    0    0  0.40850906127E+02 -0.27508383221E+00 -0.26641368223E+02  0.48771248737E+02  0.00000000000E+00 0.  1.
        -13    1    3    3    0    0 -0.45395596392E+02  0.11435975342E+02 -0.31160617899E+01  0.46917497215E+02  0.00000000000E+00 0. -1.
         22    1    1    2    0    0  0.45446902655E+01 -0.11160891510E+02 -0.33676273857E+01  0.12512418755E+02  0.00000000000E+00 0.  1.
<mgrwt>
<rscale>  0 0.54869896E+02</rscale>
<asrwt>0</asrwt>
<pdfrwt beam="1">  1        2 0.57750852E-02 0.90944112E+02</pdfrwt>
<pdfrwt beam="2">  1       -2 0.10871248E-01 0.90944112E+02</pdfrwt>
<totfact> 0.64252478E+04</totfact>
</mgrwt>
</event>
<event>
 6    1  0.1683416E-002  0.1125575E+03  0.7546771E-02  0.1370937E+00
          1   -1    0    0  501    0  0.00000000000E+00  0.00000000000E+00  0.23032280375E+02  0.23032280375E+02  0.00000000000E+00 0. -1.
         -1   -1    0    0    0  501 -0.00000000000E+00 -0.00000000000E+00 -0.17488867240E+03  0.17488867240E+03  0.00000000000E+00 0.  1.
         23    2    1    2    0    0 -0.13524540072E+02 -0.38183439528E+01 -0.13915454308E+03  0.17897814672E+03  0.11167675321E+03 0.  0.
         11    1    3    3    0    0 -0.11306675498E+02  0.50766259603E+02 -0.39416361869E+02  0.65258743536E+02  0.00000000000E+00 0. -1.
        -11    1    3    3    0    0 -0.22178645734E+01 -0.54584603556E+02 -0.99738181211E+02  0.11371940318E+03  0.00000000000E+00 0.  1.
         22    1    1    2    0    0  0.13524540072E+02  0.38183439528E+01 -0.12701848941E+02  0.18942806054E+02  0.00000000000E+00 0. -1.
<mgrwt>
<rscale>  0 0.66907494E+02</rscale>
<asrwt>0</asrwt>
<pdfrwt beam="1">  1        1 0.35434278E-02 0.11255750E+03</pdfrwt>
<pdfrwt beam="2">  1       -1 0.26905949E-01 0.11255750E+03</pdfrwt>
<totfact> 0.29812319E+04</totfact>
</mgrwt>
</event>
<event>
 6    1  0.1683416E-002  0.9570075E+02  0.7546771E-02  0.1400860E+00
          1   -1    0    0  501    0  0.00000000000E+00  0.00000000000E+00  0.25649192369E+01  0.25649192369E+01  0.00000000000E+00 0. -1.
         -1   -1    0    0    0  501 -0.00000000000E+00 -0.00000000000E+00 -0.12802869443E+04  0.12802869443E+04  0.00000000000E+00 0.  1.
         23    2    1    2    0    0  0.37548256380E+01 -0.13583981211E+02 -0.12038209951E+04  0.12076189885E+04  0.94657328346E+02 0.  0.
         13    1    3    3    0    0 -0.23371822284E+02 -0.45846948833E+02 -0.53431514755E+03  0.53678753869E+03  0.00000000000E+00 0. -1.
        -13    1    3    3    0    0  0.27126647922E+02  0.32262967623E+02 -0.66950584756E+03  0.67083144979E+03  0.00000000000E+00 0.  1.
         22    1    1    2    0    0 -0.37548256380E+01  0.13583981211E+02 -0.73901029933E+02  0.75232875036E+02  0.00000000000E+00 0. -1.
<mgrwt>
<rscale>  0 0.59284377E+02</rscale>
<asrwt>0</asrwt>
<pdfrwt beam="1">  1        1 0.39460223E-03 0.95700747E+02</pdfrwt>
<pdfrwt beam="2">  1       -1 0.19696758E+00 0.95700747E+02</pdfrwt>
<totfact> 0.97155156E+03</totfact>
</mgrwt>
</event>
<event>
 6    1  0.1683416E-002  0.9376167E+02  0.7546771E-02  0.1395952E+00
         -2   -1    0    0    0  501 -0.00000000000E+00  0.00000000000E+00  0.28239124289E+02  0.28239124289E+02  0.00000000000E+00 0.  1.
          2   -1    0    0  501    0  0.00000000000E+00 -0.00000000000E+00 -0.15825837653E+03  0.15825837653E+03  0.00000000000E+00 0. -1.
         23    2    1    2    0    0  0.92038399283E+01  0.13331496068E+02 -0.52818341198E+02  0.10761518263E+03  0.92351561487E+02 0.  0.
         13    1    3    3    0    0 -0.36418869052E+02  0.27877278680E+02 -0.24958100375E+02  0.52214782044E+02  0.00000000000E+00 0. -1.
        -13    1    3    3    0    0  0.45622708981E+02 -0.14545782611E+02 -0.27860240824E+02  0.55400400588E+02  0.00000000000E+00 0.  1.
         22    1    1    2    0    0 -0.92038399283E+01 -0.13331496068E+02 -0.77200911041E+02  0.78882318186E+02  0.00000000000E+00 0. -1.
<mgrwt>
<rscale>  0 0.60450185E+02</rscale>
<asrwt>0</asrwt>
<pdfrwt beam="1">  1        2 0.24347442E-01 0.93761668E+02</pdfrwt>
<pdfrwt beam="2">  1       -2 0.43444807E-02 0.93761668E+02</pdfrwt>
<totfact> 0.46932106E+04</totfact>
</mgrwt>
</event>
<event>
 6    1  0.1683416E-002  0.9609426E+02  0.7546771E-02  0.1361879E+00
          2   -1    0    0  501    0  0.00000000000E+00  0.00000000000E+00  0.10191782696E+03  0.10191782696E+03  0.00000000000E+00 0. -1.
         -2   -1    0    0    0  501 -0.00000000000E+00 -0.00000000000E+00 -0.36904810412E+02  0.36904810412E+02  0.00000000000E+00 0.  1.
         23    2    1    2    0    0 -0.23202591350E+02 -0.12296084111E+02  0.46949150058E+02  0.10695012253E+03  0.92436746417E+02 0.  0.
         11    1    3    3    0    0  0.88760910702E+01 -0.29864808830E+02 -0.15331771730E+02  0.34723983405E+02  0.00000000000E+00 0.  1.
        -11    1    3    3    0    0 -0.32078682420E+02  0.17568724719E+02  0.62280921788E+02  0.72226139124E+02  0.00000000000E+00 0. -1.
         22    1    1    2    0    0  0.23202591350E+02  0.12296084111E+02  0.18063866489E+02  0.31872514842E+02  0.00000000000E+00 0.  1.
<mgrwt>
<rscale>  0 0.69477487E+02</rscale>
<asrwt>0</asrwt>
<pdfrwt beam="1">  1        2 0.15679666E-01 0.96094256E+02</pdfrwt>
<pdfrwt beam="2">  1       -2 0.56776632E-02 0.96094256E+02</pdfrwt>
<totfact> 0.51816320E+04</totfact>
</mgrwt>
</event>
<event>
 6    1  0.1683416E-002  0.9130086E+02  0.7546771E-02  0.1422407E+00
          2   -1    0    0  501    0  0.00000000000E+00  0.00000000000E+00  0.99790894530E+02  0.99790894530E+02  0.00000000000E+00 0. -1.
         -2   -1    0    0    0  501 -0.00000000000E+00 -0.00000000000E+00 -0.26843532185E+02  0.26843532185E+02  0.00000000000E+00 0.  1.
         23    2    1    2    0    0 -0.11554274803E+02  0.10808520807E+01  0.60019252784E+02  0.10926187583E+03  0.90560351687E+02 0.  0.
         11    1    3    3    0    0 -0.78533030678E+01  0.88601815615E+01  0.83456168564E+02  0.84291810146E+02  0.00000000000E+00 0. -1.
        -11    1    3    3    0    0 -0.37009717355E+01 -0.77793294809E+01 -0.23436915780E+02  0.24970065684E+02  0.00000000000E+00 0.  1.
         22    1    1    2    0    0  0.11554274803E+02 -0.10808520807E+01  0.12928109561E+02  0.17372550885E+02  0.00000000000E+00 0. -1.
<mgrwt>
<rscale>  0 0.54514848E+02</rscale>
<asrwt>0</asrwt>
<pdfrwt beam="1">  1        2 0.15352445E-01 0.91300859E+02</pdfrwt>
<pdfrwt beam="2">  1       -2 0.41297742E-02 0.91300859E+02</pdfrwt>
<totfact> 0.84552511E+04</totfact>
</mgrwt>
</event>
<event>
 6    1  0.1683416E-002  0.9210264E+02  0.7546771E-02  0.1392980E+00
         -2   -1    0    0    0  501 -0.00000000000E+00  0.00000000000E+00  0.90597779770E+02  0.90597779770E+02  0.00000000000E+00 0.  1.
          2   -1    0    0  501    0  0.00000000000E+00 -0.00000000000E+00 -0.95858973854E+02  0.95858973854E+02  0.00000000000E+00 0. -1.
         23    2    1    2    0    0 -0.59819986423E+01 -0.16893904457E+02 -0.72283099474E+02  0.11708007081E+03  0.90342172858E+02 0.  0.
         13    1    3    3    0    0  0.17095099500E+02 -0.48182704531E+02 -0.53152842155E+02  0.73749847946E+02  0.00000000000E+00 0. -1.
        -13    1    3    3    0    0 -0.23077098142E+02  0.31288800074E+02 -0.19130257319E+02  0.43330222868E+02  0.00000000000E+00 0.  1.
         22    1    1    2    0    0  0.59819986423E+01  0.16893904457E+02  0.67021905390E+02  0.69376682810E+02  0.00000000000E+00 0.  1.
<mgrwt>
<rscale>  0 0.61171486E+02</rscale>
<asrwt>0</asrwt>
<pdfrwt beam="1">  1        2 0.14747534E-01 0.92102641E+02</pdfrwt>
<pdfrwt beam="2">  1       -2 0.13938120E-01 0.92102641E+02</pdfrwt>
<totfact> 0.13816745E+04</totfact>
</mgrwt>
</event>
<event>
 6    1  0.1683416E-002  0.8930145E+02  0.7546771E-02  0.1420353E+00
         -2   -1    0    0    0  501 -0.00000000000E+00  0.00000000000E+00  0.11462142110E+02  0.11462142110E+02  0.00000000000E+00 0.  1.
          2   -1    0    0  501    0  0.00000000000E+00 -0.00000000000E+00 -0.22967896057E+03  0.22967896057E+03  0.00000000000E+00 0. -1.
         23    2    1    2    0    0  0.88525738483E+01  0.92439086920E+01 -0.18197972062E+03  0.20271005830E+03  0.88379472223E+02 0.  0.
         13    1    3    3    0    0 -0.33824535467E+02  0.25768223749E+02 -0.10295272799E+03  0.11138835108E+03  0.00000000000E+00 0. -1.
        -13    1    3    3    0    0  0.42677109315E+02 -0.16524315057E+02 -0.79026992626E+02  0.91321707228E+02  0.00000000000E+00 0.  1.
         22    1    1    2    0    0 -0.88525738483E+01 -0.92439086920E+01 -0.36237097842E+02  0.38431044374E+02  0.00000000000E+00 0.  1.
<mgrwt>
<rscale>  0 0.54946376E+02</rscale>
<asrwt>0</asrwt>
<pdfrwt beam="1">  1        2 0.35335223E-01 0.89301450E+02</pdfrwt>
<pdfrwt beam="2">  1       -2 0.17634066E-02 0.89301450E+02</pdfrwt>
<totfact> 0.11569205E+05</totfact>
</mgrwt>
</event>
<event>
 6    1  0.1683416E-002  0.9855714E+02  0.7546771E-02  0.1335946E+00
         -2   -1    0    0    0  501 -0.00000000000E+00  0.00000000000E+00  0.20928576787E+02  0.20928576787E+02  0.00000000000E+00 0.  1.
          2   -1    0    0  501    0  0.00000000000E+00 -0.00000000000E+00 -0.31366483823E+03  0.31366483823E+03  0.00000000000E+00 0. -1.
         23    2    1    2    0    0  0.34268756415E+02 -0.16225049325E+02 -0.10885240760E+03  0.14684126031E+03  0.90972024260E+02 0.  0.
         13    1    3    3    0    0 -0.21183128404E+02  0.19830078354E+02 -0.16926486932E+02  0.33592601810E+02  0.00000000000E+00 0. -1.
        -13    1    3    3    0    0  0.55451884819E+02 -0.36055127680E+02 -0.91925920667E+02  0.11324865850E+03  0.00000000000E+00 0.  1.
         22    1    1    2    0    0 -0.34268756415E+02  0.16225049325E+02 -0.18388385385E+03  0.18775215471E+03  0.00000000000E+00 0. -1.
<mgrwt>
<rscale>  0 0.77619495E+02</rscale>
<asrwt>0</asrwt>
<pdfrwt beam="1">  1        2 0.48256126E-01 0.98557136E+02</pdfrwt>
<pdfrwt beam="2">  1       -2 0.32197813E-02 0.98557136E+02</pdfrwt>
<totfact> 0.35419389E+04</totfact>
</mgrwt>
</event>
<event>
 6    1  0.1683416E-002  0.9211880E+02  0.7546771E-02  0.1402168E+00
         -4   -1    0    0    0  501 -0.00000000000E+00  0.00000000000E+00  0.14139007791E+03  0.14139007791E+03  0.00000000000E+00 0.  1.
          4   -1    0    0  501    0  0.00000000000E+00 -0.00000000000E+00 -0.40874662390E+02  0.40874662390E+02  0.00000000000E+00 0. -1.
         23    2    1    2    0    0 -0.14863157900E+02 -0.43222835540E+01  0.12379525686E+03  0.15430858514E+03  0.90809020643E+02 0.  0.
         11    1    3    3    0    0  0.51468012689E+01 -0.29624588171E+02  0.41047818070E+01  0.30347240752E+02  0.00000000000E+00 0. -1.
        -11    1    3    3    0    0 -0.20009959169E+02  0.25302304617E+02  0.11969047505E+03  0.12396134439E+03  0.00000000000E+00 0.  1.
         22    1    1    2    0    0  0.14863157900E+02  0.43222835540E+01 -0.23279841344E+02  0.27956155152E+02  0.00000000000E+00 0. -1.
<mgrwt>
<rscale>  0 0.58978818E+02</rscale>
<asrwt>0</asrwt>
<pdfrwt beam="1">  1        4 0.62884097E-02 0.92118803E+02</pdfrwt>
<pdfrwt beam="2">  1       -4 0.21752319E-01 0.92118803E+02</pdfrwt>
<totfact> 0.46973767E+03</totfact>
</mgrwt>
</event>
<event>
 6    1  0.1683416E-002  0.8870513E+02  0.7546771E-02  0.1436611E+00
         -1   -1    0    0    0  501 -0.00000000000E+00  0.00000000000E+00  0.93310422538E+02  0.93310422538E+02  0.00000000000E+00 0.  1.
          1   -1    0    0  501    0  0.00000000000E+00 -0.00000000000E+00 -0.26810499457E+02  0.26810499457E+02  0.00000000000E+00 0. -1.
         23    2    1    2    0    0  0.42668323134E+01 -0.92652971700E+01  0.64624521944E+02  0.10974938792E+03  0.88116671083E+02 0.  0.
         13    1    3    3    0    0 -0.21261138800E+02 -0.29563249142E+02 -0.10422337243E+01  0.36429493189E+02  0.00000000000E+00 0. -1.
        -13    1    3    3    0    0  0.25527971113E+02  0.20297951972E+02  0.65666755668E+02  0.73319894731E+02  0.00000000000E+00 0.  1.
         22    1    1    2    0    0 -0.42668323134E+01  0.92652971700E+01  0.18754011362E+01  0.10371534075E+02  0.00000000000E+00 0. -1.
<mgrwt>
<rscale>  0 0.51655626E+02</rscale>
<asrwt>0</asrwt>
<pdfrwt beam="1">  1        1 0.41246923E-02 0.88705126E+02</pdfrwt>
<pdfrwt beam="2">  1       -1 0.14355449E-01 0.88705126E+02</pdfrwt>
<totfact> 0.63744644E+04</totfact>
</mgrwt>
</event>
<event>
 6    1  0.1683416E-002  0.9311580E+02  0.7546771E-02  0.1404130E+00
          3   -1    0    0  501    0  0.00000000000E+00  0.00000000000E+00  0.22501314640E+03  0.22501314640E+03  0.00000000000E+00 0. -1.
         -3   -1    0    0    0  501 -0.00000000000E+00 -0.00000000000E+00 -0.13076726364E+02  0.13076726364E+02  0.00000000000E+00 0.  1.
         23    2    1    2    0    0  0.48646597077E+01  0.13692127818E+02  0.17192665900E+03  0.19552321614E+03  0.91975065619E+02 0.  0.
         13    1    3    3    0    0  0.31167052873E+02 -0.56332107972E+01  0.15604299957E+03  0.15922479694E+03  0.00000000000E+00 0. -1.
        -13    1    3    3    0    0 -0.26302393165E+02  0.19325338615E+02  0.15883659432E+02  0.36298419191E+02  0.00000000000E+00 0.  1.
         22    1    1    2    0    0 -0.48646597077E+01 -0.13692127818E+02  0.40009761037E+02  0.42566656629E+02  0.00000000000E+00 0. -1.
<mgrwt>
<rscale>  0 0.58524628E+02</rscale>
<asrwt>0</asrwt>
<pdfrwt beam="1">  1        3 0.34617404E-01 0.93115799E+02</pdfrwt>
<pdfrwt beam="2">  1       -3 0.20118042E-02 0.93115799E+02</pdfrwt>
<totfact> 0.15994140E+04</totfact>
</mgrwt>
</event>
<event>
 6    1  0.1683416E-002  0.9275364E+02  0.7546771E-02  0.1398876E+00
         -2   -1    0    0    0  501 -0.00000000000E+00  0.00000000000E+00  0.47156232517E+02  0.47156232517E+02  0.00000000000E+00 0.  1.
          2   -1    0    0  501    0  0.00000000000E+00 -0.00000000000E+00 -0.65431245980E+02  0.65431245980E+02  0.00000000000E+00 0. -1.
         23    2    1    2    0    0  0.63361184772E+01 -0.14663510731E+02 -0.69645372078E+01  0.93014747021E+02  0.91367792140E+02 0.  0.
         13    1    3    3    0    0 -0.64358947054E+01  0.25020787751E+02  0.28366466235E+02  0.38368176488E+02  0.00000000000E+00 0.  1.
        -13    1    3    3    0    0  0.12772013183E+02 -0.39684298482E+02 -0.35331003443E+02  0.54646570533E+02  0.00000000000E+00 0. -1.
         22    1    1    2    0    0 -0.63361184772E+01  0.14663510731E+02 -0.11310476256E+02  0.19572731476E+02  0.00000000000E+00 0. -1.
<mgrwt>
<rscale>  0 0.59751782E+02</rscale>
<asrwt>0</asrwt>
<pdfrwt beam="1">  1        2 0.10066345E-01 0.92753644E+02</pdfrwt>
<pdfrwt beam="2">  1       -2 0.72548051E-02 0.92753644E+02</pdfrwt>
<totfact> 0.60167708E+04</totfact>
</mgrwt>
</event>
<event>
 6    1  0.1683416E-002  0.8873187E+02  0.7546771E-02  0.1400124E+00
          4   -1    0    0  501    0  0.00000000000E+00  0.00000000000E+00  0.74621820997E+01  0.74621820997E+01  0.00000000000E+00 0.  1.
         -4   -1    0    0    0  501 -0.00000000000E+00 -0.00000000000E+00 -0.41929936154E+03  0.41929936154E+03  0.00000000000E+00 0. -1.
         23    2    1    2    0    0  0.15357256713E+02 -0.91738600655E+01 -0.38020189881E+03  0.39041878614E+03  0.86909951496E+02 0.  0.
         11    1    3    3    0    0  0.27737281632E+02  0.30010606786E+02 -0.11484896605E+03  0.12190274121E+03  0.00000000000E+00 0. -1.
        -11    1    3    3    0    0 -0.12380024918E+02 -0.39184466851E+02 -0.26535293276E+03  0.26851604493E+03  0.00000000000E+00 0.  1.
         22    1    1    2    0    0 -0.15357256713E+02  0.91738600655E+01 -0.31635280633E+02  0.36342757503E+02  0.00000000000E+00 0. -1.
<mgrwt>
<rscale>  0 0.59457183E+02</rscale>
<asrwt>0</asrwt>
<pdfrwt beam="1">  1        4 0.11480279E-02 0.88731870E+02</pdfrwt>
<pdfrwt beam="2">  1       -4 0.64507601E-01 0.88731870E+02</pdfrwt>
<totfact> 0.78701974E+03</totfact>
</mgrwt>
</event>
<event>
 6    1  0.1683416E-002  0.9333143E+02  0.7546771E-02  0.1411358E+00
          2   -1    0    0  501    0  0.00000000000E+00  0.00000000000E+00  0.60765766822E+02  0.60765766822E+02  0.00000000000E+00 0. -1.
         -2   -1    0    0    0  501 -0.00000000000E+00 -0.00000000000E+00 -0.54127077268E+02  0.54127077268E+02  0.00000000000E+00 0.  1.
         23    2    1    2    0    0 -0.12286265819E+02 -0.38852694638E+01 -0.99801299155E+01  0.93863512023E+02  0.92437591106E+02 0.  0.
         13    1    3    3    0    0 -0.43416621375E+01 -0.14108371299E+02 -0.49826188692E+02  0.51966770636E+02  0.00000000000E+00 0.  1.
        -13    1    3    3    0    0 -0.79446036819E+01  0.10223101835E+02  0.39846058776E+02  0.41896741386E+02  0.00000000000E+00 0. -1.
         22    1    1    2    0    0  0.12286265819E+02  0.38852694638E+01  0.16618819470E+02  0.21029332066E+02  0.00000000000E+00 0.  1.
<mgrwt>
<rscale>  0 0.56891847E+02</rscale>
<asrwt>0</asrwt>
<pdfrwt beam="1">  1        2 0.93485795E-02 0.93331430E+02</pdfrwt>
<pdfrwt beam="2">  1       -2 0.83272426E-02 0.93331430E+02</pdfrwt>
<totfact> 0.53388277E+04</totfact>
</mgrwt>
</event>
<event>
 6    1  0.1683416E-002  0.8792379E+02  0.7546771E-02  0.1424940E+00
          2   -1    0    0  501    0  0.00000000000E+00  0.00000000000E+00  0.13433076305E+03  0.13433076305E+03  0.00000000000E+00 0. -1.
         -2   -1    0    0    0  501 -0.00000000000E+00 -0.00000000000E+00 -0.19710912027E+02  0.19710912027E+02  0.00000000000E+00 0.  1.
         23    2    1    2    0    0  0.33341699416E+01  0.12047104564E+02  0.10975151647E+03  0.14062712704E+03  0.87030707661E+02 0.  0.
         13    1    3    3    0    0 -0.13153817800E+02  0.47106794431E+02  0.66687907847E+02  0.82700363102E+02  0.00000000000E+00 0. -1.
        -13    1    3    3    0    0  0.16487987741E+02 -0.35059689866E+02  0.43063608618E+02  0.57926763939E+02  0.00000000000E+00 0.  1.
         22    1    1    2    0    0 -0.33341699416E+01 -0.12047104564E+02  0.48683345545E+01  0.13414548032E+02  0.00000000000E+00 0.  1.
<mgrwt>
<rscale>  0 0.53989228E+02</rscale>
<asrwt>0</asrwt>
<pdfrwt beam="1">  1        2 0.20666271E-01 0.87923794E+02</pdfrwt>
<pdfrwt beam="2">  1       -2 0.30324481E-02 0.87923794E+02</pdfrwt>
<totfact> 0.94321893E+04</totfact>
</mgrwt>
</event>
<event>
 6    1  0.1683416E-002  0.6688673E+02  0.7546771E-02  0.1470941E+00
          1   -1    0    0  501    0  0.00000000000E+00  0.00000000000E+00  0.38846840490E+03  0.38846840490E+03  0.00000000000E+00 0. -1.
         -1   -1    0    0    0  501 -0.00000000000E+00 -0.00000000000E+00 -0.42637677032E+01  0.42637677032E+01  0.00000000000E+00 0.  1.
         23    2    1    2    0    0 -0.37535169758E+01 -0.13886525775E+02  0.30751877554E+03  0.31470880517E+03  0.65321591019E+02 0.  0.
         11    1    3    3    0    0  0.27343936466E+02 -0.16258126247E+02  0.20796767807E+03  0.21038672167E+03  0.00000000000E+00 0. -1.
        -11    1    3    3    0    0 -0.31097453442E+02  0.23716004723E+01  0.99551097469E+02  0.10432208350E+03  0.00000000000E+00 0.  1.
         22    1    1    2    0    0  0.37535169758E+01  0.13886525775E+02  0.76685861652E+02  0.78023367430E+02  0.00000000000E+00 0.  1.
<mgrwt>
<rscale>  0 0.45549274E+02</rscale>
<asrwt>0</asrwt>
<pdfrwt beam="1">  1        1 0.59764342E-01 0.66886731E+02</pdfrwt>
<pdfrwt beam="2">  1       -1 0.65596457E-03 0.66886731E+02</pdfrwt>
<totfact> 0.17494261E+05</totfact>
</mgrwt>
</event>
<event>
 6    1  0.1683416E-002  0.1838628E+03  0.7546771E-02  0.1170273E+00
         -2   -1    0    0    0  501 -0.00000000000E+00  0.00000000000E+00  0.41606837182E+02  0.41606837182E+02  0.00000000000E+00 0.  1.
          2   -1    0    0  501    0  0.00000000000E+00 -0.00000000000E+00 -0.10148191071E+04  0.10148191071E+04  0.00000000000E+00 0. -1.
         23    2    1    2    0    0 -0.10629220121E+03 -0.11905172738E+03 -0.22106692383E+03  0.28753455568E+03  0.91291785314E+02 0.  0.
         11    1    3    3    0    0 -0.52609778133E+02 -0.13750735019E+02 -0.28003943305E+02  0.61164469338E+02  0.00000000000E+00 0. -1.
        -11    1    3    3    0    0 -0.53682423081E+02 -0.10530099236E+03 -0.19306298053E+03  0.22637008634E+03  0.00000000000E+00 0.  1.
         22    1    1    2    0    0  0.10629220121E+03  0.11905172738E+03 -0.75214534608E+03  0.76889138860E+03  0.00000000000E+00 0. -1.
<mgrwt>
<rscale>  0 0.17747081E+03</rscale>
<asrwt>0</asrwt>
<pdfrwt beam="1">  1        2 0.15612603E+00 0.18386282E+03</pdfrwt>
<pdfrwt beam="2">  1       -2 0.64010515E-02 0.18386282E+03</pdfrwt>
<totfact> 0.34107736E+03</totfact>
</mgrwt>
</event>
<event>
 6    1  0.1683416E-002  0.9194865E+02  0.7546771E-02  0.1427877E+00
         -1   -1    0    0    0  501 -0.00000000000E+00  0.00000000000E+00  0.36692935028E+02  0.36692935028E+02  0.00000000000E+00 0.  1.
          1   -1    0    0  501    0  0.00000000000E+00 -0.00000000000E+00 -0.72840172895E+02  0.72840172895E+02  0.00000000000E+00 0. -1.
         23    2    1    2    0    0 -0.13357684090E+01  0.10365278036E+02 -0.27512585556E+02  0.95976541744E+02  0.91352782854E+02 0.  0.
         11    1    3    3    0    0 -0.18648315343E+02  0.44837595700E+02  0.58528498877E-01  0.48561024277E+02  0.00000000000E+00 0.  1.
        -11    1    3    3    0    0  0.17312546934E+02 -0.34472317664E+02 -0.27571114055E+02  0.47415517467E+02  0.00000000000E+00 0. -1.
         22    1    1    2    0    0  0.13357684090E+01 -0.10365278036E+02 -0.86346523111E+01  0.13556566178E+02  0.00000000000E+00 0. -1.
<mgrwt>
<rscale>  0 0.53388585E+02</rscale>
<asrwt>0</asrwt>
<pdfrwt beam="1">  1        1 0.11206180E-01 0.91948650E+02</pdfrwt>
<pdfrwt beam="2">  1       -1 0.56450670E-02 0.91948650E+02</pdfrwt>
<totfact> 0.68790030E+04</totfact>
</mgrwt>
</event>
<event>
 6    1  0.1683416E-002  0.9927776E+02  0.7546771E-02  0.1330139E+00
         -1   -1    0    0    0  501 -0.00000000000E+00  0.00000000000E+00  0.21175671282E+02  0.21175671282E+02  0.00000000000E+00 0.  1.
          1   -1    0    0  501    0  0.00000000000E+00 -0.00000000000E+00 -0.27505898912E+03  0.27505898912E+03  0.00000000000E+00 0. -1.
         23    2    1    2    0    0  0.10143512766E+02  0.39794149268E+02 -0.22528970039E+03  0.24619407561E+03  0.90385887156E+02 0.  0.
         13    1    3    3    0    0 -0.25342074973E+02  0.75535282760E+01 -0.17394971616E+03  0.17594823190E+03  0.00000000000E+00 0. -1.
        -13    1    3    3    0    0  0.35485587740E+02  0.32240620992E+02 -0.51339984229E+02  0.70245843719E+02  0.00000000000E+00 0.  1.
         22    1    1    2    0    0 -0.10143512766E+02 -0.39794149268E+02 -0.28593617443E+02  0.50040584786E+02  0.00000000000E+00 0.  1.
<mgrwt>
<rscale>  0 0.79617979E+02</rscale>
<asrwt>0</asrwt>
<pdfrwt beam="1">  1        1 0.42316764E-01 0.99277761E+02</pdfrwt>
<pdfrwt beam="2">  1       -1 0.32577958E-02 0.99277761E+02</pdfrwt>
<totfact> 0.29238770E+04</totfact>
</mgrwt>
</event>
<event>
 6    1  0.1683416E-002  0.9055877E+02  0.7546771E-02  0.1404952E+00
          2   -1    0    0  501    0  0.00000000000E+00  0.00000000000E+00  0.43092038986E+02  0.43092038986E+02  0.00000000000E+00 0.  1.
         -2   -1    0    0    0  501 -0.00000000000E+00 -0.00000000000E+00 -0.65374852056E+02  0.65374852056E+02  0.00000000000E+00 0. -1.
         23    2    1    2    0    0 -0.11638485736E+02  0.10378116694E+02 -0.18839081236E+02  0.92497578431E+02  0.89206117377E+02 0.  0.
         13    1    3    3    0    0  0.28656433528E+02  0.72203063646E+01 -0.37694139039E+02  0.47897516892E+02  0.00000000000E+00 0. -1.
        -13    1    3    3    0    0 -0.40294919264E+02  0.31578103293E+01  0.18855057802E+02  0.44600061539E+02  0.00000000000E+00 0.  1.
         22    1    1    2    0    0  0.11638485736E+02 -0.10378116694E+02 -0.34437318341E+01  0.15969312612E+02  0.00000000000E+00 0. -1.
<mgrwt>
<rscale>  0 0.58335689E+02</rscale>
<asrwt>0</asrwt>
<pdfrwt beam="1">  1        2 0.66295444E-02 0.90558771E+02</pdfrwt>
<pdfrwt beam="2">  1       -2 0.10057670E-01 0.90558771E+02</pdfrwt>
<totfact> 0.60858433E+04</totfact>
</mgrwt>
</event>
<event>
 6    1  0.1683416E-002  0.9311611E+02  0.7546771E-02  0.1415709E+00
          4   -1    0    0  501    0  0.00000000000E+00  0.00000000000E+00  0.28441923237E+02  0.28441923237E+02  0.00000000000E+00 0. -1.
         -4   -1    0    0    0  501 -0.00000000000E+00 -0.00000000000E+00 -0.11185198866E+03  0.11185198866E+03  0.00000000000E+00 0.  1.
         23    2    1    2    0    0 -0.12116431527E+02 -0.53074356779E+00 -0.87216421150E+02  0.12758258051E+03  0.92322917683E+02 0.  0.
         13    1    3    3    0    0  0.81695911543E+01 -0.33708395317E+02 -0.81114381843E+02  0.88218711599E+02  0.00000000000E+00 0.  1.
        -13    1    3    3    0    0 -0.20286022682E+02  0.33177651750E+02 -0.61020393073E+01  0.39363868910E+02  0.00000000000E+00 0. -1.
         22    1    1    2    0    0  0.12116431527E+02  0.53074356779E+00  0.38063557274E+01  0.12711331386E+02  0.00000000000E+00 0. -1.
<mgrwt>
<rscale>  0 0.55939217E+02</rscale>
<asrwt>0</asrwt>
<pdfrwt beam="1">  1        4 0.43756805E-02 0.93116114E+02</pdfrwt>
<pdfrwt beam="2">  1       -4 0.17207998E-01 0.93116114E+02</pdfrwt>
<totfact> 0.12762316E+04</totfact>
</mgrwt>
</event>
<event>
 6    1  0.1683416E-002  0.9501997E+02  0.7546771E-02  0.1364739E+00
         -1   -1    0    0    0  501 -0.00000000000E+00  0.00000000000E+00  0.23362603009E+03  0.23362603009E+03  0.00000000000E+00 0.  1.
          1   -1    0    0  501    0  0.00000000000E+00 -0.00000000000E+00 -0.15646444828E+02  0.15646444828E+02  0.00000000000E+00 0. -1.
         23    2    1    2    0    0 -0.25882203102E+02 -0.69488607654E+00  0.17007463847E+03  0.19481831777E+03  0.91424411302E+02 0.  0.
         13    1    3    3    0    0 -0.36773725559E+02 -0.29958456864E+02  0.43195425836E+02  0.64153416451E+02  0.00000000000E+00 0. -1.
        -13    1    3    3    0    0  0.10891522457E+02  0.29263570788E+02  0.12687921264E+03  0.13066490131E+03  0.00000000000E+00 0.  1.
         22    1    1    2    0    0  0.25882203102E+02  0.69488607654E+00  0.47904946787E+02  0.54454157148E+02  0.00000000000E+00 0. -1.
<mgrwt>
<rscale>  0 0.68651588E+02</rscale>
<asrwt>0</asrwt>
<pdfrwt beam="1">  1        1 0.24071455E-02 0.95019968E+02</pdfrwt>
<pdfrwt beam="2">  1       -1 0.35942464E-01 0.95019968E+02</pdfrwt>
<totfact> 0.30554950E+04</totfact>
</mgrwt>
</event>
<event>
 6    1  0.1683416E-002  0.9831097E+02  0.7546771E-02  0.1333518E+00
          2   -1    0    0  501    0  0.00000000000E+00  0.00000000000E+00  0.12214833618E+04  0.12214833618E+04  0.00000000000E+00 0. -1.
         -2   -1    0    0    0  501 -0.00000000000E+00 -0.00000000000E+00 -0.52249227114E+01  0.52249227114E+01  0.00000000000E+00 0.  1.
         23    2    1    2    0    0 -0.23546275059E+02 -0.32156727830E+02  0.10871993095E+04  0.10916351889E+04  0.89869711091E+02 0.  0.
         13    1    3    3    0    0 -0.20273326614E+02 -0.62003306265E+02  0.60624269331E+03  0.60974225781E+03  0.00000000000E+00 0. -1.
        -13    1    3    3    0    0 -0.32729484452E+01  0.29846578435E+02  0.48095661615E+03  0.48189293111E+03  0.00000000000E+00 0.  1.
         22    1    1    2    0    0  0.23546275059E+02  0.32156727830E+02  0.12905912964E+03  0.13507309561E+03  0.00000000000E+00 0.  1.
<mgrwt>
<rscale>  0 0.78446629E+02</rscale>
<asrwt>0</asrwt>
<pdfrwt beam="1">  1        2 0.18792029E+00 0.98310972E+02</pdfrwt>
<pdfrwt beam="2">  1       -2 0.80383523E-03 0.98310972E+02</pdfrwt>
<totfact> 0.51993160E+04</totfact>
</mgrwt>
</event>
<event>
 6    1  0.1683416E-002  0.1028886E+03  0.7546771E-02  0.1319393E+00
          2   -1    0    0  501    0  0.00000000000E+00  0.00000000000E+00  0.88470062631E+03  0.88470062631E+03  0.00000000000E+00 0. -1.
         -2   -1    0    0    0  501 -0.00000000000E+00 -0.00000000000E+00 -0.61508942022E+01  0.61508942022E+01  0.00000000000E+00 0.  1.
         23    2    1    2    0    0  0.23814574219E+02  0.37756181811E+02  0.61692892443E+03  0.62544973035E+03  0.92700615904E+02 0.  0.
         13    1    3    3    0    0  0.37118094714E+02 -0.19010516813E+02  0.33260539798E+03  0.33520964107E+03  0.00000000000E+00 0. -1.
        -13    1    3    3    0    0 -0.13303520495E+02  0.56766698624E+02  0.28432352645E+03  0.29024008928E+03  0.00000000000E+00 0.  1.
         22    1    1    2    0    0 -0.23814574219E+02 -0.37756181811E+02  0.26162080768E+03  0.26540179017E+03  0.00000000000E+00 0. -1.
<mgrwt>
<rscale>  0 0.83503510E+02</rscale>
<asrwt>0</asrwt>
<pdfrwt beam="1">  1        2 0.13610769E+00 0.10288862E+03</pdfrwt>
<pdfrwt beam="2">  1       -2 0.94629212E-03 0.10288862E+03</pdfrwt>
<totfact> 0.64946997E+04</totfact>
</mgrwt>
</event>
<event>
 6    1  0.1683416E-002  0.9248587E+02  0.7546771E-02  0.1423105E+00
         -2   -1    0    0    0  501 -0.00000000000E+00  0.00000000000E+00  0.55001684705E+03  0.55001684705E+03  0.00000000000E+00 0. -1.
          2   -1    0    0  501    0  0.00000000000E+00 -0.00000000000E+00 -0.62125268111E+01  0.62125268111E+01  0.00000000000E+00 0.  1.
         23    2    1    2    0    0  0.29988764626E+01 -0.10630714799E+02  0.53232274368E+03  0.54029726925E+03  0.91823909513E+02 0.  0.
         11    1    3    3    0    0 -0.13628582731E+02 -0.33245756042E+02  0.47612944555E+03  0.47748326408E+03  0.00000000000E+00 0. -1.
        -11    1    3    3    0    0  0.16627459194E+02  0.22615041242E+02  0.56193298136E+02  0.62814005166E+02  0.00000000000E+00 0.  1.
         22    1    1    2    0    0 -0.29988764626E+01  0.10630714799E+02  0.11481576557E+02  0.15932104614E+02  0.00000000000E+00 0.  1.
<mgrwt>
<rscale>  0 0.54369319E+02</rscale>
<asrwt>0</asrwt>
<pdfrwt beam="1">  1        2 0.95577379E-03 0.92485868E+02</pdfrwt>
<pdfrwt beam="2">  1       -2 0.84617938E-01 0.92485868E+02</pdfrwt>
<totfact> 0.17025424E+04</totfact>
</mgrwt>
</event>
<event>
 6    1  0.1683416E-002  0.9153121E+02  0.7546771E-02  0.1428953E+00
         -4   -1    0    0    0  501 -0.00000000000E+00  0.00000000000E+00  0.74934980751E+02  0.74934980751E+02  0.00000000000E+00 0.  1.
          4   -1    0    0  501    0  0.00000000000E+00 -0.00000000000E+00 -0.35828202011E+02  0.35828202011E+02  0.00000000000E+00 0. -1.
         23    2    1    2    0    0 -0.46663940073E+01  0.93198873144E+01  0.40783974497E+02  0.10020626474E+03  0.90935842132E+02 0.  0.
         11    1    3    3    0    0 -0.38109336337E+02  0.24644782952E+02  0.44086044894E+02  0.63271369490E+02  0.00000000000E+00 0.  1.
        -11    1    3    3    0    0  0.33442942330E+02 -0.15324895638E+02 -0.33020703971E+01  0.36934895247E+02  0.00000000000E+00 0. -1.
         22    1    1    2    0    0  0.46663940073E+01 -0.93198873144E+01 -0.16771957564E+01  0.10556918025E+02  0.00000000000E+00 0. -1.
<mgrwt>
<rscale>  0 0.53170825E+02</rscale>
<asrwt>0</asrwt>
<pdfrwt beam="1">  1        4 0.55120311E-02 0.91531213E+02</pdfrwt>
<pdfrwt beam="2">  1       -4 0.11528459E-01 0.91531213E+02</pdfrwt>
<totfact> 0.17516378E+04</totfact>
</mgrwt>
</event>
<event>
 6    1  0.1683416E-002  0.8959509E+02  0.7546771E-02  0.1434451E+00
          4   -1    0    0  501    0  0.00000000000E+00  0.00000000000E+00  0.18922985479E+03  0.18922985479E+03  0.00000000000E+00 0. -1.
         -4   -1    0    0    0  501 -0.00000000000E+00 -0.00000000000E+00 -0.13174288004E+02  0.13174288004E+02  0.00000000000E+00 0.  1.
         23    2    1    2    0    0  0.42583206540E+01 -0.92977226932E+01  0.15627868333E+03  0.18013968544E+03  0.89009541423E+02 0.  0.
         11    1    3    3    0    0  0.16615253450E+02  0.27118544817E+02  0.12932607386E+03  0.13317926077E+03  0.00000000000E+00 0. -1.
        -11    1    3    3    0    0 -0.12356932796E+02 -0.36416267511E+02  0.26952609473E+02  0.46960424667E+02  0.00000000000E+00 0.  1.
         22    1    1    2    0    0 -0.42583206540E+01  0.92977226932E+01  0.19776883453E+02  0.22264457352E+02  0.00000000000E+00 0. -1.
<mgrwt>
<rscale>  0 0.52076851E+02</rscale>
<asrwt>0</asrwt>
<pdfrwt beam="1">  1        4 0.29112283E-01 0.89595086E+02</pdfrwt>
<pdfrwt beam="2">  1       -4 0.20268137E-02 0.89595086E+02</pdfrwt>
<totfact> 0.16115064E+04</totfact>
</mgrwt>
</event>
<event>
 6    1  0.1683416E-002  0.1162192E+03  0.7546771E-02  0.1274396E+00
         -1   -1    0    0    0  501 -0.00000000000E+00  0.00000000000E+00  0.61729296535E+02  0.61729296535E+02  0.00000000000E+00 0.  1.
          1   -1    0    0  501    0  0.00000000000E+00 -0.00000000000E+00 -0.16874293889E+03  0.16874293889E+03  0.00000000000E+00 0. -1.
         23    2    1    2    0    0  0.70922618911E+02 -0.73983088925E+01 -0.10871993413E+03  0.15914437074E+03  0.91772293277E+02 0.  0.
         13    1    3    3    0    0  0.49507063013E+02 -0.48557965571E+02 -0.57997921966E+02  0.90402346546E+02  0.00000000000E+00 0.  1.
        -13    1    3    3    0    0  0.21415555898E+02  0.41159656679E+02 -0.50722012168E+02  0.68742024197E+02  0.00000000000E+00 0. -1.
         22    1    1    2    0    0 -0.70922618911E+02  0.73983088925E+01  0.17062917836E+01  0.71327864677E+02  0.00000000000E+00 0. -1.
<mgrwt>
<rscale>  0 0.10285898E+03</rscale>
<asrwt>0</asrwt>
<pdfrwt beam="1">  1        1 0.25960452E-01 0.11621922E+03</pdfrwt>
<pdfrwt beam="2">  1       -1 0.94968149E-02 0.11621922E+03</pdfrwt>
<totfact> 0.11159957E+04</totfact>
</mgrwt>
</event>
<event>
 6    1  0.1683416E-002  0.9074613E+02  0.7546771E-02  0.1411585E+00
         -2   -1    0    0    0  501 -0.00000000000E+00  0.00000000000E+00  0.94695682715E+02  0.94695682715E+02  0.00000000000E+00 0.  1.
          2   -1    0    0  501    0  0.00000000000E+00 -0.00000000000E+00 -0.31446646351E+02  0.31446646351E+02  0.00000000000E+00 0. -1.
         23    2    1    2    0    0 -0.51200467900E+00 -0.13960235219E+02  0.65602755216E+02  0.11197580837E+03  0.89664429136E+02 0.  0.
         13    1    3    3    0    0  0.32332765225E+02 -0.34788400183E+02  0.52830688261E+02  0.71040285166E+02  0.00000000000E+00 0. -1.
        -13    1    3    3    0    0 -0.32844769904E+02  0.20828164964E+02  0.12772066955E+02  0.40935523205E+02  0.00000000000E+00 0.  1.
         22    1    1    2    0    0  0.51200467900E+00  0.13960235219E+02 -0.23537188517E+01  0.14166520695E+02  0.00000000000E+00 0.  1.
<mgrwt>
<rscale>  0 0.56841724E+02</rscale>
<asrwt>0</asrwt>
<pdfrwt beam="1">  1        2 0.48379456E-02 0.90746130E+02</pdfrwt>
<pdfrwt beam="2">  1       -2 0.14568566E-01 0.90746130E+02</pdfrwt>
<totfact> 0.50646233E+04</totfact>
</mgrwt>
</event>
<event>
 6    1  0.1683416E-002  0.1068343E+03  0.7546771E-02  0.1300623E+00
          2   -1    0    0  501    0  0.00000000000E+00  0.00000000000E+00  0.27111056802E+03  0.27111056802E+03  0.00000000000E+00 0. -1.
         -2   -1    0    0    0  501 -0.00000000000E+00 -0.00000000000E+00 -0.46891205963E+02  0.46891205963E+02  0.00000000000E+00 0.  1.
         23    2    1    2    0    0 -0.29104695968E+02 -0.47909520299E+02  0.23747419938E+03  0.26039885587E+03  0.90945936160E+02 0.  0.
         13    1    3    3    0    0 -0.45164036162E+02 -0.36152677555E+02  0.65967570273E+02  0.87741247909E+02  0.00000000000E+00 0.  1.
        -13    1    3    3    0    0  0.16059340194E+02 -0.11756842743E+02  0.17150662911E+03  0.17265760796E+03  0.00000000000E+00 0. -1.
         22    1    1    2    0    0  0.29104695968E+02  0.47909520299E+02 -0.13254837325E+02  0.57602918113E+02  0.00000000000E+00 0.  1.
<mgrwt>
<rscale>  0 0.90926573E+02</rscale>
<asrwt>0</asrwt>
<pdfrwt beam="1">  1        2 0.41709317E-01 0.10683431E+03</pdfrwt>
<pdfrwt beam="2">  1       -2 0.72140318E-02 0.10683431E+03</pdfrwt>
<totfact> 0.12517292E+04</totfact>
</mgrwt>
</event>
<event>
 6    1  0.1683416E-002  0.9104052E+02  0.7546771E-02  0.1419809E+00
          2   -1    0    0  501    0  0.00000000000E+00  0.00000000000E+00  0.21409493273E+02  0.21409493273E+02  0.00000000000E+00 0. -1.
         -2   -1    0    0    0  501 -0.00000000000E+00 -0.00000000000E+00 -0.12703430569E+03  0.12703430569E+03  0.00000000000E+00 0.  1.
         23    2    1    2    0    0  0.11889466909E+02 -0.26488473219E+01 -0.85353413062E+02  0.12479415949E+03  0.90221955782E+02 0.  0.
         11    1    3    3    0    0  0.37960563543E+01 -0.23969017786E+02 -0.96433561945E+02  0.99440211820E+02  0.00000000000E+00 0.  1.
        -11    1    3    3    0    0  0.80934105549E+01  0.21320170464E+02  0.11080148883E+02  0.25353947667E+02  0.00000000000E+00 0. -1.
         22    1    1    2    0    0 -0.11889466909E+02  0.26488473219E+01 -0.20271399352E+02  0.23649639473E+02  0.00000000000E+00 0. -1.
<mgrwt>
<rscale>  0 0.55061299E+02</rscale>
<asrwt>0</asrwt>
<pdfrwt beam="1">  1        2 0.32937683E-02 0.91040525E+02</pdfrwt>
<pdfrwt beam="2">  1       -2 0.19543739E-01 0.91040525E+02</pdfrwt>
<totfact> 0.51742187E+04</totfact>
</mgrwt>
</event>
<event>
 6    1  0.2391922E-002  0.1545059E+03  0.7546771E-02  0.1204804E+00
         -1   -1    0    0    0  501 -0.00000000000E+00  0.00000000000E+00  0.16814637502E+03  0.16814637502E+03  0.00000000000E+00 0.  1.
          1   -1    0    0  501    0  0.00000000000E+00 -0.00000000000E+00 -0.29207139712E+03  0.29207139712E+03  0.00000000000E+00 0. -1.
         23    2    1    2    0    0 -0.11843952598E+03  0.39916214367E+02 -0.24275905505E+03  0.28775689869E+03  0.90834181084E+02 0.  0.
         13    1    3    3    0    0 -0.64919389291E+02 -0.58777554782E+01 -0.18664328464E+03  0.19769873752E+03  0.00000000000E+00 0. -1.
        -13    1    3    3    0    0 -0.53520136686E+02  0.45793969845E+02 -0.56115770408E+02  0.90058161171E+02  0.00000000000E+00 0.  1.
         22    1    1    2    0    0  0.11843952598E+03 -0.39916214367E+02  0.11883403294E+03  0.17246087344E+03  0.00000000000E+00 0.  1.
<mgrwt>
<rscale>  0 0.14652887E+03</rscale>
<asrwt>0</asrwt>
<pdfrwt beam="1">  1        1 0.44934061E-01 0.15450590E+03</pdfrwt>
<pdfrwt beam="2">  1       -1 0.25868673E-01 0.15450590E+03</pdfrwt>
<totfact> 0.11822198E+03</totfact>
</mgrwt>
</event>
<event>
 6    1  0.1683416E-002  0.9800412E+02  0.7546771E-02  0.1329498E+00
          4   -1    0    0  501    0  0.00000000000E+00  0.00000000000E+00  0.37374511924E+02  0.37374511924E+02  0.00000000000E+00 0. -1.
         -4   -1    0    0    0  501 -0.00000000000E+00 -0.00000000000E+00 -0.24165064017E+03  0.24165064017E+03  0.00000000000E+00 0.  1.
         23    2    1    2    0    0 -0.43129390616E+02  0.19440596890E+01 -0.21346274516E+03  0.23488540092E+03  0.87982295333E+02 0.  0.
         13    1    3    3    0    0 -0.36815639723E+02 -0.25070053101E+02 -0.19835891016E+03  0.20329819510E+03  0.00000000000E+00 0.  1.
        -13    1    3    3    0    0 -0.63137508932E+01  0.27014112790E+02 -0.15103835006E+02  0.31587205829E+02  0.00000000000E+00 0. -1.
         22    1    1    2    0    0  0.43129390616E+02 -0.19440596890E+01  0.91866169158E+01  0.44139751170E+02  0.00000000000E+00 0. -1.
<mgrwt>
<rscale>  0 0.79842987E+02</rscale>
<asrwt>0</asrwt>
<pdfrwt beam="1">  1        4 0.57499248E-02 0.98004122E+02</pdfrwt>
<pdfrwt beam="2">  1       -4 0.37177022E-01 0.98004122E+02</pdfrwt>
<totfact> 0.20318872E+03</totfact>
</mgrwt>
</event>
<event>
 6    1  0.1683416E-002  0.9160179E+02  0.7546771E-02  0.1426161E+00
         -2   -1    0    0    0  501 -0.00000000000E+00  0.00000000000E+00  0.10090688523E+03  0.10090688523E+03  0.00000000000E+00 0.  1.
          2   -1    0    0  501    0  0.00000000000E+00 -0.00000000000E+00 -0.32717200601E+02  0.32717200601E+02  0.00000000000E+00 0. -1.
         23    2    1    2    0    0  0.10269521092E+02 -0.35010890044E+01  0.76985757371E+02  0.11965656696E+03  0.90956948553E+02 0.  0.
         11    1    3    3    0    0 -0.88281637330E+01  0.41029086005E+02  0.45355344341E+02  0.61793443290E+02  0.00000000000E+00 0.  1.
        -11    1    3    3    0    0  0.19097684825E+02 -0.44530175009E+02  0.31630413030E+02  0.57863123666E+02  0.00000000000E+00 0. -1.
         22    1    1    2    0    0 -0.10269521092E+02  0.35010890044E+01 -0.87960727457E+01  0.13967518872E+02  0.00000000000E+00 0. -1.
<mgrwt>
<rscale>  0 0.53738378E+02</rscale>
<asrwt>0</asrwt>
<pdfrwt beam="1">  1        2 0.50334155E-02 0.91601786E+02</pdfrwt>
<pdfrwt beam="2">  1       -2 0.15524136E-01 0.91601786E+02</pdfrwt>
<totfact> 0.43477761E+04</totfact>
</mgrwt>
</event>
<event>
 6    1  0.1683416E-002  0.9456863E+02  0.7546771E-02  0.1354303E+00
          2   -1    0    0  501    0  0.00000000000E+00  0.00000000000E+00  0.18624925233E+02  0.18624925233E+02  0.00000000000E+00 0. -1.
         -2   -1    0    0    0  501 -0.00000000000E+00 -0.00000000000E+00 -0.22267966617E+03  0.22267966617E+03  0.00000000000E+00 0.  1.
         23    2    1    2    0    0  0.15535689480E+02  0.27176271144E+02 -0.17328527342E+03  0.19741077074E+03  0.89237430818E+02 0.  0.
         11    1    3    3    0    0  0.41521627881E+01  0.26537872613E+02 -0.33218476236E+01  0.27065361817E+02  0.00000000000E+00 0. -1.
        -11    1    3    3    0    0  0.11383526692E+02  0.63839853122E+00 -0.16996342580E+03  0.17034540892E+03  0.00000000000E+00 0.  1.
         22    1    1    2    0    0 -0.15535689480E+02 -0.27176271144E+02 -0.30769467511E+02  0.43893820656E+02  0.00000000000E+00 0.  1.
<mgrwt>
<rscale>  0 0.71731260E+02</rscale>
<asrwt>0</asrwt>
<pdfrwt beam="1">  1        2 0.28653731E-02 0.94568633E+02</pdfrwt>
<pdfrwt beam="2">  1       -2 0.34258410E-01 0.94568633E+02</pdfrwt>
<totfact> 0.23525530E+04</totfact>
</mgrwt>
</event>
<event>
 6    1  0.1683416E-002  0.9142434E+02  0.7546771E-02  0.1396926E+00
          2   -1    0    0  501    0  0.00000000000E+00  0.00000000000E+00  0.62744158932E+02  0.62744158932E+02  0.00000000000E+00 0. -1.
         -2   -1    0    0    0  501 -0.00000000000E+00 -0.00000000000E+00 -0.48014816680E+02  0.48014816680E+02  0.00000000000E+00 0.  1.
         23    2    1    2    0    0  0.59436828555E+01  0.16146470509E+02  0.18170510618E+02  0.93212536784E+02  0.89790721580E+02 0.  0.
         11    1    3    3    0    0  0.26600928619E+02  0.11480994362E+02  0.48336765627E+02  0.56354818305E+02  0.00000000000E+00 0. -1.
        -11    1    3    3    0    0 -0.20657245763E+02  0.46654761476E+01 -0.30166255009E+02  0.36857718479E+02  0.00000000000E+00 0.  1.
         22    1    1    2    0    0 -0.59436828555E+01 -0.16146470509E+02 -0.34411683659E+01  0.17546438827E+02  0.00000000000E+00 0.  1.
<mgrwt>
<rscale>  0 0.60216348E+02</rscale>
<asrwt>0</asrwt>
<pdfrwt beam="1">  1        2 0.96529476E-02 0.91424338E+02</pdfrwt>
<pdfrwt beam="2">  1       -2 0.73868949E-02 0.91424338E+02</pdfrwt>
<totfact> 0.61472242E+04</totfact>
</mgrwt>
</event>
<event>
 6    1  0.1683416E-002  0.9416493E+02  0.7546771E-02  0.1375564E+00
          2   -1    0    0  501    0  0.00000000000E+00  0.00000000000E+00  0.55322057190E+03  0.55322057190E+03  0.00000000000E+00 0. -1.
         -2   -1    0    0    0  501 -0.00000000000E+00 -0.00000000000E+00 -0.62158980542E+01  0.62158980542E+01  0.00000000000E+00 0.  1.
         23    2    1    2    0    0 -0.88276605815E+01  0.20412063179E+02  0.41299655154E+03  0.42359554549E+03  0.91501118370E+02 0.  0.
         13    1    3    3    0    0 -0.20436150623E+02  0.21095522618E+02  0.36186076415E+02  0.46605680481E+02  0.00000000000E+00 0.  1.
        -13    1    3    3    0    0  0.11608490041E+02 -0.68345943906E+00  0.37681047512E+03  0.37698986501E+03  0.00000000000E+00 0. -1.
         22    1    1    2    0    0  0.88276605815E+01 -0.20412063179E+02  0.13400812231E+03  0.13584092447E+03  0.00000000000E+00 0. -1.
<mgrwt>
<rscale>  0 0.65644215E+02</rscale>
<asrwt>0</asrwt>
<pdfrwt beam="1">  1        2 0.85110818E-01 0.94164933E+02</pdfrwt>
<pdfrwt beam="2">  1       -2 0.95629244E-03 0.94164933E+02</pdfrwt>
<totfact> 0.10993368E+05</totfact>
</mgrwt>
</event>
<event>
 6    1  0.1683416E-002  0.1032507E+03  0.7546771E-02  0.1312743E+00
         -2   -1    0    0    0  501 -0.00000000000E+00  0.00000000000E+00  0.17952170618E+02  0.17952170618E+02  0.00000000000E+00 0.  1.
          2   -1    0    0  501    0  0.00000000000E+00 -0.00000000000E+00 -0.33948213505E+03  0.33948213505E+03  0.00000000000E+00 0. -1.
         23    2    1    2    0    0  0.45491366158E+02  0.20215397290E+02 -0.18142088030E+03  0.20874441987E+03  0.90457560964E+02 0.  0.
         11    1    3    3    0    0 -0.82672994508E+01 -0.15712108817E+02 -0.11383153523E+03  0.11520779929E+03  0.00000000000E+00 0. -1.
        -11    1    3    3    0    0  0.53758665609E+02  0.35927506107E+02 -0.67589345070E+02  0.93536620583E+02  0.00000000000E+00 0.  1.
         22    1    1    2    0    0 -0.45491366158E+02 -0.20215397290E+02 -0.14010908413E+03  0.14868988579E+03  0.00000000000E+00 0. -1.
<mgrwt>
<rscale>  0 0.86036956E+02</rscale>
<asrwt>0</asrwt>
<pdfrwt beam="1">  1        2 0.52228016E-01 0.10325065E+03</pdfrwt>
<pdfrwt beam="2">  1       -2 0.27618727E-02 0.10325065E+03</pdfrwt>
<totfact> 0.40994164E+04</totfact>
</mgrwt>
</event>
<event>
 6    1  0.1683416E-002  0.7139630E+02  0.7546771E-02  0.1477103E+00
         -2   -1    0    0    0  501 -0.00000000000E+00  0.00000000000E+00  0.89943465008E+01  0.89943465008E+01  0.00000000000E+00 0. -1.
          2   -1    0    0  501    0  0.00000000000E+00 -0.00000000000E+00 -0.19381142223E+03  0.19381142223E+03  0.00000000000E+00 0.  1.
         23    2    1    2    0    0  0.54302272909E+01  0.93745816043E+01 -0.14626205705E+03  0.16275755261E+03  0.70569550460E+02 0.  0.
         11    1    3    3    0    0 -0.91114169171E+01  0.18554535378E+02 -0.14392594481E+03  0.14540277264E+03  0.00000000000E+00 0.  1.
        -11    1    3    3    0    0  0.14541644208E+02 -0.91799537736E+01 -0.23361122363E+01  0.17354779974E+02  0.00000000000E+00 0. -1.
         22    1    1    2    0    0 -0.54302272909E+01 -0.93745816043E+01 -0.38555018680E+02  0.40048216117E+02  0.00000000000E+00 0. -1.
<mgrwt>
<rscale>  0 0.44560647E+02</rscale>
<asrwt>0</asrwt>
<pdfrwt beam="1">  1        2 0.29817142E-01 0.71396300E+02</pdfrwt>
<pdfrwt beam="2">  1       -2 0.13837456E-02 0.71396300E+02</pdfrwt>
<totfact> 0.18817686E+05</totfact>
</mgrwt>
</event>
<event>
 6    1  0.1683416E-002  0.1147991E+03  0.7546771E-02  0.1277496E+00
         -2   -1    0    0    0  501 -0.00000000000E+00  0.00000000000E+00  0.55712136319E+01  0.55712136319E+01  0.00000000000E+00 0.  1.
          2   -1    0    0  501    0  0.00000000000E+00 -0.00000000000E+00 -0.18495057229E+04  0.18495057229E+04  0.00000000000E+00 0. -1.
         23    2    1    2    0    0  0.20590585304E+02  0.66611251798E+02 -0.14851911740E+04  0.14896213145E+04  0.91202007870E+02 0.  0.
         11    1    3    3    0    0 -0.14994891669E+02 -0.83295687830E+01 -0.67002145747E+03  0.67024098798E+03  0.00000000000E+00 0. -1.
        -11    1    3    3    0    0  0.35585476973E+02  0.74940820581E+02 -0.81516971657E+03  0.81938032657E+03  0.00000000000E+00 0.  1.
         22    1    1    2    0    0 -0.20590585304E+02 -0.66611251798E+02 -0.35874333523E+03  0.36545562198E+03  0.00000000000E+00 0. -1.
<mgrwt>
<rscale>  0 0.10134328E+03</rscale>
<asrwt>0</asrwt>
<pdfrwt beam="1">  1        2 0.28453954E+00 0.11479912E+03</pdfrwt>
<pdfrwt beam="2">  1       -2 0.85710920E-03 0.11479912E+03</pdfrwt>
<totfact> 0.22776659E+04</totfact>
</mgrwt>
</event>
<event>
 6    1  0.1683416E-002  0.9895996E+02  0.7546771E-02  0.1339542E+00
         -2   -1    0    0    0  501 -0.00000000000E+00  0.00000000000E+00  0.10264791454E+02  0.10264791454E+02  0.00000000000E+00 0.  1.
          2   -1    0    0  501    0  0.00000000000E+00 -0.00000000000E+00 -0.49042980622E+03  0.49042980622E+03  0.00000000000E+00 0. -1.
         23    2    1    2    0    0 -0.25193433078E+02  0.24561306342E+02 -0.26914519650E+03  0.28676159288E+03  0.92493824184E+02 0.  0.
         11    1    3    3    0    0  0.10920631609E+02  0.29104258619E+02 -0.24926407679E+02  0.39845248955E+02  0.00000000000E+00 0.  1.
        -11    1    3    3    0    0 -0.36114064687E+02 -0.45429522764E+01 -0.24421878883E+03  0.24691634393E+03  0.00000000000E+00 0. -1.
         22    1    1    2    0    0  0.25193433078E+02 -0.24561306342E+02 -0.21101981827E+03  0.21393300480E+03  0.00000000000E+00 0. -1.
<mgrwt>
<rscale>  0 0.76415819E+02</rscale>
<asrwt>0</asrwt>
<pdfrwt beam="1">  1        2 0.75450733E-01 0.98959963E+02</pdfrwt>
<pdfrwt beam="2">  1       -2 0.15791988E-02 0.98959963E+02</pdfrwt>
<totfact> 0.61809986E+04</totfact>
</mgrwt>
</event>
<event>
 6    1  0.1683416E-002  0.1761212E+03  0.7546771E-02  0.1180740E+00
          1   -1    0    0  501    0  0.00000000000E+00  0.00000000000E+00  0.11452061498E+04  0.11452061498E+04  0.00000000000E+00 0. -1.
         -1   -1    0    0    0  501 -0.00000000000E+00 -0.00000000000E+00 -0.22387579878E+02  0.22387579878E+02  0.00000000000E+00 0.  1.
         23    2    1    2    0    0  0.25002077670E+02 -0.14105114793E+03  0.57613202072E+03  0.60245063868E+03  0.10246041445E+03 0.  0.
         13    1    3    3    0    0  0.24808761519E+02  0.62950659169E+01  0.13369688256E+03  0.13612479168E+03  0.00000000000E+00 0. -1.
        -13    1    3    3    0    0  0.19331615125E+00 -0.14734621385E+03  0.44243513816E+03  0.46632584700E+03  0.00000000000E+00 0.  1.
         22    1    1    2    0    0 -0.25002077670E+02  0.14105114793E+03  0.54668654917E+03  0.56514309096E+03  0.00000000000E+00 0. -1.
<mgrwt>
<rscale>  0 0.16725621E+03</rscale>
<asrwt>0</asrwt>
<pdfrwt beam="1">  1        1 0.17618552E+00 0.17612117E+03</pdfrwt>
<pdfrwt beam="2">  1       -1 0.34442439E-02 0.17612117E+03</pdfrwt>
<totfact> 0.38101349E+03</totfact>
</mgrwt>
</event>
<event>
 6    1  0.2513656E-002  0.7731283E+02  0.7546771E-02  0.1438186E+00
          2   -1    0    0  501    0  0.00000000000E+00  0.00000000000E+00  0.34671033461E+03  0.34671033461E+03  0.00000000000E+00 0. -1.
         -2   -1    0    0    0  501 -0.00000000000E+00 -0.00000000000E+00 -0.62335029762E+01  0.62335029762E+01  0.00000000000E+00 0.  1.
         23    2    1    2    0    0 -0.13882773827E+02 -0.58038206282E+01  0.26840247298E+03  0.27931552158E+03  0.75834407422E+02 0.  0.
         13    1    3    3    0    0 -0.35690387711E+02  0.96422697213E+01  0.22731621385E+03  0.23030292708E+03  0.00000000000E+00 0. -1.
        -13    1    3    3    0    0  0.21807613884E+02 -0.15446090349E+02  0.41086259125E+02  0.49012594497E+02  0.00000000000E+00 0.  1.
         22    1    1    2    0    0  0.13882773827E+02  0.58038206282E+01  0.72074358656E+02  0.73628316012E+02  0.00000000000E+00 0. -1.
<mgrwt>
<rscale>  0 0.51351365E+02</rscale>
<asrwt>0</asrwt>
<pdfrwt beam="1">  1        2 0.53340036E-01 0.77312826E+02</pdfrwt>
<pdfrwt beam="2">  1       -2 0.95900073E-03 0.77312826E+02</pdfrwt>
<totfact> 0.17441726E+05</totfact>
</mgrwt>
</event>
<event>
 6    1  0.1683416E-002  0.1057720E+03  0.7546771E-02  0.1354755E+00
          2   -1    0    0  501    0  0.00000000000E+00  0.00000000000E+00  0.12402509214E+02  0.12402509214E+02  0.00000000000E+00 0.  1.
         -2   -1    0    0    0  501 -0.00000000000E+00 -0.00000000000E+00 -0.41694144211E+03  0.41694144211E+03  0.00000000000E+00 0. -1.
         23    2    1    2    0    0  0.21892981805E+02 -0.36924675247E+01 -0.38657612325E+03  0.40078524864E+03  0.10341556697E+03 0.  0.
         13    1    3    3    0    0  0.18181747850E+02 -0.53086231875E+02 -0.19555819822E+03  0.20344958310E+03  0.00000000000E+00 0. -1.
        -13    1    3    3    0    0  0.37112339547E+01  0.49393764350E+02 -0.19101792502E+03  0.19733566554E+03  0.00000000000E+00 0.  1.
         22    1    1    2    0    0 -0.21892981805E+02  0.36924675247E+01 -0.17962809654E+02  0.28558702691E+02  0.00000000000E+00 0.  1.
<mgrwt>
<rscale>  0 0.71594056E+02</rscale>
<asrwt>0</asrwt>
<pdfrwt beam="1">  1        2 0.19080781E-02 0.10577200E+03</pdfrwt>
<pdfrwt beam="2">  1       -2 0.64144845E-01 0.10577200E+03</pdfrwt>
<totfact> 0.12183521E+04</totfact>
</mgrwt>
</event>
<event>
 6    1  0.1683416E-002  0.9781672E+02  0.7546771E-02  0.1345533E+00
          2   -1    0    0  501    0  0.00000000000E+00  0.00000000000E+00  0.16217190540E+02  0.16217190540E+02  0.00000000000E+00 0. -1.
         -2   -1    0    0    0  501 -0.00000000000E+00 -0.00000000000E+00 -0.28146834298E+03  0.28146834298E+03  0.00000000000E+00 0.  1.
         23    2    1    2    0    0  0.28618011866E+02  0.16137162066E+02 -0.16105595845E+03  0.18843336167E+03  0.92134203400E+02 0.  0.
         11    1    3    3    0    0  0.43232902589E+00  0.29581781662E+02 -0.15347207475E+03  0.15629762136E+03  0.00000000000E+00 0.  1.
        -11    1    3    3    0    0  0.28185682840E+02 -0.13444619597E+02 -0.75838836954E+01  0.32135740308E+02  0.00000000000E+00 0. -1.
         22    1    1    2    0    0 -0.28618011866E+02 -0.16137162066E+02 -0.10419519399E+03  0.10925217185E+03  0.00000000000E+00 0.  1.
<mgrwt>
<rscale>  0 0.74465917E+02</rscale>
<asrwt>0</asrwt>
<pdfrwt beam="1">  1        2 0.24949524E-02 0.97816717E+02</pdfrwt>
<pdfrwt beam="2">  1       -2 0.43302822E-01 0.97816717E+02</pdfrwt>
<totfact> 0.18361594E+04</totfact>
</mgrwt>
</event>
<event>
 6    1  0.1683416E-002  0.8689192E+02  0.7546771E-02  0.1406925E+00
          1   -1    0    0  501    0  0.00000000000E+00  0.00000000000E+00  0.49793245631E+03  0.49793245631E+03  0.00000000000E+00 0. -1.
         -1   -1    0    0    0  501 -0.00000000000E+00 -0.00000000000E+00 -0.54737290969E+01  0.54737290969E+01  0.00000000000E+00 0.  1.
         23    2    1    2    0    0  0.67220413992E+01 -0.15738385720E+02  0.39360542823E+03  0.40308242279E+03  0.85189927837E+02 0.  0.
         13    1    3    3    0    0 -0.34160071341E+02  0.13110190714E+02  0.15085517382E+03  0.15522909213E+03  0.00000000000E+00 0.  1.
        -13    1    3    3    0    0  0.40882112740E+02 -0.28848576434E+02  0.24275025441E+03  0.24785333066E+03  0.00000000000E+00 0. -1.
         22    1    1    2    0    0 -0.67220413992E+01  0.15738385720E+02  0.98853298981E+02  0.10032376261E+03  0.00000000000E+00 0.  1.
<mgrwt>
<rscale>  0 0.57885696E+02</rscale>
<asrwt>0</asrwt>
<pdfrwt beam="1">  1        1 0.76604958E-01 0.86891924E+02</pdfrwt>
<pdfrwt beam="2">  1       -1 0.84211256E-03 0.86891924E+02</pdfrwt>
<totfact> 0.94429510E+04</totfact>
</mgrwt>
</event>
<event>
 6    1  0.1683416E-002  0.8989324E+02  0.7546771E-02  0.1429784E+00
         -4   -1    0    0    0  501 -0.00000000000E+00  0.00000000000E+00  0.20241403172E+03  0.20241403172E+03  0.00000000000E+00 0.  1.
          4   -1    0    0  501    0  0.00000000000E+00 -0.00000000000E+00 -0.15624511264E+02  0.15624511264E+02  0.00000000000E+00 0. -1.
         23    2    1    2    0    0 -0.11917478499E+01  0.10799551055E+02  0.18665392556E+03  0.20717258919E+03  0.89234204304E+02 0.  0.
         13    1    3    3    0    0  0.34153476297E+02  0.32761478410E+02  0.11421940866E+03  0.12363594836E+03  0.00000000000E+00 0. -1.
        -13    1    3    3    0    0 -0.35345224147E+02 -0.21961927355E+02  0.72434516899E+02  0.83536640832E+02  0.00000000000E+00 0.  1.
         22    1    1    2    0    0  0.11917478499E+01 -0.10799551055E+02  0.13559489546E+00  0.10865953796E+02  0.00000000000E+00 0. -1.
<mgrwt>
<rscale>  0 0.53003405E+02</rscale>
<asrwt>0</asrwt>
<pdfrwt beam="1">  1        4 0.24037711E-02 0.89893235E+02</pdfrwt>
<pdfrwt beam="2">  1       -4 0.31140618E-01 0.89893235E+02</pdfrwt>
<totfact> 0.10948023E+04</totfact>
</mgrwt>
</event>
<event>
 6    1  0.1683416E-002  0.1035839E+03  0.7546771E-02  0.1314268E+00
         -4   -1    0    0    0  501 -0.00000000000E+00  0.00000000000E+00  0.82936878184E+02  0.82936878184E+02  0.00000000000E+00 0. -1.
          4   -1    0    0  501    0  0.00000000000E+00 -0.00000000000E+00 -0.78196322831E+02  0.78196322831E+02  0.00000000000E+00 0.  1.
         23    2    1    2    0    0 -0.45581961665E+02  0.14926089836E+02  0.28744702951E+02  0.10749830110E+03  0.91810257621E+02 0.  0.
         13    1    3    3    0    0 -0.15984398787E+02 -0.38455028127E+02  0.47534161959E+01  0.41915213924E+02  0.00000000000E+00 0.  1.
        -13    1    3    3    0    0 -0.29597562879E+02  0.53381117963E+02  0.23991286755E+02  0.65583087175E+02  0.00000000000E+00 0. -1.
         22    1    1    2    0    0  0.45581961665E+02 -0.14926089836E+02 -0.24004147598E+02  0.53634899915E+02  0.00000000000E+00 0.  1.
<mgrwt>
<rscale>  0 0.85447053E+02</rscale>
<asrwt>0</asrwt>
<pdfrwt beam="1">  1        4 0.12030204E-01 0.10358391E+03</pdfrwt>
<pdfrwt beam="2">  1       -4 0.12759520E-01 0.10358391E+03</pdfrwt>
<totfact> 0.42189998E+03</totfact>
</mgrwt>
</event>
<event>
 6    1  0.1683416E-002  0.9797476E+02  0.7546771E-02  0.1340142E+00
         -2   -1    0    0    0  501 -0.00000000000E+00  0.00000000000E+00  0.11297273187E+02  0.11297273187E+02  0.00000000000E+00 0.  1.
          2   -1    0    0  501    0  0.00000000000E+00 -0.00000000000E+00 -0.43014953890E+03  0.43014953890E+03  0.00000000000E+00 0. -1.
         23    2    1    2    0    0 -0.35806220550E+02 -0.23273111452E+01 -0.24370273407E+03  0.26265961947E+03  0.91167709755E+02 0.  0.
         13    1    3    3    0    0 -0.40694868044E+02 -0.37566057828E+01 -0.34749477472E+02  0.53644296590E+02  0.00000000000E+00 0. -1.
        -13    1    3    3    0    0  0.48886474937E+01  0.14292946376E+01 -0.20895325660E+03  0.20901532288E+03  0.00000000000E+00 0.  1.
         22    1    1    2    0    0  0.35806220550E+02  0.23273111452E+01 -0.17514953165E+03  0.17878719261E+03  0.00000000000E+00 0.  1.
<mgrwt>
<rscale>  0 0.76217400E+02</rscale>
<asrwt>0</asrwt>
<pdfrwt beam="1">  1        2 0.66176852E-01 0.97974758E+02</pdfrwt>
<pdfrwt beam="2">  1       -2 0.17380420E-02 0.97974758E+02</pdfrwt>
<totfact> 0.61928592E+04</totfact>
</mgrwt>
</event>
<event>
 6    1  0.1683416E-002  0.1011918E+03  0.7546771E-02  0.1330592E+00
          4   -1    0    0  501    0  0.00000000000E+00  0.00000000000E+00  0.33645150006E+03  0.33645150006E+03  0.00000000000E+00 0. -1.
         -4   -1    0    0    0  501 -0.00000000000E+00 -0.00000000000E+00 -0.15471079577E+02  0.15471079577E+02  0.00000000000E+00 0.  1.
         23    2    1    2    0    0  0.28013430534E+02  0.26369884104E+02  0.18818544139E+03  0.21366691230E+03  0.93593087263E+02 0.  0.
         11    1    3    3    0    0  0.35983465633E+02  0.52021719816E+02  0.78880890599E+02  0.10111015791E+03  0.00000000000E+00 0. -1.
        -11    1    3    3    0    0 -0.79700350989E+01 -0.25651835711E+02  0.10930455079E+03  0.11255675439E+03  0.00000000000E+00 0.  1.
         22    1    1    2    0    0 -0.28013430534E+02 -0.26369884104E+02  0.13279497909E+03  0.13825566733E+03  0.00000000000E+00 0.  1.
<mgrwt>
<rscale>  0 0.79459597E+02</rscale>
<asrwt>0</asrwt>
<pdfrwt beam="1">  1        4 0.51761764E-01 0.10119184E+03</pdfrwt>
<pdfrwt beam="2">  1       -4 0.23801663E-02 0.10119184E+03</pdfrwt>
<totfact> 0.42562400E+03</totfact>
</mgrwt>
</event>
<event>
 6    1  0.1683416E-002  0.9671137E+02  0.7546771E-02  0.1360922E+00
          2   -1    0    0  501    0  0.00000000000E+00  0.00000000000E+00  0.10518023373E+02  0.10518023373E+02  0.00000000000E+00 0. -1.
         -2   -1    0    0    0  501 -0.00000000000E+00 -0.00000000000E+00 -0.36025697931E+03  0.36025697931E+03  0.00000000000E+00 0.  1.
         23    2    1    2    0    0  0.21410520386E+02  0.15059757621E+02 -0.26569223385E+03  0.28274626774E+03  0.93101461358E+02 0.  0.
         13    1    3    3    0    0  0.38580409967E+02 -0.78799601603E+01 -0.43345572725E+02  0.58560912563E+02  0.00000000000E+00 0. -1.
        -13    1    3    3    0    0 -0.17169889581E+02  0.22939717782E+02 -0.22234666113E+03  0.22418535517E+03  0.00000000000E+00 0.  1.
         22    1    1    2    0    0 -0.21410520386E+02 -0.15059757621E+02 -0.84046722083E+02  0.88028734943E+02  0.00000000000E+00 0.  1.
<mgrwt>
<rscale>  0 0.69756687E+02</rscale>
<asrwt>0</asrwt>
<pdfrwt beam="1">  1        2 0.16181576E-02 0.96711368E+02</pdfrwt>
<pdfrwt beam="2">  1       -2 0.55424147E-01 0.96711368E+02</pdfrwt>
<totfact> 0.20301682E+04</totfact>
</mgrwt>
</event>
<event>
 6    1  0.1683416E-002  0.9225166E+02  0.7546771E-02  0.1413563E+00
          2   -1    0    0  501    0  0.00000000000E+00  0.00000000000E+00  0.21862384785E+02  0.21862384785E+02  0.00000000000E+00 0. -1.
         -2   -1    0    0    0  501 -0.00000000000E+00 -0.00000000000E+00 -0.12734728816E+03  0.12734728816E+03  0.00000000000E+00 0.  1.
         23    2    1    2    0    0  0.12613479161E+02  0.26749383833E+01 -0.96450528339E+02  0.13346562378E+03  0.91346117387E+02 0.  0.
         11    1    3    3    0    0  0.15822169823E+02 -0.18499294469E+01  0.14997908071E+02  0.21879226297E+02  0.00000000000E+00 0. -1.
        -11    1    3    3    0    0 -0.32086906616E+01  0.45248678302E+01 -0.11144843641E+03  0.11158639748E+03  0.00000000000E+00 0.  1.
         22    1    1    2    0    0 -0.12613479161E+02 -0.26749383833E+01 -0.90343750383E+01  0.15744049169E+02  0.00000000000E+00 0. -1.
<mgrwt>
<rscale>  0 0.56406288E+02</rscale>
<asrwt>0</asrwt>
<pdfrwt beam="1">  1        2 0.33634438E-02 0.92251658E+02</pdfrwt>
<pdfrwt beam="2">  1       -2 0.19591891E-01 0.92251658E+02</pdfrwt>
<totfact> 0.50220098E+04</totfact>
</mgrwt>
</event>
<event>
 6    1  0.1762498E-002  0.9838198E+02  0.7546771E-02  0.1351860E+00
         -2   -1    0    0    0  501 -0.00000000000E+00  0.00000000000E+00  0.27261630766E+01  0.27261630766E+01  0.00000000000E+00 0.  1.
          2   -1    0    0  501    0  0.00000000000E+00 -0.00000000000E+00 -0.28104102347E+04  0.28104102347E+04  0.00000000000E+00 0. -1.
         23    2    1    2    0    0  0.21004427442E+01 -0.28904020536E+02 -0.26946835545E+04  0.26964789028E+04  0.94016807632E+02 0.  0.
         13    1    3    3    0    0  0.41330671638E+02 -0.38766554297E+02 -0.13540168124E+04  0.13552020507E+04  0.00000000000E+00 0. -1.
        -13    1    3    3    0    0 -0.39230228894E+02  0.98625337603E+01 -0.13406667422E+04  0.13412768521E+04  0.00000000000E+00 0.  1.
         22    1    1    2    0    0 -0.21004427442E+01  0.28904020536E+02 -0.11300051713E+03  0.11665749497E+03  0.00000000000E+00 0.  1.
<mgrwt>
<rscale>  0 0.72478996E+02</rscale>
<asrwt>0</asrwt>
<pdfrwt beam="1">  1        2 0.43237024E+00 0.98381982E+02</pdfrwt>
<pdfrwt beam="2">  1       -2 0.41941025E-03 0.98381982E+02</pdfrwt>
<totfact> 0.19522181E+04</totfact>
</mgrwt>
</event>
<event>
 6    1  0.1683416E-002  0.9407818E+02  0.7546771E-02  0.1373342E+00
         -4   -1    0    0    0  501 -0.00000000000E+00  0.00000000000E+00  0.20755639852E+03  0.20755639852E+03  0.00000000000E+00 0.  1.
          4   -1    0    0  501    0  0.00000000000E+00 -0.00000000000E+00 -0.16853467822E+02  0.16853467822E+02  0.00000000000E+00 0. -1.
         23    2    1    2    0    0 -0.15989252991E+02  0.16714556546E+02  0.16412202532E+03  0.18917384582E+03  0.91190307239E+02 0.  0.
         13    1    3    3    0    0  0.33423633978E+02 -0.58606808842E+01  0.97344753009E+02  0.10308970767E+03  0.00000000000E+00 0.  1.
        -13    1    3    3    0    0 -0.49412886969E+02  0.22575237431E+02  0.66777272313E+02  0.86084138151E+02  0.00000000000E+00 0. -1.
         22    1    1    2    0    0  0.15989252991E+02 -0.16714556546E+02  0.26580905379E+02  0.35236020526E+02  0.00000000000E+00 0.  1.
<mgrwt>
<rscale>  0 0.66246697E+02</rscale>
<asrwt>0</asrwt>
<pdfrwt beam="1">  1        4 0.25928413E-02 0.94078184E+02</pdfrwt>
<pdfrwt beam="2">  1       -4 0.31931752E-01 0.94078184E+02</pdfrwt>
<totfact> 0.94183838E+03</totfact>
</mgrwt>
</event>
<event>
 6    1  0.1683416E-002  0.9676528E+02  0.7546771E-02  0.1345344E+00
         -1   -1    0    0    0  501 -0.00000000000E+00  0.00000000000E+00  0.51169736742E+02  0.51169736742E+02  0.00000000000E+00 0.  1.
          1   -1    0    0  501    0  0.00000000000E+00 -0.00000000000E+00 -0.16378180715E+03  0.16378180715E+03  0.00000000000E+00 0. -1.
         23    2    1    2    0    0  0.46949332265E+01 -0.33722176763E+02  0.56203701762E+00  0.96766916317E+02  0.90577550222E+02 0.  0.
         13    1    3    3    0    0 -0.32448033008E+02  0.51338929416E+01  0.21299603443E+02  0.39152328279E+02  0.00000000000E+00 0. -1.
        -13    1    3    3    0    0  0.37142966234E+02 -0.38856069704E+02 -0.20737566426E+02  0.57614588038E+02  0.00000000000E+00 0.  1.
         22    1    1    2    0    0 -0.46949332265E+01  0.33722176763E+02 -0.11317410743E+03  0.11818462758E+03  0.00000000000E+00 0. -1.
<mgrwt>
<rscale>  0 0.74526508E+02</rscale>
<asrwt>0</asrwt>
<pdfrwt beam="1">  1        1 0.25197201E-01 0.96765284E+02</pdfrwt>
<pdfrwt beam="2">  1       -1 0.78722672E-02 0.96765284E+02</pdfrwt>
<totfact> 0.15098683E+04</totfact>
</mgrwt>
</event>
<event>
 6    1  0.1683416E-002  0.1121943E+03  0.7546771E-02  0.1286606E+00
          2   -1    0    0  501    0  0.00000000000E+00  0.00000000000E+00  0.13457718706E+03  0.13457718706E+03  0.00000000000E+00 0. -1.
         -2   -1    0    0    0  501 -0.00000000000E+00 -0.00000000000E+00 -0.57511003248E+02  0.57511003248E+02  0.00000000000E+00 0.  1.
         23    2    1    2    0    0  0.31809481596E+02 -0.54191509461E+02  0.39876417572E+02  0.11907009988E+03  0.92946205891E+02 0.  0.
         13    1    3    3    0    0 -0.12267337797E+02 -0.64778853807E+02  0.16034509074E+02  0.67851993032E+02  0.00000000000E+00 0. -1.
        -13    1    3    3    0    0  0.44076819393E+02  0.10587344346E+02  0.23841908499E+02  0.51218106847E+02  0.00000000000E+00 0.  1.
         22    1    1    2    0    0 -0.31809481596E+02  0.54191509461E+02  0.37189766241E+02  0.73018090431E+02  0.00000000000E+00 0. -1.
<mgrwt>
<rscale>  0 0.97058363E+02</rscale>
<asrwt>0</asrwt>
<pdfrwt beam="1">  1        2 0.20704182E-01 0.11219430E+03</pdfrwt>
<pdfrwt beam="2">  1       -2 0.88478467E-02 0.11219430E+03</pdfrwt>
<totfact> 0.19596258E+04</totfact>
</mgrwt>
</event>
<event>
 6    1  0.1683416E-002  0.9672839E+02  0.7546771E-02  0.1402010E+00
          2   -1    0    0  501    0  0.00000000000E+00  0.00000000000E+00  0.81487365031E+02  0.81487365031E+02  0.00000000000E+00 0. -1.
         -2   -1    0    0    0  501 -0.00000000000E+00 -0.00000000000E+00 -0.38123737365E+02  0.38123737365E+02  0.00000000000E+00 0.  1.
         23    2    1    2    0    0  0.13355303479E+02  0.11312133026E+01  0.31546980525E+02  0.10174278059E+03  0.95795290318E+02 0.  0.
         13    1    3    3    0    0  0.25676504585E+02 -0.22042958201E+02 -0.23200133060E+02  0.41029514596E+02  0.00000000000E+00 0.  1.
        -13    1    3    3    0    0 -0.12321201106E+02  0.23174171504E+02  0.54747113585E+02  0.60713265993E+02  0.00000000000E+00 0. -1.
         22    1    1    2    0    0 -0.13355303479E+02 -0.11312133026E+01  0.11816647141E+02  0.17868321807E+02  0.00000000000E+00 0. -1.
<mgrwt>
<rscale>  0 0.59015622E+02</rscale>
<asrwt>0</asrwt>
<pdfrwt beam="1">  1        2 0.12536518E-01 0.96728390E+02</pdfrwt>
<pdfrwt beam="2">  1       -2 0.58651904E-02 0.96728390E+02</pdfrwt>
<totfact> 0.64147457E+04</totfact>
</mgrwt>
</event>
<event>
 6    1  0.1683416E-002  0.9266523E+02  0.7546771E-02  0.1397173E+00
          2   -1    0    0  501    0  0.00000000000E+00  0.00000000000E+00  0.39384721513E+03  0.39384721513E+03  0.00000000000E+00 0. -1.
         -2   -1    0    0    0  501 -0.00000000000E+00 -0.00000000000E+00 -0.77060909868E+01  0.77060909868E+01  0.00000000000E+00 0.  1.
         23    2    1    2    0    0 -0.52860253571E+01 -0.15587016793E+02  0.30527751089E+03  0.31903166589E+03  0.91191819982E+02 0.  0.
         13    1    3    3    0    0 -0.41024663091E+02 -0.23798290738E+02  0.10218271972E+03  0.11265296194E+03  0.00000000000E+00 0.  1.
        -13    1    3    3    0    0  0.35738637734E+02  0.82112739449E+01  0.20309479116E+03  0.20637870395E+03  0.00000000000E+00 0. -1.
         22    1    1    2    0    0  0.52860253571E+01  0.15587016793E+02  0.80863613261E+02  0.82521640230E+02  0.00000000000E+00 0. -1.
<mgrwt>
<rscale>  0 0.60157277E+02</rscale>
<asrwt>0</asrwt>
<pdfrwt beam="1">  1        2 0.60591864E-01 0.92665232E+02</pdfrwt>
<pdfrwt beam="2">  1       -2 0.11855528E-02 0.92665232E+02</pdfrwt>
<totfact> 0.11644486E+05</totfact>
</mgrwt>
</event>
<event>
 6    1  0.1683416E-002  0.1194765E+03  0.7546771E-02  0.1294468E+00
         -2   -1    0    0    0  501 -0.00000000000E+00  0.00000000000E+00  0.20260100431E+03  0.20260100431E+03  0.00000000000E+00 0. -1.
          2   -1    0    0  501    0  0.00000000000E+00 -0.00000000000E+00 -0.33697993516E+02  0.33697993516E+02  0.00000000000E+00 0.  1.
         23    2    1    2    0    0  0.25956809870E+02 -0.36655343675E+02  0.13311581485E+03  0.17886996691E+03  0.11071257698E+03 0.  0.
         11    1    3    3    0    0 -0.70986532759E+01  0.36762300147E+02  0.29606206429E+02  0.47732431842E+02  0.00000000000E+00 0.  1.
        -11    1    3    3    0    0  0.33055463146E+02 -0.73417643822E+02  0.10350960842E+03  0.13113753507E+03  0.00000000000E+00 0. -1.
         22    1    1    2    0    0 -0.25956809870E+02  0.36655343675E+02  0.35787195943E+02  0.57429030917E+02  0.00000000000E+00 0.  1.
<mgrwt>
<rscale>  0 0.93553533E+02</rscale>
<asrwt>0</asrwt>
<pdfrwt beam="1">  1        2 0.51843068E-02 0.11947655E+03</pdfrwt>
<pdfrwt beam="2">  1       -2 0.31169385E-01 0.11947655E+03</pdfrwt>
<totfact> 0.13143109E+04</totfact>
</mgrwt>
</event>
<event>
 6    1  0.1683416E-002  0.9176349E+02  0.7546771E-02  0.1386292E+00
          1   -1    0    0  501    0  0.00000000000E+00  0.00000000000E+00  0.80450259147E+02  0.80450259147E+02  0.00000000000E+00 0. -1.
         -1   -1    0    0    0  501 -0.00000000000E+00 -0.00000000000E+00 -0.75131787093E+02  0.75131787093E+02  0.00000000000E+00 0.  1.
         23    2    1    2    0    0 -0.10514073212E+02 -0.17222934692E+02 -0.44388347767E+02  0.10193558176E+03  0.89517384878E+02 0.  0.
         11    1    3    3    0    0 -0.49666243269E+02 -0.83075975207E+01 -0.16286603788E+02  0.52924525128E+02  0.00000000000E+00 0. -1.
        -11    1    3    3    0    0  0.39152170058E+02 -0.89153371718E+01 -0.28101743980E+02  0.49011056628E+02  0.00000000000E+00 0.  1.
         22    1    1    2    0    0  0.10514073212E+02  0.17222934692E+02  0.49706819821E+02  0.53646464484E+02  0.00000000000E+00 0.  1.
<mgrwt>
<rscale>  0 0.62838397E+02</rscale>
<asrwt>0</asrwt>
<pdfrwt beam="1">  1        1 0.12376963E-01 0.91763486E+02</pdfrwt>
<pdfrwt beam="2">  1       -1 0.11558736E-01 0.91763486E+02</pdfrwt>
<totfact> 0.20711604E+04</totfact>
</mgrwt>
</event>
<event>
 6    1  0.1683416E-002  0.8025836E+02  0.7546771E-02  0.1449170E+00
         -4   -1    0    0    0  501 -0.00000000000E+00  0.00000000000E+00  0.15182581543E+02  0.15182581543E+02  0.00000000000E+00 0.  1.
          4   -1    0    0  501    0  0.00000000000E+00 -0.00000000000E+00 -0.13866540224E+03  0.13866540224E+03  0.00000000000E+00 0. -1.
         23    2    1    2    0    0  0.11088975850E+02 -0.27462896094E+01 -0.10582530277E+03  0.13281716279E+03  0.79441151396E+02 0.  0.
         13    1    3    3    0    0  0.31908602709E+02 -0.31416776023E+02 -0.56818571185E+02  0.72343090714E+02  0.00000000000E+00 0. -1.
        -13    1    3    3    0    0 -0.20819626859E+02  0.28670486414E+02 -0.49006731582E+02  0.60474072081E+02  0.00000000000E+00 0.  1.
         22    1    1    2    0    0 -0.11088975850E+02  0.27462896094E+01 -0.17657517934E+02  0.21030820992E+02  0.00000000000E+00 0.  1.
<mgrwt>
<rscale>  0 0.49297186E+02</rscale>
<asrwt>0</asrwt>
<pdfrwt beam="1">  1        4 0.21333139E-01 0.80258358E+02</pdfrwt>
<pdfrwt beam="2">  1       -4 0.23357817E-02 0.80258358E+02</pdfrwt>
<totfact> 0.22087520E+04</totfact>
</mgrwt>
</event>
<event>
 6    1  0.1683416E-002  0.9122187E+02  0.7546771E-02  0.1428799E+00
         -2   -1    0    0    0  501 -0.00000000000E+00  0.00000000000E+00  0.48472781276E+02  0.48472781276E+02  0.00000000000E+00 0.  1.
          2   -1    0    0  501    0  0.00000000000E+00 -0.00000000000E+00 -0.76817081389E+02  0.76817081389E+02  0.00000000000E+00 0. -1.
         23    2    1    2    0    0  0.22290169454E+01 -0.10315719822E+02  0.39575046840E+01  0.91307673432E+02  0.90609308530E+02 0.  0.
         11    1    3    3    0    0 -0.17390683134E+02 -0.82076097657E+01  0.43253404223E+02  0.47335585924E+02  0.00000000000E+00 0.  1.
        -11    1    3    3    0    0  0.19619700079E+02 -0.21081100567E+01 -0.39295899539E+02  0.43972087508E+02  0.00000000000E+00 0. -1.
         22    1    1    2    0    0 -0.22290169454E+01  0.10315719822E+02 -0.32301804797E+02  0.33982189234E+02  0.00000000000E+00 0. -1.
<mgrwt>
<rscale>  0 0.53201808E+02</rscale>
<asrwt>0</asrwt>
<pdfrwt beam="1">  1        2 0.11818012E-01 0.91221869E+02</pdfrwt>
<pdfrwt beam="2">  1       -2 0.74573510E-02 0.91221869E+02</pdfrwt>
<totfact> 0.47481234E+04</totfact>
</mgrwt>
</event>
<event>
 6    1  0.1683416E-002  0.8703081E+02  0.7546771E-02  0.1433544E+00
         -4   -1    0    0    0  501 -0.00000000000E+00  0.00000000000E+00  0.12358287638E+03  0.12358287638E+03  0.00000000000E+00 0.  1.
          4   -1    0    0  501    0  0.00000000000E+00 -0.00000000000E+00 -0.23429294897E+02  0.23429294897E+02  0.00000000000E+00 0. -1.
         23    2    1    2    0    0 -0.12735329281E+00 -0.11310150068E+02  0.10348918061E+03  0.13521971882E+03  0.86292677210E+02 0.  0.
         13    1    3    3    0    0 -0.26523489122E+02  0.95415552731E+00 -0.11920346588E+01  0.26567401728E+02  0.00000000000E+00 0. -1.
        -13    1    3    3    0    0  0.26396135829E+02 -0.12264305596E+02  0.10468121527E+03  0.10865231709E+03  0.00000000000E+00 0.  1.
         22    1    1    2    0    0  0.12735329281E+00  0.11310150068E+02 -0.33355991294E+01  0.11792452458E+02  0.00000000000E+00 0. -1.
<mgrwt>
<rscale>  0 0.52255107E+02</rscale>
<asrwt>0</asrwt>
<pdfrwt beam="1">  1        4 0.36045070E-02 0.87030810E+02</pdfrwt>
<pdfrwt beam="2">  1       -4 0.19012750E-01 0.87030810E+02</pdfrwt>
<totfact> 0.14222497E+04</totfact>
</mgrwt>
</event>
<event>
 6    1  0.1822182E-002  0.1004807E+03  0.7546771E-02  0.1327119E+00
         -1   -1    0    0    0  501 -0.00000000000E+00  0.00000000000E+00  0.42376822840E+02  0.42376822840E+02  0.00000000000E+00 0.  1.
          1   -1    0    0  501    0  0.00000000000E+00 -0.00000000000E+00 -0.33201118732E+03  0.33201118732E+03  0.00000000000E+00 0. -1.
         23    2    1    2    0    0 -0.41511508804E+02 -0.46907346920E+01 -0.31145114878E+03  0.32725860923E+03  0.91384740969E+02 0.  0.
         11    1    3    3    0    0 -0.61824890831E+02  0.11676480581E+02 -0.13563391855E+03  0.14951661174E+03  0.00000000000E+00 0. -1.
        -11    1    3    3    0    0  0.20313382027E+02 -0.16367215273E+02 -0.17581723022E+03  0.17774199748E+03  0.00000000000E+00 0.  1.
         22    1    1    2    0    0  0.41511508804E+02  0.46907346920E+01  0.21816784299E+02  0.47129400933E+02  0.00000000000E+00 0.  1.
<mgrwt>
<rscale>  0 0.80685042E+02</rscale>
<asrwt>0</asrwt>
<pdfrwt beam="1">  1        1 0.51078645E-01 0.10048074E+03</pdfrwt>
<pdfrwt beam="2">  1       -1 0.65195110E-02 0.10048074E+03</pdfrwt>
<totfact> 0.84198718E+03</totfact>
</mgrwt>
</event>
<event>
 6    1  0.1683416E-002  0.9928336E+02  0.7546771E-02  0.1319638E+00
         -1   -1    0    0    0  501 -0.00000000000E+00  0.00000000000E+00  0.52832472324E+02  0.52832472324E+02  0.00000000000E+00 0.  1.
          1   -1    0    0  501    0  0.00000000000E+00 -0.00000000000E+00 -0.13668128913E+03  0.13668128913E+03  0.00000000000E+00 0. -1.
         23    2    1    2    0    0 -0.44425414658E+02  0.21749479128E+02 -0.88562628678E+01  0.99677574670E+02  0.86084424783E+02 0.  0.
         11    1    3    3    0    0 -0.19654714797E+02  0.12707122155E+02  0.38742111293E+02  0.45262898213E+02  0.00000000000E+00 0.  1.
        -11    1    3    3    0    0 -0.24770699861E+02  0.90423569725E+01 -0.47598374160E+02  0.54414676457E+02  0.00000000000E+00 0. -1.
         22    1    1    2    0    0  0.44425414658E+02 -0.21749479128E+02 -0.74992553937E+02  0.89836186784E+02  0.00000000000E+00 0. -1.
<mgrwt>
<rscale>  0 0.83412088E+02</rscale>
<asrwt>0</asrwt>
<pdfrwt beam="1">  1        1 0.21027890E-01 0.99283360E+02</pdfrwt>
<pdfrwt beam="2">  1       -1 0.81280728E-02 0.99283360E+02</pdfrwt>
<totfact> 0.18087202E+04</totfact>
</mgrwt>
</event>
<event>
 6    1  0.1683416E-002  0.8844074E+02  0.7546771E-02  0.1423318E+00
         -2   -1    0    0    0  501 -0.00000000000E+00  0.00000000000E+00  0.16104415013E+03  0.16104415013E+03  0.00000000000E+00 0.  1.
          2   -1    0    0  501    0  0.00000000000E+00 -0.00000000000E+00 -0.16441780982E+02  0.16441780982E+02  0.00000000000E+00 0. -1.
         23    2    1    2    0    0  0.11285619463E+02  0.55818585009E+01  0.11319173495E+03  0.14364586179E+03  0.87539947437E+02 0.  0.
         11    1    3    3    0    0  0.87161093436E+01 -0.21488874586E+02 -0.38325278348E+01  0.23503841445E+02  0.00000000000E+00 0. -1.
        -11    1    3    3    0    0  0.25695101191E+01  0.27070733087E+02  0.11702426278E+03  0.12014202034E+03  0.00000000000E+00 0.  1.
         22    1    1    2    0    0 -0.11285619463E+02 -0.55818585009E+01  0.31410634195E+02  0.33840069319E+02  0.00000000000E+00 0.  1.
<mgrwt>
<rscale>  0 0.54325107E+02</rscale>
<asrwt>0</asrwt>
<pdfrwt beam="1">  1        2 0.25295049E-02 0.88440741E+02</pdfrwt>
<pdfrwt beam="2">  1       -2 0.24776022E-01 0.88440741E+02</pdfrwt>
<totfact> 0.48912196E+04</totfact>
</mgrwt>
</event>
<event>
 6    1  0.1683416E-002  0.1093050E+03  0.7546771E-02  0.1292166E+00
          1   -1    0    0  501    0  0.00000000000E+00  0.00000000000E+00  0.38575436408E+03  0.38575436408E+03  0.00000000000E+00 0. -1.
         -1   -1    0    0    0  501 -0.00000000000E+00 -0.00000000000E+00 -0.20488672269E+02  0.20488672269E+02  0.00000000000E+00 0.  1.
         23    2    1    2    0    0 -0.53983306658E+02  0.28888942319E+02  0.17464135700E+03  0.20602713936E+03  0.90547281521E+02 0.  0.
         11    1    3    3    0    0 -0.49358386818E+01  0.53086599269E+01  0.14278231339E+03  0.14296619667E+03  0.00000000000E+00 0. -1.
        -11    1    3    3    0    0 -0.49047467976E+02  0.23580282392E+02  0.31859043608E+02  0.63060942683E+02  0.00000000000E+00 0.  1.
         22    1    1    2    0    0  0.53983306658E+02 -0.28888942319E+02  0.19062433481E+03  0.20021589699E+03  0.00000000000E+00 0. -1.
<mgrwt>
<rscale>  0 0.94561867E+02</rscale>
<asrwt>0</asrwt>
<pdfrwt beam="1">  1        1 0.59346820E-01 0.10930498E+03</pdfrwt>
<pdfrwt beam="2">  1       -1 0.31521037E-02 0.10930498E+03</pdfrwt>
<totfact> 0.20426700E+04</totfact>
</mgrwt>
</event>
<event>
 6    1  0.1683416E-002  0.9284503E+02  0.7546771E-02  0.1425226E+00
          2   -1    0    0  501    0  0.00000000000E+00  0.00000000000E+00  0.18492253057E+02  0.18492253057E+02  0.00000000000E+00 0. -1.
         -2   -1    0    0    0  501 -0.00000000000E+00 -0.00000000000E+00 -0.14692640100E+03  0.14692640100E+03  0.00000000000E+00 0.  1.
         23    2    1    2    0    0  0.10437720790E+02  0.16638421201E+01 -0.12090870701E+03  0.15244380734E+03  0.92241447201E+02 0.  0.
         13    1    3    3    0    0  0.31880375433E+02  0.22408047965E+02 -0.13929805631E+02  0.41382586147E+02  0.00000000000E+00 0. -1.
        -13    1    3    3    0    0 -0.21442654642E+02 -0.20744205845E+02 -0.10697890138E+03  0.11106122120E+03  0.00000000000E+00 0.  1.
         22    1    1    2    0    0 -0.10437720790E+02 -0.16638421201E+01 -0.75254409334E+01  0.12974846710E+02  0.00000000000E+00 0. -1.
<mgrwt>
<rscale>  0 0.53930273E+02</rscale>
<asrwt>0</asrwt>
<pdfrwt beam="1">  1        2 0.28449621E-02 0.92845027E+02</pdfrwt>
<pdfrwt beam="2">  1       -2 0.22604061E-01 0.92845027E+02</pdfrwt>
<totfact> 0.49301961E+04</totfact>
</mgrwt>
</event>
<event>
 6    1  0.1683416E-002  0.9204981E+02  0.7546771E-02  0.1415236E+00
         -1   -1    0    0    0  501 -0.00000000000E+00  0.00000000000E+00  0.66992602949E+02  0.66992602949E+02  0.00000000000E+00 0.  1.
          1   -1    0    0  501    0  0.00000000000E+00 -0.00000000000E+00 -0.46034494710E+02  0.46034494710E+02  0.00000000000E+00 0. -1.
         23    2    1    2    0    0  0.10792325424E+02  0.65925445363E+01  0.30731343314E+02  0.97044230102E+02  0.91176922533E+02 0.  0.
         11    1    3    3    0    0 -0.27362276252E+02  0.30985463571E+02  0.31144259282E+02  0.51756719377E+02  0.00000000000E+00 0.  1.
        -11    1    3    3    0    0  0.38154601676E+02 -0.24392919035E+02 -0.41291596844E+00  0.45287510725E+02  0.00000000000E+00 0. -1.
         22    1    1    2    0    0 -0.10792325424E+02 -0.65925445363E+01 -0.97732350746E+01  0.15982867557E+02  0.00000000000E+00 0.  1.
<mgrwt>
<rscale>  0 0.56041586E+02</rscale>
<asrwt>0</asrwt>
<pdfrwt beam="1">  1        1 0.70822300E-02 0.92049808E+02</pdfrwt>
<pdfrwt beam="2">  1       -1 0.10306554E-01 0.92049808E+02</pdfrwt>
<totfact> 0.51363218E+04</totfact>
</mgrwt>
</event>
<event>
 6    1  0.1683416E-002  0.9178599E+02  0.7546771E-02  0.1398803E+00
         -2   -1    0    0    0  501 -0.00000000000E+00  0.00000000000E+00  0.13736542624E+03  0.13736542624E+03  0.00000000000E+00 0. -1.
          2   -1    0    0  501    0  0.00000000000E+00 -0.00000000000E+00 -0.22310548254E+02  0.22310548254E+02  0.00000000000E+00 0.  1.
         23    2    1    2    0    0  0.11523305505E+02 -0.11814403616E+02  0.83586542525E+02  0.12414256994E+03  0.90290092907E+02 0.  0.
         13    1    3    3    0    0  0.87857254482E+01 -0.44446938978E+02  0.14305039898E+02  0.47511614607E+02  0.00000000000E+00 0.  1.
        -13    1    3    3    0    0  0.27375800568E+01  0.32632535362E+02  0.69281502627E+02  0.76630955331E+02  0.00000000000E+00 0. -1.
         22    1    1    2    0    0 -0.11523305505E+02  0.11814403616E+02  0.31468335457E+02  0.35533404551E+02  0.00000000000E+00 0.  1.
<mgrwt>
<rscale>  0 0.59769076E+02</rscale>
<asrwt>0</asrwt>
<pdfrwt beam="1">  1        2 0.34323921E-02 0.91785988E+02</pdfrwt>
<pdfrwt beam="2">  1       -2 0.21133142E-01 0.91785988E+02</pdfrwt>
<totfact> 0.43018478E+04</totfact>
</mgrwt>
</event>
<event>
 6    1  0.1683416E-002  0.8710006E+02  0.7546771E-02  0.1440627E+00
         -2   -1    0    0    0  501 -0.00000000000E+00  0.00000000000E+00  0.86724274191E+02  0.86724274191E+02  0.00000000000E+00 0.  1.
          2   -1    0    0  501    0  0.00000000000E+00 -0.00000000000E+00 -0.45623126188E+02  0.45623126188E+02  0.00000000000E+00 0. -1.
         23    2    1    2    0    0  0.26329957825E+01  0.97983619676E+01  0.63478562243E+02  0.10777731222E+03  0.86507113009E+02 0.  0.
         13    1    3    3    0    0 -0.16570525269E+02  0.18712906341E+02  0.78129667700E+02  0.82030483032E+02  0.00000000000E+00 0.  1.
        -13    1    3    3    0    0  0.19203521051E+02 -0.89145443736E+01 -0.14651105458E+02  0.25746829189E+02  0.00000000000E+00 0. -1.
         22    1    1    2    0    0 -0.26329957825E+01 -0.97983619676E+01 -0.22377414239E+02  0.24570088158E+02  0.00000000000E+00 0. -1.
<mgrwt>
<rscale>  0 0.50884695E+02</rscale>
<asrwt>0</asrwt>
<pdfrwt beam="1">  1        2 0.70189425E-02 0.87100064E+02</pdfrwt>
<pdfrwt beam="2">  1       -2 0.13342196E-01 0.87100064E+02</pdfrwt>
<totfact> 0.36094627E+04</totfact>
</mgrwt>
</event>
<event>
 6    1  0.1683416E-002  0.1006396E+03  0.7546771E-02  0.1331282E+00
         -2   -1    0    0    0  501 -0.00000000000E+00  0.00000000000E+00  0.71325062803E+02  0.71325062803E+02  0.00000000000E+00 0.  1.
          2   -1    0    0  501    0  0.00000000000E+00 -0.00000000000E+00 -0.86294869008E+02  0.86294869008E+02  0.00000000000E+00 0. -1.
         23    2    1    2    0    0 -0.37620138102E+02 -0.88113164788E+01  0.23230550970E+02  0.10328595186E+03  0.92926935087E+02 0.  0.
         13    1    3    3    0    0 -0.47804138281E+02  0.31996263011E+02  0.20756342835E+02  0.61154086138E+02  0.00000000000E+00 0.  1.
        -13    1    3    3    0    0  0.10184000179E+02 -0.40807579490E+02  0.24742081349E+01  0.42131865724E+02  0.00000000000E+00 0. -1.
         22    1    1    2    0    0  0.37620138102E+02  0.88113164788E+01 -0.38200357175E+02  0.54333979950E+02  0.00000000000E+00 0. -1.
<mgrwt>
<rscale>  0 0.79219306E+02</rscale>
<asrwt>0</asrwt>
<pdfrwt beam="1">  1        2 0.13276134E-01 0.10063960E+03</pdfrwt>
<pdfrwt beam="2">  1       -2 0.10973087E-01 0.10063960E+03</pdfrwt>
<totfact> 0.23056858E+04</totfact>
</mgrwt>
</event>
<event>
 6    1  0.1683416E-002  0.8694989E+02  0.7546771E-02  0.1418345E+00
         -2   -1    0    0    0  501 -0.00000000000E+00  0.00000000000E+00  0.68760742516E+01  0.68760742516E+01  0.00000000000E+00 0.  1.
          2   -1    0    0  501    0  0.00000000000E+00 -0.00000000000E+00 -0.37543294096E+03  0.37543294096E+03  0.00000000000E+00 0. -1.
         23    2    1    2    0    0  0.74830815865E+01  0.12187180940E+02 -0.30421674672E+03  0.31639865996E+03  0.85765722466E+02 0.  0.
         13    1    3    3    0    0  0.18726842141E+02  0.18306236190E+02 -0.30232681711E+03  0.30345892184E+03  0.00000000000E+00 0. -1.
        -13    1    3    3    0    0 -0.11243760555E+02 -0.61190552499E+01 -0.18899296038E+01  0.12939738114E+02  0.00000000000E+00 0.  1.
         22    1    1    2    0    0 -0.74830815865E+01 -0.12187180940E+02 -0.64340119989E+02  0.65910355252E+02  0.00000000000E+00 0.  1.
<mgrwt>
<rscale>  0 0.55372582E+02</rscale>
<asrwt>0</asrwt>
<pdfrwt beam="1">  1        2 0.57758907E-01 0.86949888E+02</pdfrwt>
<pdfrwt beam="2">  1       -2 0.10578577E-02 0.86949888E+02</pdfrwt>
<totfact> 0.14249872E+05</totfact>
</mgrwt>
</event>
<event>
 6    1  0.1683416E-002  0.1105132E+03  0.7546771E-02  0.1307368E+00
          2   -1    0    0  501    0  0.00000000000E+00  0.00000000000E+00  0.25766892079E+03  0.25766892079E+03  0.00000000000E+00 0. -1.
         -2   -1    0    0    0  501 -0.00000000000E+00 -0.00000000000E+00 -0.25594418869E+02  0.25594418869E+02  0.00000000000E+00 0.  1.
         23    2    1    2    0    0 -0.24523418067E+02 -0.37440519431E+02  0.12295269574E+03  0.16531945846E+03  0.10104438345E+03 0.  0.
         11    1    3    3    0    0  0.90901442890E+01  0.28276445234E+02  0.65029720745E+02  0.71491626492E+02  0.00000000000E+00 0. -1.
        -11    1    3    3    0    0 -0.33613562356E+02 -0.65716964665E+02  0.57922974998E+02  0.93827831968E+02  0.00000000000E+00 0.  1.
         22    1    1    2    0    0  0.24523418067E+02  0.37440519431E+02  0.10912180618E+03  0.11794388120E+03  0.00000000000E+00 0. -1.
<mgrwt>
<rscale>  0 0.88160851E+02</rscale>
<asrwt>0</asrwt>
<pdfrwt beam="1">  1        2 0.39641370E-01 0.11051316E+03</pdfrwt>
<pdfrwt beam="2">  1       -2 0.39376031E-02 0.11051316E+03</pdfrwt>
<totfact> 0.32836408E+04</totfact>
</mgrwt>
</event>
<event>
 6    1  0.1683416E-002  0.9418695E+02  0.7546771E-02  0.1383787E+00
         -1   -1    0    0    0  501 -0.00000000000E+00  0.00000000000E+00  0.57363429464E+01  0.57363429464E+01  0.00000000000E+00 0.  1.
          1   -1    0    0  501    0  0.00000000000E+00 -0.00000000000E+00 -0.65649693200E+03  0.65649693200E+03  0.00000000000E+00 0. -1.
         23    2    1    2    0    0 -0.17715800512E+02 -0.79868512730E+01 -0.60815275635E+03  0.61540308395E+03  0.92160410689E+02 0.  0.
         11    1    3    3    0    0  0.56427486079E+00 -0.34853307115E+02 -0.52455101390E+03  0.52570793946E+03  0.00000000000E+00 0. -1.
        -11    1    3    3    0    0 -0.18280075373E+02  0.26866455842E+02 -0.83601742441E+02  0.89695144486E+02  0.00000000000E+00 0.  1.
         22    1    1    2    0    0  0.17715800512E+02  0.79868512730E+01 -0.42607832704E+02  0.46830190996E+02  0.00000000000E+00 0.  1.
<mgrwt>
<rscale>  0 0.63478652E+02</rscale>
<asrwt>0</asrwt>
<pdfrwt beam="1">  1        1 0.10099954E+00 0.94186945E+02</pdfrwt>
<pdfrwt beam="2">  1       -1 0.88251418E-03 0.94186945E+02</pdfrwt>
<totfact> 0.61967824E+04</totfact>
</mgrwt>
</event>
<event>
 6    1  0.1683416E-002  0.9252727E+02  0.7546771E-02  0.1428543E+00
          1   -1    0    0  501    0  0.00000000000E+00  0.00000000000E+00  0.13309540295E+02  0.13309540295E+02  0.00000000000E+00 0. -1.
         -1   -1    0    0    0  501 -0.00000000000E+00 -0.00000000000E+00 -0.23113923398E+03  0.23113923398E+03  0.00000000000E+00 0.  1.
         23    2    1    2    0    0 -0.37710223333E+01 -0.94264259403E+01 -0.21475654469E+03  0.23384111854E+03  0.91968565925E+02 0.  0.
         11    1    3    3    0    0 -0.16327388733E+02 -0.48107664659E+02 -0.13651534382E+03  0.14566183481E+03  0.00000000000E+00 0. -1.
        -11    1    3    3    0    0  0.12556366399E+02  0.38681238719E+02 -0.78241200867E+02  0.88179283730E+02  0.00000000000E+00 0.  1.
         22    1    1    2    0    0  0.37710223333E+01  0.94264259403E+01 -0.30731489994E+01  0.10607655736E+02  0.00000000000E+00 0. -1.
<mgrwt>
<rscale>  0 0.53253494E+02</rscale>
<asrwt>0</asrwt>
<pdfrwt beam="1">  1        1 0.20476216E-02 0.92527268E+02</pdfrwt>
<pdfrwt beam="2">  1       -1 0.35559881E-01 0.92527268E+02</pdfrwt>
<totfact> 0.38746181E+04</totfact>
</mgrwt>
</event>
<event>
 6    1  0.1683416E-002  0.9258978E+02  0.7546771E-02  0.1405980E+00
         -2   -1    0    0    0  501 -0.00000000000E+00  0.00000000000E+00  0.10634288497E+02  0.10634288497E+02  0.00000000000E+00 0. -1.
          2   -1    0    0  501    0  0.00000000000E+00 -0.00000000000E+00 -0.27451602149E+03  0.27451602149E+03  0.00000000000E+00 0.  1.
         23    2    1    2    0    0 -0.49272907079E+01 -0.13484003085E+02 -0.24056939145E+03  0.25777218366E+03  0.91470049927E+02 0.  0.
         13    1    3    3    0    0  0.56805089357E+01  0.38404198920E+01  0.67488826675E+01  0.96210406909E+01  0.00000000000E+00 0. -1.
        -13    1    3    3    0    0 -0.10607799644E+02 -0.17324422977E+02 -0.24731827411E+03  0.24815114297E+03  0.00000000000E+00 0.  1.
         22    1    1    2    0    0  0.49272907079E+01  0.13484003085E+02 -0.23312341550E+02  0.27378126332E+02  0.00000000000E+00 0. -1.
<mgrwt>
<rscale>  0 0.58100666E+02</rscale>
<asrwt>0</asrwt>
<pdfrwt beam="1">  1        2 0.42233238E-01 0.92589776E+02</pdfrwt>
<pdfrwt beam="2">  1       -2 0.16360442E-02 0.92589776E+02</pdfrwt>
<totfact> 0.10737612E+05</totfact>
</mgrwt>
</event>
<event>
 6    1  0.1683416E-002  0.9230405E+02  0.7546771E-02  0.1415626E+00
         -4   -1    0    0    0  501 -0.00000000000E+00  0.00000000000E+00  0.11115100427E+03  0.11115100427E+03  0.00000000000E+00 0. -1.
          4   -1    0    0  501    0  0.00000000000E+00 -0.00000000000E+00 -0.27100044996E+02  0.27100044996E+02  0.00000000000E+00 0.  1.
         23    2    1    2    0    0 -0.11874256755E+02  0.37981894181E+01  0.85350055068E+02  0.12571662203E+03  0.91458257897E+02 0.  0.
         13    1    3    3    0    0 -0.38149308331E+02  0.27850122267E+02  0.74979022496E+02  0.88616323839E+02  0.00000000000E+00 0. -1.
        -13    1    3    3    0    0  0.26275051576E+02 -0.24051932849E+02  0.10371032572E+02  0.37100298188E+02  0.00000000000E+00 0.  1.
         22    1    1    2    0    0  0.11874256755E+02 -0.37981894181E+01 -0.12990957922E+01  0.12534427239E+02  0.00000000000E+00 0.  1.
<mgrwt>
<rscale>  0 0.55957125E+02</rscale>
<asrwt>0</asrwt>
<pdfrwt beam="1">  1        4 0.41692378E-02 0.92304047E+02</pdfrwt>
<pdfrwt beam="2">  1       -4 0.17100154E-01 0.92304047E+02</pdfrwt>
<totfact> 0.13891725E+04</totfact>
</mgrwt>
</event>
<event>
 6    1  0.1683416E-002  0.9408921E+02  0.7546771E-02  0.1366881E+00
         -4   -1    0    0    0  501 -0.00000000000E+00  0.00000000000E+00  0.25428856886E+03  0.25428856886E+03  0.00000000000E+00 0.  1.
          4   -1    0    0  501    0  0.00000000000E+00 -0.00000000000E+00 -0.14954941705E+02  0.14954941705E+02  0.00000000000E+00 0. -1.
         23    2    1    2    0    0  0.24789911943E+02  0.69023545200E+01  0.21065380285E+03  0.23071151666E+03  0.90501917287E+02 0.  0.
         13    1    3    3    0    0  0.22847235351E+02  0.42852141911E+02  0.16808543379E+03  0.17496003910E+03  0.00000000000E+00 0.  1.
        -13    1    3    3    0    0  0.19426765919E+01 -0.35949787391E+02  0.42568369063E+02  0.55751477563E+02  0.00000000000E+00 0. -1.
         22    1    1    2    0    0 -0.24789911943E+02 -0.69023545200E+01  0.28679824303E+02  0.38531993903E+02  0.00000000000E+00 0. -1.
<mgrwt>
<rscale>  0 0.68041997E+02</rscale>
<asrwt>0</asrwt>
<pdfrwt beam="1">  1        4 0.23007604E-02 0.94089209E+02</pdfrwt>
<pdfrwt beam="2">  1       -4 0.39121315E-01 0.94089209E+02</pdfrwt>
<totfact> 0.76708076E+03</totfact>
</mgrwt>
</event>
<event>
 6    1  0.1683416E-002  0.1074186E+03  0.7546771E-02  0.1384787E+00
          2   -1    0    0  501    0  0.00000000000E+00  0.00000000000E+00  0.11710653172E+03  0.11710653172E+03  0.00000000000E+00 0. -1.
         -2   -1    0    0    0  501 -0.00000000000E+00 -0.00000000000E+00 -0.36731834507E+02  0.36731834507E+02  0.00000000000E+00 0.  1.
         23    2    1    2    0    0  0.41207385082E+01  0.12213091705E+02  0.45499413194E+02  0.11665738278E+03  0.10664243180E+03 0.  0.
         11    1    3    3    0    0 -0.28084275664E+02  0.93444532616E+00  0.69482450557E+02  0.74949387343E+02  0.00000000000E+00 0. -1.
        -11    1    3    3    0    0  0.32205014172E+02  0.11278646379E+02 -0.23983037363E+02  0.41707995434E+02  0.00000000000E+00 0.  1.
         22    1    1    2    0    0 -0.41207385082E+01 -0.12213091705E+02  0.34875284020E+02  0.37180983450E+02  0.00000000000E+00 0.  1.
<mgrwt>
<rscale>  0 0.63222086E+02</rscale>
<asrwt>0</asrwt>
<pdfrwt beam="1">  1        2 0.18016389E-01 0.10741857E+03</pdfrwt>
<pdfrwt beam="2">  1       -2 0.56510515E-02 0.10741857E+03</pdfrwt>
<totfact> 0.45168455E+04</totfact>
</mgrwt>
</event>
<event>
 6    1  0.1683416E-002  0.9417531E+02  0.7546771E-02  0.1368531E+00
         -2   -1    0    0    0  501 -0.00000000000E+00  0.00000000000E+00  0.40214086673E+02  0.40214086673E+02  0.00000000000E+00 0.  1.
          2   -1    0    0  501    0  0.00000000000E+00 -0.00000000000E+00 -0.93271054604E+02  0.93271054604E+02  0.00000000000E+00 0. -1.
         23    2    1    2    0    0  0.22279377051E+02  0.11271945876E+02 -0.28328742058E+02  0.98343818587E+02  0.90805074870E+02 0.  0.
         11    1    3    3    0    0  0.38760987078E+02  0.17820003138E+01 -0.53938169501E+02  0.66444832556E+02  0.00000000000E+00 0. -1.
        -11    1    3    3    0    0 -0.16481610027E+02  0.94899455625E+01  0.25609427443E+02  0.31898986031E+02  0.00000000000E+00 0.  1.
         22    1    1    2    0    0 -0.22279377051E+02 -0.11271945876E+02 -0.24728225873E+02  0.35141322690E+02  0.00000000000E+00 0.  1.
<mgrwt>
<rscale>  0 0.67577330E+02</rscale>
<asrwt>0</asrwt>
<pdfrwt beam="1">  1        2 0.14349393E-01 0.94175310E+02</pdfrwt>
<pdfrwt beam="2">  1       -2 0.61867826E-02 0.94175310E+02</pdfrwt>
<totfact> 0.50337792E+04</totfact>
</mgrwt>
</event>
<event>
 6    1  0.1683416E-002  0.1067881E+03  0.7546771E-02  0.1389392E+00
         -4   -1    0    0    0  501 -0.00000000000E+00  0.00000000000E+00  0.47017352703E+02  0.47017352703E+02  0.00000000000E+00 0.  1.
          4   -1    0    0  501    0  0.00000000000E+00 -0.00000000000E+00 -0.96123613667E+02  0.96123613667E+02  0.00000000000E+00 0. -1.
         23    2    1    2    0    0  0.22925490050E+01 -0.11961771386E+02 -0.16145231967E+02  0.10800168368E+03  0.10609125980E+03 0.  0.
         11    1    3    3    0    0 -0.18878070808E+01 -0.20946549704E+02 -0.59719591437E+02  0.63314700990E+02  0.00000000000E+00 0. -1.
        -11    1    3    3    0    0  0.41803560858E+01  0.89847783186E+01  0.43574359470E+02  0.44686982687E+02  0.00000000000E+00 0.  1.
         22    1    1    2    0    0 -0.22925490050E+01  0.11961771386E+02 -0.32961028998E+02  0.35139282693E+02  0.00000000000E+00 0. -1.
<mgrwt>
<rscale>  0 0.62058217E+02</rscale>
<asrwt>0</asrwt>
<pdfrwt beam="1">  1        4 0.14788248E-01 0.10678809E+03</pdfrwt>
<pdfrwt beam="2">  1       -4 0.72334390E-02 0.10678809E+03</pdfrwt>
<totfact> 0.77056508E+03</totfact>
</mgrwt>
</event>
<event>
 6    1  0.1683416E-002  0.9202067E+02  0.7546771E-02  0.1409466E+00
         -2   -1    0    0    0  501 -0.00000000000E+00  0.00000000000E+00  0.22050275447E+03  0.22050275447E+03  0.00000000000E+00 0.  1.
          2   -1    0    0  501    0  0.00000000000E+00 -0.00000000000E+00 -0.12773179596E+02  0.12773179596E+02  0.00000000000E+00 0. -1.
         23    2    1    2    0    0 -0.10193419183E+02  0.93722936197E+01  0.17449921756E+03  0.19727590171E+03  0.90972846411E+02 0.  0.
         11    1    3    3    0    0 -0.17129759954E+02  0.38128168006E+02  0.34536224351E+02  0.54221182798E+02  0.00000000000E+00 0. -1.
        -11    1    3    3    0    0  0.69363407709E+01 -0.28755874386E+02  0.13996299321E+03  0.14305471891E+03  0.00000000000E+00 0.  1.
         22    1    1    2    0    0  0.10193419183E+02 -0.93722936197E+01  0.33230357311E+02  0.36000032352E+02  0.00000000000E+00 0.  1.
<mgrwt>
<rscale>  0 0.57313213E+02</rscale>
<asrwt>0</asrwt>
<pdfrwt beam="1">  1        2 0.19651047E-02 0.92020674E+02</pdfrwt>
<pdfrwt beam="2">  1       -2 0.33923498E-01 0.92020674E+02</pdfrwt>
<totfact> 0.39575377E+04</totfact>
</mgrwt>
</event>
<event>
 6    1  0.1683416E-002  0.9789269E+02  0.7546771E-02  0.1344484E+00
         -2   -1    0    0    0  501 -0.00000000000E+00  0.00000000000E+00  0.16843957851E+02  0.16843957851E+02  0.00000000000E+00 0.  1.
          2   -1    0    0  501    0  0.00000000000E+00 -0.00000000000E+00 -0.26507211269E+03  0.26507211269E+03  0.00000000000E+00 0. -1.
         23    2    1    2    0    0  0.91869140109E+01  0.32084974012E+02 -0.20612601608E+03  0.22819051764E+03  0.92027891915E+02 0.  0.
         11    1    3    3    0    0 -0.79801120595E+01 -0.11601576134E+01 -0.18509207061E+03  0.18526765167E+03  0.00000000000E+00 0. -1.
        -11    1    3    3    0    0  0.17167026070E+02  0.33245131625E+02 -0.21033945470E+02  0.42922865968E+02  0.00000000000E+00 0.  1.
         22    1    1    2    0    0 -0.91869140109E+01 -0.32084974012E+02 -0.42102138763E+02  0.53725552903E+02  0.00000000000E+00 0.  1.
<mgrwt>
<rscale>  0 0.74802442E+02</rscale>
<asrwt>0</asrwt>
<pdfrwt beam="1">  1        2 0.40780324E-01 0.97892685E+02</pdfrwt>
<pdfrwt beam="2">  1       -2 0.25913782E-02 0.97892685E+02</pdfrwt>
<totfact> 0.57907487E+04</totfact>
</mgrwt>
</event>
<event>
 6    1  0.1683416E-002  0.9642289E+02  0.7546771E-02  0.1348106E+00
          2   -1    0    0  501    0  0.00000000000E+00  0.00000000000E+00  0.63657712866E+02  0.63657712866E+02  0.00000000000E+00 0.  1.
         -2   -1    0    0    0  501 -0.00000000000E+00 -0.00000000000E+00 -0.73596285732E+02  0.73596285732E+02  0.00000000000E+00 0. -1.
         23    2    1    2    0    0 -0.30804283575E+02  0.11322363085E+02 -0.27181469678E+02  0.10018086435E+03  0.90665723930E+02 0.  0.
         11    1    3    3    0    0 -0.62954366763E+02  0.12289270212E+02 -0.20406145623E+02  0.67310394710E+02  0.00000000000E+00 0. -1.
        -11    1    3    3    0    0  0.32150083188E+02 -0.96690712617E+00 -0.67753240555E+01  0.32870469641E+02  0.00000000000E+00 0.  1.
         22    1    1    2    0    0  0.30804283575E+02 -0.11322363085E+02  0.17242896813E+02  0.37073134247E+02  0.00000000000E+00 0.  1.
<mgrwt>
<rscale>  0 0.73649041E+02</rscale>
<asrwt>0</asrwt>
<pdfrwt beam="1">  1        2 0.97934943E-02 0.96422888E+02</pdfrwt>
<pdfrwt beam="2">  1       -2 0.11322505E-01 0.96422888E+02</pdfrwt>
<totfact> 0.31433048E+04</totfact>
</mgrwt>
</event>
<event>
 6    1  0.1683416E-002  0.9797099E+02  0.7546771E-02  0.1362235E+00
          2   -1    0    0  501    0  0.00000000000E+00  0.00000000000E+00  0.32882631625E+03  0.32882631625E+03  0.00000000000E+00 0. -1.
         -2   -1    0    0    0  501 -0.00000000000E+00 -0.00000000000E+00 -0.12598809648E+02  0.12598809648E+02  0.00000000000E+00 0.  1.
         23    2    1    2    0    0 -0.20846708140E+02 -0.13119586952E+02  0.20113804303E+03  0.22372935950E+03  0.94824074726E+02 0.  0.
         13    1    3    3    0    0 -0.15671512717E+02 -0.54139973192E+02  0.12403594874E+03  0.13624114499E+03  0.00000000000E+00 0.  1.
        -13    1    3    3    0    0 -0.51751954237E+01  0.41020386240E+02  0.77102094290E+02  0.87488214514E+02  0.00000000000E+00 0. -1.
         22    1    1    2    0    0  0.20846708140E+02  0.13119586952E+02  0.11508946357E+03  0.11769576640E+03  0.00000000000E+00 0. -1.
<mgrwt>
<rscale>  0 0.69373826E+02</rscale>
<asrwt>0</asrwt>
<pdfrwt beam="1">  1        2 0.50588657E-01 0.97970985E+02</pdfrwt>
<pdfrwt beam="2">  1       -2 0.19382787E-02 0.97970985E+02</pdfrwt>
<totfact> 0.70270864E+04</totfact>
</mgrwt>
</event>
<event>
 6    1  0.1683416E-002  0.9162186E+02  0.7546771E-02  0.1387128E+00
          2   -1    0    0  501    0  0.00000000000E+00  0.00000000000E+00  0.16498234943E+03  0.16498234943E+03  0.00000000000E+00 0. -1.
         -2   -1    0    0    0  501 -0.00000000000E+00 -0.00000000000E+00 -0.25795116585E+02  0.25795116585E+02  0.00000000000E+00 0.  1.
         23    2    1    2    0    0  0.20000293267E+02 -0.40957664769E-01  0.60995198679E+02  0.11006806374E+03  0.89412252994E+02 0.  0.
         13    1    3    3    0    0  0.10383350628E+02  0.37309725324E+02  0.99456322039E+00  0.38740401779E+02  0.00000000000E+00 0.  1.
        -13    1    3    3    0    0  0.96169426392E+01 -0.37350682989E+02  0.60000635458E+02  0.71327661961E+02  0.00000000000E+00 0. -1.
         22    1    1    2    0    0 -0.20000293267E+02  0.40957664769E-01  0.78192034165E+02  0.80709402273E+02  0.00000000000E+00 0. -1.
<mgrwt>
<rscale>  0 0.62626571E+02</rscale>
<asrwt>0</asrwt>
<pdfrwt beam="1">  1        2 0.25381899E-01 0.91621855E+02</pdfrwt>
<pdfrwt beam="2">  1       -2 0.39684796E-02 0.91621855E+02</pdfrwt>
<totfact> 0.51093821E+04</totfact>
</mgrwt>
</event>
<event>
 6    1  0.1683416E-002  0.9177729E+02  0.7546771E-02  0.1386609E+00
         -4   -1    0    0    0  501 -0.00000000000E+00  0.00000000000E+00  0.11072928307E+02  0.11072928307E+02  0.00000000000E+00 0.  1.
          4   -1    0    0  501    0  0.00000000000E+00 -0.00000000000E+00 -0.28280990149E+03  0.28280990149E+03  0.00000000000E+00 0. -1.
         23    2    1    2    0    0  0.20035114115E+02 -0.11220872593E+01 -0.22703236555E+03  0.24488112757E+03  0.89556723681E+02 0.  0.
         13    1    3    3    0    0  0.52310718818E+02 -0.16693402004E+02 -0.15475405485E+03  0.16420687704E+03  0.00000000000E+00 0.  1.
        -13    1    3    3    0    0 -0.32275604703E+02  0.15571314744E+02 -0.72278310699E+02  0.80674250535E+02  0.00000000000E+00 0. -1.
         22    1    1    2    0    0 -0.20035114115E+02  0.11220872593E+01 -0.44704607637E+02  0.49001702229E+02  0.00000000000E+00 0. -1.
<mgrwt>
<rscale>  0 0.62758045E+02</rscale>
<asrwt>0</asrwt>
<pdfrwt beam="1">  1        4 0.43509220E-01 0.91777294E+02</pdfrwt>
<pdfrwt beam="2">  1       -4 0.17035273E-02 0.91777294E+02</pdfrwt>
<totfact> 0.97852021E+03</totfact>
</mgrwt>
</event>
<event>
 6    1  0.1683416E-002  0.1046034E+03  0.7546771E-02  0.1298699E+00
          4   -1    0    0  501    0  0.00000000000E+00  0.00000000000E+00  0.88297586644E+01  0.88297586644E+01  0.00000000000E+00 0. -1.
         -4   -1    0    0    0  501 -0.00000000000E+00 -0.00000000000E+00 -0.79863831067E+03  0.79863831067E+03  0.00000000000E+00 0.  1.
         23    2    1    2    0    0  0.50844241631E+02  0.35267225612E+02 -0.54600175969E+03  0.55593145950E+03  0.84338318481E+02 0.  0.
         13    1    3    3    0    0  0.52107142063E+02 -0.82612410899E+01 -0.18705068779E+03  0.19434855842E+03  0.00000000000E+00 0. -1.
        -13    1    3    3    0    0 -0.12629004319E+01  0.43528466702E+02 -0.35895107190E+03  0.36158290108E+03  0.00000000000E+00 0.  1.
         22    1    1    2    0    0 -0.50844241631E+02 -0.35267225612E+02 -0.24380679231E+03  0.25153660983E+03  0.00000000000E+00 0.  1.
<mgrwt>
<rscale>  0 0.91736829E+02</rscale>
<asrwt>0</asrwt>
<pdfrwt beam="1">  1        4 0.13584241E-02 0.10460338E+03</pdfrwt>
<pdfrwt beam="2">  1       -4 0.12286746E+00 0.10460338E+03</pdfrwt>
<totfact> 0.15048843E+03</totfact>
</mgrwt>
</event>
<event>
 6    1  0.1683416E-002  0.9194304E+02  0.7546771E-02  0.1419111E+00
          2   -1    0    0  501    0  0.00000000000E+00  0.00000000000E+00  0.38979575555E+01  0.38979575555E+01  0.00000000000E+00 0. -1.
         -2   -1    0    0    0  501 -0.00000000000E+00 -0.00000000000E+00 -0.70876470477E+03  0.70876470477E+03  0.00000000000E+00 0.  1.
         23    2    1    2    0    0 -0.77006230667E+01 -0.91426682142E+01 -0.65269383176E+03  0.65913789157E+03  0.91162679341E+02 0.  0.
         11    1    3    3    0    0 -0.88841451507E+01 -0.45713993968E+02 -0.21863970714E+03  0.22354422117E+03  0.00000000000E+00 0.  1.
        -11    1    3    3    0    0  0.11835220841E+01  0.36571325754E+02 -0.43405412462E+03  0.43559367040E+03  0.00000000000E+00 0. -1.
         22    1    1    2    0    0  0.77006230667E+01  0.91426682142E+01 -0.52172915457E+02  0.53524770760E+02  0.00000000000E+00 0.  1.
<mgrwt>
<rscale>  0 0.55209472E+02</rscale>
<asrwt>0</asrwt>
<pdfrwt beam="1">  1        2 0.59968517E-03 0.91943037E+02</pdfrwt>
<pdfrwt beam="2">  1       -2 0.10904083E+00 0.91943037E+02</pdfrwt>
<totfact> 0.18174093E+04</totfact>
</mgrwt>
</event>
<event>
 6    1  0.1683416E-002  0.9348721E+02  0.7546771E-02  0.1373764E+00
         -2   -1    0    0    0  501 -0.00000000000E+00  0.00000000000E+00  0.16606723810E+02  0.16606723810E+02  0.00000000000E+00 0.  1.
          2   -1    0    0  501    0  0.00000000000E+00 -0.00000000000E+00 -0.23111198192E+03  0.23111198192E+03  0.00000000000E+00 0. -1.
         23    2    1    2    0    0  0.19390397319E+02  0.13114635986E+02 -0.13061901211E+03  0.16062746936E+03  0.90508985200E+02 0.  0.
         13    1    3    3    0    0 -0.24360103562E+02  0.96266399359E+01 -0.38485425396E+01  0.26474480575E+02  0.00000000000E+00 0.  1.
        -13    1    3    3    0    0  0.43750500881E+02  0.34879960504E+01 -0.12677046957E+03  0.13415298878E+03  0.00000000000E+00 0. -1.
         22    1    1    2    0    0 -0.19390397319E+02 -0.13114635986E+02 -0.83886246001E+02  0.87091236376E+02  0.00000000000E+00 0.  1.
<mgrwt>
<rscale>  0 0.66131723E+02</rscale>
<asrwt>0</asrwt>
<pdfrwt beam="1">  1        2 0.35555690E-01 0.93487205E+02</pdfrwt>
<pdfrwt beam="2">  1       -2 0.25548805E-02 0.93487205E+02</pdfrwt>
<totfact> 0.67872708E+04</totfact>
</mgrwt>
</event>
<event>
 6    1  0.1683416E-002  0.9281157E+02  0.7546771E-02  0.1395022E+00
         -4   -1    0    0    0  501 -0.00000000000E+00  0.00000000000E+00  0.90526370922E+01  0.90526370922E+01  0.00000000000E+00 0.  1.
          4   -1    0    0  501    0  0.00000000000E+00 -0.00000000000E+00 -0.33901199820E+03  0.33901199820E+03  0.00000000000E+00 0. -1.
         23    2    1    2    0    0  0.49855448802E+01 -0.16202449856E+02 -0.25960781620E+03  0.27569948546E+03  0.91250276780E+02 0.  0.
         13    1    3    3    0    0  0.38426182534E+02 -0.18632228040E+02 -0.21858625939E+03  0.22271884568E+03  0.00000000000E+00 0. -1.
        -13    1    3    3    0    0 -0.33440637654E+02  0.24297781840E+01 -0.41021556808E+02  0.52980639782E+02  0.00000000000E+00 0.  1.
         22    1    1    2    0    0 -0.49855448802E+01  0.16202449856E+02 -0.70351544917E+02  0.72365149839E+02  0.00000000000E+00 0. -1.
<mgrwt>
<rscale>  0 0.60674713E+02</rscale>
<asrwt>0</asrwt>
<pdfrwt beam="1">  1        4 0.52155689E-01 0.92811573E+02</pdfrwt>
<pdfrwt beam="2">  1       -4 0.13927135E-02 0.92811573E+02</pdfrwt>
<totfact> 0.92605383E+03</totfact>
</mgrwt>
</event>
<event>
 6    1  0.1683416E-002  0.9203250E+02  0.7546771E-02  0.1420002E+00
         -2   -1    0    0    0  501 -0.00000000000E+00  0.00000000000E+00  0.30851436432E+02  0.30851436432E+02  0.00000000000E+00 0.  1.
          2   -1    0    0  501    0  0.00000000000E+00 -0.00000000000E+00 -0.94676407644E+02  0.94676407644E+02  0.00000000000E+00 0. -1.
         23    2    1    2    0    0  0.18858730276E+01  0.11604098172E+02 -0.42930356301E+02  0.10155292919E+03  0.91278531560E+02 0.  0.
         11    1    3    3    0    0 -0.35673235464E+02 -0.19382053374E+02 -0.73777206587E+01  0.41263476387E+02  0.00000000000E+00 0.  1.
        -11    1    3    3    0    0  0.37559108491E+02  0.30986151546E+02 -0.35552635642E+02  0.60289452804E+02  0.00000000000E+00 0. -1.
         22    1    1    2    0    0 -0.18858730276E+01 -0.11604098172E+02 -0.20894614910E+02  0.23974914884E+02  0.00000000000E+00 0.  1.
<mgrwt>
<rscale>  0 0.55020432E+02</rscale>
<asrwt>0</asrwt>
<pdfrwt beam="1">  1        2 0.14565601E-01 0.92032505E+02</pdfrwt>
<pdfrwt beam="2">  1       -2 0.47463749E-02 0.92032505E+02</pdfrwt>
<totfact> 0.73247066E+04</totfact>
</mgrwt>
</event>
<event>
 6    1  0.1683416E-002  0.9416084E+02  0.7546771E-02  0.1363468E+00
         -2   -1    0    0    0  501 -0.00000000000E+00  0.00000000000E+00  0.16163548338E+02  0.16163548338E+02  0.00000000000E+00 0.  1.
          2   -1    0    0  501    0  0.00000000000E+00 -0.00000000000E+00 -0.25848934549E+03  0.25848934549E+03  0.00000000000E+00 0. -1.
         23    2    1    2    0    0  0.18167871979E+02 -0.20212546188E+02 -0.13956313613E+03  0.16835715968E+03  0.90153456153E+02 0.  0.
         13    1    3    3    0    0  0.44556815994E+01  0.12906733027E+01  0.12934763898E+02  0.13741435630E+02  0.00000000000E+00 0.  1.
        -13    1    3    3    0    0  0.13712190380E+02 -0.21503219491E+02 -0.15249790002E+03  0.15461572405E+03  0.00000000000E+00 0. -1.
         22    1    1    2    0    0 -0.18167871979E+02  0.20212546188E+02 -0.10276266103E+03  0.10629573414E+03  0.00000000000E+00 0. -1.
<mgrwt>
<rscale>  0 0.69016873E+02</rscale>
<asrwt>0</asrwt>
<pdfrwt beam="1">  1        2 0.39767589E-01 0.94160842E+02</pdfrwt>
<pdfrwt beam="2">  1       -2 0.24866999E-02 0.94160842E+02</pdfrwt>
<totfact> 0.62787951E+04</totfact>
</mgrwt>
</event>
<event>
 6    1  0.1683416E-002  0.9142478E+02  0.7546771E-02  0.1419545E+00
          4   -1    0    0  501    0  0.00000000000E+00  0.00000000000E+00  0.12882702068E+03  0.12882702068E+03  0.00000000000E+00 0. -1.
         -4   -1    0    0    0  501 -0.00000000000E+00 -0.00000000000E+00 -0.21411356690E+02  0.21411356690E+02  0.00000000000E+00 0.  1.
         23    2    1    2    0    0 -0.65310079848E+01 -0.10158699312E+02  0.85291147245E+02  0.12503227735E+03  0.90623602575E+02 0.  0.
         13    1    3    3    0    0  0.26174065350E+02  0.25654051646E+01 -0.62182855042E+01  0.27024619798E+02  0.00000000000E+00 0.  1.
        -13    1    3    3    0    0 -0.32705073335E+02 -0.12724104477E+02  0.91509432750E+02  0.98007657551E+02  0.00000000000E+00 0. -1.
         22    1    1    2    0    0  0.65310079848E+01  0.10158699312E+02  0.22124516744E+02  0.25206100019E+02  0.00000000000E+00 0. -1.
<mgrwt>
<rscale>  0 0.55117239E+02</rscale>
<asrwt>0</asrwt>
<pdfrwt beam="1">  1        4 0.19819541E-01 0.91424781E+02</pdfrwt>
<pdfrwt beam="2">  1       -4 0.32940549E-02 0.91424781E+02</pdfrwt>
<totfact> 0.15443558E+04</totfact>
</mgrwt>
</event>
<event>
 6    1  0.1683416E-002  0.9669280E+02  0.7546771E-02  0.1385024E+00
         -2   -1    0    0    0  501 -0.00000000000E+00  0.00000000000E+00  0.71818841001E+01  0.71818841001E+01  0.00000000000E+00 0.  1.
          2   -1    0    0  501    0  0.00000000000E+00 -0.00000000000E+00 -0.47478330739E+03  0.47478330739E+03  0.00000000000E+00 0. -1.
         23    2    1    2    0    0 -0.18530375043E+01  0.17506874016E+02 -0.42517464145E+03  0.43603093191E+03  0.95076671510E+02 0.  0.
         11    1    3    3    0    0 -0.43414854000E+02 -0.22654882341E+01 -0.28988379419E+03  0.29312556374E+03  0.00000000000E+00 0.  1.
        -11    1    3    3    0    0  0.41561816495E+02  0.19772362250E+02 -0.13529084725E+03  0.14290536816E+03  0.00000000000E+00 0. -1.
         22    1    1    2    0    0  0.18530375043E+01 -0.17506874016E+02 -0.42426781844E+02  0.45934259583E+02  0.00000000000E+00 0.  1.
<mgrwt>
<rscale>  0 0.63161520E+02</rscale>
<asrwt>0</asrwt>
<pdfrwt beam="1">  1        2 0.73043612E-01 0.96692801E+02</pdfrwt>
<pdfrwt beam="2">  1       -2 0.11049048E-02 0.96692801E+02</pdfrwt>
<totfact> 0.10617674E+05</totfact>
</mgrwt>
</event>
<event>
 6    1  0.1683416E-002  0.1065316E+03  0.7546771E-02  0.1301269E+00
          2   -1    0    0  501    0  0.00000000000E+00  0.00000000000E+00  0.22294635095E+03  0.22294635095E+03  0.00000000000E+00 0. -1.
         -2   -1    0    0    0  501 -0.00000000000E+00 -0.00000000000E+00 -0.43682930070E+02  0.43682930070E+02  0.00000000000E+00 0.  1.
         23    2    1    2    0    0 -0.10409549473E+02  0.54890059977E+02  0.35336290484E+02  0.11223920275E+03  0.90706713114E+02 0.  0.
         11    1    3    3    0    0 -0.27723129369E+02  0.24387970138E+01 -0.19831100222E+02  0.34172974247E+02  0.00000000000E+00 0.  1.
        -11    1    3    3    0    0  0.17313579896E+02  0.52451262964E+02  0.55167390706E+02  0.78066228502E+02  0.00000000000E+00 0. -1.
         22    1    1    2    0    0  0.10409549473E+02 -0.54890059977E+02  0.14392713040E+03  0.15439007827E+03  0.00000000000E+00 0. -1.
<mgrwt>
<rscale>  0 0.90656810E+02</rscale>
<asrwt>0</asrwt>
<pdfrwt beam="1">  1        2 0.34299438E-01 0.10653162E+03</pdfrwt>
<pdfrwt beam="2">  1       -2 0.67204509E-02 0.10653162E+03</pdfrwt>
<totfact> 0.17142580E+04</totfact>
</mgrwt>
</event>
<event>
 6    1  0.1683416E-002  0.9203645E+02  0.7546771E-02  0.1406517E+00
         -2   -1    0    0    0  501 -0.00000000000E+00  0.00000000000E+00  0.95197911817E+02  0.95197911817E+02  0.00000000000E+00 0.  1.
          2   -1    0    0  501    0  0.00000000000E+00 -0.00000000000E+00 -0.34235687448E+02  0.34235687448E+02  0.00000000000E+00 0. -1.
         23    2    1    2    0    0  0.10084969722E+01  0.14458627777E+02  0.66888435643E+02  0.11377508837E+03  0.90888057125E+02 0.  0.
         13    1    3    3    0    0  0.16032016467E+02  0.81343371956E+01  0.86457300549E+02  0.88306612503E+02  0.00000000000E+00 0.  1.
        -13    1    3    3    0    0 -0.15023519494E+02  0.63242905811E+01 -0.19568864906E+02  0.25468475869E+02  0.00000000000E+00 0. -1.
         22    1    1    2    0    0 -0.10084969722E+01 -0.14458627777E+02 -0.59262112730E+01  0.15658510893E+02  0.00000000000E+00 0. -1.
<mgrwt>
<rscale>  0 0.57978254E+02</rscale>
<asrwt>0</asrwt>
<pdfrwt beam="1">  1        2 0.52670289E-02 0.92036449E+02</pdfrwt>
<pdfrwt beam="2">  1       -2 0.14645832E-01 0.92036449E+02</pdfrwt>
<totfact> 0.45096398E+04</totfact>
</mgrwt>
</event>
<event>
 6    1  0.1683416E-002  0.8844564E+02  0.7546771E-02  0.1418915E+00
         -4   -1    0    0    0  501 -0.00000000000E+00  0.00000000000E+00  0.79263162604E+03  0.79263162604E+03  0.00000000000E+00 0.  1.
          4   -1    0    0  501    0  0.00000000000E+00 -0.00000000000E+00 -0.33625629551E+01  0.33625629551E+01  0.00000000000E+00 0. -1.
         23    2    1    2    0    0  0.33949030879E+01 -0.13034209013E+02  0.72139153380E+03  0.72679321391E+03  0.87414042171E+02 0.  0.
         13    1    3    3    0    0  0.34024415305E+02 -0.80711462258E+01  0.61436772482E+03  0.61536209303E+03  0.00000000000E+00 0.  1.
        -13    1    3    3    0    0 -0.30629512217E+02 -0.49630627872E+01  0.10702380898E+03  0.11143112088E+03  0.00000000000E+00 0. -1.
         22    1    1    2    0    0 -0.33949030879E+01  0.13034209013E+02  0.67877529282E+02  0.69200975088E+02  0.00000000000E+00 0. -1.
<mgrwt>
<rscale>  0 0.55251205E+02</rscale>
<asrwt>0</asrwt>
<pdfrwt beam="1">  1        4 0.51731801E-03 0.88445637E+02</pdfrwt>
<pdfrwt beam="2">  1       -4 0.12194318E+00 0.88445637E+02</pdfrwt>
<totfact> 0.61702345E+03</totfact>
</mgrwt>
</event>
<event>
 6    1  0.1683416E-002  0.1184549E+03  0.7546771E-02  0.1268491E+00
          2   -1    0    0  501    0  0.00000000000E+00  0.00000000000E+00  0.16370458089E+04  0.16370458089E+04  0.00000000000E+00 0. -1.
         -2   -1    0    0    0  501 -0.00000000000E+00 -0.00000000000E+00 -0.77431052872E+01  0.77431052872E+01  0.00000000000E+00 0.  1.
         23    2    1    2    0    0 -0.63958627622E+02  0.40068815841E+02  0.13588339361E+04  0.13639872578E+04  0.91298178489E+02 0.  0.
         11    1    3    3    0    0 -0.53689523770E+02  0.67055475238E+02  0.11441694829E+04  0.11473895622E+04  0.00000000000E+00 0. -1.
        -11    1    3    3    0    0 -0.10269103852E+02 -0.26986659397E+02  0.21466445320E+03  0.21659769562E+03  0.00000000000E+00 0.  1.
         22    1    1    2    0    0  0.63958627622E+02 -0.40068815841E+02  0.27046876751E+03  0.28080165642E+03  0.00000000000E+00 0.  1.
<mgrwt>
<rscale>  0 0.10583107E+03</rscale>
<asrwt>0</asrwt>
<pdfrwt beam="1">  1        2 0.25185293E+00 0.11845494E+03</pdfrwt>
<pdfrwt beam="2">  1       -2 0.11912483E-02 0.11845494E+03</pdfrwt>
<totfact> 0.18301937E+04</totfact>
</mgrwt>
</event>
<event>
 6    1  0.1683416E-002  0.1005532E+03  0.7546771E-02  0.1341784E+00
         -4   -1    0    0    0  501 -0.00000000000E+00  0.00000000000E+00  0.11717213811E+03  0.11717213811E+03  0.00000000000E+00 0.  1.
          4   -1    0    0  501    0  0.00000000000E+00 -0.00000000000E+00 -0.40126188982E+02  0.40126188982E+02  0.00000000000E+00 0. -1.
         23    2    1    2    0    0 -0.21734489291E+02 -0.23841991806E+02  0.74090491131E+02  0.12490136227E+03  0.95237181930E+02 0.  0.
         11    1    3    3    0    0 -0.15526596607E+02 -0.54099067816E+02  0.15035716656E+02  0.58256820340E+02  0.00000000000E+00 0.  1.
        -11    1    3    3    0    0 -0.62078926840E+01  0.30257076010E+02  0.59054774475E+02  0.66644541926E+02  0.00000000000E+00 0. -1.
         22    1    1    2    0    0  0.21734489291E+02  0.23841991806E+02  0.29554579984E+01  0.32396964827E+02  0.00000000000E+00 0. -1.
<mgrwt>
<rscale>  0 0.75677953E+02</rscale>
<asrwt>0</asrwt>
<pdfrwt beam="1">  1        4 0.61732599E-02 0.10055322E+03</pdfrwt>
<pdfrwt beam="2">  1       -4 0.18026483E-01 0.10055322E+03</pdfrwt>
<totfact> 0.69334593E+03</totfact>
</mgrwt>
</event>
<event>
 6    1  0.1683416E-002  0.9686705E+02  0.7546771E-02  0.1365325E+00
         -1   -1    0    0    0  501 -0.00000000000E+00  0.00000000000E+00  0.33588031025E+02  0.33588031025E+02  0.00000000000E+00 0.  1.
          1   -1    0    0  501    0  0.00000000000E+00 -0.00000000000E+00 -0.11932437733E+03  0.11932437733E+03  0.00000000000E+00 0. -1.
         23    2    1    2    0    0 -0.22759828926E+02 -0.82260596608E+01 -0.48062534512E+02  0.10813524939E+03  0.93795240101E+02 0.  0.
         11    1    3    3    0    0 -0.20036424372E+01  0.40910868599E+02 -0.33302388996E+02  0.52789798877E+02  0.00000000000E+00 0. -1.
        -11    1    3    3    0    0 -0.20756186488E+02 -0.49136928260E+02 -0.14760145516E+02  0.55345450509E+02  0.00000000000E+00 0.  1.
         22    1    1    2    0    0  0.22759828926E+02  0.82260596608E+01 -0.37673811789E+02  0.44777158965E+02  0.00000000000E+00 0.  1.
<mgrwt>
<rscale>  0 0.68484044E+02</rscale>
<asrwt>0</asrwt>
<pdfrwt beam="1">  1        1 0.18357596E-01 0.96867048E+02</pdfrwt>
<pdfrwt beam="2">  1       -1 0.51673894E-02 0.96867048E+02</pdfrwt>
<totfact> 0.41869067E+04</totfact>
</mgrwt>
</event>
<event>
 6    1  0.1683416E-002  0.8870041E+02  0.7546771E-02  0.1370030E+00
         -2   -1    0    0    0  501 -0.00000000000E+00  0.00000000000E+00  0.27765914956E+03  0.27765914956E+03  0.00000000000E+00 0.  1.
          2   -1    0    0  501    0  0.00000000000E+00 -0.00000000000E+00 -0.12508774905E+02  0.12508774905E+02  0.00000000000E+00 0. -1.
         23    2    1    2    0    0 -0.23495157127E+02  0.17253802564E+02  0.19741998130E+03  0.21643107957E+03  0.83773785133E+02 0.  0.
         13    1    3    3    0    0 -0.37100840374E+01  0.42563304872E+02  0.51013569118E+02  0.66541595107E+02  0.00000000000E+00 0. -1.
        -13    1    3    3    0    0 -0.19785073090E+02 -0.25309502308E+02  0.14640641218E+03  0.14988948446E+03  0.00000000000E+00 0.  1.
         22    1    1    2    0    0  0.23495157127E+02 -0.17253802564E+02  0.67730393355E+02  0.73736844897E+02  0.00000000000E+00 0. -1.
<mgrwt>
<rscale>  0 0.67158883E+02</rscale>
<asrwt>0</asrwt>
<pdfrwt beam="1">  1        2 0.19244271E-02 0.88700413E+02</pdfrwt>
<pdfrwt beam="2">  1       -2 0.42716788E-01 0.88700413E+02</pdfrwt>
<totfact> 0.26380004E+04</totfact>
</mgrwt>
</event>
<event>
 6    1  0.1683416E-002  0.9269032E+02  0.7546771E-02  0.1398842E+00
          2   -1    0    0  501    0  0.00000000000E+00  0.00000000000E+00  0.24918079154E+02  0.24918079154E+02  0.00000000000E+00 0. -1.
         -2   -1    0    0    0  501 -0.00000000000E+00 -0.00000000000E+00 -0.33838521923E+03  0.33838521923E+03  0.00000000000E+00 0.  1.
         23    2    1    2    0    0 -0.12670945379E+02  0.97946805900E+01 -0.32850699773E+03  0.34133318362E+03  0.91296254345E+02 0.  0.
         11    1    3    3    0    0 -0.42247651939E+02 -0.98775773739E+01 -0.86900698536E+02  0.97129614615E+02  0.00000000000E+00 0. -1.
        -11    1    3    3    0    0  0.29576706560E+02  0.19672257964E+02 -0.24160629919E+03  0.24420356900E+03  0.00000000000E+00 0.  1.
         22    1    1    2    0    0  0.12670945379E+02 -0.97946805900E+01  0.15039857652E+02  0.21970114766E+02  0.00000000000E+00 0. -1.
<mgrwt>
<rscale>  0 0.59759821E+02</rscale>
<asrwt>0</asrwt>
<pdfrwt beam="1">  1        2 0.38335510E-02 0.92690316E+02</pdfrwt>
<pdfrwt beam="2">  1       -2 0.52059259E-01 0.92690316E+02</pdfrwt>
<totfact> 0.72147961E+03</totfact>
</mgrwt>
</event>
<event>
 6    1  0.1683416E-002  0.9213248E+02  0.7546771E-02  0.1405598E+00
         -2   -1    0    0    0  501 -0.00000000000E+00  0.00000000000E+00  0.12566033205E+02  0.12566033205E+02  0.00000000000E+00 0. -1.
          2   -1    0    0  501    0  0.00000000000E+00 -0.00000000000E+00 -0.23299278437E+03  0.23299278437E+03  0.00000000000E+00 0.  1.
         23    2    1    2    0    0  0.32207382223E+01 -0.14300335814E+02 -0.17419884901E+03  0.19706251157E+03  0.90958901204E+02 0.  0.
         11    1    3    3    0    0 -0.40157870056E+02  0.97076657125E+01 -0.95430003266E+02  0.10398932072E+03  0.00000000000E+00 0. -1.
        -11    1    3    3    0    0  0.43378608279E+02 -0.24008001526E+02 -0.78768845745E+02  0.93073190842E+02  0.00000000000E+00 0.  1.
         22    1    1    2    0    0 -0.32207382223E+01  0.14300335814E+02 -0.46227902154E+02  0.48496306011E+02  0.00000000000E+00 0.  1.
<mgrwt>
<rscale>  0 0.58187842E+02</rscale>
<asrwt>0</asrwt>
<pdfrwt beam="1">  1        2 0.35845042E-01 0.92132483E+02</pdfrwt>
<pdfrwt beam="2">  1       -2 0.19332360E-02 0.92132483E+02</pdfrwt>
<totfact> 0.10036804E+05</totfact>
</mgrwt>
</event>
<event>
 6    1  0.1683416E-002  0.1031052E+03  0.7546771E-02  0.1312300E+00
         -2   -1    0    0    0  501 -0.00000000000E+00  0.00000000000E+00  0.59943838191E+02  0.59943838191E+02  0.00000000000E+00 0. -1.
          2   -1    0    0  501    0  0.00000000000E+00 -0.00000000000E+00 -0.13527604851E+03  0.13527604851E+03  0.00000000000E+00 0.  1.
         23    2    1    2    0    0  0.46166433974E+02 -0.20203149991E+02  0.17576446564E+01  0.10312019813E+03  0.89950981381E+02 0.  0.
         11    1    3    3    0    0  0.53177947241E+02 -0.44806486374E+00  0.35111995914E+02  0.63725560743E+02  0.00000000000E+00 0. -1.
        -11    1    3    3    0    0 -0.70115132670E+01 -0.19755085127E+02 -0.33354351258E+02  0.39394637383E+02  0.00000000000E+00 0.  1.
         22    1    1    2    0    0 -0.46166433974E+02  0.20203149991E+02 -0.77089854974E+02  0.92099688574E+02  0.00000000000E+00 0.  1.
<mgrwt>
<rscale>  0 0.86209308E+02</rscale>
<asrwt>0</asrwt>
<pdfrwt beam="1">  1        2 0.20811700E-01 0.10310522E+03</pdfrwt>
<pdfrwt beam="2">  1       -2 0.92221291E-02 0.10310522E+03</pdfrwt>
<totfact> 0.18112222E+04</totfact>
</mgrwt>
</event>
<event>
 6    1  0.1683416E-002  0.9280435E+02  0.7546771E-02  0.1407305E+00
         -3   -1    0    0    0  501 -0.00000000000E+00  0.00000000000E+00  0.91557101113E+01  0.91557101113E+01  0.00000000000E+00 0.  1.
          3   -1    0    0  501    0  0.00000000000E+00 -0.00000000000E+00 -0.31128853080E+03  0.31128853080E+03  0.00000000000E+00 0. -1.
         23    2    1    2    0    0  0.11101267585E+02  0.84700509706E+01 -0.26165462697E+03  0.27762527231E+03  0.91747850680E+02 0.  0.
         11    1    3    3    0    0  0.26338319583E+02 -0.14672801807E+02 -0.24146865280E+03  0.24334360167E+03  0.00000000000E+00 0. -1.
        -11    1    3    3    0    0 -0.15237051998E+02  0.23142852777E+02 -0.20185974171E+02  0.34281670634E+02  0.00000000000E+00 0.  1.
         22    1    1    2    0    0 -0.11101267585E+02 -0.84700509706E+01 -0.40478193720E+02  0.42818968604E+02  0.00000000000E+00 0. -1.
<mgrwt>
<rscale>  0 0.57799621E+02</rscale>
<asrwt>0</asrwt>
<pdfrwt beam="1">  1        3 0.47890552E-01 0.92804353E+02</pdfrwt>
<pdfrwt beam="2">  1       -3 0.14085705E-02 0.92804353E+02</pdfrwt>
<totfact> 0.14663237E+04</totfact>
</mgrwt>
</event>
<event>
 6    1  0.1683416E-002  0.9652855E+02  0.7546771E-02  0.1346693E+00
         -2   -1    0    0    0  501 -0.00000000000E+00  0.00000000000E+00  0.91448438182E+02  0.91448438182E+02  0.00000000000E+00 0.  1.
          2   -1    0    0  501    0  0.00000000000E+00 -0.00000000000E+00 -0.46829116798E+02  0.46829116798E+02  0.00000000000E+00 0. -1.
         23    2    1    2    0    0  0.33322999041E+02  0.35656509152E+01  0.39832966463E+02  0.10442426378E+03  0.90524170902E+02 0.  0.
         13    1    3    3    0    0 -0.53093433928E+01  0.73735740341E+01  0.59996337106E+02  0.60680467924E+02  0.00000000000E+00 0.  1.
        -13    1    3    3    0    0  0.38632342434E+02 -0.38079231189E+01 -0.20163370643E+02  0.43743795858E+02  0.00000000000E+00 0. -1.
         22    1    1    2    0    0 -0.33322999041E+02 -0.35656509152E+01  0.47863549205E+01  0.33853291199E+02  0.00000000000E+00 0. -1.
<mgrwt>
<rscale>  0 0.74096194E+02</rscale>
<asrwt>0</asrwt>
<pdfrwt beam="1">  1        2 0.72044795E-02 0.96528554E+02</pdfrwt>
<pdfrwt beam="2">  1       -2 0.14068991E-01 0.96528554E+02</pdfrwt>
<totfact> 0.32522441E+04</totfact>
</mgrwt>
</event>
<event>
 6    1  0.1683416E-002  0.9089404E+02  0.7546771E-02  0.1427511E+00
          2   -1    0    0  501    0  0.00000000000E+00  0.00000000000E+00  0.43929067136E+03  0.43929067136E+03  0.00000000000E+00 0. -1.
         -2   -1    0    0    0  501 -0.00000000000E+00 -0.00000000000E+00 -0.59146647310E+01  0.59146647310E+01  0.00000000000E+00 0.  1.
         23    2    1    2    0    0 -0.27784305648E+01 -0.10518675404E+02  0.37844580428E+03  0.38920810992E+03  0.90240588664E+02 0.  0.
         13    1    3    3    0    0  0.32795496072E+01 -0.19775274076E+01  0.37871391026E+03  0.37873327275E+03  0.00000000000E+00 0. -1.
        -13    1    3    3    0    0 -0.60579801720E+01 -0.85411479964E+01 -0.26810598801E+00  0.10474837167E+02  0.00000000000E+00 0.  1.
         22    1    1    2    0    0  0.27784305648E+01  0.10518675404E+02  0.54930202357E+02  0.55997226178E+02  0.00000000000E+00 0.  1.
<mgrwt>
<rscale>  0 0.53462982E+02</rscale>
<asrwt>0</asrwt>
<pdfrwt beam="1">  1        2 0.67583155E-01 0.90894037E+02</pdfrwt>
<pdfrwt beam="2">  1       -2 0.90994877E-03 0.90894037E+02</pdfrwt>
<totfact> 0.15049196E+05</totfact>
</mgrwt>
</event>
<event>
 6    1  0.1683416E-002  0.7835808E+02  0.7546771E-02  0.1427401E+00
          2   -1    0    0  501    0  0.00000000000E+00  0.00000000000E+00  0.13360255028E+03  0.13360255028E+03  0.00000000000E+00 0.  1.
         -2   -1    0    0    0  501 -0.00000000000E+00 -0.00000000000E+00 -0.18714789233E+02  0.18714789233E+02  0.00000000000E+00 0. -1.
         23    2    1    2    0    0  0.44203694925E+00  0.17003631590E+02  0.72941144401E+02  0.10705325295E+03  0.76489669483E+02 0.  0.
         13    1    3    3    0    0 -0.19904609841E+02  0.23793994943E+02 -0.19670684047E-02  0.31021729354E+02  0.00000000000E+00 0. -1.
        -13    1    3    3    0    0  0.20346646790E+02 -0.67903633531E+01  0.72943111469E+02  0.76031523599E+02  0.00000000000E+00 0.  1.
         22    1    1    2    0    0 -0.44203694925E+00 -0.17003631590E+02  0.41946616647E+02  0.45264086559E+02  0.00000000000E+00 0. -1.
<mgrwt>
<rscale>  0 0.53485361E+02</rscale>
<asrwt>0</asrwt>
<pdfrwt beam="1">  1        2 0.20554238E-01 0.78358078E+02</pdfrwt>
<pdfrwt beam="2">  1       -2 0.28791984E-02 0.78358078E+02</pdfrwt>
<totfact> 0.10044784E+05</totfact>
</mgrwt>
</event>
<event>
 6    1  0.1683416E-002  0.9289547E+02  0.7546771E-02  0.1399771E+00
         -4   -1    0    0    0  501 -0.00000000000E+00  0.00000000000E+00  0.72081580685E+02  0.72081580685E+02  0.00000000000E+00 0.  1.
          4   -1    0    0  501    0  0.00000000000E+00 -0.00000000000E+00 -0.40952963690E+02  0.40952963690E+02  0.00000000000E+00 0. -1.
         23    2    1    2    0    0 -0.12699030143E+02 -0.91925286223E+01  0.24985340815E+02  0.96196854770E+02  0.91563091161E+02 0.  0.
         11    1    3    3    0    0 -0.19964824817E+02 -0.50967780497E+01  0.58310366267E+02  0.61843917976E+02  0.00000000000E+00 0.  1.
        -11    1    3    3    0    0  0.72657946743E+01 -0.40957505726E+01 -0.33325025452E+02  0.34352936794E+02  0.00000000000E+00 0. -1.
         22    1    1    2    0    0  0.12699030143E+02  0.91925286223E+01  0.61432761796E+01  0.16837689606E+02  0.00000000000E+00 0. -1.
<mgrwt>
<rscale>  0 0.59540372E+02</rscale>
<asrwt>0</asrwt>
<pdfrwt beam="1">  1        4 0.63004559E-02 0.92895466E+02</pdfrwt>
<pdfrwt beam="2">  1       -4 0.11089474E-01 0.92895466E+02</pdfrwt>
<totfact> 0.15149341E+04</totfact>
</mgrwt>
</event>
<event>
 6    1  0.1683416E-002  0.9028303E+02  0.7546771E-02  0.1427951E+00
          1   -1    0    0  501    0  0.00000000000E+00  0.00000000000E+00  0.85101320359E+02  0.85101320359E+02  0.00000000000E+00 0. -1.
         -1   -1    0    0    0  501 -0.00000000000E+00 -0.00000000000E+00 -0.31476890607E+02  0.31476890607E+02  0.00000000000E+00 0.  1.
         23    2    1    2    0    0 -0.83080108709E+01  0.72517110207E+01  0.39211783137E+02  0.98430628763E+02  0.89606999640E+02 0.  0.
         11    1    3    3    0    0  0.64305368912E+01  0.36124388078E+02  0.51949556985E+02  0.63600940949E+02  0.00000000000E+00 0. -1.
        -11    1    3    3    0    0 -0.14738547762E+02 -0.28872677057E+02 -0.12737773848E+02  0.34829687814E+02  0.00000000000E+00 0.  1.
         22    1    1    2    0    0  0.83080108709E+01 -0.72517110207E+01  0.14412646614E+02  0.18147582202E+02  0.00000000000E+00 0. -1.
<mgrwt>
<rscale>  0 0.53373527E+02</rscale>
<asrwt>0</asrwt>
<pdfrwt beam="1">  1        1 0.13092511E-01 0.90283026E+02</pdfrwt>
<pdfrwt beam="2">  1       -1 0.48425986E-02 0.90283026E+02</pdfrwt>
<totfact> 0.70211833E+04</totfact>
</mgrwt>
</event>
<event>
 6    1  0.1683416E-002  0.9118059E+02  0.7546771E-02  0.1408113E+00
         -4   -1    0    0    0  501 -0.00000000000E+00  0.00000000000E+00  0.50279007823E+02  0.50279007823E+02  0.00000000000E+00 0.  1.
          4   -1    0    0  501    0  0.00000000000E+00 -0.00000000000E+00 -0.64714894327E+02  0.64714894327E+02  0.00000000000E+00 0. -1.
         23    2    1    2    0    0 -0.10533214206E+02 -0.10019765045E+02  0.42969768622E+01  0.91281785775E+02  0.90014199497E+02 0.  0.
         11    1    3    3    0    0 -0.29824722376E+02 -0.66321306985E+01 -0.35553458014E+02  0.46878007628E+02  0.00000000000E+00 0. -1.
        -11    1    3    3    0    0  0.19291508170E+02 -0.33876343467E+01  0.39850434876E+02  0.44403778147E+02  0.00000000000E+00 0.  1.
         22    1    1    2    0    0  0.10533214206E+02  0.10019765045E+02 -0.18732863366E+02  0.23712116375E+02  0.00000000000E+00 0. -1.
<mgrwt>
<rscale>  0 0.57616997E+02</rscale>
<asrwt>0</asrwt>
<pdfrwt beam="1">  1        4 0.99561376E-02 0.91180592E+02</pdfrwt>
<pdfrwt beam="2">  1       -4 0.77352320E-02 0.91180592E+02</pdfrwt>
<totfact> 0.12926569E+04</totfact>
</mgrwt>
</event>
<event>
 6    1  0.1683416E-002  0.9716632E+02  0.7546771E-02  0.1347473E+00
         -1   -1    0    0    0  501 -0.00000000000E+00  0.00000000000E+00  0.14389534683E+03  0.14389534683E+03  0.00000000000E+00 0.  1.
          1   -1    0    0  501    0  0.00000000000E+00 -0.00000000000E+00 -0.33416407969E+02  0.33416407969E+02  0.00000000000E+00 0. -1.
         23    2    1    2    0    0  0.23263654273E+02  0.22581522212E+02  0.51405707438E+02  0.10992652328E+03  0.91597876659E+02 0.  0.
         13    1    3    3    0    0 -0.20744823615E+02 -0.24758667424E+02  0.20728565404E+02  0.38379848139E+02  0.00000000000E+00 0.  1.
        -13    1    3    3    0    0  0.44008477888E+02  0.47340189636E+02  0.30677142034E+02  0.71546675144E+02  0.00000000000E+00 0. -1.
         22    1    1    2    0    0 -0.23263654273E+02 -0.22581522212E+02  0.59073231420E+02  0.67385231512E+02  0.00000000000E+00 0.  1.
<mgrwt>
<rscale>  0 0.73848809E+02</rscale>
<asrwt>0</asrwt>
<pdfrwt beam="1">  1        1 0.51409859E-02 0.97166320E+02</pdfrwt>
<pdfrwt beam="2">  1       -1 0.22137745E-01 0.97166320E+02</pdfrwt>
<totfact> 0.24219747E+04</totfact>
</mgrwt>
</event>
<event>
 6    1  0.1683416E-002  0.9452044E+02  0.7546771E-02  0.1404208E+00
         -3   -1    0    0    0  501 -0.00000000000E+00  0.00000000000E+00  0.25288141076E+03  0.25288141076E+03  0.00000000000E+00 0.  1.
          3   -1    0    0  501    0  0.00000000000E+00 -0.00000000000E+00 -0.12577166632E+02  0.12577166632E+02  0.00000000000E+00 0. -1.
         23    2    1    2    0    0  0.12313722358E+00 -0.13874710495E+02  0.22836698753E+03  0.24715500263E+03  0.93496478953E+02 0.  0.
         11    1    3    3    0    0  0.35336047831E+02  0.19001228262E+02  0.14904066085E+03  0.15434636872E+03  0.00000000000E+00 0.  1.
        -11    1    3    3    0    0 -0.35212910607E+02 -0.32875938757E+02  0.79326326677E+02  0.92808633901E+02  0.00000000000E+00 0. -1.
         22    1    1    2    0    0 -0.12313722358E+00  0.13874710495E+02  0.11937256601E+02  0.18303574767E+02  0.00000000000E+00 0. -1.
<mgrwt>
<rscale>  0 0.58506561E+02</rscale>
<asrwt>0</asrwt>
<pdfrwt beam="1">  1        3 0.19349489E-02 0.94520444E+02</pdfrwt>
<pdfrwt beam="2">  1       -3 0.38904829E-01 0.94520444E+02</pdfrwt>
<totfact> 0.13658381E+04</totfact>
</mgrwt>
</event>
<event>
 6    1  0.1683416E-002  0.9195051E+02  0.7546771E-02  0.1421123E+00
         -2   -1    0    0    0  501 -0.00000000000E+00  0.00000000000E+00  0.13028559145E+04  0.13028559145E+04  0.00000000000E+00 0.  1.
          2   -1    0    0  501    0  0.00000000000E+00 -0.00000000000E+00 -0.23166517713E+01  0.23166517713E+01  0.00000000000E+00 0. -1.
         23    2    1    2    0    0 -0.13001536334E+01  0.11513324562E+02  0.12474193113E+04  0.12508036755E+04  0.91217593928E+02 0.  0.
         13    1    3    3    0    0 -0.27254705717E+02  0.26512262983E+01  0.12138372584E+03  0.12443414678E+03  0.00000000000E+00 0. -1.
        -13    1    3    3    0    0  0.25954552083E+02  0.88620982637E+01  0.11260355855E+04  0.11263695288E+04  0.00000000000E+00 0.  1.
         22    1    1    2    0    0  0.13001536334E+01 -0.11513324562E+02  0.53119951398E+02  0.54368890723E+02  0.00000000000E+00 0. -1.
<mgrwt>
<rscale>  0 0.54783995E+02</rscale>
<asrwt>0</asrwt>
<pdfrwt beam="1">  1        2 0.35640901E-03 0.91950511E+02</pdfrwt>
<pdfrwt beam="2">  1       -2 0.20043879E+00 0.91950511E+02</pdfrwt>
<totfact> 0.79257472E+03</totfact>
</mgrwt>
</event>
<event>
 6    1  0.1683416E-002  0.9982630E+02  0.7546771E-02  0.1328511E+00
          2   -1    0    0  501    0  0.00000000000E+00  0.00000000000E+00  0.15685121794E+03  0.15685121794E+03  0.00000000000E+00 0. -1.
         -2   -1    0    0    0  501 -0.00000000000E+00 -0.00000000000E+00 -0.34144304681E+02  0.34144304681E+02  0.00000000000E+00 0.  1.
         23    2    1    2    0    0  0.11258269891E+02 -0.40014449130E+02  0.62311272134E+02  0.11767746041E+03  0.90760042267E+02 0.  0.
         13    1    3    3    0    0  0.27850882587E+02  0.21789910364E+02  0.16790957363E+02  0.39145984515E+02  0.00000000000E+00 0.  1.
        -13    1    3    3    0    0 -0.16592612696E+02 -0.61804359494E+02  0.45520314771E+02  0.78531475890E+02  0.00000000000E+00 0. -1.
         22    1    1    2    0    0 -0.11258269891E+02  0.40014449130E+02  0.60395641120E+02  0.73318062212E+02  0.00000000000E+00 0.  1.
<mgrwt>
<rscale>  0 0.80190645E+02</rscale>
<asrwt>0</asrwt>
<pdfrwt beam="1">  1        2 0.24130956E-01 0.99826299E+02</pdfrwt>
<pdfrwt beam="2">  1       -2 0.52529700E-02 0.99826299E+02</pdfrwt>
<totfact> 0.36032412E+04</totfact>
</mgrwt>
</event>
<event>
 6    1  0.1683416E-002  0.1007909E+03  0.7546771E-02  0.1338137E+00
         -2   -1    0    0    0  501 -0.00000000000E+00  0.00000000000E+00  0.17608406377E+02  0.17608406377E+02  0.00000000000E+00 0.  1.
          2   -1    0    0  501    0  0.00000000000E+00 -0.00000000000E+00 -0.35268085763E+03  0.35268085763E+03  0.00000000000E+00 0. -1.
         23    2    1    2    0    0 -0.45734583942E+01 -0.33815875863E+02 -0.14146972026E+03  0.17370226690E+03  0.94838630288E+02 0.  0.
         11    1    3    3    0    0  0.33624224510E+02 -0.22635836809E+02 -0.12359603687E+03  0.13007286385E+03  0.00000000000E+00 0. -1.
        -11    1    3    3    0    0 -0.38197682904E+02 -0.11180039053E+02 -0.17873683394E+02  0.43629403051E+02  0.00000000000E+00 0.  1.
         22    1    1    2    0    0  0.45734583942E+01  0.33815875863E+02 -0.19360273100E+03  0.19658699711E+03  0.00000000000E+00 0. -1.
<mgrwt>
<rscale>  0 0.76882945E+02</rscale>
<asrwt>0</asrwt>
<pdfrwt beam="1">  1        2 0.54258598E-01 0.10079085E+03</pdfrwt>
<pdfrwt beam="2">  1       -2 0.27089854E-02 0.10079085E+03</pdfrwt>
<totfact> 0.40389245E+04</totfact>
</mgrwt>
</event>
<event>
 6    1  0.1683416E-002  0.9494168E+02  0.7546771E-02  0.1344420E+00
         -1   -1    0    0    0  501 -0.00000000000E+00  0.00000000000E+00  0.26563873308E+02  0.26563873308E+02  0.00000000000E+00 0.  1.
          1   -1    0    0  501    0  0.00000000000E+00 -0.00000000000E+00 -0.16699429540E+03  0.16699429540E+03  0.00000000000E+00 0. -1.
         23    2    1    2    0    0  0.32876792972E+02  0.16138985999E+02 -0.11419097406E+03  0.14850421197E+03  0.87593219081E+02 0.  0.
         11    1    3    3    0    0  0.54019472760E+02  0.27623967186E+02 -0.10764933038E+03  0.12357008267E+03  0.00000000000E+00 0. -1.
        -11    1    3    3    0    0 -0.21142679788E+02 -0.11484981187E+02 -0.65416436811E+01  0.24934129292E+02  0.00000000000E+00 0.  1.
         22    1    1    2    0    0 -0.32876792972E+02 -0.16138985999E+02 -0.26239448027E+02  0.45053956740E+02  0.00000000000E+00 0. -1.
<mgrwt>
<rscale>  0 0.74823059E+02</rscale>
<asrwt>0</asrwt>
<pdfrwt beam="1">  1        1 0.25691430E-01 0.94941679E+02</pdfrwt>
<pdfrwt beam="2">  1       -1 0.40867497E-02 0.94941679E+02</pdfrwt>
<totfact> 0.38633431E+04</totfact>
</mgrwt>
</event>
<event>
 6    1  0.1683416E-002  0.9777256E+02  0.7546771E-02  0.1397161E+00
          1   -1    0    0  501    0  0.00000000000E+00  0.00000000000E+00  0.31868948407E+02  0.31868948407E+02  0.00000000000E+00 0. -1.
         -1   -1    0    0    0  501 -0.00000000000E+00 -0.00000000000E+00 -0.10084647704E+03  0.10084647704E+03  0.00000000000E+00 0.  1.
         23    2    1    2    0    0 -0.11346190960E+02 -0.82264403936E+01 -0.67083246421E+02  0.11857333664E+03  0.96762925957E+02 0.  0.
         13    1    3    3    0    0 -0.14089152167E+02  0.34112102932E+02  0.25907116580E+01  0.36997994029E+02  0.00000000000E+00 0.  1.
        -13    1    3    3    0    0  0.27429612067E+01 -0.42338543326E+02 -0.69673958079E+02  0.81575342608E+02  0.00000000000E+00 0. -1.
         22    1    1    2    0    0  0.11346190960E+02  0.82264403936E+01 -0.18942822114E+01  0.14142088811E+02  0.00000000000E+00 0.  1.
<mgrwt>
<rscale>  0 0.60160066E+02</rscale>
<asrwt>0</asrwt>
<pdfrwt beam="1">  1        1 0.49029152E-02 0.97772564E+02</pdfrwt>
<pdfrwt beam="2">  1       -1 0.15514842E-01 0.97772564E+02</pdfrwt>
<totfact> 0.45339437E+04</totfact>
</mgrwt>
</event>
<event>
 6    1  0.1683416E-002  0.9120395E+02  0.7546771E-02  0.1392951E+00
          2   -1    0    0  501    0  0.00000000000E+00  0.00000000000E+00  0.38358056352E+02  0.38358056352E+02  0.00000000000E+00 0. -1.
         -2   -1    0    0    0  501 -0.00000000000E+00 -0.00000000000E+00 -0.78398579224E+02  0.78398579224E+02  0.00000000000E+00 0.  1.
         23    2    1    2    0    0 -0.17397480611E+02 -0.61886870939E+01 -0.33784092484E+02  0.97260094837E+02  0.89315110498E+02 0.  0.
         11    1    3    3    0    0  0.18778793000E+02  0.32643267100E+02 -0.18925075977E+02  0.42147176112E+02  0.00000000000E+00 0. -1.
        -11    1    3    3    0    0 -0.36176273611E+02 -0.38831954194E+02 -0.14859016507E+02  0.55112918725E+02  0.00000000000E+00 0.  1.
         22    1    1    2    0    0  0.17397480611E+02  0.61886870939E+01 -0.62564303882E+01  0.19496540738E+02  0.00000000000E+00 0. -1.
<mgrwt>
<rscale>  0 0.61178682E+02</rscale>
<asrwt>0</asrwt>
<pdfrwt beam="1">  1        2 0.59012394E-02 0.91203954E+02</pdfrwt>
<pdfrwt beam="2">  1       -2 0.12061320E-01 0.91203954E+02</pdfrwt>
<totfact> 0.53101086E+04</totfact>
</mgrwt>
</event>
<event>
 6    1  0.1683416E-002  0.9190163E+02  0.7546771E-02  0.1425008E+00
         -2   -1    0    0    0  501 -0.00000000000E+00  0.00000000000E+00  0.99636920126E+02  0.99636920126E+02  0.00000000000E+00 0.  1.
          2   -1    0    0  501    0  0.00000000000E+00 -0.00000000000E+00 -0.29869307096E+02  0.29869307096E+02  0.00000000000E+00 0. -1.
         23    2    1    2    0    0  0.34782691147E+01  0.10366738515E+02  0.73785481914E+02  0.11785672535E+03  0.91248795859E+02 0.  0.
         13    1    3    3    0    0 -0.23933204850E+02  0.23005211533E+02  0.80375245853E+02  0.86961015392E+02  0.00000000000E+00 0.  1.
        -13    1    3    3    0    0  0.27411473965E+02 -0.12638473018E+02 -0.65897639387E+01  0.30895709960E+02  0.00000000000E+00 0. -1.
         22    1    1    2    0    0 -0.34782691147E+01 -0.10366738515E+02 -0.40178688832E+01  0.11649501871E+02  0.00000000000E+00 0. -1.
<mgrwt>
<rscale>  0 0.53975183E+02</rscale>
<asrwt>0</asrwt>
<pdfrwt beam="1">  1        2 0.45952781E-02 0.91901634E+02</pdfrwt>
<pdfrwt beam="2">  1       -2 0.15328757E-01 0.91901634E+02</pdfrwt>
<totfact> 0.49951724E+04</totfact>
</mgrwt>
</event>
<event>
 6    1  0.1683416E-002  0.9873296E+02  0.7546771E-02  0.1334820E+00
          2   -1    0    0  501    0  0.00000000000E+00  0.00000000000E+00  0.47299796607E+02  0.47299796607E+02  0.00000000000E+00 0. -1.
         -2   -1    0    0    0  501 -0.00000000000E+00 -0.00000000000E+00 -0.15250633780E+03  0.15250633780E+03  0.00000000000E+00 0.  1.
         23    2    1    2    0    0 -0.32042028044E+02 -0.21274439280E+02 -0.12275187844E+03  0.15753164817E+03  0.90933509706E+02 0.  0.
         11    1    3    3    0    0 -0.24493867852E+02 -0.19015647226E+02  0.33451695021E+01  0.31188692835E+02  0.00000000000E+00 0. -1.
        -11    1    3    3    0    0 -0.75481601921E+01 -0.22587920541E+01 -0.12609704794E+03  0.12634295533E+03  0.00000000000E+00 0.  1.
         22    1    1    2    0    0  0.32042028044E+02  0.21274439280E+02  0.17545337241E+02  0.42274486239E+02  0.00000000000E+00 0. -1.
<mgrwt>
<rscale>  0 0.78001578E+02</rscale>
<asrwt>0</asrwt>
<pdfrwt beam="1">  1        2 0.72768917E-02 0.98732956E+02</pdfrwt>
<pdfrwt beam="2">  1       -2 0.23462514E-01 0.98732956E+02</pdfrwt>
<totfact> 0.13779510E+04</totfact>
</mgrwt>
</event>
<event>
 6    1  0.1683416E-002  0.1267861E+03  0.7546771E-02  0.1333401E+00
         -1   -1    0    0    0  501 -0.00000000000E+00  0.00000000000E+00  0.56820718068E+02  0.56820718068E+02  0.00000000000E+00 0.  1.
          1   -1    0    0  501    0  0.00000000000E+00 -0.00000000000E+00 -0.12141358495E+03  0.12141358495E+03  0.00000000000E+00 0. -1.
         23    2    1    2    0    0 -0.30331691296E+01 -0.18370968032E+02 -0.17998388440E+02  0.12805723652E+03  0.12541140800E+03 0.  0.
         13    1    3    3    0    0 -0.26498362134E+02  0.40560821711E+02  0.21848935005E+02  0.53148089472E+02  0.00000000000E+00 0.  1.
        -13    1    3    3    0    0  0.23465193004E+02 -0.58931789743E+02 -0.39847323445E+02  0.74909147043E+02  0.00000000000E+00 0. -1.
         22    1    1    2    0    0  0.30331691296E+01  0.18370968032E+02 -0.46594478439E+02  0.50177066499E+02  0.00000000000E+00 0.  1.
<mgrwt>
<rscale>  0 0.78486830E+02</rscale>
<asrwt>0</asrwt>
<pdfrwt beam="1">  1        1 0.18679013E-01 0.12678609E+03</pdfrwt>
<pdfrwt beam="2">  1       -1 0.87416490E-02 0.12678609E+03</pdfrwt>
<totfact> 0.19309695E+04</totfact>
</mgrwt>
</event>
<event>
 6    1  0.1683416E-002  0.9567113E+02  0.7546771E-02  0.1343357E+00
          4   -1    0    0  501    0  0.00000000000E+00  0.00000000000E+00  0.13522169827E+03  0.13522169827E+03  0.00000000000E+00 0. -1.
         -4   -1    0    0    0  501 -0.00000000000E+00 -0.00000000000E+00 -0.33856108824E+02  0.33856108824E+02  0.00000000000E+00 0.  1.
         23    2    1    2    0    0 -0.32635295979E+02 -0.16243087576E+02  0.55909777641E+02  0.11081005216E+03  0.88453739249E+02 0.  0.
         11    1    3    3    0    0 -0.99993822765E+01 -0.26078429796E+02  0.74726073265E+02  0.79775047303E+02  0.00000000000E+00 0. -1.
        -11    1    3    3    0    0 -0.22635913702E+02  0.98353422199E+01 -0.18816295625E+02  0.31035004861E+02  0.00000000000E+00 0.  1.
         22    1    1    2    0    0  0.32635295979E+02  0.16243087576E+02  0.45455811802E+02  0.58267754926E+02  0.00000000000E+00 0.  1.
<mgrwt>
<rscale>  0 0.75166135E+02</rscale>
<asrwt>0</asrwt>
<pdfrwt beam="1">  1        4 0.20803338E-01 0.95671126E+02</pdfrwt>
<pdfrwt beam="2">  1       -4 0.52086322E-02 0.95671126E+02</pdfrwt>
<totfact> 0.69626344E+03</totfact>
</mgrwt>
</event>
<event>
 6    1  0.1683416E-002  0.9874641E+02  0.7546771E-02  0.1371735E+00
         -2   -1    0    0    0  501 -0.00000000000E+00  0.00000000000E+00  0.18426862404E+02  0.18426862404E+02  0.00000000000E+00 0.  1.
          2   -1    0    0  501    0  0.00000000000E+00 -0.00000000000E+00 -0.25268113693E+03  0.25268113693E+03  0.00000000000E+00 0. -1.
         23    2    1    2    0    0 -0.98891972272E+01  0.18003006555E+02 -0.12183049582E+03  0.15682322132E+03  0.96586482320E+02 0.  0.
         13    1    3    3    0    0 -0.35345458757E+02 -0.14932853346E+02 -0.10523185342E+03  0.11200908239E+03  0.00000000000E+00 0. -1.
        -13    1    3    3    0    0  0.25456261530E+02  0.32935859901E+02 -0.16598642398E+02  0.44814138929E+02  0.00000000000E+00 0.  1.
         22    1    1    2    0    0  0.98891972272E+01 -0.18003006555E+02 -0.11242377871E+03  0.11428477802E+03  0.00000000000E+00 0. -1.
<mgrwt>
<rscale>  0 0.66687240E+02</rscale>
<asrwt>0</asrwt>
<pdfrwt beam="1">  1        2 0.38874021E-01 0.98746408E+02</pdfrwt>
<pdfrwt beam="2">  1       -2 0.28349019E-02 0.98746408E+02</pdfrwt>
<totfact> 0.53511562E+04</totfact>
</mgrwt>
</event>
<event>
 6    1  0.1683416E-002  0.9202861E+02  0.7546771E-02  0.1412207E+00
          2   -1    0    0  501    0  0.00000000000E+00  0.00000000000E+00  0.51843951865E+02  0.51843951865E+02  0.00000000000E+00 0. -1.
         -2   -1    0    0    0  501 -0.00000000000E+00 -0.00000000000E+00 -0.54473382348E+02  0.54473382348E+02  0.00000000000E+00 0.  1.
         23    2    1    2    0    0 -0.12551270648E+02 -0.42914061967E+01 -0.71440154540E+01  0.92305480678E+02  0.91067635548E+02 0.  0.
         13    1    3    3    0    0 -0.44292132373E+02  0.14599779863E+02  0.15302528743E+02  0.49082725558E+02  0.00000000000E+00 0. -1.
        -13    1    3    3    0    0  0.31740861725E+02 -0.18891186060E+02 -0.22446544197E+02  0.43222755120E+02  0.00000000000E+00 0.  1.
         22    1    1    2    0    0  0.12551270648E+02  0.42914061967E+01  0.45145849714E+01  0.14011853535E+02  0.00000000000E+00 0. -1.
<mgrwt>
<rscale>  0 0.56704297E+02</rscale>
<asrwt>0</asrwt>
<pdfrwt beam="1">  1        2 0.79759927E-02 0.92028609E+02</pdfrwt>
<pdfrwt beam="2">  1       -2 0.83805203E-02 0.92028609E+02</pdfrwt>
<totfact> 0.64157528E+04</totfact>
</mgrwt>
</event>
<event>
 6    1  0.2178172E-002  0.1258131E+03  0.7546771E-02  0.1362458E+00
          2   -1    0    0  501    0  0.00000000000E+00  0.00000000000E+00  0.27428530904E+02  0.27428530904E+02  0.00000000000E+00 0. -1.
         -2   -1    0    0    0  501 -0.00000000000E+00 -0.00000000000E+00 -0.19140586997E+03  0.19140586997E+03  0.00000000000E+00 0.  1.
         23    2    1    2    0    0 -0.14934569396E+01 -0.11490754080E+02 -0.16466325507E+03  0.20722671705E+03  0.12527831755E+03 0.  0.
         11    1    3    3    0    0 -0.37233956059E+02 -0.47527973651E+02 -0.13632490095E+03  0.14909646000E+03  0.00000000000E+00 0.  1.
        -11    1    3    3    0    0  0.35740499119E+02  0.36037219571E+02 -0.28338354111E+02  0.58130257056E+02  0.00000000000E+00 0. -1.
         22    1    1    2    0    0  0.14934569396E+01  0.11490754080E+02  0.68591599916E+00  0.11607683822E+02  0.00000000000E+00 0. -1.
<mgrwt>
<rscale>  0 0.69309183E+02</rscale>
<asrwt>0</asrwt>
<pdfrwt beam="1">  1        2 0.42197741E-02 0.12581305E+03</pdfrwt>
<pdfrwt beam="2">  1       -2 0.29447056E-01 0.12581305E+03</pdfrwt>
<totfact> 0.19157094E+04</totfact>
</mgrwt>
</event>
<event>
 6    1  0.1683416E-002  0.9282334E+02  0.7546771E-02  0.1382406E+00
          2   -1    0    0  501    0  0.00000000000E+00  0.00000000000E+00  0.19909842812E+03  0.19909842812E+03  0.00000000000E+00 0. -1.
         -2   -1    0    0    0  501 -0.00000000000E+00 -0.00000000000E+00 -0.16467588246E+02  0.16467588246E+02  0.00000000000E+00 0.  1.
         23    2    1    2    0    0  0.17426658613E+02  0.11286582096E+02  0.13763190003E+03  0.16600817185E+03  0.90471530603E+02 0.  0.
         13    1    3    3    0    0  0.41812201897E+01  0.29222879169E+02  0.14046359997E+03  0.14353216429E+03  0.00000000000E+00 0. -1.
        -13    1    3    3    0    0  0.13245438423E+02 -0.17936297072E+02 -0.28316999328E+01  0.22476007568E+02  0.00000000000E+00 0.  1.
         22    1    1    2    0    0 -0.17426658613E+02 -0.11286582096E+02  0.44998939839E+02  0.49557844510E+02  0.00000000000E+00 0. -1.
<mgrwt>
<rscale>  0 0.63835470E+02</rscale>
<asrwt>0</asrwt>
<pdfrwt beam="1">  1        2 0.30630526E-01 0.92823344E+02</pdfrwt>
<pdfrwt beam="2">  1       -2 0.25334752E-02 0.92823344E+02</pdfrwt>
<totfact> 0.80414651E+04</totfact>
</mgrwt>
</event>
<event>
 6    1  0.1683416E-002  0.9418098E+02  0.7546771E-02  0.1363769E+00
         -1   -1    0    0    0  501 -0.00000000000E+00  0.00000000000E+00  0.17783850480E+02  0.17783850480E+02  0.00000000000E+00 0.  1.
          1   -1    0    0  501    0  0.00000000000E+00 -0.00000000000E+00 -0.20665640229E+03  0.20665640229E+03  0.00000000000E+00 0. -1.
         23    2    1    2    0    0 -0.59541887583E+01  0.26359964205E+02 -0.14429848043E+03  0.17231398380E+03  0.90220604543E+02 0.  0.
         11    1    3    3    0    0  0.44344522966E+01  0.31070742317E+01  0.12415079721E+02  0.13544463147E+02  0.00000000000E+00 0.  1.
        -11    1    3    3    0    0 -0.10388641055E+02  0.23252889974E+02 -0.15671356015E+03  0.15876952066E+03  0.00000000000E+00 0. -1.
         22    1    1    2    0    0  0.59541887583E+01 -0.26359964205E+02 -0.44574071379E+02  0.52126268963E+02  0.00000000000E+00 0.  1.
<mgrwt>
<rscale>  0 0.68930286E+02</rscale>
<asrwt>0</asrwt>
<pdfrwt beam="1">  1        1 0.31793291E-01 0.94180983E+02</pdfrwt>
<pdfrwt beam="2">  1       -1 0.27359771E-02 0.94180983E+02</pdfrwt>
<totfact> 0.53026328E+04</totfact>
</mgrwt>
</event>
<event>
 6    1  0.1683416E-002  0.9344283E+02  0.7546771E-02  0.1392529E+00
         -3   -1    0    0    0  501 -0.00000000000E+00  0.00000000000E+00  0.91055517439E+03  0.91055517439E+03  0.00000000000E+00 0.  1.
          3   -1    0    0  501    0  0.00000000000E+00 -0.00000000000E+00 -0.35171764211E+01  0.35171764211E+01  0.00000000000E+00 0. -1.
         23    2    1    2    0    0 -0.17246214807E+02  0.11736855952E+01  0.82208041375E+03  0.82737401992E+03  0.91830020711E+02 0.  0.
         13    1    3    3    0    0 -0.49515694004E+01  0.94260910891E+01  0.80370237416E+03  0.80377290043E+03  0.00000000000E+00 0.  1.
        -13    1    3    3    0    0 -0.12294645407E+02 -0.82524054940E+01  0.18378039594E+02  0.23601119495E+02  0.00000000000E+00 0. -1.
         22    1    1    2    0    0  0.17246214807E+02 -0.11736855952E+01  0.84957584220E+02  0.86698330893E+02  0.00000000000E+00 0. -1.
<mgrwt>
<rscale>  0 0.61282119E+02</rscale>
<asrwt>0</asrwt>
<pdfrwt beam="1">  1        3 0.54110479E-03 0.93442828E+02</pdfrwt>
<pdfrwt beam="2">  1       -3 0.14008522E+00 0.93442828E+02</pdfrwt>
<totfact> 0.58632610E+03</totfact>
</mgrwt>
</event>
<event>
 6    1  0.1683416E-002  0.9243195E+02  0.7546771E-02  0.1379483E+00
          2   -1    0    0  501    0  0.00000000000E+00  0.00000000000E+00  0.62321761182E+01  0.62321761182E+01  0.00000000000E+00 0. -1.
         -2   -1    0    0    0  501 -0.00000000000E+00 -0.00000000000E+00 -0.55601854657E+03  0.55601854657E+03  0.00000000000E+00 0.  1.
         23    2    1    2    0    0 -0.66536410697E+01 -0.21025047334E+02 -0.48725477909E+03  0.49594443737E+03  0.89762696338E+02 0.  0.
         11    1    3    3    0    0  0.11168134962E+02 -0.34024805134E+02 -0.75114100694E+02  0.83213837347E+02  0.00000000000E+00 0. -1.
        -11    1    3    3    0    0 -0.17821776031E+02  0.12999757800E+02 -0.41214067840E+03  0.41273060002E+03  0.00000000000E+00 0.  1.
         22    1    1    2    0    0  0.66536410697E+01  0.21025047334E+02 -0.62531591354E+02  0.66306285314E+02  0.00000000000E+00 0. -1.
<mgrwt>
<rscale>  0 0.64599960E+02</rscale>
<asrwt>0</asrwt>
<pdfrwt beam="1">  1        2 0.95879609E-03 0.92431949E+02</pdfrwt>
<pdfrwt beam="2">  1       -2 0.85541336E-01 0.92431949E+02</pdfrwt>
<totfact> 0.16550568E+04</totfact>
</mgrwt>
</event>
<event>
 6    1  0.1683416E-002  0.9612774E+02  0.7546771E-02  0.1393281E+00
         -2   -1    0    0    0  501 -0.00000000000E+00  0.00000000000E+00  0.23262028301E+02  0.23262028301E+02  0.00000000000E+00 0. -1.
          2   -1    0    0  501    0  0.00000000000E+00 -0.00000000000E+00 -0.13443260233E+03  0.13443260233E+03  0.00000000000E+00 0.  1.
         23    2    1    2    0    0 -0.15671163645E+02  0.71858033969E+00 -0.94352151397E+02  0.13469547700E+03  0.94839028488E+02 0.  0.
         13    1    3    3    0    0 -0.52875373594E+02 -0.14955372441E+02 -0.62878046778E+02  0.83505191840E+02  0.00000000000E+00 0.  1.
        -13    1    3    3    0    0  0.37204209949E+02  0.15673952781E+02 -0.31474104618E+02  0.51190285165E+02  0.00000000000E+00 0. -1.
         22    1    1    2    0    0  0.15671163645E+02 -0.71858033969E+00 -0.16818422632E+02  0.22999153626E+02  0.00000000000E+00 0. -1.
<mgrwt>
<rscale>  0 0.61097845E+02</rscale>
<asrwt>0</asrwt>
<pdfrwt beam="1">  1        2 0.20681939E-01 0.96127743E+02</pdfrwt>
<pdfrwt beam="2">  1       -2 0.35787735E-02 0.96127743E+02</pdfrwt>
<totfact> 0.74996407E+04</totfact>
</mgrwt>
</event>
<event>
 6    1  0.1683416E-002  0.9207802E+02  0.7546771E-02  0.1416450E+00
         -2   -1    0    0    0  501 -0.00000000000E+00  0.00000000000E+00  0.23648293577E+03  0.23648293577E+03  0.00000000000E+00 0.  1.
          2   -1    0    0  501    0  0.00000000000E+00 -0.00000000000E+00 -0.14172894944E+02  0.14172894944E+02  0.00000000000E+00 0. -1.
         23    2    1    2    0    0  0.12212402198E+02 -0.21479970931E+01  0.21937197324E+03  0.23791264037E+03  0.91239274135E+02 0.  0.
         11    1    3    3    0    0  0.45043283423E+02 -0.13657479039E+02  0.68706493615E+02  0.83282689558E+02  0.00000000000E+00 0. -1.
        -11    1    3    3    0    0 -0.32830881225E+02  0.11509481946E+02  0.15066547963E+03  0.15462995081E+03  0.00000000000E+00 0.  1.
         22    1    1    2    0    0 -0.12212402198E+02  0.21479970931E+01  0.29380675810E+01  0.12743190341E+02  0.00000000000E+00 0.  1.
<mgrwt>
<rscale>  0 0.55779064E+02</rscale>
<asrwt>0</asrwt>
<pdfrwt beam="1">  1        2 0.21804455E-02 0.92078020E+02</pdfrwt>
<pdfrwt beam="2">  1       -2 0.36381987E-01 0.92078020E+02</pdfrwt>
<totfact> 0.30264670E+04</totfact>
</mgrwt>
</event>
<event>
 6    1  0.1683416E-002  0.9760749E+02  0.7546771E-02  0.1400801E+00
         -2   -1    0    0    0  501 -0.00000000000E+00  0.00000000000E+00  0.32427969515E+03  0.32427969515E+03  0.00000000000E+00 0.  1.
          2   -1    0    0  501    0  0.00000000000E+00 -0.00000000000E+00 -0.23160813887E+02  0.23160813887E+02  0.00000000000E+00 0. -1.
         23    2    1    2    0    0 -0.12990707762E+02  0.28322762698E+01  0.31406496395E+03  0.32888299482E+03  0.96697685735E+02 0.  0.
         11    1    3    3    0    0 -0.13931491898E+02  0.42063365923E+02  0.79116542202E+02  0.90679879076E+02  0.00000000000E+00 0. -1.
        -11    1    3    3    0    0  0.94078413622E+00 -0.39231089653E+02  0.23494842175E+03  0.23820311575E+03  0.00000000000E+00 0.  1.
         22    1    1    2    0    0  0.12990707762E+02 -0.28322762698E+01 -0.12946082684E+02  0.18557514216E+02  0.00000000000E+00 0. -1.
<mgrwt>
<rscale>  0 0.59298212E+02</rscale>
<asrwt>0</asrwt>
<pdfrwt beam="1">  1        2 0.35632024E-02 0.97607493E+02</pdfrwt>
<pdfrwt beam="2">  1       -2 0.49889181E-01 0.97607493E+02</pdfrwt>
<totfact> 0.86848052E+03</totfact>
</mgrwt>
</event>
<event>
 6    1  0.1683416E-002  0.8532861E+02  0.7546771E-02  0.1418994E+00
         -4   -1    0    0    0  501 -0.00000000000E+00  0.00000000000E+00  0.82759448350E+01  0.82759448350E+01  0.00000000000E+00 0.  1.
          4   -1    0    0  501    0  0.00000000000E+00 -0.00000000000E+00 -0.30398049068E+03  0.30398049068E+03  0.00000000000E+00 0. -1.
         23    2    1    2    0    0  0.61328940644E+01  0.13668484102E+02 -0.25052720038E+03  0.26465987692E+03  0.84003169413E+02 0.  0.
         13    1    3    3    0    0  0.19499474549E+02  0.46167057118E+02 -0.14186317401E+03  0.15045526514E+03  0.00000000000E+00 0. -1.
        -13    1    3    3    0    0 -0.13366580485E+02 -0.32498573017E+02 -0.10866402638E+03  0.11420461177E+03  0.00000000000E+00 0.  1.
         22    1    1    2    0    0 -0.61328940644E+01 -0.13668484102E+02 -0.45177345465E+02  0.47596558600E+02  0.00000000000E+00 0.  1.
<mgrwt>
<rscale>  0 0.55234257E+02</rscale>
<asrwt>0</asrwt>
<pdfrwt beam="1">  1        4 0.46766227E-01 0.85328614E+02</pdfrwt>
<pdfrwt beam="2">  1       -4 0.12732223E-02 0.85328614E+02</pdfrwt>
<totfact> 0.12868862E+04</totfact>
</mgrwt>
</event>
<event>
 6    1  0.1683416E-002  0.9253865E+02  0.7546771E-02  0.1409745E+00
         -2   -1    0    0    0  501 -0.00000000000E+00  0.00000000000E+00  0.60585854685E+03  0.60585854685E+03  0.00000000000E+00 0.  1.
          2   -1    0    0  501    0  0.00000000000E+00 -0.00000000000E+00 -0.54443593281E+01  0.54443593281E+01  0.00000000000E+00 0. -1.
         23    2    1    2    0    0  0.13459944340E+02  0.16174200376E+01  0.57592161624E+03  0.58330876041E+03  0.91540241266E+02 0.  0.
         11    1    3    3    0    0  0.23860740277E+01  0.27313310944E+02  0.53296755302E+02  0.59935418825E+02  0.00000000000E+00 0. -1.
        -11    1    3    3    0    0  0.11073870312E+02 -0.25695890906E+02  0.52262486094E+03  0.52337334159E+03  0.00000000000E+00 0.  1.
         22    1    1    2    0    0 -0.13459944340E+02 -0.16174200376E+01  0.24492571284E+02  0.27994145769E+02  0.00000000000E+00 0. -1.
<mgrwt>
<rscale>  0 0.57250788E+02</rscale>
<asrwt>0</asrwt>
<pdfrwt beam="1">  1        2 0.83759422E-03 0.92538651E+02</pdfrwt>
<pdfrwt beam="2">  1       -2 0.93208954E-01 0.92538651E+02</pdfrwt>
<totfact> 0.16460619E+04</totfact>
</mgrwt>
</event>
<event>
 6    1  0.1683416E-002  0.8928885E+02  0.7546771E-02  0.1407341E+00
          2   -1    0    0  501    0  0.00000000000E+00  0.00000000000E+00  0.56611923575E+03  0.56611923575E+03  0.00000000000E+00 0.  1.
         -2   -1    0    0    0  501 -0.00000000000E+00 -0.00000000000E+00 -0.48650026566E+01  0.48650026566E+01  0.00000000000E+00 0. -1.
         23    2    1    2    0    0 -0.83251394695E+01 -0.13275277462E+02  0.47625994505E+03  0.48455756463E+03  0.87903112852E+02 0.  0.
         11    1    3    3    0    0 -0.10521568384E+02 -0.37142628699E+02  0.94986848438E+02  0.10253184698E+03  0.00000000000E+00 0. -1.
        -11    1    3    3    0    0  0.21964289149E+01  0.23867351237E+02  0.38127309661E+03  0.38202571766E+03  0.00000000000E+00 0.  1.
         22    1    1    2    0    0  0.83251394695E+01  0.13275277462E+02  0.84994288050E+02  0.86426673776E+02  0.00000000000E+00 0.  1.
<mgrwt>
<rscale>  0 0.57791425E+02</rscale>
<asrwt>0</asrwt>
<pdfrwt beam="1">  1        2 0.87095215E-01 0.89288847E+02</pdfrwt>
<pdfrwt beam="2">  1       -2 0.74846239E-03 0.89288847E+02</pdfrwt>
<totfact> 0.15028812E+05</totfact>
</mgrwt>
</event>
<event>
 6    1  0.1683416E-002  0.9390673E+02  0.7546771E-02  0.1368169E+00
          2   -1    0    0  501    0  0.00000000000E+00  0.00000000000E+00  0.36317235034E+03  0.36317235034E+03  0.00000000000E+00 0. -1.
         -2   -1    0    0    0  501 -0.00000000000E+00 -0.00000000000E+00 -0.10477273918E+02  0.10477273918E+02  0.00000000000E+00 0.  1.
         23    2    1    2    0    0 -0.15576435628E+02  0.19980742006E+02  0.23124280471E+03  0.24958307074E+03  0.90424659643E+02 0.  0.
         11    1    3    3    0    0  0.84597276800E+01  0.45222009585E+02  0.19044779569E+03  0.19592590443E+03  0.00000000000E+00 0. -1.
        -11    1    3    3    0    0 -0.24036163308E+02 -0.25241267579E+02  0.40795009024E+02  0.53657166314E+02  0.00000000000E+00 0.  1.
         22    1    1    2    0    0  0.15576435628E+02 -0.19980742006E+02  0.12145227171E+03  0.12406655352E+03  0.00000000000E+00 0. -1.
<mgrwt>
<rscale>  0 0.67678730E+02</rscale>
<asrwt>0</asrwt>
<pdfrwt beam="1">  1        2 0.55872660E-01 0.93906733E+02</pdfrwt>
<pdfrwt beam="2">  1       -2 0.16118886E-02 0.93906733E+02</pdfrwt>
<totfact> 0.82000648E+04</totfact>
</mgrwt>
</event>
<event>
 6    1  0.1683416E-002  0.8591800E+02  0.7546771E-02  0.1420964E+00
          2   -1    0    0  501    0  0.00000000000E+00  0.00000000000E+00  0.33753904564E+02  0.33753904564E+02  0.00000000000E+00 0. -1.
         -2   -1    0    0    0  501 -0.00000000000E+00 -0.00000000000E+00 -0.78206386707E+02  0.78206386707E+02  0.00000000000E+00 0.  1.
         23    2    1    2    0    0 -0.53309607501E+01 -0.13201529345E+02 -0.46307487115E+02  0.97602695266E+02  0.84730179044E+02 0.  0.
         13    1    3    3    0    0  0.44298085799E+01 -0.48580726489E+02 -0.31247560287E+02  0.57932030986E+02  0.00000000000E+00 0. -1.
        -13    1    3    3    0    0 -0.97607693300E+01  0.35379197143E+02 -0.15059926828E+02  0.39670664281E+02  0.00000000000E+00 0.  1.
         22    1    1    2    0    0  0.53309607501E+01  0.13201529345E+02  0.18550049721E+01  0.14357596004E+02  0.00000000000E+00 0.  1.
<mgrwt>
<rscale>  0 0.54817561E+02</rscale>
<asrwt>0</asrwt>
<pdfrwt beam="1">  1        2 0.51929085E-02 0.85918000E+02</pdfrwt>
<pdfrwt beam="2">  1       -2 0.12031752E-01 0.85918000E+02</pdfrwt>
<totfact> 0.62216845E+04</totfact>
</mgrwt>
</event>
<event>
 6    1  0.1683416E-002  0.8709332E+02  0.7546771E-02  0.1429327E+00
          4   -1    0    0  501    0  0.00000000000E+00  0.00000000000E+00  0.92578763297E+01  0.92578763297E+01  0.00000000000E+00 0. -1.
         -4   -1    0    0    0  501 -0.00000000000E+00 -0.00000000000E+00 -0.26719741015E+03  0.26719741015E+03  0.00000000000E+00 0.  1.
         23    2    1    2    0    0 -0.50689281325E+00  0.12019540526E+02 -0.23353857788E+03  0.24924990198E+03  0.86258448778E+02 0.  0.
         13    1    3    3    0    0 -0.36689697070E+02  0.18083107000E+02 -0.65267240473E+02  0.77025614628E+02  0.00000000000E+00 0. -1.
        -13    1    3    3    0    0  0.36182804256E+02 -0.60635664741E+01 -0.16827133741E+03  0.17222428736E+03  0.00000000000E+00 0.  1.
         22    1    1    2    0    0  0.50689281325E+00 -0.12019540526E+02 -0.24400955935E+02  0.27205384492E+02  0.00000000000E+00 0. -1.
<mgrwt>
<rscale>  0 0.53095420E+02</rscale>
<asrwt>0</asrwt>
<pdfrwt beam="1">  1        4 0.14242885E-02 0.87093319E+02</pdfrwt>
<pdfrwt beam="2">  1       -4 0.41107300E-01 0.87093319E+02</pdfrwt>
<totfact> 0.14116185E+04</totfact>
</mgrwt>
</event>
<event>
 6    1  0.1683416E-002  0.9571099E+02  0.7546771E-02  0.1397164E+00
         -2   -1    0    0    0  501 -0.00000000000E+00  0.00000000000E+00  0.52759861781E+02  0.52759861781E+02  0.00000000000E+00 0. -1.
          2   -1    0    0  501    0  0.00000000000E+00 -0.00000000000E+00 -0.72010985525E+02  0.72010985525E+02  0.00000000000E+00 0.  1.
         23    2    1    2    0    0 -0.86611100974E+01  0.12172383068E+02  0.54909765562E+01  0.95868368781E+02  0.94537884319E+02 0.  0.
         11    1    3    3    0    0  0.10698450679E+02  0.70644032224E+01  0.47570750464E+02  0.49268031618E+02  0.00000000000E+00 0. -1.
        -11    1    3    3    0    0 -0.19359560776E+02  0.51079798457E+01 -0.42079773908E+02  0.46600337163E+02  0.00000000000E+00 0.  1.
         22    1    1    2    0    0  0.86611100974E+01 -0.12172383068E+02 -0.24742100300E+02  0.28902478526E+02  0.00000000000E+00 0.  1.
<mgrwt>
<rscale>  0 0.60159426E+02</rscale>
<asrwt>0</asrwt>
<pdfrwt beam="1">  1        2 0.11078613E-01 0.95710988E+02</pdfrwt>
<pdfrwt beam="2">  1       -2 0.81169018E-02 0.95710988E+02</pdfrwt>
<totfact> 0.45358750E+04</totfact>
</mgrwt>
</event>
<event>
 6    1  0.1683416E-002  0.9589856E+02  0.7546771E-02  0.1410211E+00
          2   -1    0    0  501    0  0.00000000000E+00  0.00000000000E+00  0.88059704254E+01  0.88059704254E+01  0.00000000000E+00 0. -1.
         -2   -1    0    0    0  501 -0.00000000000E+00 -0.00000000000E+00 -0.36085765688E+03  0.36085765688E+03  0.00000000000E+00 0.  1.
         23    2    1    2    0    0 -0.12002794003E+02 -0.14734613593E+01 -0.33687117499E+03  0.35025522498E+03  0.95133043364E+02 0.  0.
         11    1    3    3    0    0 -0.18287573803E+02  0.24208689081E+02 -0.31476063849E+02  0.43717714693E+02  0.00000000000E+00 0. -1.
        -11    1    3    3    0    0  0.62847797998E+01 -0.25682150440E+02 -0.30539511114E+03  0.30653751029E+03  0.00000000000E+00 0.  1.
         22    1    1    2    0    0  0.12002794003E+02  0.14734613593E+01 -0.15180511471E+02  0.19408402324E+02  0.00000000000E+00 0.  1.
<mgrwt>
<rscale>  0 0.57146766E+02</rscale>
<asrwt>0</asrwt>
<pdfrwt beam="1">  1        2 0.13547644E-02 0.95898561E+02</pdfrwt>
<pdfrwt beam="2">  1       -2 0.55516573E-01 0.95898561E+02</pdfrwt>
<totfact> 0.25741929E+04</totfact>
</mgrwt>
</event>
<event>
 6    1  0.1683416E-002  0.9206259E+02  0.7546771E-02  0.1385372E+00
         -1   -1    0    0    0  501 -0.00000000000E+00  0.00000000000E+00  0.25376061876E+03  0.25376061876E+03  0.00000000000E+00 0. -1.
          1   -1    0    0  501    0  0.00000000000E+00 -0.00000000000E+00 -0.12585494211E+02  0.12585494211E+02  0.00000000000E+00 0.  1.
         23    2    1    2    0    0 -0.18859369143E+02  0.74620534647E+01  0.20798565298E+03  0.22745010972E+03  0.89800682158E+02 0.  0.
         11    1    3    3    0    0 -0.29961103899E+02 -0.17251541284E+02  0.19381672800E+03  0.19687612216E+03  0.00000000000E+00 0. -1.
        -11    1    3    3    0    0  0.11101734756E+02  0.24713594749E+02  0.14168924986E+02  0.30573987559E+02  0.00000000000E+00 0.  1.
         22    1    1    2    0    0  0.18859369143E+02 -0.74620534647E+01  0.33189471561E+02  0.38896003250E+02  0.00000000000E+00 0.  1.
<mgrwt>
<rscale>  0 0.63072478E+02</rscale>
<asrwt>0</asrwt>
<pdfrwt beam="1">  1        1 0.19362301E-02 0.92062590E+02</pdfrwt>
<pdfrwt beam="2">  1       -1 0.39040092E-01 0.92062590E+02</pdfrwt>
<totfact> 0.35635950E+04</totfact>
</mgrwt>
</event>
<event>
 6    1  0.1683416E-002  0.9136671E+02  0.7546771E-02  0.1428638E+00
         -2   -1    0    0    0  501 -0.00000000000E+00  0.00000000000E+00  0.12345563411E+03  0.12345563411E+03  0.00000000000E+00 0.  1.
          2   -1    0    0  501    0  0.00000000000E+00 -0.00000000000E+00 -0.21135022773E+02  0.21135022773E+02  0.00000000000E+00 0. -1.
         23    2    1    2    0    0  0.10293506961E+02  0.22166969361E+01  0.94720002839E+02  0.13160453812E+03  0.90757949988E+02 0.  0.
         11    1    3    3    0    0 -0.13319237409E+01  0.13532988545E+02 -0.15256890420E+02  0.20437429024E+02  0.00000000000E+00 0. -1.
        -11    1    3    3    0    0  0.11625430702E+02 -0.11316291609E+02  0.10997689326E+03  0.11116710910E+03  0.00000000000E+00 0.  1.
         22    1    1    2    0    0 -0.10293506961E+02 -0.22166969361E+01  0.76006084963E+01  0.12986118757E+02  0.00000000000E+00 0. -1.
<mgrwt>
<rscale>  0 0.53234448E+02</rscale>
<asrwt>0</asrwt>
<pdfrwt beam="1">  1        2 0.32515420E-02 0.91366709E+02</pdfrwt>
<pdfrwt beam="2">  1       -2 0.18993174E-01 0.91366709E+02</pdfrwt>
<totfact> 0.55231339E+04</totfact>
</mgrwt>
</event>
<event>
 6    1  0.1683416E-002  0.9381730E+02  0.7546771E-02  0.1356523E+00
         -4   -1    0    0    0  501 -0.00000000000E+00  0.00000000000E+00  0.14438936634E+03  0.14438936634E+03  0.00000000000E+00 0.  1.
          4   -1    0    0  501    0  0.00000000000E+00 -0.00000000000E+00 -0.27155738412E+02  0.27155738412E+02  0.00000000000E+00 0. -1.
         23    2    1    2    0    0  0.29843873525E+02  0.79290046374E+01  0.94822351886E+02  0.13339027288E+03  0.88589844674E+02 0.  0.
         11    1    3    3    0    0 -0.28408510345E+02  0.68991625389E+01  0.56617410505E+02  0.63719487412E+02  0.00000000000E+00 0.  1.
        -11    1    3    3    0    0  0.58252383871E+02  0.10298420984E+01  0.38204941382E+02  0.69670785465E+02  0.00000000000E+00 0. -1.
         22    1    1    2    0    0 -0.29843873525E+02 -0.79290046374E+01  0.22411276040E+02  0.38154831873E+02  0.00000000000E+00 0.  1.
<mgrwt>
<rscale>  0 0.71060584E+02</rscale>
<asrwt>0</asrwt>
<pdfrwt beam="1">  1        4 0.41778060E-02 0.93817304E+02</pdfrwt>
<pdfrwt beam="2">  1       -4 0.22213748E-01 0.93817304E+02</pdfrwt>
<totfact> 0.87351736E+03</totfact>
</mgrwt>
</event>
<event>
 6    1  0.1683416E-002  0.9338975E+02  0.7546771E-02  0.1367676E+00
         -1   -1    0    0    0  501 -0.00000000000E+00  0.00000000000E+00  0.52178297002E+02  0.52178297002E+02  0.00000000000E+00 0.  1.
          1   -1    0    0  501    0  0.00000000000E+00 -0.00000000000E+00 -0.75754170655E+02  0.75754170655E+02  0.00000000000E+00 0. -1.
         23    2    1    2    0    0 -0.84447272418E+01 -0.24558555934E+02 -0.80475841580E+00  0.93393217855E+02  0.89706239568E+02 0.  0.
         11    1    3    3    0    0 -0.23450216545E+02  0.27483834906E+02  0.11377299196E+02  0.37877655341E+02  0.00000000000E+00 0.  1.
        -11    1    3    3    0    0  0.15005489303E+02 -0.52042390840E+02 -0.12182057612E+02  0.55515562514E+02  0.00000000000E+00 0. -1.
         22    1    1    2    0    0  0.84447272418E+01  0.24558555934E+02 -0.22771115237E+02  0.34539249802E+02  0.00000000000E+00 0.  1.
<mgrwt>
<rscale>  0 0.67817537E+02</rscale>
<asrwt>0</asrwt>
<pdfrwt beam="1">  1        1 0.11654488E-01 0.93389751E+02</pdfrwt>
<pdfrwt beam="2">  1       -1 0.80274303E-02 0.93389751E+02</pdfrwt>
<totfact> 0.38882105E+04</totfact>
</mgrwt>
</event>
<event>
 6    1  0.1683416E-002  0.7733539E+02  0.7546771E-02  0.1442987E+00
         -2   -1    0    0    0  501 -0.00000000000E+00  0.00000000000E+00  0.12110774965E+02  0.12110774965E+02  0.00000000000E+00 0.  1.
          2   -1    0    0  501    0  0.00000000000E+00 -0.00000000000E+00 -0.18565353111E+03  0.18565353111E+03  0.00000000000E+00 0. -1.
         23    2    1    2    0    0 -0.11878738142E+02  0.73975031954E+01 -0.12276115414E+03  0.14508984760E+03  0.76058763056E+02 0.  0.
         13    1    3    3    0    0 -0.22542563127E+02 -0.65811825867E+01 -0.12516096721E+03  0.12734499138E+03  0.00000000000E+00 0. -1.
        -13    1    3    3    0    0  0.10663824985E+02  0.13978685782E+02  0.23998130699E+01  0.17744856220E+02  0.00000000000E+00 0.  1.
         22    1    1    2    0    0  0.11878738142E+02 -0.73975031954E+01 -0.50781602000E+02  0.52674458469E+02  0.00000000000E+00 0.  1.
<mgrwt>
<rscale>  0 0.50439169E+02</rscale>
<asrwt>0</asrwt>
<pdfrwt beam="1">  1        2 0.28562083E-01 0.77335392E+02</pdfrwt>
<pdfrwt beam="2">  1       -2 0.18631961E-02 0.77335392E+02</pdfrwt>
<totfact> 0.13093044E+05</totfact>
</mgrwt>
</event>
<event>
 6    1  0.1683416E-002  0.9920972E+02  0.7546771E-02  0.1328425E+00
          2   -1    0    0  501    0  0.00000000000E+00  0.00000000000E+00  0.66753847907E+02  0.66753847907E+02  0.00000000000E+00 0. -1.
         -2   -1    0    0    0  501 -0.00000000000E+00 -0.00000000000E+00 -0.19352371467E+03  0.19352371467E+03  0.00000000000E+00 0.  1.
         23    2    1    2    0    0  0.15776994861E+02  0.39368544902E+02 -0.17181929398E+03  0.19840473505E+03  0.89687084962E+02 0.  0.
         11    1    3    3    0    0  0.76003229168E+01  0.64888486361E+02 -0.15080995290E+03  0.16435304215E+03  0.00000000000E+00 0.  1.
        -11    1    3    3    0    0  0.81766719439E+01 -0.25519941459E+02 -0.21009341080E+02  0.34051692891E+02  0.00000000000E+00 0. -1.
         22    1    1    2    0    0 -0.15776994861E+02 -0.39368544902E+02  0.45049427217E+02  0.61872827534E+02  0.00000000000E+00 0. -1.
<mgrwt>
<rscale>  0 0.80221063E+02</rscale>
<asrwt>0</asrwt>
<pdfrwt beam="1">  1        2 0.10269823E-01 0.99209723E+02</pdfrwt>
<pdfrwt beam="2">  1       -2 0.29772879E-01 0.99209723E+02</pdfrwt>
<totfact> 0.59416769E+03</totfact>
</mgrwt>
</event>
<event>
 6    1  0.1683416E-002  0.8538599E+02  0.7546771E-02  0.1382199E+00
          2   -1    0    0  501    0  0.00000000000E+00  0.00000000000E+00  0.61784962538E+02  0.61784962538E+02  0.00000000000E+00 0. -1.
         -2   -1    0    0    0  501 -0.00000000000E+00 -0.00000000000E+00 -0.52219410445E+02  0.52219410445E+02  0.00000000000E+00 0.  1.
         23    2    1    2    0    0  0.61876371644E+00 -0.26756945992E+02  0.15001587305E+02  0.86693797994E+02  0.81082981948E+02 0.  0.
         13    1    3    3    0    0 -0.11050593408E+02 -0.43278300288E+02 -0.17860741286E+02  0.48105435969E+02  0.00000000000E+00 0.  1.
        -13    1    3    3    0    0  0.11669357124E+02  0.16521354295E+02  0.32862328591E+02  0.38588362026E+02  0.00000000000E+00 0. -1.
         22    1    1    2    0    0 -0.61876371644E+00  0.26756945992E+02 -0.54360352129E+01  0.27310574988E+02  0.00000000000E+00 0. -1.
<mgrwt>
<rscale>  0 0.63889298E+02</rscale>
<asrwt>0</asrwt>
<pdfrwt beam="1">  1        2 0.95053788E-02 0.85385988E+02</pdfrwt>
<pdfrwt beam="2">  1       -2 0.80337555E-02 0.85385988E+02</pdfrwt>
<totfact> 0.54567585E+04</totfact>
</mgrwt>
</event>
<event>
 6    1  0.3889610E-002  0.8325770E+02  0.7546771E-02  0.1448695E+00
          2   -1    0    0  501    0  0.00000000000E+00  0.00000000000E+00  0.23867201537E+03  0.23867201537E+03  0.00000000000E+00 0. -1.
         -2   -1    0    0    0  501 -0.00000000000E+00 -0.00000000000E+00 -0.92392964245E+01  0.92392964245E+01  0.00000000000E+00 0.  1.
         23    2    1    2    0    0 -0.59633412949E+01 -0.84045143011E+01  0.19670199885E+03  0.21359663071E+03  0.82617473930E+02 0.  0.
         11    1    3    3    0    0 -0.13457564925E+02 -0.44084723763E+02  0.12341975911E+03  0.13174598993E+03  0.00000000000E+00 0. -1.
        -11    1    3    3    0    0  0.74942236305E+01  0.35680209462E+02  0.73282239736E+02  0.81850640778E+02  0.00000000000E+00 0.  1.
         22    1    1    2    0    0  0.59633412949E+01  0.84045143011E+01  0.32730720094E+02  0.34314681084E+02  0.00000000000E+00 0.  1.
<mgrwt>
<rscale>  0 0.49383570E+02</rscale>
<asrwt>0</asrwt>
<pdfrwt beam="1">  1        2 0.36718767E-01 0.83257698E+02</pdfrwt>
<pdfrwt beam="2">  1       -2 0.14214304E-02 0.83257698E+02</pdfrwt>
<totfact> 0.14938191E+05</totfact>
</mgrwt>
</event>
<event>
 6    1  0.1683416E-002  0.9219742E+02  0.7546771E-02  0.1412579E+00
         -2   -1    0    0    0  501 -0.00000000000E+00  0.00000000000E+00  0.69409800101E+01  0.69409800101E+01  0.00000000000E+00 0.  1.
          2   -1    0    0  501    0  0.00000000000E+00 -0.00000000000E+00 -0.40793518634E+03  0.40793518634E+03  0.00000000000E+00 0. -1.
         23    2    1    2    0    0  0.52990863234E+01  0.11997688523E+02 -0.32793417726E+03  0.34064818851E+03  0.91259733057E+02 0.  0.
         11    1    3    3    0    0  0.44098872169E+02  0.21764566139E+02 -0.13678644377E+03  0.14535796526E+03  0.00000000000E+00 0.  1.
        -11    1    3    3    0    0 -0.38799785845E+02 -0.97668776158E+01 -0.19114773349E+03  0.19529022326E+03  0.00000000000E+00 0. -1.
         22    1    1    2    0    0 -0.52990863234E+01 -0.11997688523E+02 -0.73060029071E+02  0.74227977836E+02  0.00000000000E+00 0. -1.
<mgrwt>
<rscale>  0 0.56622360E+02</rscale>
<asrwt>0</asrwt>
<pdfrwt beam="1">  1        2 0.62759256E-01 0.92197417E+02</pdfrwt>
<pdfrwt beam="2">  1       -2 0.10678431E-02 0.92197417E+02</pdfrwt>
<totfact> 0.13006207E+05</totfact>
</mgrwt>
</event>
<event>
 6    1  0.1683416E-002  0.9485172E+02  0.7546771E-02  0.1396782E+00
          2   -1    0    0  501    0  0.00000000000E+00  0.00000000000E+00  0.48222139705E+02  0.48222139705E+02  0.00000000000E+00 0. -1.
         -2   -1    0    0    0  501 -0.00000000000E+00 -0.00000000000E+00 -0.79043248147E+02  0.79043248147E+02  0.00000000000E+00 0.  1.
         23    2    1    2    0    0  0.15442497325E+02  0.59288337108E-01 -0.46170536235E+02  0.10549202862E+03  0.93586192610E+02 0.  0.
         13    1    3    3    0    0  0.49538954758E+02 -0.17260466682E+02 -0.41648695917E+02  0.66982427697E+02  0.00000000000E+00 0. -1.
        -13    1    3    3    0    0 -0.34096457432E+02  0.17319755019E+02 -0.45218403175E+01  0.38509600922E+02  0.00000000000E+00 0.  1.
         22    1    1    2    0    0 -0.15442497325E+02 -0.59288337108E-01  0.15349427793E+02  0.21773359234E+02  0.00000000000E+00 0. -1.
<mgrwt>
<rscale>  0 0.60250979E+02</rscale>
<asrwt>0</asrwt>
<pdfrwt beam="1">  1        2 0.74187908E-02 0.94851725E+02</pdfrwt>
<pdfrwt beam="2">  1       -2 0.12160500E-01 0.94851725E+02</pdfrwt>
<totfact> 0.39475864E+04</totfact>
</mgrwt>
</event>
<event>
 6    1  0.1683416E-002  0.9021693E+02  0.7546771E-02  0.1430323E+00
         -2   -1    0    0    0  501 -0.00000000000E+00  0.00000000000E+00  0.38673909780E+02  0.38673909780E+02  0.00000000000E+00 0. -1.
          2   -1    0    0  501    0  0.00000000000E+00 -0.00000000000E+00 -0.69640919993E+02  0.69640919993E+02  0.00000000000E+00 0.  1.
         23    2    1    2    0    0 -0.66257836983E+01  0.83520950483E+01 -0.18831229775E+02  0.92161326496E+02  0.89584799968E+02 0.  0.
         11    1    3    3    0    0 -0.22893181447E+02 -0.36167344662E+02 -0.97646478434E+01  0.43903563912E+02  0.00000000000E+00 0. -1.
        -11    1    3    3    0    0  0.16267397749E+02  0.44519439710E+02 -0.90665819317E+01  0.48257762584E+02  0.00000000000E+00 0.  1.
         22    1    1    2    0    0  0.66257836983E+01 -0.83520950483E+01 -0.12135780438E+02  0.16153503278E+02  0.00000000000E+00 0.  1.
<mgrwt>
<rscale>  0 0.52895202E+02</rscale>
<asrwt>0</asrwt>
<pdfrwt beam="1">  1        2 0.10713988E-01 0.90216932E+02</pdfrwt>
<pdfrwt beam="2">  1       -2 0.59498324E-02 0.90216932E+02</pdfrwt>
<totfact> 0.74965518E+04</totfact>
</mgrwt>
</event>
<event>
 6    1  0.1771637E-002  0.1592878E+03  0.7546771E-02  0.1198355E+00
         -2   -1    0    0    0  501 -0.00000000000E+00  0.00000000000E+00  0.78196631209E+02  0.78196631209E+02  0.00000000000E+00 0.  1.
          2   -1    0    0  501    0  0.00000000000E+00 -0.00000000000E+00 -0.40627629837E+03  0.40627629837E+03  0.00000000000E+00 0. -1.
         23    2    1    2    0    0 -0.40119266883E+02 -0.12487676393E+03 -0.31458993191E+03  0.35261795356E+03  0.90381603061E+02 0.  0.
         13    1    3    3    0    0 -0.33419679457E+02 -0.13480114911E+03 -0.24177448027E+03  0.27882453996E+03  0.00000000000E+00 0. -1.
        -13    1    3    3    0    0 -0.66995874255E+01  0.99243851841E+01 -0.72815451641E+02  0.73793413599E+02  0.00000000000E+00 0.  1.
         22    1    1    2    0    0  0.40119266883E+02  0.12487676393E+03 -0.13489735255E+02  0.13185497602E+03  0.00000000000E+00 0.  1.
<mgrwt>
<rscale>  0 0.15173640E+03</rscale>
<asrwt>0</asrwt>
<pdfrwt beam="1">  1        2 0.62504046E-01 0.15928778E+03</pdfrwt>
<pdfrwt beam="2">  1       -2 0.12030251E-01 0.15928778E+03</pdfrwt>
<totfact> 0.37647529E+03</totfact>
</mgrwt>
</event>
<event>
 6    1  0.1683416E-002  0.9267159E+02  0.7546771E-02  0.1390267E+00
          2   -1    0    0  501    0  0.00000000000E+00  0.00000000000E+00  0.45869677395E+02  0.45869677395E+02  0.00000000000E+00 0. -1.
         -2   -1    0    0    0  501 -0.00000000000E+00 -0.00000000000E+00 -0.20373765277E+03  0.20373765277E+03  0.00000000000E+00 0.  1.
         23    2    1    2    0    0  0.14305835392E+02  0.11533184921E+02 -0.19067624133E+03  0.21200342618E+03  0.90831450633E+02 0.  0.
         13    1    3    3    0    0 -0.15818886955E+02  0.60753133406E+01 -0.17810249234E+03  0.17890680366E+03  0.00000000000E+00 0.  1.
        -13    1    3    3    0    0  0.30124722347E+02  0.54578715808E+01 -0.12573748983E+02  0.33096622519E+02  0.00000000000E+00 0. -1.
         22    1    1    2    0    0 -0.14305835392E+02 -0.11533184921E+02  0.32808265949E+02  0.37603903990E+02  0.00000000000E+00 0. -1.
<mgrwt>
<rscale>  0 0.61840320E+02</rscale>
<asrwt>0</asrwt>
<pdfrwt beam="1">  1        2 0.70568735E-02 0.92671591E+02</pdfrwt>
<pdfrwt beam="2">  1       -2 0.31344254E-01 0.92671591E+02</pdfrwt>
<totfact> 0.85587061E+03</totfact>
</mgrwt>
</event>
<event>
 6    1  0.1683416E-002  0.9778632E+02  0.7546771E-02  0.1360568E+00
          2   -1    0    0  501    0  0.00000000000E+00  0.00000000000E+00  0.24411256816E+03  0.24411256816E+03  0.00000000000E+00 0.  1.
         -2   -1    0    0    0  501 -0.00000000000E+00 -0.00000000000E+00 -0.15648271153E+02  0.15648271153E+02  0.00000000000E+00 0. -1.
         23    2    1    2    0    0  0.13903847488E+02 -0.21344612030E+02  0.17293214230E+03  0.19866477034E+03  0.94410040226E+02 0.  0.
         11    1    3    3    0    0  0.38329961739E+02 -0.45638492053E+02  0.81571083478E+02  0.10102425245E+03  0.00000000000E+00 0.  1.
        -11    1    3    3    0    0 -0.24426114251E+02  0.24293880023E+02  0.91361058819E+02  0.97640517883E+02  0.00000000000E+00 0. -1.
         22    1    1    2    0    0 -0.13903847488E+02  0.21344612030E+02  0.55532154707E+02  0.61096068974E+02  0.00000000000E+00 0. -1.
<mgrwt>
<rscale>  0 0.69860486E+02</rscale>
<asrwt>0</asrwt>
<pdfrwt beam="1">  1        2 0.37555777E-01 0.97786324E+02</pdfrwt>
<pdfrwt beam="2">  1       -2 0.24074265E-02 0.97786324E+02</pdfrwt>
<totfact> 0.70250344E+04</totfact>
</mgrwt>
</event>
<event>
 6    1  0.1683416E-002  0.9286870E+02  0.7546771E-02  0.1418120E+00
          2   -1    0    0  501    0  0.00000000000E+00  0.00000000000E+00  0.27442754966E+02  0.27442754966E+02  0.00000000000E+00 0.  1.
         -2   -1    0    0    0  501 -0.00000000000E+00 -0.00000000000E+00 -0.10320495633E+03  0.10320495633E+03  0.00000000000E+00 0. -1.
         23    2    1    2    0    0 -0.99610821333E+01  0.62851709329E+01 -0.73984125204E+02  0.11873603275E+03  0.92118772034E+02 0.  0.
         11    1    3    3    0    0 -0.32540168076E+02 -0.14733767126E+02 -0.79722036008E+02  0.87358740017E+02  0.00000000000E+00 0. -1.
        -11    1    3    3    0    0  0.22579085942E+02  0.21018938059E+02  0.57379108038E+01  0.31377292737E+02  0.00000000000E+00 0.  1.
         22    1    1    2    0    0  0.99610821333E+01 -0.62851709329E+01 -0.17780761621E+01  0.11911678545E+02  0.00000000000E+00 0.  1.
<mgrwt>
<rscale>  0 0.55420693E+02</rscale>
<asrwt>0</asrwt>
<pdfrwt beam="1">  1        2 0.42219623E-02 0.92868696E+02</pdfrwt>
<pdfrwt beam="2">  1       -2 0.15877686E-01 0.92868696E+02</pdfrwt>
<totfact> 0.52752559E+04</totfact>
</mgrwt>
</event>
<event>
 6    1  0.1683416E-002  0.8839591E+02  0.7546771E-02  0.1434058E+00
          2   -1    0    0  501    0  0.00000000000E+00  0.00000000000E+00  0.17564994380E+03  0.17564994380E+03  0.00000000000E+00 0. -1.
         -2   -1    0    0    0  501 -0.00000000000E+00 -0.00000000000E+00 -0.15439787577E+02  0.15439787577E+02  0.00000000000E+00 0.  1.
         23    2    1    2    0    0  0.92834694447E+01  0.53436993644E+01  0.11738813839E+03  0.14694833200E+03  0.87744511593E+02 0.  0.
         13    1    3    3    0    0 -0.60084789017E+01  0.23893407502E+01 -0.13588714737E+02  0.15048718754E+02  0.00000000000E+00 0.  1.
        -13    1    3    3    0    0  0.15291948346E+02  0.29543586143E+01  0.13097685313E+03  0.13189961325E+03  0.00000000000E+00 0. -1.
         22    1    1    2    0    0 -0.92834694447E+01 -0.53436993644E+01  0.42822017832E+02  0.44141399378E+02  0.00000000000E+00 0.  1.
<mgrwt>
<rscale>  0 0.52153987E+02</rscale>
<asrwt>0</asrwt>
<pdfrwt beam="1">  1        2 0.27023067E-01 0.88395912E+02</pdfrwt>
<pdfrwt beam="2">  1       -2 0.23753521E-02 0.88395912E+02</pdfrwt>
<totfact> 0.10022189E+05</totfact>
</mgrwt>
</event>
<event>
 6    1  0.1683416E-002  0.9271561E+02  0.7546771E-02  0.1379313E+00
         -2   -1    0    0    0  501 -0.00000000000E+00  0.00000000000E+00  0.71715782310E+01  0.71715782310E+01  0.00000000000E+00 0.  1.
          2   -1    0    0  501    0  0.00000000000E+00 -0.00000000000E+00 -0.45868986997E+03  0.45868986997E+03  0.00000000000E+00 0. -1.
         23    2    1    2    0    0  0.19597961882E+02  0.97994730643E+01 -0.37193128922E+03  0.38331327589E+03  0.90089254569E+02 0.  0.
         13    1    3    3    0    0 -0.22294960844E+02  0.27330832078E+02 -0.26211339845E+03  0.26447584636E+03  0.00000000000E+00 0. -1.
        -13    1    3    3    0    0  0.41892922726E+02 -0.17531359014E+02 -0.10981789077E+03  0.11883742952E+03  0.00000000000E+00 0.  1.
         22    1    1    2    0    0 -0.19597961882E+02 -0.97994730643E+01 -0.79587002518E+02  0.82548172312E+02  0.00000000000E+00 0.  1.
<mgrwt>
<rscale>  0 0.64644592E+02</rscale>
<asrwt>0</asrwt>
<pdfrwt beam="1">  1        2 0.70567669E-01 0.92715606E+02</pdfrwt>
<pdfrwt beam="2">  1       -2 0.11033198E-02 0.92715606E+02</pdfrwt>
<totfact> 0.10973119E+05</totfact>
</mgrwt>
</event>
<event>
 6    1  0.1683416E-002  0.8942887E+02  0.7546771E-02  0.1429059E+00
          2   -1    0    0  501    0  0.00000000000E+00  0.00000000000E+00  0.53921901407E+02  0.53921901407E+02  0.00000000000E+00 0. -1.
         -2   -1    0    0    0  501 -0.00000000000E+00 -0.00000000000E+00 -0.60392303654E+02  0.60392303654E+02  0.00000000000E+00 0.  1.
         23    2    1    2    0    0 -0.99414575795E+01 -0.50648862119E+01 -0.24846336122E+02  0.92816284303E+02  0.88730133337E+02 0.  0.
         11    1    3    3    0    0 -0.14831806182E+01  0.39926880951E+02 -0.24820611193E+02  0.47036351763E+02  0.00000000000E+00 0.  1.
        -11    1    3    3    0    0 -0.84582769613E+01 -0.44991767163E+02 -0.25724928886E-01  0.45779932540E+02  0.00000000000E+00 0. -1.
         22    1    1    2    0    0  0.99414575795E+01  0.50648862119E+01  0.18375933874E+02  0.21497920758E+02  0.00000000000E+00 0. -1.
<mgrwt>
<rscale>  0 0.53149381E+02</rscale>
<asrwt>0</asrwt>
<pdfrwt beam="1">  1        2 0.82956772E-02 0.89428867E+02</pdfrwt>
<pdfrwt beam="2">  1       -2 0.92911236E-02 0.89428867E+02</pdfrwt>
<totfact> 0.51921383E+04</totfact>
</mgrwt>
</event>
<event>
 6    1  0.1683416E-002  0.9351292E+02  0.7546771E-02  0.1381849E+00
         -2   -1    0    0    0  501 -0.00000000000E+00  0.00000000000E+00  0.17574759467E+02  0.17574759467E+02  0.00000000000E+00 0.  1.
          2   -1    0    0  501    0  0.00000000000E+00 -0.00000000000E+00 -0.18976348735E+03  0.18976348735E+03  0.00000000000E+00 0. -1.
         23    2    1    2    0    0 -0.16630587530E+02  0.11971612046E+02 -0.12693695628E+03  0.15766311451E+03  0.91240182326E+02 0.  0.
         11    1    3    3    0    0 -0.51658091185E+02  0.13403566903E+02 -0.10037166829E+03  0.11367799165E+03  0.00000000000E+00 0. -1.
        -11    1    3    3    0    0  0.35027503655E+02 -0.14319548579E+01 -0.26565287993E+02  0.43985122862E+02  0.00000000000E+00 0.  1.
         22    1    1    2    0    0  0.16630587530E+02 -0.11971612046E+02 -0.45251771603E+02  0.49675132308E+02  0.00000000000E+00 0.  1.
<mgrwt>
<rscale>  0 0.63980324E+02</rscale>
<asrwt>0</asrwt>
<pdfrwt beam="1">  1        2 0.29194381E-01 0.93512923E+02</pdfrwt>
<pdfrwt beam="2">  1       -2 0.27038093E-02 0.93512923E+02</pdfrwt>
<totfact> 0.77123661E+04</totfact>
</mgrwt>
</event>
<event>
 6    1  0.1683416E-002  0.9662145E+02  0.7546771E-02  0.1358408E+00
          2   -1    0    0  501    0  0.00000000000E+00  0.00000000000E+00  0.38409230110E+03  0.38409230110E+03  0.00000000000E+00 0.  1.
         -2   -1    0    0    0  501 -0.00000000000E+00 -0.00000000000E+00 -0.10011996667E+02  0.10011996667E+02  0.00000000000E+00 0. -1.
         23    2    1    2    0    0  0.22430870366E+02  0.15706469428E+02  0.29438303447E+03  0.30983394731E+03  0.92659952469E+02 0.  0.
         13    1    3    3    0    0 -0.98952918442E+01 -0.18860527582E+02  0.22405053694E+03  0.22506061273E+03  0.00000000000E+00 0.  1.
        -13    1    3    3    0    0  0.32326162210E+02  0.34566997010E+02  0.70332497536E+02  0.84773334576E+02  0.00000000000E+00 0. -1.
         22    1    1    2    0    0 -0.22430870366E+02 -0.15706469428E+02  0.79697269958E+02  0.84270350457E+02  0.00000000000E+00 0. -1.
<mgrwt>
<rscale>  0 0.70497874E+02</rscale>
<asrwt>0</asrwt>
<pdfrwt beam="1">  1        2 0.59091112E-01 0.96621446E+02</pdfrwt>
<pdfrwt beam="2">  1       -2 0.15403075E-02 0.96621446E+02</pdfrwt>
<totfact> 0.82830615E+04</totfact>
</mgrwt>
</event>
<event>
 6    1  0.1683416E-002  0.9085147E+02  0.7546771E-02  0.1427393E+00
          2   -1    0    0  501    0  0.00000000000E+00  0.00000000000E+00  0.14495675524E+02  0.14495675524E+02  0.00000000000E+00 0.  1.
         -2   -1    0    0    0  501 -0.00000000000E+00 -0.00000000000E+00 -0.19794020858E+03  0.19794020858E+03  0.00000000000E+00 0. -1.
         23    2    1    2    0    0 -0.26487710290E+00  0.10911006230E+02 -0.17883337081E+03  0.20058754945E+03  0.90193515628E+02 0.  0.
         11    1    3    3    0    0 -0.29744400232E+02 -0.15545925707E+02 -0.14393586388E+03  0.14779694875E+03  0.00000000000E+00 0. -1.
        -11    1    3    3    0    0  0.29479523129E+02  0.26456931937E+02 -0.34897506936E+02  0.52790600696E+02  0.00000000000E+00 0.  1.
         22    1    1    2    0    0  0.26487710290E+00 -0.10911006230E+02 -0.46111622414E+01  0.11848334653E+02  0.00000000000E+00 0. -1.
<mgrwt>
<rscale>  0 0.53486868E+02</rscale>
<asrwt>0</asrwt>
<pdfrwt beam="1">  1        2 0.22301038E-02 0.90851475E+02</pdfrwt>
<pdfrwt beam="2">  1       -2 0.30452341E-01 0.90851475E+02</pdfrwt>
<totfact> 0.40474218E+04</totfact>
</mgrwt>
</event>
<event>
 6    1  0.1683416E-002  0.9265108E+02  0.7546771E-02  0.1399245E+00
          2   -1    0    0  501    0  0.00000000000E+00  0.00000000000E+00  0.56209104273E+01  0.56209104273E+01  0.00000000000E+00 0. -1.
         -2   -1    0    0    0  501 -0.00000000000E+00 -0.00000000000E+00 -0.52442181762E+03  0.52442181762E+03  0.00000000000E+00 0.  1.
         23    2    1    2    0    0  0.66561833073E+01 -0.14476622307E+02 -0.44360601354E+03  0.45317824079E+03  0.91270725363E+02 0.  0.
         13    1    3    3    0    0  0.41541832210E+02 -0.75266703726E+01 -0.35793212584E+03  0.36041334784E+03  0.00000000000E+00 0.  1.
        -13    1    3    3    0    0 -0.34885648903E+02 -0.69499519345E+01 -0.85673887696E+02  0.92764892952E+02  0.00000000000E+00 0. -1.
         22    1    1    2    0    0 -0.66561833073E+01  0.14476622307E+02 -0.75194893647E+02  0.76864487251E+02  0.00000000000E+00 0. -1.
<mgrwt>
<rscale>  0 0.59664481E+02</rscale>
<asrwt>0</asrwt>
<pdfrwt beam="1">  1        2 0.86475508E-03 0.92651080E+02</pdfrwt>
<pdfrwt beam="2">  1       -2 0.80680314E-01 0.92651080E+02</pdfrwt>
<totfact> 0.21681097E+04</totfact>
</mgrwt>
</event>
<event>
 6    1  0.1683416E-002  0.9190812E+02  0.7546771E-02  0.1427545E+00
          2   -1    0    0  501    0  0.00000000000E+00  0.00000000000E+00  0.18547537975E+02  0.18547537975E+02  0.00000000000E+00 0. -1.
         -2   -1    0    0    0  501 -0.00000000000E+00 -0.00000000000E+00 -0.16391015927E+03  0.16391015927E+03  0.00000000000E+00 0.  1.
         23    2    1    2    0    0 -0.79437247300E+01 -0.68935906030E+01 -0.14531408414E+03  0.17193977398E+03  0.91304317941E+02 0.  0.
         11    1    3    3    0    0 -0.28972957662E+02 -0.22563301249E+02 -0.14057162817E+03  0.14528908247E+03  0.00000000000E+00 0.  1.
        -11    1    3    3    0    0  0.21029232932E+02  0.15669710646E+02 -0.47424559667E+01  0.26650691511E+02  0.00000000000E+00 0. -1.
         22    1    1    2    0    0  0.79437247300E+01  0.68935906030E+01 -0.48537161899E-01  0.10517923267E+02  0.00000000000E+00 0. -1.
<mgrwt>
<rscale>  0 0.53456037E+02</rscale>
<asrwt>0</asrwt>
<pdfrwt beam="1">  1        2 0.28534675E-02 0.91908122E+02</pdfrwt>
<pdfrwt beam="2">  1       -2 0.25216947E-01 0.91908122E+02</pdfrwt>
<totfact> 0.40629356E+04</totfact>
</mgrwt>
</event>
<event>
 6    1  0.1683416E-002  0.9368819E+02  0.7546771E-02  0.1407395E+00
         -4   -1    0    0    0  501 -0.00000000000E+00  0.00000000000E+00  0.54917888438E+02  0.54917888438E+02  0.00000000000E+00 0.  1.
          4   -1    0    0  501    0  0.00000000000E+00 -0.00000000000E+00 -0.73615583455E+02  0.73615583455E+02  0.00000000000E+00 0. -1.
         23    2    1    2    0    0  0.13118054874E+02 -0.34057842985E+01  0.12500650880E+02  0.94518482299E+02  0.92702721067E+02 0.  0.
         11    1    3    3    0    0  0.46471548714E+02 -0.23193303697E+02  0.18786257600E+02  0.55230948307E+02  0.00000000000E+00 0.  1.
        -11    1    3    3    0    0 -0.33353493840E+02  0.19787519399E+02 -0.62856067199E+01  0.39287533992E+02  0.00000000000E+00 0. -1.
         22    1    1    2    0    0 -0.13118054874E+02  0.34057842985E+01 -0.31198345897E+02  0.34014989594E+02  0.00000000000E+00 0. -1.
<mgrwt>
<rscale>  0 0.57779288E+02</rscale>
<asrwt>0</asrwt>
<pdfrwt beam="1">  1        4 0.11325474E-01 0.93688191E+02</pdfrwt>
<pdfrwt beam="2">  1       -4 0.84489060E-02 0.93688191E+02</pdfrwt>
<totfact> 0.90781619E+03</totfact>
</mgrwt>
</event>
<event>
 6    1  0.1683416E-002  0.9807355E+02  0.7546771E-02  0.1379401E+00
          2   -1    0    0  501    0  0.00000000000E+00  0.00000000000E+00  0.43861278156E+03  0.43861278156E+03  0.00000000000E+00 0. -1.
         -2   -1    0    0    0  501 -0.00000000000E+00 -0.00000000000E+00 -0.77443061011E+01  0.77443061011E+01  0.00000000000E+00 0.  1.
         23    2    1    2    0    0 -0.17431122395E+02 -0.61562669763E+01  0.36126907848E+03  0.37434445189E+03  0.96315512475E+02 0.  0.
         13    1    3    3    0    0 -0.57011120578E+02 -0.10894072573E+02  0.22483407108E+03  0.23220531477E+03  0.00000000000E+00 0.  1.
        -13    1    3    3    0    0  0.39579998183E+02  0.47378055971E+01  0.13643500740E+03  0.14213913712E+03  0.00000000000E+00 0. -1.
         22    1    1    2    0    0  0.17431122395E+02  0.61562669763E+01  0.69599396982E+02  0.72012635775E+02  0.00000000000E+00 0. -1.
<mgrwt>
<rscale>  0 0.64621418E+02</rscale>
<asrwt>0</asrwt>
<pdfrwt beam="1">  1        2 0.67478870E-01 0.98073552E+02</pdfrwt>
<pdfrwt beam="2">  1       -2 0.11914321E-02 0.98073552E+02</pdfrwt>
<totfact> 0.10403641E+05</totfact>
</mgrwt>
</event>
<event>
 6    1  0.1683416E-002  0.9269472E+02  0.7546771E-02  0.1404688E+00
          2   -1    0    0  501    0  0.00000000000E+00  0.00000000000E+00  0.13900294890E+03  0.13900294890E+03  0.00000000000E+00 0.  1.
         -2   -1    0    0    0  501 -0.00000000000E+00 -0.00000000000E+00 -0.21836803477E+02  0.21836803477E+02  0.00000000000E+00 0. -1.
         23    2    1    2    0    0 -0.12584641062E+02  0.74030595811E+01  0.86096956142E+02  0.12651085778E+03  0.91537603185E+02 0.  0.
         13    1    3    3    0    0  0.20394228623E+02  0.31153793299E+02  0.74351658184E+01  0.37970581887E+02  0.00000000000E+00 0. -1.
        -13    1    3    3    0    0 -0.32978869685E+02 -0.23750733718E+02  0.78661790324E+02  0.88540275891E+02  0.00000000000E+00 0.  1.
         22    1    1    2    0    0  0.12584641062E+02 -0.74030595811E+01  0.31069189285E+02  0.34328894602E+02  0.00000000000E+00 0.  1.
<mgrwt>
<rscale>  0 0.58396144E+02</rscale>
<asrwt>0</asrwt>
<pdfrwt beam="1">  1        2 0.21385068E-01 0.92694721E+02</pdfrwt>
<pdfrwt beam="2">  1       -2 0.33595083E-02 0.92694721E+02</pdfrwt>
<totfact> 0.78850010E+04</totfact>
</mgrwt>
</event>
<event>
 6    1  0.1683416E-002  0.9311016E+02  0.7546771E-02  0.1390667E+00
         -2   -1    0    0    0  501 -0.00000000000E+00  0.00000000000E+00  0.52731074483E+02  0.52731074483E+02  0.00000000000E+00 0.  1.
          2   -1    0    0  501    0  0.00000000000E+00 -0.00000000000E+00 -0.58531828931E+02  0.58531828931E+02  0.00000000000E+00 0. -1.
         23    2    1    2    0    0 -0.13722638009E+02  0.11650692206E+02 -0.49020637388E+01  0.93239111699E+02  0.91353447109E+02 0.  0.
         11    1    3    3    0    0  0.17768627061E+02 -0.18984273717E+02  0.28104252048E+02  0.38288062622E+02  0.00000000000E+00 0.  1.
        -11    1    3    3    0    0 -0.31491265070E+02  0.30634965923E+02 -0.33006315786E+02  0.54951049077E+02  0.00000000000E+00 0. -1.
         22    1    1    2    0    0  0.13722638009E+02 -0.11650692206E+02 -0.89869070876E+00  0.18023791715E+02  0.00000000000E+00 0.  1.
<mgrwt>
<rscale>  0 0.61741078E+02</rscale>
<asrwt>0</asrwt>
<pdfrwt beam="1">  1        2 0.90048968E-02 0.93110159E+02</pdfrwt>
<pdfrwt beam="2">  1       -2 0.81124730E-02 0.93110159E+02</pdfrwt>
<totfact> 0.58156591E+04</totfact>
</mgrwt>
</event>
<event>
 6    1  0.1683416E-002  0.1015354E+03  0.7546771E-02  0.1323855E+00
          2   -1    0    0  501    0  0.00000000000E+00  0.00000000000E+00  0.13197178964E+02  0.13197178964E+02  0.00000000000E+00 0. -1.
         -2   -1    0    0    0  501 -0.00000000000E+00 -0.00000000000E+00 -0.40756267090E+03  0.40756267090E+03  0.00000000000E+00 0.  1.
         23    2    1    2    0    0 -0.30004137125E+02  0.30658768247E+02 -0.30841967873E+03  0.32470314202E+03  0.92028386337E+02 0.  0.
         13    1    3    3    0    0 -0.92485969451E+01  0.26550879739E+02 -0.30095707488E+03  0.30226750848E+03  0.00000000000E+00 0.  1.
        -13    1    3    3    0    0 -0.20755540180E+02  0.41078885076E+01 -0.74626038527E+01  0.22435633541E+02  0.00000000000E+00 0. -1.
         22    1    1    2    0    0  0.30004137125E+02 -0.30658768247E+02 -0.85945813202E+02  0.96056707845E+02  0.00000000000E+00 0. -1.
<mgrwt>
<rscale>  0 0.81859937E+02</rscale>
<asrwt>0</asrwt>
<pdfrwt beam="1">  1        2 0.20303355E-02 0.10153537E+03</pdfrwt>
<pdfrwt beam="2">  1       -2 0.62701940E-01 0.10153537E+03</pdfrwt>
<totfact> 0.11683600E+04</totfact>
</mgrwt>
</event>
<event>
 6    1  0.1683416E-002  0.9106018E+02  0.7546771E-02  0.1419411E+00
          1   -1    0    0  501    0  0.00000000000E+00  0.00000000000E+00  0.13360255520E+03  0.13360255520E+03  0.00000000000E+00 0. -1.
         -1   -1    0    0    0  501 -0.00000000000E+00 -0.00000000000E+00 -0.31344640147E+02  0.31344640147E+02  0.00000000000E+00 0.  1.
         23    2    1    2    0    0  0.87534864460E+01 -0.85667644332E+01  0.36573158056E+02  0.98130279229E+02  0.90232714874E+02 0.  0.
         13    1    3    3    0    0  0.41289864612E+02  0.75786499393E+00  0.47142208847E+02  0.62672283619E+02  0.00000000000E+00 0. -1.
        -13    1    3    3    0    0 -0.32536378166E+02 -0.93246294271E+01 -0.10569050791E+02  0.35457995611E+02  0.00000000000E+00 0.  1.
         22    1    1    2    0    0 -0.87534864460E+01  0.85667644332E+01  0.65684756993E+02  0.66816916114E+02  0.00000000000E+00 0. -1.
<mgrwt>
<rscale>  0 0.55145804E+02</rscale>
<asrwt>0</asrwt>
<pdfrwt beam="1">  1        1 0.20554239E-01 0.91060177E+02</pdfrwt>
<pdfrwt beam="2">  1       -1 0.48222524E-02 0.91060177E+02</pdfrwt>
<totfact> 0.39864902E+04</totfact>
</mgrwt>
</event>
<event>
 6    1  0.1683416E-002  0.8706754E+02  0.7546771E-02  0.1427813E+00
         -2   -1    0    0    0  501 -0.00000000000E+00  0.00000000000E+00  0.25206830709E+02  0.25206830709E+02  0.00000000000E+00 0.  1.
          2   -1    0    0  501    0  0.00000000000E+00 -0.00000000000E+00 -0.13985699177E+03  0.13985699177E+03  0.00000000000E+00 0. -1.
         23    2    1    2    0    0  0.12060413439E+02 -0.25204062809E+01 -0.52428831372E+02  0.10163433495E+03  0.86191354909E+02 0.  0.
         11    1    3    3    0    0  0.48905632329E+02 -0.16588132549E+01 -0.21204995732E+02  0.53330707654E+02  0.00000000000E+00 0.  1.
        -11    1    3    3    0    0 -0.36845218890E+02 -0.86159302601E+00 -0.31223835640E+02  0.48303627293E+02  0.00000000000E+00 0. -1.
         22    1    1    2    0    0 -0.12060413439E+02  0.25204062809E+01 -0.62221329686E+02  0.63429487528E+02  0.00000000000E+00 0.  1.
<mgrwt>
<rscale>  0 0.53401482E+02</rscale>
<asrwt>0</asrwt>
<pdfrwt beam="1">  1        2 0.21516461E-01 0.87067535E+02</pdfrwt>
<pdfrwt beam="2">  1       -2 0.38779739E-02 0.87067535E+02</pdfrwt>
<totfact> 0.62900058E+04</totfact>
</mgrwt>
</event>
<event>
 6    1  0.1683416E-002  0.9592975E+02  0.7546771E-02  0.1379328E+00
         -2   -1    0    0    0  501 -0.00000000000E+00  0.00000000000E+00  0.27884118074E+03  0.27884118074E+03  0.00000000000E+00 0.  1.
          2   -1    0    0  501    0  0.00000000000E+00 -0.00000000000E+00 -0.17297072392E+02  0.17297072392E+02  0.00000000000E+00 0. -1.
         23    2    1    2    0    0 -0.17329548074E+02 -0.95301675423E+01  0.25900418080E+03  0.27619863022E+03  0.93868952997E+02 0.  0.
         13    1    3    3    0    0 -0.22735790864E+02  0.28040597134E+02  0.21532882056E+03  0.21833390080E+03  0.00000000000E+00 0. -1.
        -13    1    3    3    0    0  0.54062427896E+01 -0.37570764676E+02  0.43675360233E+02  0.57864729421E+02  0.00000000000E+00 0.  1.
         22    1    1    2    0    0  0.17329548074E+02  0.95301675423E+01  0.25399275516E+01  0.19939622910E+02  0.00000000000E+00 0. -1.
<mgrwt>
<rscale>  0 0.64640716E+02</rscale>
<asrwt>0</asrwt>
<pdfrwt beam="1">  1        2 0.26610883E-02 0.95929754E+02</pdfrwt>
<pdfrwt beam="2">  1       -2 0.42898640E-01 0.95929754E+02</pdfrwt>
<totfact> 0.17105711E+04</totfact>
</mgrwt>
</event>
<event>
 6    1  0.1683416E-002  0.1008311E+03  0.7546771E-02  0.1318437E+00
         -1   -1    0    0    0  501 -0.00000000000E+00  0.00000000000E+00  0.35406882246E+03  0.35406882246E+03  0.00000000000E+00 0.  1.
          1   -1    0    0  501    0  0.00000000000E+00 -0.00000000000E+00 -0.15701455770E+02  0.15701455770E+02  0.00000000000E+00 0. -1.
         23    2    1    2    0    0 -0.30474117647E+02 -0.37404366803E+02  0.22458312160E+03  0.24617977320E+03  0.88538939024E+02 0.  0.
         13    1    3    3    0    0 -0.57172081613E+02 -0.46503455161E+01  0.11008425948E+03  0.12413225534E+03  0.00000000000E+00 0. -1.
        -13    1    3    3    0    0  0.26697963967E+02 -0.32754021287E+02  0.11449886212E+03  0.12204751787E+03  0.00000000000E+00 0.  1.
         22    1    1    2    0    0  0.30474117647E+02  0.37404366803E+02  0.11378424508E+03  0.12359050502E+03  0.00000000000E+00 0.  1.
<mgrwt>
<rscale>  0 0.83861569E+02</rscale>
<asrwt>0</asrwt>
<pdfrwt beam="1">  1        1 0.24156088E-02 0.10083106E+03</pdfrwt>
<pdfrwt beam="2">  1       -1 0.54472121E-01 0.10083106E+03</pdfrwt>
<totfact> 0.14667311E+04</totfact>
</mgrwt>
</event>
<event>
 6    1  0.1683416E-002  0.9197729E+02  0.7546771E-02  0.1430130E+00
         -2   -1    0    0    0  501 -0.00000000000E+00  0.00000000000E+00  0.78660376158E+02  0.78660376158E+02  0.00000000000E+00 0.  1.
          2   -1    0    0  501    0  0.00000000000E+00 -0.00000000000E+00 -0.38173221217E+02  0.38173221217E+02  0.00000000000E+00 0. -1.
         23    2    1    2    0    0 -0.43848031730E+01 -0.90875808244E+01  0.48470343562E+02  0.10396728770E+03  0.91422164065E+02 0.  0.
         13    1    3    3    0    0 -0.18612737947E+02  0.36697077995E+02  0.35383656362E+02  0.54268892423E+02  0.00000000000E+00 0.  1.
        -13    1    3    3    0    0  0.14227934774E+02 -0.45784658820E+02  0.13086687201E+02  0.49698395276E+02  0.00000000000E+00 0. -1.
         22    1    1    2    0    0  0.43848031730E+01  0.90875808244E+01 -0.79831886218E+01  0.12866309676E+02  0.00000000000E+00 0.  1.
<mgrwt>
<rscale>  0 0.52933988E+02</rscale>
<asrwt>0</asrwt>
<pdfrwt beam="1">  1        2 0.58728033E-02 0.91977295E+02</pdfrwt>
<pdfrwt beam="2">  1       -2 0.12101596E-01 0.91977295E+02</pdfrwt>
<totfact> 0.53211565E+04</totfact>
</mgrwt>
</event>
<event>
 6    1  0.1683416E-002  0.9262737E+02  0.7546771E-02  0.1384796E+00
         -2   -1    0    0    0  501 -0.00000000000E+00  0.00000000000E+00  0.11599574289E+02  0.11599574289E+02  0.00000000000E+00 0.  1.
          2   -1    0    0  501    0  0.00000000000E+00 -0.00000000000E+00 -0.30889038169E+03  0.30889038169E+03  0.00000000000E+00 0. -1.
         23    2    1    2    0    0  0.18863778063E+02  0.69398254409E+01 -0.19051847182E+03  0.21184219970E+03  0.90420275199E+02 0.  0.
         13    1    3    3    0    0  0.44737171024E+02  0.10314845539E+02 -0.17619181354E+03  0.18207516489E+03  0.00000000000E+00 0. -1.
        -13    1    3    3    0    0 -0.25873392961E+02 -0.33750200977E+01 -0.14326658283E+02  0.29767034812E+02  0.00000000000E+00 0.  1.
         22    1    1    2    0    0 -0.18863778063E+02 -0.69398254409E+01 -0.10677233557E+03  0.10864775628E+03  0.00000000000E+00 0. -1.
<mgrwt>
<rscale>  0 0.63219726E+02</rscale>
<asrwt>0</asrwt>
<pdfrwt beam="1">  1        2 0.47521594E-01 0.92627369E+02</pdfrwt>
<pdfrwt beam="2">  1       -2 0.17845500E-02 0.92627369E+02</pdfrwt>
<totfact> 0.83818082E+04</totfact>
</mgrwt>
</event>
<event>
 6    1  0.1683416E-002  0.1138585E+03  0.7546771E-02  0.1277659E+00
         -1   -1    0    0    0  501 -0.00000000000E+00  0.00000000000E+00  0.35781057458E+02  0.35781057458E+02  0.00000000000E+00 0.  1.
          1   -1    0    0  501    0  0.00000000000E+00 -0.00000000000E+00 -0.29194497283E+03  0.29194497283E+03  0.00000000000E+00 0. -1.
         23    2    1    2    0    0  0.58774120055E+02 -0.40262088731E+02 -0.84264058451E+02  0.14164810633E+03  0.88816223190E+02 0.  0.
         11    1    3    3    0    0  0.25924181412E+02 -0.42825927871E+02 -0.94672467785E+02  0.10709341453E+03  0.00000000000E+00 0. -1.
        -11    1    3    3    0    0  0.32849938642E+02  0.25638391399E+01  0.10408409334E+02  0.34554691792E+02  0.00000000000E+00 0.  1.
         22    1    1    2    0    0 -0.58774120055E+02  0.40262088731E+02 -0.17189985692E+03  0.18607792396E+03  0.00000000000E+00 0.  1.
<mgrwt>
<rscale>  0 0.10126472E+03</rscale>
<asrwt>0</asrwt>
<pdfrwt beam="1">  1        1 0.44914611E-01 0.11385848E+03</pdfrwt>
<pdfrwt beam="2">  1       -1 0.55047780E-02 0.11385848E+03</pdfrwt>
<totfact> 0.12801137E+04</totfact>
</mgrwt>
</event>
<event>
 6    1  0.1683416E-002  0.1500438E+03  0.7546771E-02  0.1211187E+00
         -2   -1    0    0    0  501 -0.00000000000E+00  0.00000000000E+00  0.15937474266E+04  0.15937474266E+04  0.00000000000E+00 0.  1.
          2   -1    0    0  501    0  0.00000000000E+00 -0.00000000000E+00 -0.21307050323E+02  0.21307050323E+02  0.00000000000E+00 0. -1.
         23    2    1    2    0    0  0.80081663776E+02 -0.88060448272E+02  0.13844054538E+04  0.13925126887E+04  0.91353228495E+02 0.  0.
         13    1    3    3    0    0  0.25693786342E+01  0.91703877844E+01  0.42200540283E+03  0.42211284953E+03  0.00000000000E+00 0. -1.
        -13    1    3    3    0    0  0.77512285142E+02 -0.97230836056E+02  0.96240005092E+03  0.97039983916E+03  0.00000000000E+00 0.  1.
         22    1    1    2    0    0 -0.80081663776E+02  0.88060448272E+02  0.18803492255E+03  0.22254178825E+03  0.00000000000E+00 0. -1.
<mgrwt>
<rscale>  0 0.14160413E+03</rscale>
<asrwt>0</asrwt>
<pdfrwt beam="1">  1        2 0.32780090E-02 0.15004375E+03</pdfrwt>
<pdfrwt beam="2">  1       -2 0.24519182E+00 0.15004375E+03</pdfrwt>
<totfact> 0.21169968E+02</totfact>
</mgrwt>
</event>
<event>
 6    1  0.1683416E-002  0.9797848E+02  0.7546771E-02  0.1336500E+00
          2   -1    0    0  501    0  0.00000000000E+00  0.00000000000E+00  0.64346452138E+03  0.64346452138E+03  0.00000000000E+00 0. -1.
         -2   -1    0    0    0  501 -0.00000000000E+00 -0.00000000000E+00 -0.72547165821E+01  0.72547165821E+01  0.00000000000E+00 0.  1.
         23    2    1    2    0    0 -0.19600913746E+02 -0.32812131719E+02  0.43307337975E+03  0.44401839377E+03  0.90216129113E+02 0.  0.
         11    1    3    3    0    0 -0.35230969179E+02 -0.30794982456E+02  0.98244295519E+02  0.10881862771E+03  0.00000000000E+00 0.  1.
        -11    1    3    3    0    0  0.15630055432E+02 -0.20171492633E+01  0.33482908423E+03  0.33519976607E+03  0.00000000000E+00 0. -1.
         22    1    1    2    0    0  0.19600913746E+02  0.32812131719E+02  0.20313642505E+03  0.20670084419E+03  0.00000000000E+00 0. -1.
<mgrwt>
<rscale>  0 0.77432456E+02</rscale>
<asrwt>0</asrwt>
<pdfrwt beam="1">  1        2 0.98994497E-01 0.97978476E+02</pdfrwt>
<pdfrwt beam="2">  1       -2 0.11161108E-02 0.97978476E+02</pdfrwt>
<totfact> 0.74941426E+04</totfact>
</mgrwt>
</event>
<event>
 6    1  0.1683416E-002  0.9318659E+02  0.7546771E-02  0.1387198E+00
         -2   -1    0    0    0  501 -0.00000000000E+00  0.00000000000E+00  0.22544861663E+02  0.22544861663E+02  0.00000000000E+00 0.  1.
          2   -1    0    0  501    0  0.00000000000E+00 -0.00000000000E+00 -0.15024582728E+03  0.15024582728E+03  0.00000000000E+00 0. -1.
         23    2    1    2    0    0 -0.75587996080E+01  0.17419036801E+02 -0.12084697177E+03  0.15260317978E+03  0.91231472628E+02 0.  0.
         13    1    3    3    0    0  0.24779977944E+02  0.43394872875E+02 -0.80423964914E+02  0.94684615600E+02  0.00000000000E+00 0. -1.
        -13    1    3    3    0    0 -0.32338777552E+02 -0.25975836073E+02 -0.40423006856E+02  0.57918564178E+02  0.00000000000E+00 0.  1.
         22    1    1    2    0    0  0.75587996080E+01 -0.17419036801E+02 -0.68539938459E+01  0.20187509164E+02  0.00000000000E+00 0.  1.
<mgrwt>
<rscale>  0 0.62609032E+02</rscale>
<asrwt>0</asrwt>
<pdfrwt beam="1">  1        2 0.23114743E-01 0.93186586E+02</pdfrwt>
<pdfrwt beam="2">  1       -2 0.34684402E-02 0.93186586E+02</pdfrwt>
<totfact> 0.69116301E+04</totfact>
</mgrwt>
</event>
<event>
 6    1  0.1683416E-002  0.9402735E+02  0.7546771E-02  0.1426269E+00
          1   -1    0    0  501    0  0.00000000000E+00  0.00000000000E+00  0.28315986081E+03  0.28315986081E+03  0.00000000000E+00 0. -1.
         -1   -1    0    0    0  501 -0.00000000000E+00 -0.00000000000E+00 -0.96631414169E+01  0.96631414169E+01  0.00000000000E+00 0.  1.
         23    2    1    2    0    0 -0.80631228164E+00 -0.99827226919E+01  0.23682322980E+03  0.25480656196E+03  0.93492443287E+02 0.  0.
         13    1    3    3    0    0  0.27883698923E+02 -0.40788817936E+02  0.98153007790E+02  0.10988740270E+03  0.00000000000E+00 0.  1.
        -13    1    3    3    0    0 -0.28690011205E+02  0.30806095244E+02  0.13867022202E+03  0.14491915926E+03  0.00000000000E+00 0. -1.
         22    1    1    2    0    0  0.80631228164E+00  0.99827226919E+01  0.36673489584E+02  0.38016440260E+02  0.00000000000E+00 0. -1.
<mgrwt>
<rscale>  0 0.53716276E+02</rscale>
<asrwt>0</asrwt>
<pdfrwt beam="1">  1        1 0.43563049E-01 0.94027346E+02</pdfrwt>
<pdfrwt beam="2">  1       -1 0.14866374E-02 0.94027346E+02</pdfrwt>
<totfact> 0.86224633E+04</totfact>
</mgrwt>
</event>
<event>
 6    1  0.1683416E-002  0.9152169E+02  0.7546771E-02  0.1405023E+00
         -2   -1    0    0    0  501 -0.00000000000E+00  0.00000000000E+00  0.13717078380E+02  0.13717078380E+02  0.00000000000E+00 0.  1.
          2   -1    0    0  501    0  0.00000000000E+00 -0.00000000000E+00 -0.23970287190E+03  0.23970287190E+03  0.00000000000E+00 0. -1.
         23    2    1    2    0    0  0.14765900688E+02  0.31092352821E+01 -0.14818637667E+03  0.17417066997E+03  0.90269157969E+02 0.  0.
         13    1    3    3    0    0 -0.16573412494E+02  0.10606022852E+01 -0.14097155669E+03  0.14194640776E+03  0.00000000000E+00 0. -1.
        -13    1    3    3    0    0  0.31339313182E+02  0.20486329969E+01 -0.72148199760E+01  0.32224262213E+02  0.00000000000E+00 0.  1.
         22    1    1    2    0    0 -0.14765900688E+02 -0.31092352821E+01 -0.77799416857E+02  0.79249280315E+02  0.00000000000E+00 0. -1.
<mgrwt>
<rscale>  0 0.58319422E+02</rscale>
<asrwt>0</asrwt>
<pdfrwt beam="1">  1        2 0.36877361E-01 0.91521692E+02</pdfrwt>
<pdfrwt beam="2">  1       -2 0.21103199E-02 0.91521692E+02</pdfrwt>
<totfact> 0.85794076E+04</totfact>
</mgrwt>
</event>
<event>
 6    1  0.1683416E-002  0.9544167E+02  0.7546771E-02  0.1408077E+00
         -2   -1    0    0    0  501 -0.00000000000E+00  0.00000000000E+00  0.27686340617E+02  0.27686340617E+02  0.00000000000E+00 0.  1.
          2   -1    0    0  501    0  0.00000000000E+00 -0.00000000000E+00 -0.10618934789E+03  0.10618934789E+03  0.00000000000E+00 0. -1.
         23    2    1    2    0    0 -0.12343291283E+02  0.29174234569E+01 -0.65805995457E+02  0.11592903677E+03  0.94595160182E+02 0.  0.
         11    1    3    3    0    0 -0.75302537364E+01  0.46478828769E+02 -0.51609087965E+02  0.69860462392E+02  0.00000000000E+00 0. -1.
        -11    1    3    3    0    0 -0.48130375469E+01 -0.43561405312E+02 -0.14196907492E+02  0.46068574381E+02  0.00000000000E+00 0.  1.
         22    1    1    2    0    0  0.12343291283E+02 -0.29174234569E+01 -0.12697011814E+02  0.17946651731E+02  0.00000000000E+00 0. -1.
<mgrwt>
<rscale>  0 0.57625181E+02</rscale>
<asrwt>0</asrwt>
<pdfrwt beam="1">  1        2 0.16336823E-01 0.95441671E+02</pdfrwt>
<pdfrwt beam="2">  1       -2 0.42594370E-02 0.95441671E+02</pdfrwt>
<totfact> 0.75705707E+04</totfact>
</mgrwt>
</event>
<event>
 6    1  0.1683416E-002  0.1036754E+03  0.7546771E-02  0.1355063E+00
          2   -1    0    0  501    0  0.00000000000E+00  0.00000000000E+00  0.61437615084E+02  0.61437615084E+02  0.00000000000E+00 0.  1.
         -2   -1    0    0    0  501 -0.00000000000E+00 -0.00000000000E+00 -0.65853184163E+02  0.65853184163E+02  0.00000000000E+00 0. -1.
         23    2    1    2    0    0  0.23453659034E+02 -0.10550428283E+00 -0.54030095123E+01  0.10381612583E+03  0.10098767359E+03 0.  0.
         11    1    3    3    0    0 -0.18432899973E+02  0.30343858330E+02  0.25316301383E+02  0.43605465890E+02  0.00000000000E+00 0.  1.
        -11    1    3    3    0    0  0.41886559007E+02 -0.30449362613E+02 -0.30719310895E+02  0.60210659943E+02  0.00000000000E+00 0. -1.
         22    1    1    2    0    0 -0.23453659034E+02  0.10550428283E+00  0.98744043306E+00  0.23474673413E+02  0.00000000000E+00 0.  1.
<mgrwt>
<rscale>  0 0.71500758E+02</rscale>
<asrwt>0</asrwt>
<pdfrwt beam="1">  1        2 0.94519408E-02 0.10367543E+03</pdfrwt>
<pdfrwt beam="2">  1       -2 0.10131259E-01 0.10367543E+03</pdfrwt>
<totfact> 0.39437231E+04</totfact>
</mgrwt>
</event>
<event>
 6    1  0.1683416E-002  0.9131953E+02  0.7546771E-02  0.1384459E+00
         -1   -1    0    0    0  501 -0.00000000000E+00  0.00000000000E+00  0.44022873334E+02  0.44022873334E+02  0.00000000000E+00 0.  1.
          1   -1    0    0  501    0  0.00000000000E+00 -0.00000000000E+00 -0.72823536290E+02  0.72823536290E+02  0.00000000000E+00 0. -1.
         23    2    1    2    0    0  0.17680748313E+02 -0.11497938211E+02 -0.17722413069E+02  0.93023331222E+02  0.88850688138E+02 0.  0.
         11    1    3    3    0    0 -0.34930602481E+02 -0.18793072051E+01 -0.18421915993E+02  0.39535373707E+02  0.00000000000E+00 0. -1.
        -11    1    3    3    0    0  0.52611350794E+02 -0.96186310059E+01  0.69950292349E+00  0.53487957515E+02  0.00000000000E+00 0.  1.
         22    1    1    2    0    0 -0.17680748313E+02  0.11497938211E+02 -0.11078249886E+02  0.23823078402E+02  0.00000000000E+00 0. -1.
<mgrwt>
<rscale>  0 0.63305980E+02</rscale>
<asrwt>0</asrwt>
<pdfrwt beam="1">  1        1 0.11203621E-01 0.91319528E+02</pdfrwt>
<pdfrwt beam="2">  1       -1 0.67727498E-02 0.91319528E+02</pdfrwt>
<totfact> 0.52542110E+04</totfact>
</mgrwt>
</event>
<event>
 6    1  0.1683416E-002  0.2002471E+03  0.7546771E-02  0.1154495E+00
          2   -1    0    0  501    0  0.00000000000E+00  0.00000000000E+00  0.32569994973E+03  0.32569994973E+03  0.00000000000E+00 0. -1.
         -2   -1    0    0    0  501 -0.00000000000E+00 -0.00000000000E+00 -0.14529068902E+03  0.14529068902E+03  0.00000000000E+00 0.  1.
         23    2    1    2    0    0  0.10217058346E+03 -0.14588021046E+03 -0.21917395060E+02  0.20144298143E+03  0.91537088836E+02 0.  0.
         11    1    3    3    0    0  0.18587561558E+01 -0.12849243014E+02  0.25155688288E+02  0.28308420545E+02  0.00000000000E+00 0. -1.
        -11    1    3    3    0    0  0.10031182731E+03 -0.13303096744E+03 -0.47073083348E+02  0.17313456089E+03  0.00000000000E+00 0.  1.
         22    1    1    2    0    0 -0.10217058346E+03  0.14588021046E+03  0.20232665577E+03  0.26954765732E+03  0.00000000000E+00 0. -1.
<mgrwt>
<rscale>  0 0.19446484E+03</rscale>
<asrwt>0</asrwt>
<pdfrwt beam="1">  1        2 0.50107684E-01 0.20024710E+03</pdfrwt>
<pdfrwt beam="2">  1       -2 0.22352414E-01 0.20024710E+03</pdfrwt>
<totfact> 0.17170123E+03</totfact>
</mgrwt>
</event>
<event>
 6    1  0.1683416E-002  0.1161861E+03  0.7546771E-02  0.1348386E+00
          2   -1    0    0  501    0  0.00000000000E+00  0.00000000000E+00  0.19895892080E+03  0.19895892080E+03  0.00000000000E+00 0. -1.
         -2   -1    0    0    0  501 -0.00000000000E+00 -0.00000000000E+00 -0.24319124680E+02  0.24319124680E+02  0.00000000000E+00 0.  1.
         23    2    1    2    0    0 -0.55390448576E+01 -0.17828721558E+02  0.12709176905E+03  0.17219615819E+03  0.11467630447E+03 0.  0.
         13    1    3    3    0    0  0.34253354860E+02 -0.45739862556E+02  0.10336473564E+03  0.11810883083E+03  0.00000000000E+00 0. -1.
        -13    1    3    3    0    0 -0.39792399718E+02  0.27911140997E+02  0.23727033407E+02  0.54087327364E+02  0.00000000000E+00 0.  1.
         22    1    1    2    0    0  0.55390448576E+01  0.17828721558E+02  0.47548027073E+02  0.51081887288E+02  0.00000000000E+00 0. -1.
<mgrwt>
<rscale>  0 0.73561022E+02</rscale>
<asrwt>0</asrwt>
<pdfrwt beam="1">  1        2 0.30609064E-01 0.11618605E+03</pdfrwt>
<pdfrwt beam="2">  1       -2 0.37414039E-02 0.11618605E+03</pdfrwt>
<totfact> 0.46916899E+04</totfact>
</mgrwt>
</event>
<event>
 6    1  0.1683416E-002  0.1064753E+03  0.7546771E-02  0.1302618E+00
          2   -1    0    0  501    0  0.00000000000E+00  0.00000000000E+00  0.26803569511E+02  0.26803569511E+02  0.00000000000E+00 0. -1.
         -2   -1    0    0    0  501 -0.00000000000E+00 -0.00000000000E+00 -0.38270838018E+03  0.38270838018E+03  0.00000000000E+00 0.  1.
         23    2    1    2    0    0  0.54140715416E+02  0.69620244625E+01 -0.33422922521E+03  0.35077935350E+03  0.91418231261E+02 0.  0.
         11    1    3    3    0    0  0.41003219589E+02 -0.94032208516E+01 -0.32523964127E+03  0.32794894242E+03  0.00000000000E+00 0.  1.
        -11    1    3    3    0    0  0.13137495827E+02  0.16365245314E+02 -0.89895839402E+01  0.22830411083E+02  0.00000000000E+00 0. -1.
         22    1    1    2    0    0 -0.54140715416E+02 -0.69620244625E+01 -0.21675585459E+02  0.58732596191E+02  0.00000000000E+00 0. -1.
<mgrwt>
<rscale>  0 0.90096484E+02</rscale>
<asrwt>0</asrwt>
<pdfrwt beam="1">  1        2 0.41236263E-02 0.10647525E+03</pdfrwt>
<pdfrwt beam="2">  1       -2 0.58878209E-01 0.10647525E+03</pdfrwt>
<totfact> 0.51887259E+03</totfact>
</mgrwt>
</event>
<event>
 6    1  0.1683416E-002  0.9703851E+02  0.7546771E-02  0.1364247E+00
          2   -1    0    0  501    0  0.00000000000E+00  0.00000000000E+00  0.43560262830E+03  0.43560262830E+03  0.00000000000E+00 0. -1.
         -2   -1    0    0    0  501 -0.00000000000E+00 -0.00000000000E+00 -0.85338481248E+01  0.85338481248E+01  0.00000000000E+00 0.  1.
         23    2    1    2    0    0  0.40956930296E+01  0.24165135145E+02  0.32582833144E+03  0.33997142990E+03  0.93892188810E+02 0.  0.
         11    1    3    3    0    0  0.15426889353E+02 -0.55620359251E+00  0.26642355957E+01  0.15665134180E+02  0.00000000000E+00 0.  1.
        -11    1    3    3    0    0 -0.11331196324E+02  0.24721338737E+02  0.32316409585E+03  0.32430629572E+03  0.00000000000E+00 0. -1.
         22    1    1    2    0    0 -0.40956930296E+01 -0.24165135145E+02  0.10124044873E+03  0.10416504652E+03  0.00000000000E+00 0. -1.
<mgrwt>
<rscale>  0 0.68792779E+02</rscale>
<asrwt>0</asrwt>
<pdfrwt beam="1">  1        2 0.67015772E-01 0.97038506E+02</pdfrwt>
<pdfrwt beam="2">  1       -2 0.13129001E-02 0.97038506E+02</pdfrwt>
<totfact> 0.91133501E+04</totfact>
</mgrwt>
</event>
<event>
 6    1  0.1683416E-002  0.9682466E+02  0.7546771E-02  0.1328674E+00
          1   -1    0    0  501    0  0.00000000000E+00  0.00000000000E+00  0.87060099748E+02  0.87060099748E+02  0.00000000000E+00 0. -1.
         -1   -1    0    0    0  501 -0.00000000000E+00 -0.00000000000E+00 -0.58106238858E+02  0.58106238858E+02  0.00000000000E+00 0.  1.
         23    2    1    2    0    0 -0.10738505224E+02  0.44136770948E+02  0.19900138430E+02  0.98848524166E+02  0.85508158536E+02 0.  0.
         13    1    3    3    0    0  0.12860320699E+02  0.32208563369E+02 -0.27707751967E+02  0.44390302114E+02  0.00000000000E+00 0.  1.
        -13    1    3    3    0    0 -0.23598825923E+02  0.11928207579E+02  0.47607890397E+02  0.54458222052E+02  0.00000000000E+00 0. -1.
         22    1    1    2    0    0  0.10738505224E+02 -0.44136770948E+02  0.90537224599E+01  0.46317814440E+02  0.00000000000E+00 0. -1.
<mgrwt>
<rscale>  0 0.80133043E+02</rscale>
<asrwt>0</asrwt>
<pdfrwt beam="1">  1        1 0.13393861E-01 0.96824662E+02</pdfrwt>
<pdfrwt beam="2">  1       -1 0.89394214E-02 0.96824662E+02</pdfrwt>
<totfact> 0.27762255E+04</totfact>
</mgrwt>
</event>
<event>
 6    1  0.1683416E-002  0.9616583E+02  0.7546771E-02  0.1342601E+00
         -2   -1    0    0    0  501 -0.00000000000E+00  0.00000000000E+00  0.54730857678E+02  0.54730857678E+02  0.00000000000E+00 0.  1.
          2   -1    0    0  501    0  0.00000000000E+00 -0.00000000000E+00 -0.81233879219E+02  0.81233879219E+02  0.00000000000E+00 0. -1.
         23    2    1    2    0    0 -0.29495843889E+02  0.21271333444E+02 -0.12408502904E+02  0.96963071692E+02  0.89024670144E+02 0.  0.
         11    1    3    3    0    0  0.15650390767E+02 -0.14922089938E+02 -0.29547485459E+02  0.36614988683E+02  0.00000000000E+00 0. -1.
        -11    1    3    3    0    0 -0.45146234656E+02  0.36193423383E+02  0.17138982555E+02  0.60348083008E+02  0.00000000000E+00 0.  1.
         22    1    1    2    0    0  0.29495843889E+02 -0.21271333444E+02 -0.14094518637E+02  0.39001665206E+02  0.00000000000E+00 0. -1.
<mgrwt>
<rscale>  0 0.75411745E+02</rscale>
<asrwt>0</asrwt>
<pdfrwt beam="1">  1        2 0.12497520E-01 0.96165827E+02</pdfrwt>
<pdfrwt beam="2">  1       -2 0.84201320E-02 0.96165827E+02</pdfrwt>
<totfact> 0.37161477E+04</totfact>
</mgrwt>
</event>
<event>
 6    1  0.1683416E-002  0.1696170E+03  0.7546771E-02  0.1185249E+00
         -2   -1    0    0    0  501 -0.00000000000E+00  0.00000000000E+00  0.19525475961E+03  0.19525475961E+03  0.00000000000E+00 0.  1.
          2   -1    0    0  501    0  0.00000000000E+00 -0.00000000000E+00 -0.16471443507E+03  0.16471443507E+03  0.00000000000E+00 0. -1.
         23    2    1    2    0    0  0.14253162556E+03  0.26573239522E+02  0.10242106923E+03  0.19814137630E+03  0.88025724844E+02 0.  0.
         11    1    3    3    0    0 -0.11542561372E+02  0.38398955932E+01  0.82737549896E+00  0.12192623648E+02  0.00000000000E+00 0. -1.
        -11    1    3    3    0    0  0.15407418694E+03  0.22733343929E+02  0.10159369373E+03  0.18594875265E+03  0.00000000000E+00 0.  1.
         22    1    1    2    0    0 -0.14253162556E+03 -0.26573239522E+02 -0.71880744692E+02  0.16182781838E+03  0.00000000000E+00 0. -1.
<mgrwt>
<rscale>  0 0.16309279E+03</rscale>
<asrwt>0</asrwt>
<pdfrwt beam="1">  1        2 0.25340682E-01 0.16961701E+03</pdfrwt>
<pdfrwt beam="2">  1       -2 0.30039194E-01 0.16961701E+03</pdfrwt>
<totfact> 0.21193180E+03</totfact>
</mgrwt>
</event>
<event>
 6    1  0.1683416E-002  0.9174040E+02  0.7546771E-02  0.1410455E+00
         -2   -1    0    0    0  501 -0.00000000000E+00  0.00000000000E+00  0.10937339638E+02  0.10937339638E+02  0.00000000000E+00 0.  1.
          2   -1    0    0  501    0  0.00000000000E+00 -0.00000000000E+00 -0.26970677730E+03  0.26970677730E+03  0.00000000000E+00 0. -1.
         23    2    1    2    0    0 -0.12280802294E+02 -0.62073035012E+01 -0.19633349763E+03  0.21670981214E+03  0.90702544982E+02 0.  0.
         11    1    3    3    0    0  0.30909468784E+02  0.63202569292E+01 -0.14531701921E+03  0.14870230994E+03  0.00000000000E+00 0. -1.
        -11    1    3    3    0    0 -0.43190271079E+02 -0.12527560430E+02 -0.51016478420E+02  0.68007502208E+02  0.00000000000E+00 0.  1.
         22    1    1    2    0    0  0.12280802294E+02  0.62073035012E+01 -0.62435940029E+02  0.63934304791E+02  0.00000000000E+00 0. -1.
<mgrwt>
<rscale>  0 0.57092394E+02</rscale>
<asrwt>0</asrwt>
<pdfrwt beam="1">  1        2 0.41493353E-01 0.91740397E+02</pdfrwt>
<pdfrwt beam="2">  1       -2 0.16826675E-02 0.91740397E+02</pdfrwt>
<totfact> 0.10492722E+05</totfact>
</mgrwt>
</event>
<event>
 6    1  0.1683416E-002  0.9233050E+02  0.7546771E-02  0.1403626E+00
          2   -1    0    0  501    0  0.00000000000E+00  0.00000000000E+00  0.50178219439E+03  0.50178219439E+03  0.00000000000E+00 0.  1.
         -2   -1    0    0    0  501 -0.00000000000E+00 -0.00000000000E+00 -0.59381785272E+01  0.59381785272E+01  0.00000000000E+00 0. -1.
         23    2    1    2    0    0  0.14189158624E+02  0.49360738371E+01  0.45314013611E+03  0.46245097494E+03  0.91100078049E+02 0.  0.
         13    1    3    3    0    0  0.43646831823E+02  0.30011004736E+02  0.28897563776E+03  0.29379010458E+03  0.00000000000E+00 0. -1.
        -13    1    3    3    0    0 -0.29457673198E+02 -0.25074930899E+02  0.16416449835E+03  0.16866087036E+03  0.00000000000E+00 0.  1.
         22    1    1    2    0    0 -0.14189158624E+02 -0.49360738371E+01  0.42703879749E+02  0.45269397975E+02  0.00000000000E+00 0. -1.
<mgrwt>
<rscale>  0 0.58640765E+02</rscale>
<asrwt>0</asrwt>
<pdfrwt beam="1">  1        2 0.77197227E-01 0.92330500E+02</pdfrwt>
<pdfrwt beam="2">  1       -2 0.91356632E-03 0.92330500E+02</pdfrwt>
<totfact> 0.13008341E+05</totfact>
</mgrwt>
</event>
<event>
 6    1  0.1683416E-002  0.9414810E+02  0.7546771E-02  0.1374178E+00
          4   -1    0    0  501    0  0.00000000000E+00  0.00000000000E+00  0.40722044432E+01  0.40722044432E+01  0.00000000000E+00 0. -1.
         -4   -1    0    0    0  501 -0.00000000000E+00 -0.00000000000E+00 -0.10325471627E+04  0.10325471627E+04  0.00000000000E+00 0.  1.
         23    2    1    2    0    0 -0.21253009994E+02 -0.81556267386E+01 -0.95669063375E+03  0.96131203732E+03  0.91354582218E+02 0.  0.
         11    1    3    3    0    0  0.26860007007E+02 -0.90957055866E+01 -0.12270957681E+03  0.12594376554E+03  0.00000000000E+00 0. -1.
        -11    1    3    3    0    0 -0.48113017001E+02  0.94007884799E+00 -0.83398105694E+03  0.83536827178E+03  0.00000000000E+00 0.  1.
         22    1    1    2    0    0  0.21253009994E+02  0.81556267386E+01 -0.71784324467E+02  0.75307329793E+02  0.00000000000E+00 0. -1.
<mgrwt>
<rscale>  0 0.66019363E+02</rscale>
<asrwt>0</asrwt>
<pdfrwt beam="1">  1        4 0.62649308E-03 0.94148098E+02</pdfrwt>
<pdfrwt beam="2">  1       -4 0.15885339E+00 0.94148098E+02</pdfrwt>
<totfact> 0.24660380E+03</totfact>
</mgrwt>
</event>
<event>
 6    1  0.1683416E-002  0.1447486E+03  0.7546771E-02  0.1218279E+00
         -2   -1    0    0    0  501 -0.00000000000E+00  0.00000000000E+00  0.11955973453E+03  0.11955973453E+03  0.00000000000E+00 0.  1.
          2   -1    0    0  501    0  0.00000000000E+00 -0.00000000000E+00 -0.30527125350E+03  0.30527125350E+03  0.00000000000E+00 0. -1.
         23    2    1    2    0    0 -0.23451421186E+02 -0.11164475511E+03  0.57846456671E+02  0.15587930465E+03  0.89093347502E+02 0.  0.
         13    1    3    3    0    0 -0.40638082615E+02 -0.63021574018E+02 -0.43130394002E+01  0.75111749143E+02  0.00000000000E+00 0. -1.
        -13    1    3    3    0    0  0.17186661429E+02 -0.48623181092E+02  0.62159496072E+02  0.80767555506E+02  0.00000000000E+00 0.  1.
         22    1    1    2    0    0  0.23451421186E+02  0.11164475511E+03 -0.24355797564E+03  0.26895168339E+03  0.00000000000E+00 0. -1.
<mgrwt>
<rscale>  0 0.13638425E+03</rscale>
<asrwt>0</asrwt>
<pdfrwt beam="1">  1        2 0.46964809E-01 0.14474856E+03</pdfrwt>
<pdfrwt beam="2">  1       -2 0.18393805E-01 0.14474856E+03</pdfrwt>
<totfact> 0.25378427E+03</totfact>
</mgrwt>
</event>
<event>
 6    1  0.1683416E-002  0.9817136E+02  0.7546771E-02  0.1408843E+00
         -2   -1    0    0    0  501 -0.00000000000E+00  0.00000000000E+00  0.75102829863E+02  0.75102829863E+02  0.00000000000E+00 0.  1.
          2   -1    0    0  501    0  0.00000000000E+00 -0.00000000000E+00 -0.42249024811E+02  0.42249024811E+02  0.00000000000E+00 0. -1.
         23    2    1    2    0    0 -0.45775622456E+01  0.10566822149E+02  0.37284625857E+02  0.10501313596E+03  0.97493607958E+02 0.  0.
         13    1    3    3    0    0  0.17593781809E+02  0.11900679224E+01 -0.29307443592E+02  0.34203562240E+02  0.00000000000E+00 0. -1.
        -13    1    3    3    0    0 -0.22171344055E+02  0.93767542268E+01  0.66592069450E+02  0.70809573721E+02  0.00000000000E+00 0.  1.
         22    1    1    2    0    0  0.45775622456E+01 -0.10566822149E+02 -0.44308208054E+01  0.12338718712E+02  0.00000000000E+00 0. -1.
<mgrwt>
<rscale>  0 0.57452823E+02</rscale>
<asrwt>0</asrwt>
<pdfrwt beam="1">  1        2 0.64998500E-02 0.98171357E+02</pdfrwt>
<pdfrwt beam="2">  1       -2 0.11554282E-01 0.98171357E+02</pdfrwt>
<totfact> 0.50787516E+04</totfact>
</mgrwt>
</event>
<event>
 6    1  0.1683416E-002  0.9420557E+02  0.7546771E-02  0.1373291E+00
          2   -1    0    0  501    0  0.00000000000E+00  0.00000000000E+00  0.37289169624E+03  0.37289169624E+03  0.00000000000E+00 0. -1.
         -2   -1    0    0    0  501 -0.00000000000E+00 -0.00000000000E+00 -0.92353745258E+01  0.92353745258E+01  0.00000000000E+00 0.  1.
         23    2    1    2    0    0  0.17425614841E+02 -0.15097879388E+02  0.28550627862E+03  0.30064684463E+03  0.91340527934E+02 0.  0.
         11    1    3    3    0    0  0.32306857134E+02  0.16880409781E+02  0.24156947451E+03  0.24430409794E+03  0.00000000000E+00 0. -1.
        -11    1    3    3    0    0 -0.14881242293E+02 -0.31978289169E+02  0.43936804105E+02  0.56342746697E+02  0.00000000000E+00 0.  1.
         22    1    1    2    0    0 -0.17425614841E+02  0.15097879388E+02  0.78150043096E+02  0.81480226132E+02  0.00000000000E+00 0. -1.
<mgrwt>
<rscale>  0 0.66260600E+02</rscale>
<asrwt>0</asrwt>
<pdfrwt beam="1">  1        2 0.57367942E-01 0.94205573E+02</pdfrwt>
<pdfrwt beam="2">  1       -2 0.14208271E-02 0.94205573E+02</pdfrwt>
<totfact> 0.95547460E+04</totfact>
</mgrwt>
</event>
<event>
 6    1  0.1683416E-002  0.8914845E+02  0.7546771E-02  0.1430219E+00
         -2   -1    0    0    0  501 -0.00000000000E+00  0.00000000000E+00  0.58484087540E+02  0.58484087540E+02  0.00000000000E+00 0.  1.
          2   -1    0    0  501    0  0.00000000000E+00 -0.00000000000E+00 -0.69035778978E+02  0.69035778978E+02  0.00000000000E+00 0. -1.
         23    2    1    2    0    0 -0.14579110708E+01  0.10970012661E+02  0.23102173527E+02  0.92093191404E+02  0.88458910229E+02 0.  0.
         13    1    3    3    0    0  0.89328428467E+01  0.23645871880E+02  0.52593996329E+02  0.58352818168E+02  0.00000000000E+00 0.  1.
        -13    1    3    3    0    0 -0.10390753917E+02 -0.12675859219E+02 -0.29491822802E+02  0.33740373236E+02  0.00000000000E+00 0. -1.
         22    1    1    2    0    0  0.14579110708E+01 -0.10970012661E+02 -0.33653864965E+02  0.35426675113E+02  0.00000000000E+00 0. -1.
<mgrwt>
<rscale>  0 0.52916069E+02</rscale>
<asrwt>0</asrwt>
<pdfrwt beam="1">  1        2 0.10620889E-01 0.89148446E+02</pdfrwt>
<pdfrwt beam="2">  1       -2 0.89975520E-02 0.89148446E+02</pdfrwt>
<totfact> 0.40349138E+04</totfact>
</mgrwt>
</event>
<event>
 6    1  0.1683416E-002  0.8241767E+02  0.7546771E-02  0.1435472E+00
          2   -1    0    0  501    0  0.00000000000E+00  0.00000000000E+00  0.17566741664E+03  0.17566741664E+03  0.00000000000E+00 0.  1.
         -2   -1    0    0    0  501 -0.00000000000E+00 -0.00000000000E+00 -0.14399832909E+02  0.14399832909E+02  0.00000000000E+00 0. -1.
         23    2    1    2    0    0  0.12806817797E+02 -0.18326340874E+01  0.11155112513E+03  0.13869508407E+03  0.81395943992E+02 0.  0.
         11    1    3    3    0    0 -0.15959813833E+02 -0.14948119160E+02 -0.89874350609E+00  0.21885375571E+02  0.00000000000E+00 0. -1.
        -11    1    3    3    0    0  0.28766631630E+02  0.13115485072E+02  0.11244986863E+03  0.11680970850E+03  0.00000000000E+00 0.  1.
         22    1    1    2    0    0 -0.12806817797E+02  0.18326340874E+01  0.49716458605E+02  0.51372165479E+02  0.00000000000E+00 0.  1.
<mgrwt>
<rscale>  0 0.51877134E+02</rscale>
<asrwt>0</asrwt>
<pdfrwt beam="1">  1        2 0.27025755E-01 0.82417673E+02</pdfrwt>
<pdfrwt beam="2">  1       -2 0.22153590E-02 0.82417673E+02</pdfrwt>
<totfact> 0.10956550E+05</totfact>
</mgrwt>
</event>
<event>
 6    1  0.1683416E-002  0.9177101E+02  0.7546771E-02  0.1363329E+00
          1   -1    0    0  501    0  0.00000000000E+00  0.00000000000E+00  0.24490150961E+02  0.24490150961E+02  0.00000000000E+00 0. -1.
         -1   -1    0    0    0  501 -0.00000000000E+00 -0.00000000000E+00 -0.15611599500E+03  0.15611599500E+03  0.00000000000E+00 0.  1.
         23    2    1    2    0    0  0.29213931998E+02  0.35198760640E+01 -0.11383728300E+03  0.14622190169E+03  0.86925681952E+02 0.  0.
         13    1    3    3    0    0  0.30598122319E+02 -0.16178829659E+02 -0.42528397336E+01  0.34872428427E+02  0.00000000000E+00 0. -1.
        -13    1    3    3    0    0 -0.13841903207E+01  0.19698705723E+02 -0.10958444327E+03  0.11134947326E+03  0.00000000000E+00 0.  1.
         22    1    1    2    0    0 -0.29213931998E+02 -0.35198760640E+01 -0.17788561041E+02  0.34384244273E+02  0.00000000000E+00 0. -1.
<mgrwt>
<rscale>  0 0.69057211E+02</rscale>
<asrwt>0</asrwt>
<pdfrwt beam="1">  1        1 0.37677155E-02 0.91771006E+02</pdfrwt>
<pdfrwt beam="2">  1       -1 0.24017845E-01 0.91771006E+02</pdfrwt>
<totfact> 0.32149677E+04</totfact>
</mgrwt>
</event>
<event>
 6    1  0.1683416E-002  0.9347433E+02  0.7546771E-02  0.1414653E+00
          2   -1    0    0  501    0  0.00000000000E+00  0.00000000000E+00  0.97105949743E+02  0.97105949743E+02  0.00000000000E+00 0. -1.
         -2   -1    0    0    0  501 -0.00000000000E+00 -0.00000000000E+00 -0.36571018698E+02  0.36571018698E+02  0.00000000000E+00 0.  1.
         23    2    1    2    0    0  0.12158284802E+02  0.83433978394E+00  0.25952777719E+02  0.97010289550E+02  0.92676478111E+02 0.  0.
         13    1    3    3    0    0 -0.25595444741E+01 -0.25965121356E+01 -0.34502576101E+02  0.34694681160E+02  0.00000000000E+00 0.  1.
        -13    1    3    3    0    0  0.14717829276E+02  0.34308519195E+01  0.60455353820E+02  0.62315608390E+02  0.00000000000E+00 0. -1.
         22    1    1    2    0    0 -0.12158284802E+02 -0.83433978394E+00  0.34582153327E+02  0.36666678891E+02  0.00000000000E+00 0. -1.
<mgrwt>
<rscale>  0 0.56168442E+02</rscale>
<asrwt>0</asrwt>
<pdfrwt beam="1">  1        2 0.14939377E-01 0.93474326E+02</pdfrwt>
<pdfrwt beam="2">  1       -2 0.56263106E-02 0.93474326E+02</pdfrwt>
<totfact> 0.55335579E+04</totfact>
</mgrwt>
</event>
<event>
 6    1  0.1683416E-002  0.2289430E+03  0.7546771E-02  0.1130993E+00
         -2   -1    0    0    0  501 -0.00000000000E+00  0.00000000000E+00  0.13072804621E+03  0.13072804621E+03  0.00000000000E+00 0.  1.
          2   -1    0    0  501    0  0.00000000000E+00 -0.00000000000E+00 -0.69117440499E+03  0.69117440499E+03  0.00000000000E+00 0. -1.
         23    2    1    2    0    0 -0.99258114589E+02 -0.18450083828E+03 -0.58107023997E+01  0.22901675904E+03  0.92315648857E+02 0.  0.
         13    1    3    3    0    0 -0.26688795299E+01  0.46876956068E+01  0.14653101653E+02  0.15614441908E+02  0.00000000000E+00 0. -1.
        -13    1    3    3    0    0 -0.96589235060E+02 -0.18918853388E+03 -0.20463804053E+02  0.21340231714E+03  0.00000000000E+00 0.  1.
         22    1    1    2    0    0  0.99258114589E+02  0.18450083828E+03 -0.55463565638E+03  0.59288569216E+03  0.00000000000E+00 0. -1.
<mgrwt>
<rscale>  0 0.22392091E+03</rscale>
<asrwt>0</asrwt>
<pdfrwt beam="1">  1        2 0.10633452E+00 0.22894303E+03</pdfrwt>
<pdfrwt beam="2">  1       -2 0.20112007E-01 0.22894303E+03</pdfrwt>
<totfact> 0.88948667E+02</totfact>
</mgrwt>
</event>
<event>
 6    1  0.1683416E-002  0.9760526E+02  0.7546771E-02  0.1361212E+00
          2   -1    0    0  501    0  0.00000000000E+00  0.00000000000E+00  0.15164342446E+02  0.15164342446E+02  0.00000000000E+00 0. -1.
         -2   -1    0    0    0  501 -0.00000000000E+00 -0.00000000000E+00 -0.33990181527E+03  0.33990181527E+03  0.00000000000E+00 0.  1.
         23    2    1    2    0    0  0.25263585889E+02  0.19729770803E+01 -0.31158655275E+03  0.32651640974E+03  0.94258392547E+02 0.  0.
         11    1    3    3    0    0  0.16861436063E+01 -0.20096367785E+02 -0.87846493580E+01  0.21997207613E+02  0.00000000000E+00 0. -1.
        -11    1    3    3    0    0  0.23577442282E+02  0.22069344866E+02 -0.30280190339E+03  0.30451920213E+03  0.00000000000E+00 0.  1.
         22    1    1    2    0    0 -0.25263585889E+02 -0.19729770803E+01 -0.13150920070E+02  0.28549747971E+02  0.00000000000E+00 0. -1.
<mgrwt>
<rscale>  0 0.69672074E+02</rscale>
<asrwt>0</asrwt>
<pdfrwt beam="1">  1        2 0.23329756E-02 0.97605256E+02</pdfrwt>
<pdfrwt beam="2">  1       -2 0.52292590E-01 0.97605256E+02</pdfrwt>
<totfact> 0.13918169E+04</totfact>
</mgrwt>
</event>
<event>
 6    1  0.1683416E-002  0.9193288E+02  0.7546771E-02  0.1412572E+00
          2   -1    0    0  501    0  0.00000000000E+00  0.00000000000E+00  0.70901738275E+02  0.70901738275E+02  0.00000000000E+00 0.  1.
         -2   -1    0    0    0  501 -0.00000000000E+00 -0.00000000000E+00 -0.69118254785E+02  0.69118254785E+02  0.00000000000E+00 0. -1.
         23    2    1    2    0    0 -0.13220214478E+02 -0.53076487966E+00 -0.36956467766E+02  0.99082973073E+02  0.90975816902E+02 0.  0.
         13    1    3    3    0    0 -0.35347781571E+02  0.34181450087E+02 -0.10902553600E+02  0.50365691368E+02  0.00000000000E+00 0. -1.
        -13    1    3    3    0    0  0.22127567093E+02 -0.34712214966E+02 -0.26053914166E+02  0.48717281704E+02  0.00000000000E+00 0.  1.
         22    1    1    2    0    0  0.13220214478E+02  0.53076487966E+00  0.38739951255E+02  0.40937019988E+02  0.00000000000E+00 0.  1.
<mgrwt>
<rscale>  0 0.56623957E+02</rscale>
<asrwt>0</asrwt>
<pdfrwt beam="1">  1        2 0.10907960E-01 0.91932883E+02</pdfrwt>
<pdfrwt beam="2">  1       -2 0.10633578E-01 0.91932883E+02</pdfrwt>
<totfact> 0.30271102E+04</totfact>
</mgrwt>
</event>
<event>
 6    1  0.1683416E-002  0.9169569E+02  0.7546771E-02  0.1398228E+00
         -4   -1    0    0    0  501 -0.00000000000E+00  0.00000000000E+00  0.71285430681E+02  0.71285430681E+02  0.00000000000E+00 0. -1.
          4   -1    0    0  501    0  0.00000000000E+00 -0.00000000000E+00 -0.42263614122E+02  0.42263614122E+02  0.00000000000E+00 0.  1.
         23    2    1    2    0    0  0.15236507225E+02  0.68468754260E+01  0.30847448901E+02  0.96745361011E+02  0.90161349358E+02 0.  0.
         13    1    3    3    0    0  0.25040907447E+02  0.24605649538E+02  0.54971881989E+02  0.65225706929E+02  0.00000000000E+00 0. -1.
        -13    1    3    3    0    0 -0.98044002211E+01 -0.17758774112E+02 -0.24124433088E+02  0.31519654082E+02  0.00000000000E+00 0.  1.
         22    1    1    2    0    0 -0.15236507225E+02 -0.68468754260E+01 -0.18256323426E+01  0.16803683792E+02  0.00000000000E+00 0.  1.
<mgrwt>
<rscale>  0 0.59905711E+02</rscale>
<asrwt>0</asrwt>
<pdfrwt beam="1">  1        4 0.65020945E-02 0.91695691E+02</pdfrwt>
<pdfrwt beam="2">  1       -4 0.10966989E-01 0.91695691E+02</pdfrwt>
<totfact> 0.14610666E+04</totfact>
</mgrwt>
</event>
<event>
 6    1  0.1683416E-002  0.9428735E+02  0.7546771E-02  0.1370852E+00
          2   -1    0    0  501    0  0.00000000000E+00  0.00000000000E+00  0.66056607294E+02  0.66056607294E+02  0.00000000000E+00 0. -1.
         -2   -1    0    0    0  501 -0.00000000000E+00 -0.00000000000E+00 -0.47646747540E+03  0.47646747540E+03  0.00000000000E+00 0.  1.
         23    2    1    2    0    0  0.90945203155E+01 -0.22146479313E+02 -0.46944495358E+03  0.47882007894E+03  0.91197185891E+02 0.  0.
         11    1    3    3    0    0  0.40969460596E+01  0.26274677340E+01 -0.43995612188E+03  0.43998304255E+03  0.00000000000E+00 0.  1.
        -11    1    3    3    0    0  0.49975742559E+01 -0.24773947047E+02 -0.29488831694E+02  0.38837036388E+02  0.00000000000E+00 0. -1.
         22    1    1    2    0    0 -0.90945203155E+01  0.22146479313E+02  0.59034085474E+02  0.63704003748E+02  0.00000000000E+00 0. -1.
<mgrwt>
<rscale>  0 0.66930819E+02</rscale>
<asrwt>0</asrwt>
<pdfrwt beam="1">  1        2 0.10162555E-01 0.94287346E+02</pdfrwt>
<pdfrwt beam="2">  1       -2 0.73302690E-01 0.94287346E+02</pdfrwt>
<totfact> 0.10407693E+03</totfact>
</mgrwt>
</event>
